
     Program PWSCF v.5.1 starts on 18Aug2017 at 20: 5: 4 

     This program is part of the open-source Quantum ESPRESSO suite
     for quantum simulation of materials; please cite
         "P. Giannozzi et al., J. Phys.:Condens. Matter 21 395502 (2009);
          URL http://www.quantum-espresso.org", 
     in publications or presentations arising from this work. More details at
     http://www.quantum-espresso.org/quote

     Parallel version (MPI), running on     8 processors
     R & G space division:  proc/nbgrp/npool/nimage =       8
     Reading input from /tmp/CaO_mix444.a.01.6294/CaO_mix444.a.01.t
Warning: card &IONS ignored
Warning: card   ION_DYNAMICS='BFGS', ignored
Warning: card / ignored
Warning: card &CELL ignored
Warning: card  CELL_DYNAMICS = 'BFGS' ignored
Warning: card / ignored
     Message from routine read_cards :
     DEPRECATED: no units specified in CELL_PARAMETERS card

     Current dimensions of program PWSCF are:
     Max number of different atomic species (ntypx) = 10
     Max number of k-points (npk) =  40000
     Max angular momentum in pseudopotentials (lmaxx) =  3
 kfg - two_fermi_energies  F

     Subspace diagonalization in iterative solution of the eigenvalue problem:
     a serial algorithm will be used


     Parallelization info
     --------------------
     sticks:   dense  smooth     PW     G-vecs:    dense   smooth      PW
     Min         996     797    209                58857    42110    5726
     Max         997     798    211                58859    42141    5727
     Sum        7973    6383   1675               470863   337031   45815



     bravais-lattice index     =            0
     lattice parameter (alat)  =    24.019742408  a.u.
     unit-cell volume          =    9859.0579 (a.u.)^3
     number of atoms/cell      =          128
     number of atomic types    =            3
     number of electrons       =      1024.00
     number of Kohn-Sham states=          614
     kinetic-energy cutoff     =      40.0000  Ry
     charge density cutoff     =     200.0000  Ry
     convergence threshold     =      1.0E-10
     mixing beta               =       0.3000
     number of iterations used =            8  local-TF  mixing
     Exchange-correlation      = SLA  PW   PSX  PSC ( 1  4 10  8 0)
     A smooth kinetic-energy cutoff is imposed at      39.5000 Ry
     height of the smooth step-function =             800.0000 Ry
     width of the smooth step-function  =               1.0000 Ry


     celldm(1)=  24.019742  celldm(2)=   0.000000  celldm(3)=   0.000000
     celldm(4)=   0.000000  celldm(5)=   0.000000  celldm(6)=   0.000000

     crystal axes: (cart. coord. in units of alat)
               a(1) = (  -0.002660737557   0.706741828768   0.707466541927 )  
               a(2) = (   0.709058498633  -0.001357212752   0.705060765082 )  
               a(3) = (   0.707621708628   0.709358942425  -0.001940584272 )  

     reciprocal axes: (cart. coord. in units 2 pi/alat)
               b(1) = ( -0.703007  0.703224  0.708347 )  
               b(2) = (  0.707338 -0.703675  0.705615 )  
               b(3) = (  0.701767  0.707748 -0.704384 )  


     PseudoPot. # 1 for Ca read from file:
     /users/kfg/psuedo/gbrv_1.5/ca.pbesol.UPF
     MD5 check sum: 0533207b58cddeaa036efa5b63902087
     Pseudo is Ultrasoft + core correction, Zval = 10.0
     Generated by new atomic code, or converted to UPF format
     Using radial grid of  845 points,  6 beta functions with: 
                l(1) =   0
                l(2) =   0
                l(3) =   1
                l(4) =   1
                l(5) =   2
                l(6) =   2
     Q(r) pseudized with  8 coefficients,  rinner =    1.500   1.500   1.500
                                                       1.500   1.500

     PseudoPot. # 2 for Mg read from file:
     /users/kfg/psuedo/gbrv_1.5/mg.pbesol.UPF
     MD5 check sum: 4059f37963cf5867752dbf5ab2400678
     Pseudo is Ultrasoft, Zval = 10.0
     Generated by new atomic code, or converted to UPF format
     Using radial grid of  821 points,  7 beta functions with: 
                l(1) =   0
                l(2) =   0
                l(3) =   0
                l(4) =   1
                l(5) =   1
                l(6) =   2
                l(7) =   2
     Q(r) pseudized with  8 coefficients,  rinner =    1.200   1.200   1.200
                                                       1.200   1.200

     PseudoPot. # 3 for O  read from file:
     /users/kfg/psuedo/gbrv_1.5/o.pbesol.UPF
     MD5 check sum: 501638753501ef6325af9037351f7734
     Pseudo is Ultrasoft + core correction, Zval =  6.0
     Generated by new atomic code, or converted to UPF format
     Using radial grid of  737 points,  5 beta functions with: 
                l(1) =   0
                l(2) =   0
                l(3) =   1
                l(4) =   1
                l(5) =   2
     Q(r) pseudized with  8 coefficients,  rinner =    0.900   0.900   0.900
                                                       0.900   0.900

     atomic species   valence    mass     pseudopotential
        Ca            10.00    40.07800     Ca( 1.00)
        Mg            10.00    40.07800     Mg( 1.00)
        O              6.00    15.99940     O ( 1.00)

     No symmetry found


                                    s                        frac. trans.

      isym =  1     identity                                     

 cryst.   s( 1) = (     1          0          0      )
                  (     0          1          0      )
                  (     0          0          1      )

 cart.    s( 1) = (  1.0000000  0.0000000  0.0000000 )
                  (  0.0000000  1.0000000  0.0000000 )
                  (  0.0000000  0.0000000  1.0000000 )


     point group C_1 (1)    
     there are  1 classes
     the character table:

       E    
A      1.00

     the symmetry operations in each class:
     E        1

   Cartesian axes

     site n.     atom                  positions (alat units)
         1           Ca  tau(   1) = (   -0.00210362664    0.00013963649    0.00053717170  )
         2           O   tau(   2) = (    0.17642396015    0.17415175101    0.17763789871  )
         3           Mg  tau(   3) = (    0.17335339787    0.17391091515   -0.00012282795  )
         4           O   tau(   4) = (    0.35222887960    0.35141632030    0.17663788101  )
         5           Mg  tau(   5) = (    0.35277945832    0.35572691662   -0.00475129426  )
         6           O   tau(   6) = (    0.53325804160    0.52788621565    0.17240035481  )
         7           Mg  tau(   7) = (    0.52989612383    0.52946006375   -0.00271770423  )
         8           O   tau(   8) = (    0.70546837819    0.71275705160    0.17243881374  )
         9           Mg  tau(   9) = (    0.17309463991    0.00368139645    0.17458945816  )
        10           O   tau(  10) = (    0.35483319503    0.17900503327    0.35488944562  )
        11           Ca  tau(  11) = (    0.35386735334    0.17290435304    0.17599268411  )
        12           O   tau(  12) = (    0.53408624268    0.35279373171    0.34829423315  )
        13           Ca  tau(  13) = (    0.52761118921    0.35789257935    0.17494604658  )
        14           O   tau(  14) = (    0.70662474069    0.52867951812    0.35218444210  )
        15           Mg  tau(  15) = (    0.70402548185    0.53195795562    0.17544924759  )
        16           O   tau(  16) = (    0.88433425573    0.70653902531    0.34986817160  )
        17           Mg  tau(  17) = (    0.35143268530   -0.00428208589    0.35329409319  )
        18           O   tau(  18) = (    0.52986722981    0.17429240630    0.53281061366  )
        19           Ca  tau(  19) = (    0.53314119333    0.17931642181    0.35151853286  )
        20           O   tau(  20) = (    0.70423842073    0.35567846259    0.52466418807  )
        21           Ca  tau(  21) = (    0.70768650693    0.35311290906    0.35109064709  )
        22           O   tau(  22) = (    0.88516851106    0.53239780627    0.52709571634  )
        23           Mg  tau(  23) = (    0.88514645178    0.52896597032    0.34871574989  )
        24           O   tau(  24) = (    1.06421385664    0.70935398759    0.52487517030  )
        25           Ca  tau(  25) = (    0.53010437405   -0.00097198356    0.52474220517  )
        26           O   tau(  26) = (    0.70502383125    0.17367864265    0.70294910905  )
        27           Ca  tau(  27) = (    0.70750250022    0.17333839195    0.52991746450  )
        28           O   tau(  28) = (    0.88323239318    0.35225344598    0.70846126781  )
        29           Mg  tau(  29) = (    0.88299766145    0.35087677522    0.53039427140  )
        30           O   tau(  30) = (    1.06144475310    0.52857054105    0.70069603316  )
        31           Ca  tau(  31) = (    1.06489213954    0.53104726728    0.53130192581  )
        32           O   tau(  32) = (    1.23951555897    0.70544865432    0.70593745701  )
        33           Mg  tau(  33) = (    0.00189780994    0.17428921092    0.17555625597  )
        34           O   tau(  34) = (    0.17335904371    0.35031970209    0.35161130614  )
        35           Ca  tau(  35) = (    0.17848007911    0.35755266734    0.17716897002  )
        36           O   tau(  36) = (    0.35153998136    0.52708174921    0.35557757792  )
        37           Ca  tau(  37) = (    0.35401004973    0.53109716631    0.17762557205  )
        38           O   tau(  38) = (    0.53120032468    0.71057410135    0.35257686192  )
        39           Mg  tau(  39) = (    0.53131379825    0.70630509134    0.17309531247  )
        40           O   tau(  40) = (    0.70311999452    0.88445117376    0.35350191416  )
        41           Ca  tau(  41) = (    0.17381624479    0.17503495689    0.35093573927  )
        42           O   tau(  42) = (    0.35610236766    0.34914989870    0.53316445087  )
        43           Ca  tau(  43) = (    0.35437137152    0.35493239218    0.35528942195  )
        44           O   tau(  44) = (    0.52986594485    0.52752213325    0.53265368248  )
        45           Ca  tau(  45) = (    0.53216180895    0.53117499439    0.35512401170  )
        46           O   tau(  46) = (    0.70979310159    0.70893511432    0.52507751519  )
        47           Mg  tau(  47) = (    0.70658468795    0.70856572249    0.35100559101  )
        48           O   tau(  48) = (    0.88276780858    0.88769818514    0.52402051368  )
        49           Mg  tau(  49) = (    0.35016911111    0.17891826000    0.52685712898  )
        50           O   tau(  50) = (    0.52839496966    0.35079598175    0.70616172491  )
        51           Mg  tau(  51) = (    0.53190186425    0.34978662362    0.52584278998  )
        52           O   tau(  52) = (    0.71137854991    0.53141476213    0.70491249840  )
        53           Mg  tau(  53) = (    0.71058177390    0.52876211480    0.53128365933  )
        54           O   tau(  54) = (    0.88207871078    0.70393688539    0.70592187667  )
        55           Mg  tau(  55) = (    0.88266269500    0.71045720815    0.52479491903  )
        56           O   tau(  56) = (    1.06221762338    0.88538161869    0.70805798411  )
        57           Ca  tau(  57) = (    0.52706728093    0.17701047113    0.70295644337  )
        58           O   tau(  58) = (    0.70636592960    0.34907696872    0.87819238134  )
        59           Mg  tau(  59) = (    0.70706174516    0.35565351100    0.70550617343  )
        60           O   tau(  60) = (    0.88135686764    0.53147892782    0.88464125946  )
        61           Mg  tau(  61) = (    0.88377950245    0.53199532733    0.70584007635  )
        62           O   tau(  62) = (    1.05822922686    0.70818637816    0.88360192700  )
        63           Mg  tau(  63) = (    1.06554826434    0.70801926023    0.70727665867  )
        64           O   tau(  64) = (    1.23584088049    0.88595396031    0.88073608748  )
        65           Ca  tau(  65) = (    0.00080232600    0.35413398254    0.35075475327  )
        66           O   tau(  66) = (    0.17549831006    0.52723235116    0.53073892464  )
        67           Mg  tau(  67) = (    0.17502114241    0.53190069409    0.34950835690  )
        68           O   tau(  68) = (    0.35443811735    0.70428758810    0.52594509689  )
        69           Ca  tau(  69) = (    0.34977106527    0.70716758168    0.35059466236  )
        70           O   tau(  70) = (    0.53208384222    0.88393679594    0.53198805189  )
        71           Ca  tau(  71) = (    0.52712866263    0.88933065466    0.34976233928  )
        72           O   tau(  72) = (    0.70947739098    1.06333633007    0.52733887264  )
        73           Mg  tau(  73) = (    0.17195821545    0.35275009048    0.52908299672  )
        74           O   tau(  74) = (    0.34885701797    0.52846444120    0.70608094331  )
        75           Ca  tau(  75) = (    0.34952629652    0.52676780214    0.53204794601  )
        76           O   tau(  76) = (    0.52958474683    0.70446181887    0.70771895433  )
        77           Ca  tau(  77) = (    0.52597417845    0.70575248093    0.52490716841  )
        78           O   tau(  78) = (    0.70670645230    0.88672400922    0.70504089428  )
        79           Mg  tau(  79) = (    0.71006624080    0.88179152453    0.53170356192  )
        80           O   tau(  80) = (    0.87997672858    1.06544511802    0.70591274050  )
        81           Ca  tau(  81) = (    0.35722808111    0.35495332821    0.70881697186  )
        82           O   tau(  82) = (    0.53402248383    0.53174238582    0.88133893356  )
        83           Mg  tau(  83) = (    0.53122699002    0.52658292021    0.70706049886  )
        84           O   tau(  84) = (    0.70533267975    0.70428615939    0.87888531737  )
        85           Mg  tau(  85) = (    0.70577388673    0.70961094908    0.70631588195  )
        86           O   tau(  86) = (    0.88690441263    0.88046871779    0.88392712221  )
        87           Ca  tau(  87) = (    0.88574668953    0.88113387470    0.70628911948  )
        88           O   tau(  88) = (    1.06340005182    1.06418711649    0.88038947021  )
        89           Mg  tau(  89) = (    0.53002574429    0.34870746885    0.88317485745  )
        90           O   tau(  90) = (    0.70499345835    0.52615327560    1.06104523180  )
        91           Mg  tau(  91) = (    0.70916596711    0.52908896625    0.87790326588  )
        92           O   tau(  92) = (    0.88217276500    0.70885946797    1.05558882473  )
        93           Ca  tau(  93) = (    0.88258189427    0.70661445518    0.88161012519  )
        94           O   tau(  94) = (    1.06477527365    0.88305171144    1.05592285884  )
        95           Mg  tau(  95) = (    1.05885854618    0.88502522457    0.88355492082  )
        96           O   tau(  96) = (    1.23562664563    1.05740753338    1.05505664057  )
        97           Ca  tau(  97) = (   -0.00149707507    0.52903724873    0.52829862379  )
        98           O   tau(  98) = (    0.17662165703    0.70687431173    0.70372722170  )
        99           Mg  tau(  99) = (    0.17240641118    0.71142658027    0.52664963599  )
       100           O   tau( 100) = (    0.34974489830    0.88515104808    0.70633740145  )
       101           Mg  tau( 101) = (    0.34944841463    0.88886040046    0.52654731024  )
       102           O   tau( 102) = (    0.52690366807    1.06300755022    0.70592129707  )
       103           Mg  tau( 103) = (    0.53076819233    1.06314421799    0.52996024591  )
       104           O   tau( 104) = (    0.70923078139    1.23590968627    0.70570747180  )
       105           Ca  tau( 105) = (    0.17669301680    0.53367259251    0.70527178545  )
       106           O   tau( 106) = (    0.35446156235    0.70557760458    0.88650922631  )
       107           Mg  tau( 107) = (    0.35580913583    0.70400143228    0.70339291814  )
       108           O   tau( 108) = (    0.52950755744    0.88005985221    0.88065189025  )
       109           Mg  tau( 109) = (    0.53007610776    0.88710669112    0.70182203765  )
       110           O   tau( 110) = (    0.70659550793    1.06480094445    0.88318314356  )
       111           Mg  tau( 111) = (    0.70650541873    1.06151851504    0.70721131637  )
       112           O   tau( 112) = (    0.88236272782    1.23879586544    0.87950795851  )
       113           Ca  tau( 113) = (    0.35551417349    0.52825186339    0.88253584062  )
       114           O   tau( 114) = (    0.53084782082    0.71018630501    1.05839246626  )
       115           Mg  tau( 115) = (    0.53212881976    0.70857402927    0.88406509928  )
       116           O   tau( 116) = (    0.70534172649    0.88019684569    1.05632443221  )
       117           Ca  tau( 117) = (    0.70767396960    0.88083832402    0.88574444106  )
       118           O   tau( 118) = (    0.87893005740    1.06191994041    1.05892753738  )
       119           Ca  tau( 119) = (    0.88297603043    1.06290584058    0.88179951435  )
       120           O   tau( 120) = (    1.06323456346    1.24107692384    1.05557667110  )
       121           Ca  tau( 121) = (    0.53166202422    0.52910202307    1.05551021257  )
       122           O   tau( 122) = (    0.70959801202    0.70421743937    1.23694358178  )
       123           Mg  tau( 123) = (    0.70448450560    0.70448997159    1.05780943167  )
       124           O   tau( 124) = (    0.88049439179    0.88714982070    1.23265587665  )
       125           Ca  tau( 125) = (    0.88604679926    0.88779273468    1.06192608590  )
       126           O   tau( 126) = (    1.05955526352    1.06335935057    1.23352510628  )
       127           Mg  tau( 127) = (    1.05875154231    1.05896666362    1.05924623564  )
       128           O   tau( 128) = (    1.23669844037    1.23925110954    1.23696209734  )

   Crystallographic axes

     site n.     atom                  positions (cryst. coord.)
         1           Ca  tau(   1) = (    0.00195756496   -0.00120719708   -0.00175580358  )
         2           O   tau(   2) = (    0.12426957217    0.12758895585    0.12193884718  )
         3           Mg  tau(   3) = (    0.00034252265    0.00015594819    0.24482535051  )
         4           O   tau(   4) = (    0.12462567067    0.12650011698    0.37147601546  )
         5           Mg  tau(   5) = (   -0.00121659495   -0.00413453665    0.50268080429  )
         6           O   tau(   6) = (    0.11845697414    0.12738134123    0.62639740493  )
         7           Mg  tau(   7) = (   -0.00211719547    0.00033000359    0.74850233143  )
         8           O   tau(   8) = (    0.12742459935    0.11913034187    0.87806384779  )
         9           Mg  tau(   9) = (    0.00457198029    0.24303872449    0.00109964357  )
        10           O   tau(  10) = (    0.12781513350    0.37544067558    0.12572236652  )
        11           Ca  tau(  11) = (   -0.00251703817    0.25281824017    0.24673880440  )
        12           O   tau(  12) = (    0.11933951716    0.37528866095    0.37916044132  )
        13           Ca  tau(  13) = (    0.00468645222    0.24480367822    0.50032881379  )
        14           O   tau(  14) = (    0.12448632007    0.37631018914    0.62198491514  )
        15           Mg  tau(  15) = (    0.00342920962    0.24745775750    0.74697055450  )
        16           O   tau(  16) = (    0.12298948404    0.37522113249    0.87420687928  )
        17           Mg  tau(  17) = (    0.00018382810    0.50088424760   -0.00526136795  )
        18           O   tau(  18) = (    0.12748083690    0.62810877558    0.11989535713  )
        19           Ca  tau(  19) = (    0.00029448127    0.49896697074    0.25344785716  )
        20           O   tau(  20) = (    0.12668104597    0.61806300924    0.37637717032  )
        21           Ca  tau(  21) = (   -0.00049747696    0.49983127274    0.49924354658  )
        22           O   tau(  22) = (    0.12548142169    0.62340440758    0.62670800726  )
        23           Mg  tau(  23) = (   -0.00327137146    0.49993620390    0.74991160800  )
        24           O   tau(  24) = (    0.12247805292    0.62396342680    0.87916065944  )
        25           Ca  tau(  25) = (   -0.00165116511    0.74591252011    0.00170199571  )
        26           O   tau(  26) = (    0.12442995787    0.87248773650    0.12253731214  )
        27           Ca  tau(  27) = (   -0.00011832125    0.75238677438    0.24591663405  )
        28           O   tau(  28) = (    0.12863054737    0.87677219197    0.37010152181  )
        29           Mg  tau(  29) = (    0.00169419663    0.75192822465    0.49438996423  )
        30           O   tau(  30) = (    0.12183578845    0.87327930518    0.62542288873  )
        31           Ca  tau(  31) = (    0.00116409771    0.75444801605    0.74891351252  )
        32           O   tau(  32) = (    0.12474829469    0.87846920467    0.87188029785  )
        33           Mg  tau(  33) = (    0.24558489531    0.00257445865    0.00102569650  )
        34           O   tau(  34) = (    0.37354326913    0.12421418720    0.12192647312  )
        35           Ca  tau(  35) = (    0.25146379137   -0.00034221751    0.25351371829  )
        36           O   tau(  36) = (    0.37539348103    0.12866389408    0.36927721994  )
        37           Ca  tau(  37) = (    0.25042893228    0.00201999490    0.49919904455  )
        38           O   tau(  38) = (    0.37600152256    0.12450808438    0.62733695880  )
        39           Mg  tau(  39) = (    0.24578442501    0.00094755377    0.75081910089  )
        40           O   tau(  40) = (    0.37807043071    0.12441311643    0.87039410417  )
        41           Ca  tau(  41) = (    0.24947894996    0.24740440631   -0.00133426390  )
        42           O   tau(  42) = (    0.37285338251    0.38240513715    0.12145871048  )
        43           Ca  tau(  43) = (    0.25213938959    0.25160053487    0.24962878979  )
        44           O   tau(  44) = (    0.37577005455    0.37943816480    0.37000266060  )
        45           Ca  tau(  45) = (    0.25097217467    0.25322417175    0.49924815010  )
        46           O   tau(  46) = (    0.37148725327    0.37370577902    0.63000084315  )
        47           Mg  tau(  47) = (    0.25017966368    0.24886859820    0.75010128903  )
        48           O   tau(  48) = (    0.37484642952    0.36952035721    0.87865256149  )
        49           Mg  tau(  49) = (    0.25284582834    0.49354555088    0.00125660388  )
        50           O   tau(  50) = (    0.37543010183    0.62518528107    0.12167652973  )
        51           Mg  tau(  51) = (    0.24452650844    0.50114043794    0.25043691625  )
        52           O   tau(  52) = (    0.37292178230    0.62663805967    0.37880092125  )
        53           Mg  tau(  53) = (    0.24862701247    0.50542603852    0.49866570341  )
        54           O   tau(  54) = (    0.37495491425    0.62669343267    0.61998389476  )
        55           Mg  tau(  55) = (    0.25082883720    0.49471250307    0.75259135430  )
        56           O   tau(  56) = (    0.37742523873    0.62794160881    0.87331198433  )
        57           Ca  tau(  57) = (    0.25188295426    0.74427300275    0.00000618616  )
        58           O   tau(  58) = (    0.37096377739    0.87366781681    0.12417846328  )
        59           Mg  tau(  59) = (    0.25277759855    0.74768234520    0.25095866436  )
        60           O   tau(  60) = (    0.38078124921    0.87364421398    0.37153350258  )
        61           Mg  tau(  61) = (    0.25278794256    0.74882974305    0.49954376353  )
        62           O   tau(  62) = (    0.37996730192    0.87367470522    0.62145315779  )
        63           Mg  tau(  63) = (    0.24980492947    0.75455166037    0.75067180074  )
        64           O   tau(  64) = (    0.37808533363    0.87219332897    0.87392849377  )
        65           Ca  tau(  65) = (    0.49692748248   -0.00113010195    0.00413473467  )
        66           O   tau(  66) = (    0.62333304708    0.12763339427    0.12246273925  )
        67           Mg  tau(  67) = (    0.49857721988   -0.00386804476    0.25308776338  )
        68           O   tau(  68) = (    0.61865075384    0.12623231431    0.37672401247  )
        69           Ca  tau(  69) = (    0.49974801316   -0.00282526369    0.49900114214  )
        70           O   tau(  70) = (    0.62437855661    0.12973715971    0.62427976507  )
        71           Ca  tau(  71) = (    0.50257609688   -0.00614446227    0.75297671399  )
        72           O   tau(  72) = (    0.62253432108    0.12569479522    0.87901320869  )
        73           Mg  tau(  73) = (    0.50194874659    0.24673972990   -0.00234466111  )
        74           O   tau(  74) = (    0.62653004971    0.37311343762    0.12148411369  )
        75           Ca  tau(  75) = (    0.50159063580    0.25198051304    0.24333902027  )
        76           O   tau(  76) = (    0.62440289778    0.37825981026    0.37172091063  )
        77           Ca  tau(  77) = (    0.49835455827    0.24580305808    0.49887025442  )
        78           O   tau(  78) = (    0.62615909429    0.37340163117    0.62690119865  )
        79           Mg  tau(  79) = (    0.49754548119    0.25693966117    0.74786403796  )
        80           O   tau(  80) = (    0.63064726836    0.37081582732    0.87437199018  )
        81           Ca  tau(  81) = (    0.50056608068    0.50306064052    0.00262927714  )
        82           O   tau(  82) = (    0.62280598542    0.62544593783    0.13029822054  )
        83           Mg  tau(  83) = (    0.49769333608    0.50412576968    0.24744373706  )
        84           O   tau(  84) = (    0.62197248069    0.62347403762    0.37436389671  )
        85           Mg  tau(  85) = (    0.50316774711    0.49827169527    0.49999724370  )
        86           O   tau(  86) = (    0.62179327900    0.63148886549    0.62292647204  )
        87           Ca  tau(  87) = (    0.49724553594    0.50485795239    0.74771011291  )
        88           O   tau(  88) = (    0.62440475526    0.62455660793    0.87930351866  )
        89           Mg  tau(  89) = (    0.49820172357    0.75271146407   -0.00334236819  )
        90           O   tau(  90) = (    0.62597617876    0.87711645525    0.11974214296  )
        91           Mg  tau(  91) = (    0.49537921886    0.74877442176    0.25375023364  )
        92           O   tau(  92) = (    0.62603607953    0.87002614442    0.37723411778  )
        93           Ca  tau(  93) = (    0.50093238482    0.74913339668    0.49848010322  )
        94           O   tau(  94) = (    0.62039786207    0.87684874251    0.62842749343  )
        95           Mg  tau(  95) = (    0.50384883717    0.74964958258    0.74708526000  )
        96           O   tau(  96) = (    0.62228561805    0.87439729650    0.87233551847  )
        97           Ca  tau(  97) = (    0.74730278780   -0.00055409474    0.00124951947  )
        98           O   tau(  98) = (    0.87140756890    0.12408146017    0.12854217008  )
        99           Mg  tau(  99) = (    0.75213976554   -0.00705197950    0.25353648921  )
       100           O   tau( 100) = (    0.87691796022    0.12293094014    0.37437081956  )
       101           Mg  tau( 101) = (    0.75238108359   -0.00675145533    0.50342926972  )
       102           O   tau( 102) = (    0.87715216637    0.12279522001    0.62486571576  )
       103           Mg  tau( 103) = (    0.74988996395    0.00127189807    0.75161855000  )
       104           O   tau( 104) = (    0.87041224525    0.12994425952    0.87533866023  )
       105           Ca  tau( 105) = (    0.75065195539    0.24709954207    0.00492109598  )
       106           O   tau( 106) = (    0.87494603985    0.37976043748    0.12367794463  )
       107           Mg  tau( 107) = (    0.74318035664    0.25261321082    0.25249225333  )
       108           O   tau( 108) = (    0.87043840567    0.37666523882    0.37413475823  )
       109           Mg  tau( 109) = (    0.74832058530    0.24592376664    0.50548598401  )
       110           O   tau( 110) = (    0.87765155708    0.37371460922    0.62737644032  )
       111           Mg  tau( 111) = (    0.75075745443    0.25179236983    0.74894178783  )
       112           O   tau( 112) = (    0.87383991749    0.37301223720    0.87645740947  )
       113           Ca  tau( 113) = (    0.74669186567    0.50248102178    0.00171346593  )
       114           O   tau( 114) = (    0.87593914766    0.62256538033    0.12965005172  )
       115           Mg  tau( 115) = (    0.75042050010    0.50159807278    0.25220130077  )
       116           O   tau( 116) = (    0.87135916818    0.62490008349    0.37388546215  )
       117           Ca  tau( 117) = (    0.74934082441    0.50573465283    0.49612993913  )
       118           O   tau( 118) = (    0.87896114726    0.62164843037    0.62248463302  )
       119           Ca  tau( 119) = (    0.75134196397    0.49883243798    0.75078784072  )
       120           O   tau( 120) = (    0.87300754625    0.62358123220    0.88098178384  )
       121           Ca  tau( 121) = (    0.74598238170    0.74853204006    0.00408959056  )
       122           O   tau( 122) = (    0.87255517029    0.87919054201    0.12509809340  )
       123           Mg  tau( 123) = (    0.74945247759    0.74898213097    0.24788167821  )
       124           O   tau( 124) = (    0.87801892364    0.86832156943    0.37751778684  )
       125           Ca  tau( 125) = (    0.75363167978    0.75132717154    0.50212860178  )
       126           O   tau( 126) = (    0.87666821096    0.87159716156    0.62727650574  )
       127           Mg  tau( 127) = (    0.75069423870    0.75114597866    0.74636277596  )
       128           O   tau( 128) = (    0.87826105475    0.87555175300    0.87365585813  )

     number of k points=     8  gaussian smearing, width (Ry)=  0.0050
                       cart. coord. in units 2pi/alat
        k(    1) = (   0.0000000   0.0000000   0.0000000), wk =   0.2500000
        k(    2) = (  -0.3508836  -0.3538740   0.3521919), wk =   0.2500000
        k(    3) = (  -0.3536689   0.3518376  -0.3528073), wk =   0.2500000
        k(    4) = (  -0.7045524  -0.0020365  -0.0006154), wk =   0.2500000
        k(    5) = (   0.3515037  -0.3516118  -0.3541736), wk =   0.2500000
        k(    6) = (   0.0006202  -0.7054858  -0.0019817), wk =   0.2500000
        k(    7) = (  -0.0021651   0.0002258  -0.7069809), wk =   0.2500000
        k(    8) = (  -0.3530487  -0.3536483  -0.3547890), wk =   0.2500000

                       cryst. coord.
        k(    1) = (   0.0000000   0.0000000   0.0000000), wk =   0.2500000
        k(    2) = (  -0.0000000  -0.0000000  -0.5000000), wk =   0.2500000
        k(    3) = (   0.0000000  -0.5000000   0.0000000), wk =   0.2500000
        k(    4) = (   0.0000000  -0.5000000  -0.5000000), wk =   0.2500000
        k(    5) = (  -0.5000000  -0.0000000  -0.0000000), wk =   0.2500000
        k(    6) = (  -0.5000000  -0.0000000  -0.5000000), wk =   0.2500000
        k(    7) = (  -0.5000000  -0.5000000  -0.0000000), wk =   0.2500000
        k(    8) = (  -0.5000000  -0.5000000  -0.5000000), wk =   0.2500000

     Dense  grid:   470863 G-vectors     FFT dimensions: ( 120, 120, 120)

     Smooth grid:   337031 G-vectors     FFT dimensions: ( 100, 100, 100)

     Largest allocated arrays     est. size (Mb)     dimensions
        Kohn-Sham Wavefunctions        49.48 Mb     (    5281,  614)
        NL pseudopotentials           162.69 Mb     (    5281, 2019)
        Each V/rho on FFT grid          3.30 Mb     (  216000)
        Each G-vector array             0.45 Mb     (   58859)
        G-vector shells                 0.44 Mb     (   58099)
     Largest temporary arrays     est. size (Mb)     dimensions
        Auxiliary wavefunctions       197.91 Mb     (    5281, 2456)
        Each subspace H/S matrix       92.04 Mb     (    2456, 2456)
        Each <psi_i|beta_j> matrix     18.92 Mb     (    2019,  614)
        Arrays for rho mixing          26.37 Mb     (  216000,    8)

     Check: negative/imaginary core charge=   -0.000003    0.000000

     Initial potential from superposition of free atoms

     starting charge 1013.34184, renormalised to 1024.00000
     Starting wfc are  721 randomized atomic wfcs

     total cpu time spent up to now is      736.9 secs

     Self-consistent Calculation

     iteration #  1     ecut=    40.00 Ry     beta=0.30
     Davidson diagonalization with overlap
     ethr =  1.00E-02,  avg # of iterations =  3.1

     total cpu time spent up to now is     2824.2 secs

     total energy              =   -8630.92471479 Ry
     Harris-Foulkes estimate   =   -8635.61110902 Ry
     estimated scf accuracy    <      24.27585651 Ry

     iteration #  2     ecut=    40.00 Ry     beta=0.30
     Davidson diagonalization with overlap
     ethr =  2.37E-03,  avg # of iterations =  1.0

     total cpu time spent up to now is     4126.6 secs

     total energy              =   -8627.53051964 Ry
     Harris-Foulkes estimate   =   -8631.63769734 Ry
     estimated scf accuracy    <      10.34135766 Ry

     iteration #  3     ecut=    40.00 Ry     beta=0.30
     Davidson diagonalization with overlap
     ethr =  1.01E-03,  avg # of iterations =  2.0

     total cpu time spent up to now is     5683.1 secs

     total energy              =   -8628.76040585 Ry
     Harris-Foulkes estimate   =   -8629.18270573 Ry
     estimated scf accuracy    <       1.40410754 Ry

     iteration #  4     ecut=    40.00 Ry     beta=0.30
     Davidson diagonalization with overlap
     ethr =  1.37E-04,  avg # of iterations =  6.4

     total cpu time spent up to now is     7812.0 secs

     total energy              =   -8628.47789993 Ry
     Harris-Foulkes estimate   =   -8628.85533252 Ry
     estimated scf accuracy    <       0.68443343 Ry

     iteration #  5     ecut=    40.00 Ry     beta=0.30
     Davidson diagonalization with overlap
     ethr =  6.68E-05,  avg # of iterations =  4.4

     total cpu time spent up to now is     9696.8 secs

     total energy              =   -8628.56044256 Ry
     Harris-Foulkes estimate   =   -8628.57798185 Ry
     estimated scf accuracy    <       0.10365468 Ry

     iteration #  6     ecut=    40.00 Ry     beta=0.30
     Davidson diagonalization with overlap
     ethr =  1.01E-05,  avg # of iterations =  9.8

     total cpu time spent up to now is    12213.2 secs

     total energy              =   -8628.55257385 Ry
     Harris-Foulkes estimate   =   -8628.56637215 Ry
     estimated scf accuracy    <       0.05243721 Ry

     iteration #  7     ecut=    40.00 Ry     beta=0.30
     Davidson diagonalization with overlap
     ethr =  5.12E-06,  avg # of iterations =  3.6

     total cpu time spent up to now is    13823.9 secs

     total energy              =   -8628.55169632 Ry
     Harris-Foulkes estimate   =   -8628.55629208 Ry
     estimated scf accuracy    <       0.01254614 Ry

     iteration #  8     ecut=    40.00 Ry     beta=0.30
     Davidson diagonalization with overlap
     ethr =  1.23E-06,  avg # of iterations =  6.3

     total cpu time spent up to now is    16145.8 secs

     total energy              =   -8628.55281321 Ry
     Harris-Foulkes estimate   =   -8628.55399501 Ry
     estimated scf accuracy    <       0.00588657 Ry

     iteration #  9     ecut=    40.00 Ry     beta=0.30
     Davidson diagonalization with overlap
     ethr =  5.75E-07,  avg # of iterations =  2.0

     total cpu time spent up to now is    17432.3 secs

     total energy              =   -8628.55260266 Ry
     Harris-Foulkes estimate   =   -8628.55315401 Ry
     estimated scf accuracy    <       0.00228463 Ry

     iteration # 10     ecut=    40.00 Ry     beta=0.30
     Davidson diagonalization with overlap
     ethr =  2.23E-07,  avg # of iterations =  2.5

     total cpu time spent up to now is    18949.0 secs

     total energy              =   -8628.55250631 Ry
     Harris-Foulkes estimate   =   -8628.55279065 Ry
     estimated scf accuracy    <       0.00104207 Ry

     iteration # 11     ecut=    40.00 Ry     beta=0.30
     Davidson diagonalization with overlap
     ethr =  1.02E-07,  avg # of iterations =  3.8

     total cpu time spent up to now is    20411.5 secs

     total energy              =   -8628.55249570 Ry
     Harris-Foulkes estimate   =   -8628.55257293 Ry
     estimated scf accuracy    <       0.00027930 Ry

     iteration # 12     ecut=    40.00 Ry     beta=0.30
     Davidson diagonalization with overlap
     ethr =  2.73E-08,  avg # of iterations =  2.0

     total cpu time spent up to now is    21814.9 secs

     total energy              =   -8628.55247407 Ry
     Harris-Foulkes estimate   =   -8628.55251843 Ry
     estimated scf accuracy    <       0.00011111 Ry

     iteration # 13     ecut=    40.00 Ry     beta=0.30
     Davidson diagonalization with overlap
     ethr =  1.09E-08,  avg # of iterations =  3.4

     total cpu time spent up to now is    23347.9 secs

     total energy              =   -8628.55247868 Ry
     Harris-Foulkes estimate   =   -8628.55248531 Ry
     estimated scf accuracy    <       0.00001558 Ry

     iteration # 14     ecut=    40.00 Ry     beta=0.30
     Davidson diagonalization with overlap
     ethr =  1.52E-09,  avg # of iterations =  2.0

     total cpu time spent up to now is    24893.0 secs

     total energy              =   -8628.55248123 Ry
     Harris-Foulkes estimate   =   -8628.55248187 Ry
     estimated scf accuracy    <       0.00000366 Ry

     iteration # 15     ecut=    40.00 Ry     beta=0.30
     Davidson diagonalization with overlap
     ethr =  3.57E-10,  avg # of iterations =  2.0

     total cpu time spent up to now is    26330.0 secs

     total energy              =   -8628.55248138 Ry
     Harris-Foulkes estimate   =   -8628.55248161 Ry
     estimated scf accuracy    <       0.00000109 Ry

     iteration # 16     ecut=    40.00 Ry     beta=0.30
     Davidson diagonalization with overlap
     ethr =  1.06E-10,  avg # of iterations =  1.0

     total cpu time spent up to now is    27420.8 secs

     total energy              =   -8628.55248121 Ry
     Harris-Foulkes estimate   =   -8628.55248143 Ry
     estimated scf accuracy    <       0.00000055 Ry

     iteration # 17     ecut=    40.00 Ry     beta=0.30
     Davidson diagonalization with overlap
     ethr =  5.32E-11,  avg # of iterations =  2.0

     total cpu time spent up to now is    28783.4 secs

     total energy              =   -8628.55248126 Ry
     Harris-Foulkes estimate   =   -8628.55248129 Ry
     estimated scf accuracy    <       0.00000017 Ry

     iteration # 18     ecut=    40.00 Ry     beta=0.30
     Davidson diagonalization with overlap
     ethr =  1.67E-11,  avg # of iterations =  2.0

     total cpu time spent up to now is    29957.4 secs

     total energy              =   -8628.55248125 Ry
     Harris-Foulkes estimate   =   -8628.55248127 Ry
     estimated scf accuracy    <       0.00000010 Ry

     iteration # 19     ecut=    40.00 Ry     beta=0.30
     Davidson diagonalization with overlap
     ethr =  9.31E-12,  avg # of iterations =  2.0

     total cpu time spent up to now is    31174.5 secs

     total energy              =   -8628.55248125 Ry
     Harris-Foulkes estimate   =   -8628.55248126 Ry
     estimated scf accuracy    <       0.00000003 Ry

     iteration # 20     ecut=    40.00 Ry     beta=0.30
     Davidson diagonalization with overlap
     ethr =  3.28E-12,  avg # of iterations =  1.0

     total cpu time spent up to now is    32263.5 secs

     total energy              =   -8628.55248125 Ry
     Harris-Foulkes estimate   =   -8628.55248126 Ry
     estimated scf accuracy    <       0.00000002 Ry

     iteration # 21     ecut=    40.00 Ry     beta=0.30
     Davidson diagonalization with overlap
     ethr =  2.16E-12,  avg # of iterations =  1.0

     total cpu time spent up to now is    33355.4 secs

     total energy              =   -8628.55248125 Ry
     Harris-Foulkes estimate   =   -8628.55248125 Ry
     estimated scf accuracy    <       0.00000001 Ry

     iteration # 22     ecut=    40.00 Ry     beta=0.30
     Davidson diagonalization with overlap
     ethr =  1.06E-12,  avg # of iterations =  2.0

     total cpu time spent up to now is    34639.4 secs

     total energy              =   -8628.55248125 Ry
     Harris-Foulkes estimate   =   -8628.55248125 Ry
     estimated scf accuracy    <          2.6E-09 Ry

     iteration # 23     ecut=    40.00 Ry     beta=0.30
     Davidson diagonalization with overlap
     ethr =  2.49E-13,  avg # of iterations =  2.0

     total cpu time spent up to now is    35814.1 secs

     total energy              =   -8628.55248125 Ry
     Harris-Foulkes estimate   =   -8628.55248125 Ry
     estimated scf accuracy    <          1.2E-09 Ry

     iteration # 24     ecut=    40.00 Ry     beta=0.30
     Davidson diagonalization with overlap
     ethr =  1.20E-13,  avg # of iterations =  2.0

     total cpu time spent up to now is    37029.1 secs

     total energy              =   -8628.55248125 Ry
     Harris-Foulkes estimate   =   -8628.55248125 Ry
     estimated scf accuracy    <          4.8E-10 Ry

     iteration # 25     ecut=    40.00 Ry     beta=0.30
     Davidson diagonalization with overlap
     ethr =  1.00E-13,  avg # of iterations =  1.0

     total cpu time spent up to now is    38225.0 secs

     total energy              =   -8628.55248125 Ry
     Harris-Foulkes estimate   =   -8628.55248125 Ry
     estimated scf accuracy    <          1.9E-10 Ry

     iteration # 26     ecut=    40.00 Ry     beta=0.30
     Davidson diagonalization with overlap
     ethr =  1.00E-13,  avg # of iterations =  1.0

     total cpu time spent up to now is    39415.7 secs

     End of self-consistent calculation

          k = 0.0000 0.0000 0.0000 ( 42071 PWs)   bands (ev):

   -65.4887 -65.4579 -65.4572 -65.4348 -65.3960 -65.3742 -65.3449 -65.3423
   -65.3309 -65.3240 -65.3010 -65.2821 -65.2719 -65.2576 -65.2565 -65.2349
   -65.2301 -65.2087 -65.1917 -65.1746 -65.1408 -65.1373 -65.1342 -65.1167
   -65.1118 -65.0949 -65.0895 -65.0820 -65.0715 -65.0519 -65.0369 -65.0321
   -64.9946 -64.9241 -64.8240 -32.4576 -32.4505 -32.4442 -32.4352 -32.4216
   -32.4181 -32.4175 -32.4161 -32.4108 -32.4050 -32.3979 -32.3894 -32.3665
   -32.3623 -32.3518 -32.3455 -32.3386 -32.3274 -32.3146 -32.3134 -32.3098
   -32.3042 -32.3025 -32.2999 -32.2988 -32.2962 -32.2905 -32.2898 -32.2856
   -32.2751 -32.2712 -32.2644 -32.2558 -32.2556 -32.2488 -32.2443 -32.2382
   -32.2370 -32.2298 -32.2282 -32.2252 -32.2241 -32.2189 -32.2103 -32.2085
   -32.2064 -32.1997 -32.1964 -32.1934 -32.1905 -32.1820 -32.1785 -32.1727
   -32.1641 -32.1617 -32.1577 -32.1477 -32.1471 -32.1363 -32.1348 -32.1216
   -32.1067 -32.1056 -32.1037 -32.1020 -32.1013 -32.0931 -32.0929 -32.0891
   -32.0876 -32.0837 -32.0821 -32.0755 -32.0699 -32.0691 -32.0653 -32.0604
   -32.0567 -32.0564 -32.0557 -32.0544 -32.0453 -32.0431 -32.0415 -32.0403
   -32.0363 -32.0236 -32.0234 -32.0160 -32.0076 -32.0066 -32.0020 -31.9999
   -31.9991 -31.9912 -31.9797 -31.9634 -31.9582 -31.9525 -31.8940 -31.8877
   -31.8814 -31.7976 -31.7897 -31.7820 -29.2465 -29.0347 -28.9522 -28.9284
   -28.8893 -28.8647 -28.8468 -28.8145 -28.8026 -28.7982 -28.7868 -28.7700
   -28.7426 -28.7209 -28.7129 -28.6905 -28.6722 -28.6583 -28.6410 -28.6128
   -28.6061 -28.5706 -28.5498 -28.5434 -28.5317 -28.5143 -28.4808 -28.3269
   -28.2507 -11.4668 -11.4087 -11.3996 -11.3652 -11.2547 -11.2246 -11.1652
   -11.1553 -11.1462 -11.1256 -11.0625 -11.0469 -11.0214 -10.9830 -10.9648
   -10.9366 -10.9230 -10.9011 -10.8971 -10.8510 -10.8190 -10.7952 -10.7500
   -10.7440 -10.7020 -10.6929 -10.6680 -10.6602 -10.6344 -10.6257 -10.6075
   -10.5896 -10.5664 -10.5430 -10.4911 -10.4702 -10.4539 -10.4271 -10.4141
   -10.3932 -10.3757 -10.3552 -10.3386 -10.3055 -10.2960 -10.2657 -10.2524
   -10.2464 -10.2141 -10.2017 -10.1888 -10.1614 -10.1452 -10.1441 -10.1289
   -10.1133 -10.0866 -10.0645 -10.0577 -10.0464 -10.0274 -10.0112  -9.9926
    -9.9825  -9.9718  -9.9667  -9.9511  -9.9448  -9.9415  -9.9273  -9.9085
    -9.8939  -9.8890  -9.8512  -9.8507  -9.8390  -9.8280  -9.8135  -9.7975
    -9.7881  -9.7702  -9.7532  -9.7399  -9.7232  -9.6684  -9.5978  -9.5387
    -8.5134  -8.1740  -8.0149  -7.9637  -7.9543  -7.8760  -7.8630  -7.8398
    -7.8264  -7.8097  -7.7925  -7.7474  -7.7443  -7.7224  -7.6959  -7.6701
    -7.6578  -7.6436  -7.5960  -7.5630  -7.5578  -7.5348  -7.5236  -7.4921
    -7.4494  -7.4222  -7.4087  -7.3959  -7.3870  -7.3637  -7.3392  -7.3014
    -7.2931  -7.2377  -7.2028  -7.1926  -7.1829  -7.1510  -7.1466  -7.1391
    -7.0992  -7.0253  -7.0085  -6.9886  -6.9571  -6.9330  -6.9109  -6.8994
    -6.8778  -6.8708  -6.8611  -6.8237  -6.8102  -6.7939  -6.7454  -6.6940
    -6.6720  -6.6397  -6.5732  -6.5255  -6.4811  -6.4726  -6.4575  -6.3752
     3.6669   3.6804   3.7922   3.8191   4.1821   4.2126   4.2264   4.2682
     4.3373   4.3532   4.3722   4.3801   4.4188   4.4608   4.4769   4.4846
     4.5294   4.5354   4.5491   4.5632   4.6011   4.6308   4.6448   4.6636
     4.6969   4.7379   4.7646   4.7888   4.8103   4.8366   4.8920   4.9295
     4.9450   4.9936   5.0119   5.0421   5.0747   5.0877   5.1377   5.1558
     5.2043   5.2308   5.2410   5.2782   5.3046   5.3405   5.3562   5.3740
     5.4024   5.4291   5.4445   5.4752   5.4958   5.5322   5.5418   5.5598
     5.5769   5.5937   5.6226   5.6474   5.6870   5.7130   5.7413   5.7463
     5.7509   5.7641   5.7816   5.8028   5.8071   5.8320   5.8463   5.8616
     5.8852   5.9123   5.9177   5.9356   5.9436   5.9680   5.9780   5.9809
     5.9949   6.0251   6.0392   6.0676   6.0824   6.0850   6.1051   6.1119
     6.1313   6.1506   6.1663   6.1743   6.1952   6.2145   6.2283   6.2480
     6.2548   6.2641   6.2829   6.3015   6.3088   6.3238   6.3479   6.3593
     6.3704   6.3819   6.3872   6.4012   6.4118   6.4282   6.4412   6.4475
     6.4626   6.4806   6.4876   6.4961   6.5166   6.5188   6.5260   6.5520
     6.5628   6.5695   6.5730   6.5867   6.6006   6.6138   6.6225   6.6433
     6.6559   6.6640   6.6707   6.6776   6.6834   6.7022   6.7049   6.7205
     6.7498   6.7562   6.7691   6.7798   6.7857   6.8012   6.8196   6.8315
     6.8371   6.8519   6.8655   6.8807   6.8848   6.9010   6.9176   6.9272
     6.9369   6.9545   6.9643   6.9813   6.9988   7.0020   7.0181   7.0442
     7.0474   7.0707   7.0799   7.0961   7.1041   7.1144   7.1186   7.1354
     7.1406   7.1493   7.1601   7.1734   7.1963   7.2065   7.2147   7.2201
     7.2430   7.2518   7.2543   7.2695   7.2724   7.3008   7.3142   7.3460
     7.3589   7.3998   7.4249   7.4516   7.4728   7.6477   7.6507   7.6789
    11.5137  12.4681  12.5990  12.6022  13.1993  13.3098  13.3628  13.3913
    13.4140  13.4473  13.4715  13.5270  13.5990  13.6207  13.6481  13.6725
    13.7159  13.7405  13.7450  13.8020  13.8466  13.8775  13.9100  13.9260
    14.0107  14.0180  14.0815  14.1090  14.2024  14.2152  14.2518  14.3047
    14.3624  14.3963  14.4520  14.5317  14.5903  14.6111  14.6582  14.7104
    14.7222  14.7602  14.8265  14.8431  14.9004  14.9225  14.9399  14.9616
    15.0208  15.0318  15.0567  15.1085  15.1191  15.1586  15.1748  15.1948
    15.2078  15.2275  15.2455  15.3056  15.3238  15.3577  15.3873  15.3966
    15.4190  15.4384  15.4471  15.4952  15.5122  15.5394  15.5603  15.5954
    15.6436  15.6561  15.6715  15.6893  15.7118  15.7401  15.7693  15.7771
    15.7994  15.8181  15.8666  15.8922  15.9290  15.9406  15.9491  15.9846
    16.0178  16.0340  16.0969  16.1000  16.1199  16.1579  16.1982  16.2297
    16.2644  16.3167  16.3445  16.3678  16.4050  16.4196

     occupation numbers 
     1.0000   1.0000   1.0000   1.0000   1.0000   1.0000   1.0000   1.0000
     1.0000   1.0000   1.0000   1.0000   1.0000   1.0000   1.0000   1.0000
     1.0000   1.0000   1.0000   1.0000   1.0000   1.0000   1.0000   1.0000
     1.0000   1.0000   1.0000   1.0000   1.0000   1.0000   1.0000   1.0000
     1.0000   1.0000   1.0000   1.0000   1.0000   1.0000   1.0000   1.0000
     1.0000   1.0000   1.0000   1.0000   1.0000   1.0000   1.0000   1.0000
     1.0000   1.0000   1.0000   1.0000   1.0000   1.0000   1.0000   1.0000
     1.0000   1.0000   1.0000   1.0000   1.0000   1.0000   1.0000   1.0000
     1.0000   1.0000   1.0000   1.0000   1.0000   1.0000   1.0000   1.0000
     1.0000   1.0000   1.0000   1.0000   1.0000   1.0000   1.0000   1.0000
     1.0000   1.0000   1.0000   1.0000   1.0000   1.0000   1.0000   1.0000
     1.0000   1.0000   1.0000   1.0000   1.0000   1.0000   1.0000   1.0000
     1.0000   1.0000   1.0000   1.0000   1.0000   1.0000   1.0000   1.0000
     1.0000   1.0000   1.0000   1.0000   1.0000   1.0000   1.0000   1.0000
     1.0000   1.0000   1.0000   1.0000   1.0000   1.0000   1.0000   1.0000
     1.0000   1.0000   1.0000   1.0000   1.0000   1.0000   1.0000   1.0000
     1.0000   1.0000   1.0000   1.0000   1.0000   1.0000   1.0000   1.0000
     1.0000   1.0000   1.0000   1.0000   1.0000   1.0000   1.0000   1.0000
     1.0000   1.0000   1.0000   1.0000   1.0000   1.0000   1.0000   1.0000
     1.0000   1.0000   1.0000   1.0000   1.0000   1.0000   1.0000   1.0000
     1.0000   1.0000   1.0000   1.0000   1.0000   1.0000   1.0000   1.0000
     1.0000   1.0000   1.0000   1.0000   1.0000   1.0000   1.0000   1.0000
     1.0000   1.0000   1.0000   1.0000   1.0000   1.0000   1.0000   1.0000
     1.0000   1.0000   1.0000   1.0000   1.0000   1.0000   1.0000   1.0000
     1.0000   1.0000   1.0000   1.0000   1.0000   1.0000   1.0000   1.0000
     1.0000   1.0000   1.0000   1.0000   1.0000   1.0000   1.0000   1.0000
     1.0000   1.0000   1.0000   1.0000   1.0000   1.0000   1.0000   1.0000
     1.0000   1.0000   1.0000   1.0000   1.0000   1.0000   1.0000   1.0000
     1.0000   1.0000   1.0000   1.0000   1.0000   1.0000   1.0000   1.0000
     1.0000   1.0000   1.0000   1.0000   1.0000   1.0000   1.0000   1.0000
     1.0000   1.0000   1.0000   1.0000   1.0000   1.0000   1.0000   1.0000
     1.0000   1.0000   1.0000   1.0000   1.0000   1.0000   1.0000   1.0000
     1.0000   1.0000   1.0000   1.0000   1.0000   1.0000   1.0000   1.0000
     1.0000   1.0000   1.0000   1.0000   1.0000   1.0000   1.0000   1.0000
     1.0000   1.0000   1.0000   1.0000   1.0000   1.0000   1.0000   1.0000
     1.0000   1.0000   1.0000   1.0000   1.0000   1.0000   1.0000   1.0000
     1.0000   1.0000   1.0000   1.0000   1.0000   1.0000   1.0000   1.0000
     1.0000   1.0000   1.0000   1.0000   1.0000   1.0000   1.0000   1.0000
     1.0000   1.0000   1.0000   1.0000   1.0000   1.0000   1.0000   1.0000
     1.0000   1.0000   1.0000   1.0000   1.0000   1.0000   1.0000   1.0000
     1.0000   1.0000   1.0000   1.0000   1.0000   1.0000   1.0000   1.0000
     1.0000   1.0000   1.0000   1.0000   1.0000   1.0000   1.0000   1.0000
     1.0000   1.0000   1.0000   1.0000   1.0000   1.0000   1.0000   1.0000
     1.0000   1.0000   1.0000   1.0000   1.0000   1.0000   1.0000   1.0000
     1.0000   1.0000   1.0000   1.0000   1.0000   1.0000   1.0000   1.0000
     1.0000   1.0000   1.0000   1.0000   1.0000   1.0000   1.0000   1.0000
     1.0000   1.0000   1.0000   1.0000   1.0000   1.0000   1.0000   1.0000
     1.0000   1.0000   1.0000   1.0000   1.0000   1.0000   1.0000   1.0000
     1.0000   1.0000   1.0000   1.0000   1.0000   1.0000   1.0000   1.0000
     1.0000   1.0000   1.0000   1.0000   1.0000   1.0000   1.0000   1.0000
     1.0000   1.0000   1.0000   1.0000   1.0000   1.0000   1.0000   1.0000
     1.0000   1.0000   1.0000   1.0000   1.0000   1.0000   1.0000   1.0000
     1.0000   1.0000   1.0000   1.0000   1.0000   1.0000   1.0000   1.0000
     1.0000   1.0000   1.0000   1.0000   1.0000   1.0000   1.0000   1.0000
     1.0000   1.0000   1.0000   1.0000   1.0000   1.0000   1.0000   1.0000
     1.0000   1.0000   1.0000   1.0000   1.0000   1.0000   1.0000   1.0000
     1.0000   1.0000   1.0000   1.0000   1.0000   1.0000   1.0000   1.0000
     1.0000   1.0000   1.0000   1.0000   1.0000   1.0000   1.0000   1.0000
     1.0000   1.0000   1.0000   1.0000   1.0000   1.0000   1.0000   1.0000
     1.0000   1.0000   1.0000   1.0000   1.0000   1.0000   1.0000   1.0000
     1.0000   1.0000   1.0000   1.0000   1.0000   1.0000   1.0000   1.0000
     1.0000   1.0000   1.0000   1.0000   1.0000   1.0000   1.0000   1.0000
     1.0000   1.0000   1.0000   1.0000   1.0000   1.0000   1.0000   1.0000
     1.0000   1.0000   1.0000   1.0000   1.0000   1.0000   1.0000   1.0000
     0.0000   0.0000   0.0000   0.0000   0.0000   0.0000   0.0000   0.0000
     0.0000   0.0000   0.0000   0.0000   0.0000   0.0000   0.0000   0.0000
     0.0000   0.0000   0.0000   0.0000   0.0000   0.0000   0.0000   0.0000
     0.0000   0.0000   0.0000   0.0000   0.0000   0.0000   0.0000   0.0000
     0.0000   0.0000   0.0000   0.0000   0.0000   0.0000   0.0000   0.0000
     0.0000   0.0000   0.0000   0.0000   0.0000   0.0000   0.0000   0.0000
     0.0000   0.0000   0.0000   0.0000   0.0000   0.0000   0.0000   0.0000
     0.0000   0.0000   0.0000   0.0000   0.0000   0.0000   0.0000   0.0000
     0.0000   0.0000   0.0000   0.0000   0.0000   0.0000   0.0000   0.0000
     0.0000   0.0000   0.0000   0.0000   0.0000   0.0000   0.0000   0.0000
     0.0000   0.0000   0.0000   0.0000   0.0000   0.0000   0.0000   0.0000
     0.0000   0.0000   0.0000   0.0000   0.0000   0.0000   0.0000   0.0000
     0.0000   0.0000   0.0000   0.0000   0.0000   0.0000

          k =-0.3509-0.3539 0.3522 ( 42088 PWs)   bands (ev):

   -65.4887 -65.4579 -65.4572 -65.4348 -65.3959 -65.3742 -65.3449 -65.3423
   -65.3309 -65.3240 -65.3010 -65.2821 -65.2719 -65.2576 -65.2565 -65.2349
   -65.2301 -65.2087 -65.1917 -65.1746 -65.1408 -65.1373 -65.1342 -65.1167
   -65.1118 -65.0949 -65.0895 -65.0820 -65.0715 -65.0519 -65.0369 -65.0321
   -64.9946 -64.9241 -64.8240 -32.4576 -32.4505 -32.4442 -32.4352 -32.4216
   -32.4181 -32.4175 -32.4161 -32.4108 -32.4050 -32.3979 -32.3894 -32.3665
   -32.3623 -32.3518 -32.3455 -32.3386 -32.3274 -32.3146 -32.3134 -32.3098
   -32.3042 -32.3025 -32.2999 -32.2988 -32.2962 -32.2905 -32.2898 -32.2856
   -32.2751 -32.2712 -32.2644 -32.2558 -32.2556 -32.2488 -32.2443 -32.2382
   -32.2370 -32.2298 -32.2282 -32.2252 -32.2241 -32.2189 -32.2103 -32.2085
   -32.2064 -32.1997 -32.1964 -32.1934 -32.1905 -32.1820 -32.1785 -32.1727
   -32.1641 -32.1617 -32.1577 -32.1477 -32.1471 -32.1363 -32.1348 -32.1216
   -32.1067 -32.1056 -32.1037 -32.1020 -32.1013 -32.0931 -32.0929 -32.0891
   -32.0876 -32.0837 -32.0821 -32.0755 -32.0699 -32.0691 -32.0653 -32.0604
   -32.0567 -32.0564 -32.0557 -32.0544 -32.0453 -32.0430 -32.0416 -32.0403
   -32.0363 -32.0236 -32.0234 -32.0160 -32.0076 -32.0066 -32.0020 -31.9999
   -31.9991 -31.9912 -31.9797 -31.9634 -31.9582 -31.9525 -31.8939 -31.8877
   -31.8814 -31.7976 -31.7897 -31.7820 -29.2465 -29.0347 -28.9520 -28.9285
   -28.8897 -28.8644 -28.8469 -28.8148 -28.8025 -28.7981 -28.7868 -28.7700
   -28.7425 -28.7208 -28.7129 -28.6905 -28.6723 -28.6583 -28.6413 -28.6116
   -28.6070 -28.5706 -28.5498 -28.5434 -28.5317 -28.5142 -28.4808 -28.3269
   -28.2507 -11.4617 -11.4047 -11.3943 -11.3625 -11.2498 -11.2218 -11.2032
   -11.1698 -11.1573 -11.1351 -11.0665 -11.0442 -11.0169 -10.9829 -10.9769
   -10.9352 -10.9233 -10.8955 -10.8610 -10.8457 -10.8116 -10.7712 -10.7641
   -10.7405 -10.7251 -10.6757 -10.6704 -10.6417 -10.6317 -10.6110 -10.5888
   -10.5837 -10.5780 -10.5435 -10.5115 -10.4707 -10.4521 -10.4398 -10.4208
   -10.3954 -10.3670 -10.3550 -10.3398 -10.3040 -10.2839 -10.2611 -10.2469
   -10.2405 -10.2042 -10.2004 -10.1888 -10.1759 -10.1611 -10.1399 -10.1113
   -10.1024 -10.0812 -10.0765 -10.0565 -10.0390 -10.0301 -10.0222 -10.0047
    -9.9979  -9.9815  -9.9731  -9.9545  -9.9520  -9.9514  -9.9076  -9.9009
    -9.8895  -9.8729  -9.8616  -9.8576  -9.8479  -9.8278  -9.8186  -9.8111
    -9.7929  -9.7774  -9.7633  -9.7471  -9.7134  -9.6771  -9.5987  -9.5387
    -8.3067  -8.2179  -8.0927  -7.9804  -7.9357  -7.9106  -7.9001  -7.8352
    -7.8155  -7.8079  -7.7756  -7.7527  -7.7371  -7.6892  -7.6845  -7.6731
    -7.6645  -7.6346  -7.6230  -7.5849  -7.5752  -7.5554  -7.5314  -7.4945
    -7.4833  -7.4372  -7.4288  -7.4025  -7.3702  -7.3486  -7.3279  -7.3162
    -7.2648  -7.2479  -7.2163  -7.1729  -7.1688  -7.1508  -7.1304  -7.0894
    -7.0757  -7.0688  -7.0551  -7.0295  -7.0025  -6.9603  -6.9178  -6.9057
    -6.8811  -6.8363  -6.8336  -6.8236  -6.7650  -6.7381  -6.6864  -6.6392
    -6.6262  -6.5942  -6.5576  -6.5343  -6.5273  -6.5220  -6.5132  -6.4185
     3.8396   3.8515   3.9100   3.9443   3.9985   4.0274   4.1592   4.2116
     4.2422   4.3246   4.3583   4.3622   4.4086   4.4215   4.4270   4.4550
     4.4832   4.4975   4.5462   4.5601   4.5925   4.6142   4.6296   4.6743
     4.7077   4.7576   4.7686   4.7955   4.8312   4.8578   4.9106   4.9345
     4.9656   4.9957   5.0152   5.0328   5.0567   5.0764   5.1056   5.1288
     5.1637   5.1792   5.1996   5.2335   5.2661   5.2791   5.2937   5.3453
     5.3689   5.3983   5.4136   5.4299   5.4533   5.4927   5.5161   5.5571
     5.5694   5.5888   5.6053   5.6288   5.6709   5.6921   5.7115   5.7549
     5.7751   5.8016   5.8252   5.8438   5.8612   5.8707   5.8818   5.9101
     5.9284   5.9439   5.9770   5.9863   6.0027   6.0180   6.0312   6.0425
     6.0493   6.0837   6.0997   6.1136   6.1320   6.1401   6.1545   6.1709
     6.1900   6.2012   6.2060   6.2245   6.2316   6.2428   6.2689   6.2799
     6.2936   6.3158   6.3310   6.3336   6.3441   6.3516   6.3652   6.3788
     6.3930   6.4027   6.4137   6.4240   6.4389   6.4499   6.4597   6.4653
     6.4784   6.4909   6.4992   6.5205   6.5288   6.5400   6.5536   6.5636
     6.5677   6.5805   6.5967   6.6074   6.6294   6.6406   6.6435   6.6580
     6.6663   6.6759   6.6793   6.6958   6.7026   6.7053   6.7231   6.7305
     6.7376   6.7476   6.7664   6.7747   6.7828   6.7943   6.8040   6.8165
     6.8349   6.8465   6.8556   6.8723   6.8828   6.8914   6.9003   6.9185
     6.9220   6.9272   6.9379   6.9660   6.9713   6.9948   6.9990   7.0042
     7.0165   7.0251   7.0335   7.0427   7.0453   7.0660   7.0820   7.0915
     7.1116   7.1144   7.1243   7.1517   7.1561   7.1627   7.1745   7.1839
     7.2007   7.2232   7.2279   7.2300   7.2473   7.2827   7.3041   7.3282
     7.3671   7.3824   7.4098   7.4484   7.4639   7.4827   7.5608   7.5896
    12.1469  12.3805  12.6594  12.8656  12.8772  13.1126  13.1746  13.2397
    13.2834  13.3304  13.3574  13.3985  13.4791  13.5306  13.5414  13.6237
    13.6503  13.8091  13.8433  14.0049  14.0423  14.1019  14.1398  14.1706
    14.1952  14.2241  14.2637  14.2944  14.3324  14.3740  14.3981  14.4327
    14.4523  14.4576  14.4970  14.5308  14.5658  14.5832  14.6210  14.6807
    14.6965  14.7091  14.7556  14.7765  14.8023  14.8566  14.8707  14.8859
    14.9565  14.9778  15.0171  15.0413  15.0622  15.0685  15.0861  15.1121
    15.1689  15.1943  15.1978  15.2176  15.2470  15.2727  15.2819  15.3121
    15.3484  15.3716  15.4067  15.4510  15.4820  15.4876  15.5238  15.5505
    15.5952  15.6114  15.6328  15.6562  15.6648  15.7011  15.7396  15.7988
    15.8133  15.8447  15.8567  15.9035  15.9267  15.9501  15.9683  15.9761
    16.0089  16.0258  16.0554  16.0826  16.1190  16.1396  16.1478  16.2163
    16.2336  16.2529  16.3102  16.3316  16.3643  16.3942

     occupation numbers 
     1.0000   1.0000   1.0000   1.0000   1.0000   1.0000   1.0000   1.0000
     1.0000   1.0000   1.0000   1.0000   1.0000   1.0000   1.0000   1.0000
     1.0000   1.0000   1.0000   1.0000   1.0000   1.0000   1.0000   1.0000
     1.0000   1.0000   1.0000   1.0000   1.0000   1.0000   1.0000   1.0000
     1.0000   1.0000   1.0000   1.0000   1.0000   1.0000   1.0000   1.0000
     1.0000   1.0000   1.0000   1.0000   1.0000   1.0000   1.0000   1.0000
     1.0000   1.0000   1.0000   1.0000   1.0000   1.0000   1.0000   1.0000
     1.0000   1.0000   1.0000   1.0000   1.0000   1.0000   1.0000   1.0000
     1.0000   1.0000   1.0000   1.0000   1.0000   1.0000   1.0000   1.0000
     1.0000   1.0000   1.0000   1.0000   1.0000   1.0000   1.0000   1.0000
     1.0000   1.0000   1.0000   1.0000   1.0000   1.0000   1.0000   1.0000
     1.0000   1.0000   1.0000   1.0000   1.0000   1.0000   1.0000   1.0000
     1.0000   1.0000   1.0000   1.0000   1.0000   1.0000   1.0000   1.0000
     1.0000   1.0000   1.0000   1.0000   1.0000   1.0000   1.0000   1.0000
     1.0000   1.0000   1.0000   1.0000   1.0000   1.0000   1.0000   1.0000
     1.0000   1.0000   1.0000   1.0000   1.0000   1.0000   1.0000   1.0000
     1.0000   1.0000   1.0000   1.0000   1.0000   1.0000   1.0000   1.0000
     1.0000   1.0000   1.0000   1.0000   1.0000   1.0000   1.0000   1.0000
     1.0000   1.0000   1.0000   1.0000   1.0000   1.0000   1.0000   1.0000
     1.0000   1.0000   1.0000   1.0000   1.0000   1.0000   1.0000   1.0000
     1.0000   1.0000   1.0000   1.0000   1.0000   1.0000   1.0000   1.0000
     1.0000   1.0000   1.0000   1.0000   1.0000   1.0000   1.0000   1.0000
     1.0000   1.0000   1.0000   1.0000   1.0000   1.0000   1.0000   1.0000
     1.0000   1.0000   1.0000   1.0000   1.0000   1.0000   1.0000   1.0000
     1.0000   1.0000   1.0000   1.0000   1.0000   1.0000   1.0000   1.0000
     1.0000   1.0000   1.0000   1.0000   1.0000   1.0000   1.0000   1.0000
     1.0000   1.0000   1.0000   1.0000   1.0000   1.0000   1.0000   1.0000
     1.0000   1.0000   1.0000   1.0000   1.0000   1.0000   1.0000   1.0000
     1.0000   1.0000   1.0000   1.0000   1.0000   1.0000   1.0000   1.0000
     1.0000   1.0000   1.0000   1.0000   1.0000   1.0000   1.0000   1.0000
     1.0000   1.0000   1.0000   1.0000   1.0000   1.0000   1.0000   1.0000
     1.0000   1.0000   1.0000   1.0000   1.0000   1.0000   1.0000   1.0000
     1.0000   1.0000   1.0000   1.0000   1.0000   1.0000   1.0000   1.0000
     1.0000   1.0000   1.0000   1.0000   1.0000   1.0000   1.0000   1.0000
     1.0000   1.0000   1.0000   1.0000   1.0000   1.0000   1.0000   1.0000
     1.0000   1.0000   1.0000   1.0000   1.0000   1.0000   1.0000   1.0000
     1.0000   1.0000   1.0000   1.0000   1.0000   1.0000   1.0000   1.0000
     1.0000   1.0000   1.0000   1.0000   1.0000   1.0000   1.0000   1.0000
     1.0000   1.0000   1.0000   1.0000   1.0000   1.0000   1.0000   1.0000
     1.0000   1.0000   1.0000   1.0000   1.0000   1.0000   1.0000   1.0000
     1.0000   1.0000   1.0000   1.0000   1.0000   1.0000   1.0000   1.0000
     1.0000   1.0000   1.0000   1.0000   1.0000   1.0000   1.0000   1.0000
     1.0000   1.0000   1.0000   1.0000   1.0000   1.0000   1.0000   1.0000
     1.0000   1.0000   1.0000   1.0000   1.0000   1.0000   1.0000   1.0000
     1.0000   1.0000   1.0000   1.0000   1.0000   1.0000   1.0000   1.0000
     1.0000   1.0000   1.0000   1.0000   1.0000   1.0000   1.0000   1.0000
     1.0000   1.0000   1.0000   1.0000   1.0000   1.0000   1.0000   1.0000
     1.0000   1.0000   1.0000   1.0000   1.0000   1.0000   1.0000   1.0000
     1.0000   1.0000   1.0000   1.0000   1.0000   1.0000   1.0000   1.0000
     1.0000   1.0000   1.0000   1.0000   1.0000   1.0000   1.0000   1.0000
     1.0000   1.0000   1.0000   1.0000   1.0000   1.0000   1.0000   1.0000
     1.0000   1.0000   1.0000   1.0000   1.0000   1.0000   1.0000   1.0000
     1.0000   1.0000   1.0000   1.0000   1.0000   1.0000   1.0000   1.0000
     1.0000   1.0000   1.0000   1.0000   1.0000   1.0000   1.0000   1.0000
     1.0000   1.0000   1.0000   1.0000   1.0000   1.0000   1.0000   1.0000
     1.0000   1.0000   1.0000   1.0000   1.0000   1.0000   1.0000   1.0000
     1.0000   1.0000   1.0000   1.0000   1.0000   1.0000   1.0000   1.0000
     1.0000   1.0000   1.0000   1.0000   1.0000   1.0000   1.0000   1.0000
     1.0000   1.0000   1.0000   1.0000   1.0000   1.0000   1.0000   1.0000
     1.0000   1.0000   1.0000   1.0000   1.0000   1.0000   1.0000   1.0000
     1.0000   1.0000   1.0000   1.0000   1.0000   1.0000   1.0000   1.0000
     1.0000   1.0000   1.0000   1.0000   1.0000   1.0000   1.0000   1.0000
     1.0000   1.0000   1.0000   1.0000   1.0000   1.0000   1.0000   1.0000
     1.0000   1.0000   1.0000   1.0000   1.0000   1.0000   1.0000   1.0000
     0.0000   0.0000   0.0000   0.0000   0.0000   0.0000   0.0000   0.0000
     0.0000   0.0000   0.0000   0.0000   0.0000   0.0000   0.0000   0.0000
     0.0000   0.0000   0.0000   0.0000   0.0000   0.0000   0.0000   0.0000
     0.0000   0.0000   0.0000   0.0000   0.0000   0.0000   0.0000   0.0000
     0.0000   0.0000   0.0000   0.0000   0.0000   0.0000   0.0000   0.0000
     0.0000   0.0000   0.0000   0.0000   0.0000   0.0000   0.0000   0.0000
     0.0000   0.0000   0.0000   0.0000   0.0000   0.0000   0.0000   0.0000
     0.0000   0.0000   0.0000   0.0000   0.0000   0.0000   0.0000   0.0000
     0.0000   0.0000   0.0000   0.0000   0.0000   0.0000   0.0000   0.0000
     0.0000   0.0000   0.0000   0.0000   0.0000   0.0000   0.0000   0.0000
     0.0000   0.0000   0.0000   0.0000   0.0000   0.0000   0.0000   0.0000
     0.0000   0.0000   0.0000   0.0000   0.0000   0.0000   0.0000   0.0000
     0.0000   0.0000   0.0000   0.0000   0.0000   0.0000

          k =-0.3537 0.3518-0.3528 ( 42120 PWs)   bands (ev):

   -65.4887 -65.4579 -65.4572 -65.4348 -65.3959 -65.3742 -65.3449 -65.3423
   -65.3309 -65.3240 -65.3010 -65.2821 -65.2719 -65.2576 -65.2565 -65.2349
   -65.2301 -65.2087 -65.1917 -65.1746 -65.1408 -65.1373 -65.1342 -65.1167
   -65.1118 -65.0949 -65.0895 -65.0820 -65.0715 -65.0519 -65.0369 -65.0321
   -64.9946 -64.9241 -64.8240 -32.4576 -32.4505 -32.4442 -32.4352 -32.4216
   -32.4181 -32.4175 -32.4161 -32.4108 -32.4050 -32.3979 -32.3894 -32.3665
   -32.3623 -32.3518 -32.3455 -32.3386 -32.3274 -32.3146 -32.3134 -32.3098
   -32.3042 -32.3025 -32.2999 -32.2988 -32.2962 -32.2905 -32.2898 -32.2856
   -32.2751 -32.2712 -32.2644 -32.2558 -32.2556 -32.2488 -32.2443 -32.2382
   -32.2370 -32.2298 -32.2282 -32.2252 -32.2241 -32.2189 -32.2103 -32.2085
   -32.2064 -32.1997 -32.1964 -32.1934 -32.1905 -32.1820 -32.1785 -32.1727
   -32.1641 -32.1617 -32.1577 -32.1477 -32.1471 -32.1363 -32.1348 -32.1216
   -32.1067 -32.1056 -32.1037 -32.1020 -32.1013 -32.0931 -32.0929 -32.0891
   -32.0876 -32.0837 -32.0821 -32.0755 -32.0699 -32.0691 -32.0653 -32.0604
   -32.0567 -32.0564 -32.0557 -32.0544 -32.0453 -32.0431 -32.0415 -32.0403
   -32.0363 -32.0236 -32.0234 -32.0160 -32.0076 -32.0066 -32.0020 -31.9999
   -31.9991 -31.9912 -31.9797 -31.9634 -31.9582 -31.9525 -31.8939 -31.8877
   -31.8814 -31.7976 -31.7897 -31.7820 -29.2465 -29.0345 -28.9528 -28.9284
   -28.8887 -28.8646 -28.8470 -28.8151 -28.8019 -28.7987 -28.7864 -28.7701
   -28.7425 -28.7213 -28.7126 -28.6905 -28.6723 -28.6586 -28.6409 -28.6127
   -28.6062 -28.5706 -28.5499 -28.5434 -28.5318 -28.5140 -28.4808 -28.3270
   -28.2507 -11.4267 -11.3862 -11.3773 -11.3364 -11.2889 -11.2823 -11.2149
   -11.1688 -11.1394 -11.1269 -11.1044 -11.0462 -11.0170 -10.9909 -10.9818
   -10.9283 -10.9078 -10.8877 -10.8807 -10.8565 -10.7952 -10.7805 -10.7641
   -10.7570 -10.7223 -10.6976 -10.6809 -10.6733 -10.6451 -10.6315 -10.6005
   -10.5816 -10.5636 -10.5241 -10.4893 -10.4489 -10.4416 -10.4273 -10.4201
   -10.4044 -10.3584 -10.3451 -10.3238 -10.3041 -10.2718 -10.2662 -10.2403
   -10.2228 -10.2058 -10.1855 -10.1709 -10.1571 -10.1460 -10.1254 -10.1064
   -10.0888 -10.0760 -10.0665 -10.0541 -10.0333 -10.0265 -10.0057  -9.9971
    -9.9967  -9.9919  -9.9719  -9.9557  -9.9523  -9.9318  -9.9198  -9.9104
    -9.8965  -9.8840  -9.8738  -9.8599  -9.8480  -9.8315  -9.8145  -9.8079
    -9.7811  -9.7792  -9.7563  -9.7426  -9.7126  -9.6799  -9.6595  -9.6426
    -8.3010  -8.2137  -8.0956  -7.9925  -7.9363  -7.8742  -7.8417  -7.8388
    -7.8028  -7.7997  -7.7649  -7.7467  -7.7261  -7.7040  -7.6949  -7.6718
    -7.6634  -7.6423  -7.6320  -7.5823  -7.5599  -7.5393  -7.5345  -7.4996
    -7.4618  -7.4518  -7.4190  -7.4036  -7.3918  -7.3579  -7.3292  -7.3135
    -7.2910  -7.2727  -7.2553  -7.2341  -7.2150  -7.1944  -7.1332  -7.1125
    -7.0897  -7.0578  -7.0100  -6.9836  -6.9457  -6.9253  -6.8955  -6.8827
    -6.8498  -6.8356  -6.8196  -6.7947  -6.7726  -6.7630  -6.7379  -6.7029
    -6.5997  -6.5911  -6.5673  -6.5366  -6.5282  -6.5131  -6.4698  -6.4459
     3.8306   3.8683   3.9339   3.9615   3.9834   4.0575   4.1410   4.2167
     4.2310   4.2846   4.2988   4.3146   4.3644   4.4211   4.4261   4.4690
     4.4735   4.5387   4.5548   4.5771   4.6276   4.6929   4.6986   4.7198
     4.7508   4.7545   4.7799   4.8055   4.8493   4.8658   4.8722   4.9063
     4.9361   4.9713   5.0041   5.0097   5.0369   5.0536   5.0661   5.1036
     5.1253   5.1447   5.1940   5.2450   5.2653   5.2949   5.3051   5.3178
     5.3480   5.3795   5.4142   5.4240   5.4887   5.4916   5.5142   5.5663
     5.5838   5.6183   5.6220   5.6486   5.6753   5.6890   5.7071   5.7336
     5.7577   5.7933   5.8009   5.8242   5.8313   5.8485   5.8770   5.8938
     5.9367   5.9563   5.9781   5.9866   5.9963   6.0214   6.0248   6.0365
     6.0575   6.0842   6.0997   6.1225   6.1376   6.1537   6.1715   6.1818
     6.2067   6.2168   6.2363   6.2469   6.2544   6.2592   6.2808   6.2916
     6.2974   6.3091   6.3247   6.3387   6.3586   6.3644   6.3788   6.3853
     6.3912   6.3979   6.4112   6.4217   6.4438   6.4485   6.4588   6.4752
     6.4923   6.5056   6.5132   6.5174   6.5316   6.5466   6.5538   6.5581
     6.5766   6.5871   6.5898   6.6052   6.6132   6.6288   6.6430   6.6559
     6.6717   6.6762   6.6900   6.6931   6.6974   6.7140   6.7252   6.7314
     6.7443   6.7559   6.7710   6.7777   6.7898   6.7959   6.8203   6.8281
     6.8364   6.8389   6.8473   6.8772   6.8851   6.8997   6.9016   6.9064
     6.9139   6.9295   6.9334   6.9599   6.9670   6.9735   6.9772   6.9916
     7.0143   7.0227   7.0329   7.0379   7.0566   7.0645   7.0688   7.0740
     7.0847   7.0892   7.1081   7.1313   7.1622   7.1635   7.1808   7.2017
     7.2137   7.2191   7.2339   7.2614   7.2720   7.2999   7.3077   7.3250
     7.3471   7.3691   7.3896   7.4071   7.4537   7.4916   7.5588   7.5883
    12.1912  12.3316  12.8206  12.8824  12.9202  13.0091  13.0572  13.0809
    13.1578  13.3627  13.4401  13.4984  13.5119  13.5429  13.5595  13.6867
    13.7462  13.7888  13.8959  13.9628  14.0217  14.0634  14.0917  14.1564
    14.1671  14.2060  14.2228  14.2871  14.3033  14.3515  14.3713  14.4185
    14.4447  14.4843  14.4985  14.5290  14.5740  14.5841  14.6138  14.6396
    14.6700  14.6823  14.7470  14.7577  14.7924  14.8289  14.8787  14.9076
    14.9174  14.9496  14.9653  14.9973  15.0802  15.0914  15.1193  15.1505
    15.1833  15.2273  15.2456  15.2500  15.2703  15.3048  15.3415  15.3720
    15.3740  15.3943  15.4203  15.4412  15.4841  15.5087  15.5511  15.5562
    15.5613  15.6285  15.6444  15.6501  15.6776  15.7132  15.7377  15.7485
    15.8007  15.8452  15.8514  15.8774  15.8925  15.9423  15.9772  16.0013
    16.0280  16.0462  16.0910  16.1052  16.1673  16.2009  16.2148  16.2507
    16.2544  16.2830  16.3299  16.3505  16.3912  16.4353

     occupation numbers 
     1.0000   1.0000   1.0000   1.0000   1.0000   1.0000   1.0000   1.0000
     1.0000   1.0000   1.0000   1.0000   1.0000   1.0000   1.0000   1.0000
     1.0000   1.0000   1.0000   1.0000   1.0000   1.0000   1.0000   1.0000
     1.0000   1.0000   1.0000   1.0000   1.0000   1.0000   1.0000   1.0000
     1.0000   1.0000   1.0000   1.0000   1.0000   1.0000   1.0000   1.0000
     1.0000   1.0000   1.0000   1.0000   1.0000   1.0000   1.0000   1.0000
     1.0000   1.0000   1.0000   1.0000   1.0000   1.0000   1.0000   1.0000
     1.0000   1.0000   1.0000   1.0000   1.0000   1.0000   1.0000   1.0000
     1.0000   1.0000   1.0000   1.0000   1.0000   1.0000   1.0000   1.0000
     1.0000   1.0000   1.0000   1.0000   1.0000   1.0000   1.0000   1.0000
     1.0000   1.0000   1.0000   1.0000   1.0000   1.0000   1.0000   1.0000
     1.0000   1.0000   1.0000   1.0000   1.0000   1.0000   1.0000   1.0000
     1.0000   1.0000   1.0000   1.0000   1.0000   1.0000   1.0000   1.0000
     1.0000   1.0000   1.0000   1.0000   1.0000   1.0000   1.0000   1.0000
     1.0000   1.0000   1.0000   1.0000   1.0000   1.0000   1.0000   1.0000
     1.0000   1.0000   1.0000   1.0000   1.0000   1.0000   1.0000   1.0000
     1.0000   1.0000   1.0000   1.0000   1.0000   1.0000   1.0000   1.0000
     1.0000   1.0000   1.0000   1.0000   1.0000   1.0000   1.0000   1.0000
     1.0000   1.0000   1.0000   1.0000   1.0000   1.0000   1.0000   1.0000
     1.0000   1.0000   1.0000   1.0000   1.0000   1.0000   1.0000   1.0000
     1.0000   1.0000   1.0000   1.0000   1.0000   1.0000   1.0000   1.0000
     1.0000   1.0000   1.0000   1.0000   1.0000   1.0000   1.0000   1.0000
     1.0000   1.0000   1.0000   1.0000   1.0000   1.0000   1.0000   1.0000
     1.0000   1.0000   1.0000   1.0000   1.0000   1.0000   1.0000   1.0000
     1.0000   1.0000   1.0000   1.0000   1.0000   1.0000   1.0000   1.0000
     1.0000   1.0000   1.0000   1.0000   1.0000   1.0000   1.0000   1.0000
     1.0000   1.0000   1.0000   1.0000   1.0000   1.0000   1.0000   1.0000
     1.0000   1.0000   1.0000   1.0000   1.0000   1.0000   1.0000   1.0000
     1.0000   1.0000   1.0000   1.0000   1.0000   1.0000   1.0000   1.0000
     1.0000   1.0000   1.0000   1.0000   1.0000   1.0000   1.0000   1.0000
     1.0000   1.0000   1.0000   1.0000   1.0000   1.0000   1.0000   1.0000
     1.0000   1.0000   1.0000   1.0000   1.0000   1.0000   1.0000   1.0000
     1.0000   1.0000   1.0000   1.0000   1.0000   1.0000   1.0000   1.0000
     1.0000   1.0000   1.0000   1.0000   1.0000   1.0000   1.0000   1.0000
     1.0000   1.0000   1.0000   1.0000   1.0000   1.0000   1.0000   1.0000
     1.0000   1.0000   1.0000   1.0000   1.0000   1.0000   1.0000   1.0000
     1.0000   1.0000   1.0000   1.0000   1.0000   1.0000   1.0000   1.0000
     1.0000   1.0000   1.0000   1.0000   1.0000   1.0000   1.0000   1.0000
     1.0000   1.0000   1.0000   1.0000   1.0000   1.0000   1.0000   1.0000
     1.0000   1.0000   1.0000   1.0000   1.0000   1.0000   1.0000   1.0000
     1.0000   1.0000   1.0000   1.0000   1.0000   1.0000   1.0000   1.0000
     1.0000   1.0000   1.0000   1.0000   1.0000   1.0000   1.0000   1.0000
     1.0000   1.0000   1.0000   1.0000   1.0000   1.0000   1.0000   1.0000
     1.0000   1.0000   1.0000   1.0000   1.0000   1.0000   1.0000   1.0000
     1.0000   1.0000   1.0000   1.0000   1.0000   1.0000   1.0000   1.0000
     1.0000   1.0000   1.0000   1.0000   1.0000   1.0000   1.0000   1.0000
     1.0000   1.0000   1.0000   1.0000   1.0000   1.0000   1.0000   1.0000
     1.0000   1.0000   1.0000   1.0000   1.0000   1.0000   1.0000   1.0000
     1.0000   1.0000   1.0000   1.0000   1.0000   1.0000   1.0000   1.0000
     1.0000   1.0000   1.0000   1.0000   1.0000   1.0000   1.0000   1.0000
     1.0000   1.0000   1.0000   1.0000   1.0000   1.0000   1.0000   1.0000
     1.0000   1.0000   1.0000   1.0000   1.0000   1.0000   1.0000   1.0000
     1.0000   1.0000   1.0000   1.0000   1.0000   1.0000   1.0000   1.0000
     1.0000   1.0000   1.0000   1.0000   1.0000   1.0000   1.0000   1.0000
     1.0000   1.0000   1.0000   1.0000   1.0000   1.0000   1.0000   1.0000
     1.0000   1.0000   1.0000   1.0000   1.0000   1.0000   1.0000   1.0000
     1.0000   1.0000   1.0000   1.0000   1.0000   1.0000   1.0000   1.0000
     1.0000   1.0000   1.0000   1.0000   1.0000   1.0000   1.0000   1.0000
     1.0000   1.0000   1.0000   1.0000   1.0000   1.0000   1.0000   1.0000
     1.0000   1.0000   1.0000   1.0000   1.0000   1.0000   1.0000   1.0000
     1.0000   1.0000   1.0000   1.0000   1.0000   1.0000   1.0000   1.0000
     1.0000   1.0000   1.0000   1.0000   1.0000   1.0000   1.0000   1.0000
     1.0000   1.0000   1.0000   1.0000   1.0000   1.0000   1.0000   1.0000
     1.0000   1.0000   1.0000   1.0000   1.0000   1.0000   1.0000   1.0000
     0.0000   0.0000   0.0000   0.0000   0.0000   0.0000   0.0000   0.0000
     0.0000   0.0000   0.0000   0.0000   0.0000   0.0000   0.0000   0.0000
     0.0000   0.0000   0.0000   0.0000   0.0000   0.0000   0.0000   0.0000
     0.0000   0.0000   0.0000   0.0000   0.0000   0.0000   0.0000   0.0000
     0.0000   0.0000   0.0000   0.0000   0.0000   0.0000   0.0000   0.0000
     0.0000   0.0000   0.0000   0.0000   0.0000   0.0000   0.0000   0.0000
     0.0000   0.0000   0.0000   0.0000   0.0000   0.0000   0.0000   0.0000
     0.0000   0.0000   0.0000   0.0000   0.0000   0.0000   0.0000   0.0000
     0.0000   0.0000   0.0000   0.0000   0.0000   0.0000   0.0000   0.0000
     0.0000   0.0000   0.0000   0.0000   0.0000   0.0000   0.0000   0.0000
     0.0000   0.0000   0.0000   0.0000   0.0000   0.0000   0.0000   0.0000
     0.0000   0.0000   0.0000   0.0000   0.0000   0.0000   0.0000   0.0000
     0.0000   0.0000   0.0000   0.0000   0.0000   0.0000

          k =-0.7046-0.0020-0.0006 ( 42162 PWs)   bands (ev):

   -65.4887 -65.4579 -65.4572 -65.4348 -65.3959 -65.3742 -65.3449 -65.3423
   -65.3309 -65.3240 -65.3010 -65.2821 -65.2719 -65.2576 -65.2565 -65.2349
   -65.2301 -65.2087 -65.1917 -65.1746 -65.1408 -65.1373 -65.1342 -65.1167
   -65.1118 -65.0949 -65.0895 -65.0820 -65.0715 -65.0519 -65.0369 -65.0321
   -64.9946 -64.9241 -64.8240 -32.4576 -32.4505 -32.4442 -32.4352 -32.4216
   -32.4181 -32.4175 -32.4161 -32.4108 -32.4050 -32.3979 -32.3894 -32.3665
   -32.3623 -32.3518 -32.3455 -32.3386 -32.3274 -32.3146 -32.3134 -32.3098
   -32.3042 -32.3025 -32.2999 -32.2988 -32.2962 -32.2905 -32.2898 -32.2856
   -32.2751 -32.2712 -32.2644 -32.2558 -32.2556 -32.2488 -32.2443 -32.2382
   -32.2370 -32.2298 -32.2282 -32.2252 -32.2241 -32.2189 -32.2103 -32.2085
   -32.2064 -32.1997 -32.1964 -32.1934 -32.1905 -32.1820 -32.1785 -32.1727
   -32.1641 -32.1617 -32.1577 -32.1477 -32.1471 -32.1363 -32.1348 -32.1216
   -32.1067 -32.1056 -32.1037 -32.1020 -32.1013 -32.0931 -32.0929 -32.0891
   -32.0876 -32.0837 -32.0821 -32.0755 -32.0699 -32.0691 -32.0653 -32.0604
   -32.0567 -32.0564 -32.0557 -32.0544 -32.0453 -32.0430 -32.0416 -32.0403
   -32.0363 -32.0236 -32.0234 -32.0160 -32.0076 -32.0066 -32.0020 -31.9999
   -31.9991 -31.9912 -31.9797 -31.9634 -31.9582 -31.9525 -31.8939 -31.8877
   -31.8814 -31.7976 -31.7897 -31.7820 -29.2465 -29.0345 -28.9528 -28.9285
   -28.8887 -28.8644 -28.8471 -28.8154 -28.8017 -28.7987 -28.7864 -28.7701
   -28.7428 -28.7209 -28.7126 -28.6906 -28.6723 -28.6586 -28.6411 -28.6117
   -28.6070 -28.5706 -28.5499 -28.5434 -28.5318 -28.5140 -28.4808 -28.3270
   -28.2507 -11.4251 -11.3833 -11.3755 -11.3385 -11.2862 -11.2807 -11.2129
   -11.1699 -11.1432 -11.1191 -11.0959 -11.0639 -11.0459 -10.9841 -10.9730
   -10.9504 -10.9237 -10.8872 -10.8762 -10.8528 -10.8002 -10.7818 -10.7675
   -10.7230 -10.7124 -10.7039 -10.6719 -10.6527 -10.6507 -10.6287 -10.6124
   -10.5746 -10.5626 -10.5358 -10.5026 -10.4731 -10.4407 -10.4224 -10.3859
   -10.3561 -10.3387 -10.3310 -10.3246 -10.2975 -10.2866 -10.2638 -10.2502
   -10.2235 -10.2102 -10.1964 -10.1768 -10.1637 -10.1404 -10.1315 -10.1229
   -10.1007 -10.0874 -10.0770 -10.0603 -10.0455 -10.0334 -10.0110  -9.9939
    -9.9906  -9.9861  -9.9765  -9.9615  -9.9439  -9.9366  -9.9116  -9.9031
    -9.8915  -9.8815  -9.8605  -9.8546  -9.8400  -9.8269  -9.8188  -9.8162
    -9.7955  -9.7945  -9.7515  -9.7376  -9.7121  -9.6794  -9.6634  -9.6362
    -8.2767  -8.1849  -8.1017  -7.9808  -7.9689  -7.9284  -7.9015  -7.8215
    -7.8209  -7.7878  -7.7470  -7.7261  -7.7145  -7.7044  -7.6907  -7.6643
    -7.6382  -7.6336  -7.5950  -7.5717  -7.5679  -7.5268  -7.5023  -7.4904
    -7.4810  -7.4525  -7.4402  -7.4137  -7.4016  -7.3629  -7.3516  -7.3367
    -7.3293  -7.2695  -7.2380  -7.2148  -7.1759  -7.1721  -7.1346  -7.1180
    -7.1127  -7.0573  -7.0366  -7.0247  -6.9959  -6.9299  -6.8845  -6.8688
    -6.8494  -6.8424  -6.8147  -6.8111  -6.7652  -6.7082  -6.6750  -6.6461
    -6.6368  -6.6185  -6.5778  -6.5363  -6.5218  -6.5095  -6.4983  -6.4456
     3.8942   3.9187   3.9521   3.9966   4.0106   4.0306   4.1093   4.1546
     4.2493   4.3153   4.3322   4.3598   4.3867   4.3998   4.4256   4.4401
[...]
     atom   76 type  3   force =   0.00000000E+00  0.00000000E+00  0.00000000E+00
     atom   77 type  1   force =   0.00000000E+00  0.00000000E+00  0.00000000E+00
     atom   78 type  3   force =   0.00000000E+00  0.00000000E+00  0.00000000E+00
     atom   79 type  2   force =   0.00000000E+00  0.00000000E+00  0.00000000E+00
     atom   80 type  3   force =   0.00000000E+00  0.00000000E+00  0.00000000E+00
     atom   81 type  1   force =   0.00000000E+00  0.00000000E+00  0.00000000E+00
     atom   82 type  3   force =   0.00000000E+00  0.00000000E+00  0.00000000E+00
     atom   83 type  2   force =   0.00000000E+00  0.00000000E+00  0.00000000E+00
     atom   84 type  3   force =   0.00000000E+00  0.00000000E+00  0.00000000E+00
     atom   85 type  2   force =   0.00000000E+00  0.00000000E+00  0.00000000E+00
     atom   86 type  3   force =   0.00000000E+00  0.00000000E+00  0.00000000E+00
     atom   87 type  1   force =   0.00000000E+00  0.00000000E+00  0.00000000E+00
     atom   88 type  3   force =   0.00000000E+00  0.00000000E+00  0.00000000E+00
     atom   89 type  2   force =   0.00000000E+00  0.00000000E+00  0.00000000E+00
     atom   90 type  3   force =   0.00000000E+00  0.00000000E+00  0.00000000E+00
     atom   91 type  2   force =   0.00000000E+00  0.00000000E+00  0.00000000E+00
     atom   92 type  3   force =   0.00000000E+00  0.00000000E+00  0.00000000E+00
     atom   93 type  1   force =   0.00000000E+00  0.00000000E+00  0.00000000E+00
     atom   94 type  3   force =   0.00000000E+00  0.00000000E+00  0.00000000E+00
     atom   95 type  2   force =   0.00000000E+00  0.00000000E+00  0.00000000E+00
     atom   96 type  3   force =   0.00000000E+00  0.00000000E+00  0.00000000E+00
     atom   97 type  1   force =   0.00000000E+00  0.00000000E+00  0.00000000E+00
     atom   98 type  3   force =   0.00000000E+00  0.00000000E+00  0.00000000E+00
     atom   99 type  2   force =   0.00000000E+00  0.00000000E+00  0.00000000E+00
     atom  100 type  3   force =   0.00000000E+00  0.00000000E+00  0.00000000E+00
     atom  101 type  2   force =   0.00000000E+00  0.00000000E+00  0.00000000E+00
     atom  102 type  3   force =   0.00000000E+00  0.00000000E+00  0.00000000E+00
     atom  103 type  2   force =   0.00000000E+00  0.00000000E+00  0.00000000E+00
     atom  104 type  3   force =   0.00000000E+00  0.00000000E+00  0.00000000E+00
     atom  105 type  1   force =   0.00000000E+00  0.00000000E+00  0.00000000E+00
     atom  106 type  3   force =   0.00000000E+00  0.00000000E+00  0.00000000E+00
     atom  107 type  2   force =   0.00000000E+00  0.00000000E+00  0.00000000E+00
     atom  108 type  3   force =   0.00000000E+00  0.00000000E+00  0.00000000E+00
     atom  109 type  2   force =   0.00000000E+00  0.00000000E+00  0.00000000E+00
     atom  110 type  3   force =   0.00000000E+00  0.00000000E+00  0.00000000E+00
     atom  111 type  2   force =   0.00000000E+00  0.00000000E+00  0.00000000E+00
     atom  112 type  3   force =   0.00000000E+00  0.00000000E+00  0.00000000E+00
     atom  113 type  1   force =   0.00000000E+00  0.00000000E+00  0.00000000E+00
     atom  114 type  3   force =   0.00000000E+00  0.00000000E+00  0.00000000E+00
     atom  115 type  2   force =   0.00000000E+00  0.00000000E+00  0.00000000E+00
     atom  116 type  3   force =   0.00000000E+00  0.00000000E+00  0.00000000E+00
     atom  117 type  1   force =   0.00000000E+00  0.00000000E+00  0.00000000E+00
     atom  118 type  3   force =   0.00000000E+00  0.00000000E+00  0.00000000E+00
     atom  119 type  1   force =   0.00000000E+00  0.00000000E+00  0.00000000E+00
     atom  120 type  3   force =   0.00000000E+00  0.00000000E+00  0.00000000E+00
     atom  121 type  1   force =   0.00000000E+00  0.00000000E+00  0.00000000E+00
     atom  122 type  3   force =   0.00000000E+00  0.00000000E+00  0.00000000E+00
     atom  123 type  2   force =   0.00000000E+00  0.00000000E+00  0.00000000E+00
     atom  124 type  3   force =   0.00000000E+00  0.00000000E+00  0.00000000E+00
     atom  125 type  1   force =   0.00000000E+00  0.00000000E+00  0.00000000E+00
     atom  126 type  3   force =   0.00000000E+00  0.00000000E+00  0.00000000E+00
     atom  127 type  2   force =   0.00000000E+00  0.00000000E+00  0.00000000E+00
     atom  128 type  3   force =   0.00000000E+00  0.00000000E+00  0.00000000E+00
     The SCF correction term to forces
     atom    1 type  1   force =   0.88081221E-06 -0.54998130E-06  0.92429576E-06
     atom    2 type  3   force =   0.12989673E-05 -0.27448793E-05 -0.10757762E-05
     atom    3 type  2   force =   0.16903777E-05 -0.54865019E-06 -0.62662550E-05
     atom    4 type  3   force =   0.14381062E-05 -0.54926637E-06 -0.62772848E-06
     atom    5 type  2   force =  -0.48476776E-06 -0.15821196E-05 -0.43623366E-05
     atom    6 type  3   force =   0.18987117E-05  0.94318043E-06  0.60245454E-06
     atom    7 type  2   force =   0.54498360E-06  0.12324255E-05  0.90661059E-06
     atom    8 type  3   force =   0.19664521E-06 -0.28905839E-05  0.93891578E-06
     atom    9 type  2   force =   0.83073256E-07 -0.53495389E-05  0.14056055E-05
     atom   10 type  3   force =   0.66483303E-06 -0.83938963E-06  0.13693438E-05
     atom   11 type  1   force =   0.66955426E-06 -0.24543334E-05 -0.23132046E-05
     atom   12 type  3   force =   0.99924262E-06  0.97119080E-06  0.15072626E-05
     atom   13 type  1   force =   0.13454891E-05  0.79523526E-06 -0.82038740E-06
     atom   14 type  3   force =   0.20872048E-05  0.46910210E-06  0.82216261E-06
     atom   15 type  2   force =   0.28374171E-05  0.19636332E-05  0.23612054E-05
     atom   16 type  3   force =  -0.42986828E-06 -0.38473192E-05  0.10946186E-05
     atom   17 type  2   force =  -0.44597381E-05 -0.20207254E-05  0.12937054E-05
     atom   18 type  3   force =   0.11377673E-06  0.98953539E-06  0.89282501E-06
     atom   19 type  1   force =   0.32060276E-06  0.61887969E-06  0.18903027E-05
     atom   20 type  3   force =   0.14171850E-05  0.75201062E-06 -0.65818812E-06
     atom   21 type  1   force =   0.42689204E-05  0.32024205E-05  0.33003151E-05
     atom   22 type  3   force =  -0.76098097E-06 -0.62948102E-06 -0.26547667E-05
     atom   23 type  2   force =  -0.90895403E-06 -0.30505118E-06  0.21520916E-05
     atom   24 type  3   force =  -0.17654771E-05 -0.22150895E-06  0.82334300E-07
     atom   25 type  1   force =  -0.14537827E-05  0.11763747E-05  0.18374755E-05
     atom   26 type  3   force =  -0.28007315E-07 -0.88463196E-07 -0.29028950E-05
     atom   27 type  1   force =   0.27694778E-05  0.30304274E-05  0.26573681E-06
     atom   28 type  3   force =   0.47982841E-06 -0.21351349E-06 -0.43991704E-05
     atom   29 type  2   force =   0.49203159E-06  0.79889655E-06 -0.37406780E-05
     atom   30 type  3   force =  -0.10341029E-06  0.21370807E-06 -0.22474471E-05
     atom   31 type  1   force =  -0.49423992E-05 -0.14737805E-05 -0.17765457E-05
     atom   32 type  3   force =  -0.25720519E-06 -0.10310881E-06  0.93690535E-07
     atom   33 type  2   force =  -0.99054967E-06 -0.53195095E-05 -0.22450395E-05
     atom   34 type  3   force =   0.28368193E-05  0.54989476E-07  0.11622568E-05
     atom   35 type  1   force =   0.19065256E-05 -0.15963045E-06 -0.39336440E-05
     atom   36 type  3   force =   0.16486942E-05  0.12311401E-05  0.14762793E-05
     atom   37 type  1   force =   0.20139650E-05  0.18104811E-05 -0.88557845E-06
     atom   38 type  3   force =   0.20394685E-06 -0.14426615E-05  0.79250863E-06
     atom   39 type  2   force =   0.56693793E-06 -0.21810209E-05  0.12542108E-05
     atom   40 type  3   force =  -0.50740808E-06 -0.45009628E-05  0.81777984E-06
     atom   41 type  1   force =   0.19114923E-05 -0.70438326E-05  0.20821708E-05
     atom   42 type  3   force =   0.18095149E-05 -0.26287705E-06  0.10334123E-05
     atom   43 type  1   force =   0.30355193E-05 -0.35546187E-07  0.23387553E-05
     atom   44 type  3   force =   0.10138705E-05 -0.11139364E-06  0.31021712E-06
     atom   45 type  1   force =   0.36438866E-05  0.22001466E-05  0.16573369E-05
     atom   46 type  3   force =   0.94926035E-06 -0.27558223E-05 -0.11117966E-05
     atom   47 type  2   force =   0.15144265E-05 -0.62426707E-05  0.66634411E-06
     atom   48 type  3   force =   0.20033466E-05 -0.26568244E-05  0.12076849E-05
     atom   49 type  2   force =   0.78822931E-06 -0.16490179E-05  0.25868376E-05
     atom   50 type  3   force =  -0.63914741E-06  0.91542791E-06 -0.24879788E-05
     atom   51 type  2   force =   0.20307738E-05  0.10972782E-05  0.27671650E-05
     atom   52 type  3   force =  -0.77982387E-06  0.31976404E-06 -0.26635361E-05
     atom   53 type  2   force =   0.17926596E-05 -0.29600708E-06 -0.27358588E-05
     atom   54 type  3   force =   0.24654022E-06  0.13005719E-06 -0.17226702E-05
     atom   55 type  2   force =   0.96776552E-06 -0.41841591E-05 -0.89018462E-06
     atom   56 type  3   force =  -0.10346577E-06 -0.18511154E-06 -0.95650580E-06
     atom   57 type  1   force =  -0.76023998E-06  0.44259625E-06 -0.23455000E-05
     atom   58 type  3   force =  -0.97548750E-06  0.74240725E-06 -0.30661827E-05
     atom   59 type  2   force =  -0.13247726E-05  0.63568261E-06 -0.79654256E-05
     atom   60 type  3   force =   0.85268369E-07  0.21722447E-05 -0.10371452E-05
     atom   61 type  2   force =  -0.13966348E-06  0.53932700E-06 -0.59289388E-05
     atom   62 type  3   force =   0.25044951E-06  0.93431155E-06  0.61149637E-06
     atom   63 type  2   force =  -0.15857606E-05  0.88479400E-06 -0.24022308E-05
     atom   64 type  3   force =  -0.15530412E-05 -0.17729963E-05 -0.85815552E-06
     atom   65 type  1   force =  -0.17449158E-05 -0.29184690E-06  0.81652498E-06
     atom   66 type  3   force =   0.15702577E-05  0.19795252E-05  0.18080002E-05
     atom   67 type  2   force =   0.26371558E-05  0.49667097E-05  0.17446471E-05
     atom   68 type  3   force =   0.33153911E-08  0.14636830E-05  0.11747458E-06
     atom   69 type  1   force =   0.67553172E-06  0.22782352E-05  0.25944582E-05
     atom   70 type  3   force =  -0.31526127E-05 -0.13648826E-05  0.47545016E-06
     atom   71 type  1   force =  -0.41290433E-05 -0.38739304E-05  0.26036902E-05
     atom   72 type  3   force =  -0.51328336E-06  0.29109832E-06  0.24000385E-05
     atom   73 type  2   force =   0.45552998E-05 -0.65710649E-06  0.37683261E-05
     atom   74 type  3   force =   0.33646529E-06  0.43617853E-06  0.34912166E-07
     atom   75 type  1   force =   0.24265168E-05  0.17663402E-05  0.20512100E-05
     atom   76 type  3   force =  -0.11201955E-05 -0.92413657E-06 -0.82354333E-06
     atom   77 type  1   force =   0.77259454E-08 -0.87084024E-06  0.33882751E-06
     atom   78 type  3   force =   0.29198283E-06 -0.11683433E-05  0.93856972E-06
     atom   79 type  2   force =  -0.41416074E-06 -0.47344144E-05  0.10606932E-05
     atom   80 type  3   force =   0.11743544E-05  0.88741717E-06  0.17855928E-05
     atom   81 type  1   force =   0.10793964E-05  0.57975552E-06 -0.66036918E-06
     atom   82 type  3   force =  -0.14086025E-05  0.11070728E-05 -0.22875487E-05
     atom   83 type  2   force =  -0.77294722E-06  0.11610199E-06 -0.25272371E-05
     atom   84 type  3   force =   0.15951098E-06  0.76867575E-06 -0.66083039E-06
     atom   85 type  2   force =   0.60741771E-06 -0.15505803E-05 -0.18717985E-05
     atom   86 type  3   force =   0.11497796E-06  0.57213371E-06  0.91834279E-06
     atom   87 type  1   force =   0.15198931E-05 -0.20613814E-05 -0.54953485E-07
     atom   88 type  3   force =  -0.20898984E-05  0.82986926E-06  0.50212915E-07
     atom   89 type  2   force =  -0.35107269E-05  0.20827583E-05 -0.41889941E-05
     atom   90 type  3   force =  -0.56761243E-07  0.27656010E-05  0.13916648E-06
     atom   91 type  2   force =  -0.12215408E-05  0.38397132E-05 -0.32375062E-05
     atom   92 type  3   force =   0.12718589E-05  0.20821824E-05  0.11667273E-05
     atom   93 type  1   force =  -0.19055279E-06  0.23862183E-05 -0.85128452E-06
     atom   94 type  3   force =  -0.18762618E-05 -0.24117038E-06  0.24504383E-05
     atom   95 type  2   force =  -0.18907110E-05 -0.32173638E-06  0.27779750E-06
     atom   96 type  3   force =  -0.40693569E-05 -0.21466361E-06  0.13744610E-05
     atom   97 type  1   force =  -0.99469308E-07  0.29960734E-05  0.34226496E-05
     atom   98 type  3   force =   0.11045257E-05 -0.48804749E-06 -0.61110197E-06
     atom   99 type  2   force =   0.29655372E-05  0.39574023E-05  0.62349348E-06
     atom  100 type  3   force =  -0.18039070E-06 -0.71760220E-06 -0.26485144E-05
     atom  101 type  2   force =  -0.31632231E-05 -0.11544085E-06 -0.15152646E-06
     atom  102 type  3   force =  -0.11998884E-05  0.23215167E-06 -0.35869183E-06
     atom  103 type  2   force =  -0.66156003E-05 -0.88600759E-06  0.18367825E-05
     atom  104 type  3   force =   0.56879294E-06  0.81729889E-06  0.19815168E-05
     atom  105 type  1   force =   0.10839815E-05  0.16042615E-05  0.26950209E-05
     atom  106 type  3   force =  -0.94819050E-06 -0.10777984E-05 -0.62100757E-06
     atom  107 type  2   force =  -0.78747297E-07  0.54020670E-06 -0.16889755E-05
     atom  108 type  3   force =   0.95579695E-07 -0.61760203E-06 -0.54689462E-06
     atom  109 type  2   force =  -0.32564911E-05 -0.20250930E-05 -0.22169046E-06
     atom  110 type  3   force =   0.18120818E-05  0.15653968E-05  0.14262103E-05
     atom  111 type  2   force =  -0.20872545E-06  0.15535705E-05  0.29006364E-05
     atom  112 type  3   force =  -0.53191802E-06 -0.10831284E-06  0.21364673E-05
     atom  113 type  1   force =  -0.30682809E-05  0.81180931E-06  0.19956159E-06
     atom  114 type  3   force =  -0.85841311E-06  0.67028122E-06  0.19806414E-06
     atom  115 type  2   force =  -0.57033125E-06 -0.58226376E-06 -0.26085994E-05
     atom  116 type  3   force =   0.16869874E-05  0.10752214E-05  0.10036135E-05
     atom  117 type  1   force =   0.17011043E-05 -0.29926908E-06  0.19228884E-07
     atom  118 type  3   force =   0.15387881E-06  0.15774886E-05  0.18084504E-05
     atom  119 type  1   force =   0.28793429E-06  0.20071259E-05  0.35903597E-05
     atom  120 type  3   force =  -0.38648113E-05 -0.39455026E-06  0.58878024E-06
     atom  121 type  1   force =  -0.47040343E-05  0.10833933E-05  0.40424215E-06
     atom  122 type  3   force =   0.10450504E-05  0.17458221E-05  0.73875855E-06
     atom  123 type  2   force =   0.22556140E-05  0.26575501E-05 -0.55768633E-06
     atom  124 type  3   force =   0.11242203E-05  0.12995680E-05 -0.10258269E-05
     atom  125 type  1   force =   0.18489444E-05  0.25026458E-05  0.34941394E-05
     atom  126 type  3   force =  -0.25701053E-05 -0.11146105E-05 -0.78335124E-06
     atom  127 type  2   force =  -0.59040376E-05  0.80711044E-06  0.47278238E-05
     atom  128 type  3   force =  -0.19203912E-05  0.26222741E-06  0.11345223E-05

     Total force =     0.539132     Total SCF correction =     0.000040


     entering subroutine stress ...

          total   stress  (Ry/bohr**3)                   (kbar)     P=   17.24
   0.0000934557   0.0000074642   0.0000261253         13.75      1.10      3.84
   0.0000074642   0.0001073822   0.0000159171          1.10     15.80      2.34
   0.0000261253   0.0000159171   0.0001506977          3.84      2.34     22.17

     kinetic stress (kbar)  21105.95      0.20      3.33
                                0.20  21107.34      1.28
                                3.33      1.28  21116.61

     local   stress (kbar)  -3151.80     10.26     62.72
                               10.26  -3316.20      3.57
                               62.72      3.57  -3582.22

     nonloc. stress (kbar)   5367.28      0.12     -0.23
                                0.12   5368.01     -0.09
                               -0.23     -0.09   5367.93

     hartree stress (kbar)  11544.43     -2.35    -25.29
                               -2.35  11605.58      1.99
                              -25.29      1.99  11698.73

     exc-cor stress (kbar)  -5539.53     -0.04     -0.06
                               -0.04  -5539.40     -0.03
                               -0.06     -0.03  -5539.15

     corecor stress (kbar)   -992.73     -0.00     -0.01
                               -0.00   -992.74     -0.00
                               -0.01     -0.00   -992.78

     ewald   stress (kbar) -28319.86     -7.08    -36.61
                               -7.08 -28216.79     -4.37
                              -36.61     -4.37 -28046.95

     hubbard stress (kbar)      0.00      0.00      0.00
                                0.00      0.00      0.00
                                0.00      0.00      0.00

     london  stress (kbar)      0.00      0.00      0.00
                                0.00      0.00      0.00
                                0.00      0.00      0.00

     XDM     stress (kbar)      0.00      0.00      0.00
                                0.00      0.00      0.00
                                0.00      0.00      0.00

     dft-nl  stress (kbar)      0.00      0.00      0.00
                                0.00      0.00      0.00
                                0.00      0.00      0.00



     Writing output data file CaO_mix444.a.011.save

     init_run     :    825.50s CPU    736.25s WALL (       1 calls)
     electrons    :  52876.09s CPU  38678.90s WALL (       1 calls)
     forces       :    547.43s CPU    334.78s WALL (       1 calls)
     stress       :   1764.75s CPU   1729.11s WALL (       1 calls)

     Called by init_run:
     wfcinit      :    785.11s CPU    695.11s WALL (       1 calls)
     potinit      :      6.84s CPU      6.97s WALL (       1 calls)

     Called by electrons:
     c_bands      :  46999.98s CPU  33829.95s WALL (      26 calls)
     sum_band     :   5362.02s CPU   4319.76s WALL (      26 calls)
     v_of_rho     :     11.79s CPU     13.19s WALL (      27 calls)
     v_h          :      0.60s CPU      0.80s WALL (      27 calls)
     v_xc         :     11.98s CPU     13.27s WALL (      29 calls)
     newd         :    507.44s CPU    519.15s WALL (      27 calls)
     mix_rho      :     15.65s CPU     17.83s WALL (      26 calls)

     Called by c_bands:
     init_us_2    :     52.28s CPU     53.73s WALL (     440 calls)
     cegterg      :  46610.55s CPU  33429.77s WALL (     208 calls)

     Called by sum_band:
     sum_band:bec :     18.07s CPU     18.21s WALL (     208 calls)
     addusdens    :    430.60s CPU    434.71s WALL (      26 calls)

     Called by *egterg:
     h_psi        :  19511.75s CPU  15049.62s WALL (     785 calls)
     s_psi        :   6157.14s CPU   3464.45s WALL (     785 calls)
     g_psi        :     10.62s CPU     11.02s WALL (     569 calls)
     cdiaghg      :   9795.72s CPU   8225.54s WALL (     777 calls)
     cegterg:over :   5189.02s CPU   3154.17s WALL (     569 calls)
     cegterg:upda :   2347.23s CPU   1338.58s WALL (     569 calls)
     cegterg:last :   1779.11s CPU    991.48s WALL (     208 calls)

     Called by h_psi:
     h_psi:vloc   :   6041.65s CPU   7223.45s WALL (     785 calls)
     h_psi:vnl    :  13450.98s CPU   7806.46s WALL (     785 calls)
     add_vuspsi   :   6143.41s CPU   3488.21s WALL (     785 calls)

     General routines
     calbec       :  11085.74s CPU   6630.34s WALL (    1009 calls)
     fft          :    202.44s CPU    204.51s WALL (     453 calls)
     ffts         :      9.33s CPU     10.72s WALL (     710 calls)
     fftw         :   6467.46s CPU   7893.96s WALL (  698130 calls)
     interpolate  :      2.26s CPU      2.82s WALL (      53 calls)

     Parallel routines
     fft_scatter  :   3249.53s CPU   4066.35s WALL (  699293 calls)

     PWSCF        :    15h33m CPU       11h31m WALL


   This run was terminated on:   7:36:41  19Aug2017            

=------------------------------------------------------------------------------=
   JOB DONE.
=------------------------------------------------------------------------------=
