
     Program PWSCF v.5.1 starts on  1Sep2017 at 10:54:22 

     This program is part of the open-source Quantum ESPRESSO suite
     for quantum simulation of materials; please cite
         "P. Giannozzi et al., J. Phys.:Condens. Matter 21 395502 (2009);
          URL http://www.quantum-espresso.org", 
     in publications or presentations arising from this work. More details at
     http://www.quantum-espresso.org/quote

     Parallel version (MPI), running on     2 processors
     R & G space division:  proc/nbgrp/npool/nimage =       2
     Reading input from /tmp/CaO_rocksalt.relax.in.up_1.00.sx.12524/CaO_rocksalt.relax.in.up_1.00.sx.t
Warning: card &IONS ignored
Warning: card   ION_DYNAMICS='BFGS', ignored
Warning: card / ignored
Warning: card &CELL ignored
Warning: card  CELL_DYNAMICS = 'BFGS' ignored
Warning: card / ignored
     Message from routine read_cards :
     DEPRECATED: no units specified in CELL_PARAMETERS card

     Current dimensions of program PWSCF are:
     Max number of different atomic species (ntypx) = 10
     Max number of k-points (npk) =  40000
     Max angular momentum in pseudopotentials (lmaxx) =  3
 kfg - two_fermi_energies  F

     Subspace diagonalization in iterative solution of the eigenvalue problem:
     a serial algorithm will be used


     Parallelization info
     --------------------
     sticks:   dense  smooth     PW     G-vecs:    dense   smooth      PW
     Min         280     221     75                 4412     3135     608
     Max         283     222     76                 4413     3144     611
     Sum         563     443    151                 8825     6279    1219



     bravais-lattice index     =            0
     lattice parameter (alat)  =     6.372166499  a.u.
     unit-cell volume          =     184.7854 (a.u.)^3
     number of atoms/cell      =            2
     number of atomic types    =            2
     number of electrons       =        16.00
     number of Kohn-Sham states=           12
     kinetic-energy cutoff     =      40.0000  Ry
     charge density cutoff     =     200.0000  Ry
     convergence threshold     =      1.0E-10
     mixing beta               =       0.3000
     number of iterations used =            8  local-TF  mixing
     Exchange-correlation      = SLA  PW   PSX  PSC ( 1  4 10  8 0)
     A smooth kinetic-energy cutoff is imposed at      39.5000 Ry
     height of the smooth step-function =             800.0000 Ry
     width of the smooth step-function  =               1.0000 Ry


     celldm(1)=   6.372166  celldm(2)=   0.000000  celldm(3)=   0.000000
     celldm(4)=   0.000000  celldm(5)=   0.000000  celldm(6)=   0.000000

     crystal axes: (cart. coord. in units of alat)
               a(1) = (   0.000000000000   0.707106781187   0.707106781187 )  
               a(2) = (   0.714177848998   0.000000000000   0.707106781187 )  
               a(3) = (   0.714177848998   0.707106781187   0.000000000000 )  

     reciprocal axes: (cart. coord. in units 2 pi/alat)
               b(1) = ( -0.700106  0.707107  0.707107 )  
               b(2) = (  0.700106 -0.707107  0.707107 )  
               b(3) = (  0.700106  0.707107 -0.707107 )  


     PseudoPot. # 1 for Ca read from file:
     /users/kfg/psuedo/gbrv_1.5/ca.pbesol.UPF
     MD5 check sum: 0533207b58cddeaa036efa5b63902087
     Pseudo is Ultrasoft + core correction, Zval = 10.0
     Generated by new atomic code, or converted to UPF format
     Using radial grid of  845 points,  6 beta functions with: 
                l(1) =   0
                l(2) =   0
                l(3) =   1
                l(4) =   1
                l(5) =   2
                l(6) =   2
     Q(r) pseudized with  8 coefficients,  rinner =    1.500   1.500   1.500
                                                       1.500   1.500

     PseudoPot. # 2 for O  read from file:
     /users/kfg/psuedo/gbrv_1.5/o.pbesol.UPF
     MD5 check sum: 501638753501ef6325af9037351f7734
     Pseudo is Ultrasoft + core correction, Zval =  6.0
     Generated by new atomic code, or converted to UPF format
     Using radial grid of  737 points,  5 beta functions with: 
                l(1) =   0
                l(2) =   0
                l(3) =   1
                l(4) =   1
                l(5) =   2
     Q(r) pseudized with  8 coefficients,  rinner =    0.900   0.900   0.900
                                                       0.900   0.900

     atomic species   valence    mass     pseudopotential
        Ca            10.00    40.07800     Ca( 1.00)
        O              6.00    15.99940     O ( 1.00)

     16 Sym. Ops., with inversion, found


                                    s                        frac. trans.

      isym =  1     identity                                     

 cryst.   s( 1) = (     1          0          0      )
                  (     0          1          0      )
                  (     0          0          1      )

 cart.    s( 1) = (  1.0000000  0.0000000  0.0000000 )
                  (  0.0000000  1.0000000  0.0000000 )
                  (  0.0000000  0.0000000  1.0000000 )


      isym =  2     180 deg rotation - cart. axis [0,0,1]        

 cryst.   s( 2) = (     0          1         -1      )
                  (     1          0         -1      )
                  (     0          0         -1      )

 cart.    s( 2) = ( -1.0000000  0.0000000  0.0000000 )
                  (  0.0000000 -1.0000000  0.0000000 )
                  (  0.0000000  0.0000000  1.0000000 )


      isym =  3     180 deg rotation - cart. axis [0,1,0]        

 cryst.   s( 3) = (     0         -1          1      )
                  (     0         -1          0      )
                  (     1         -1          0      )

 cart.    s( 3) = ( -1.0000000  0.0000000  0.0000000 )
                  (  0.0000000  1.0000000  0.0000000 )
                  (  0.0000000  0.0000000 -1.0000000 )


      isym =  4     180 deg rotation - cart. axis [1,0,0]        

 cryst.   s( 4) = (    -1          0          0      )
                  (    -1          0          1      )
                  (    -1          1          0      )

 cart.    s( 4) = (  1.0000000  0.0000000  0.0000000 )
                  (  0.0000000 -1.0000000  0.0000000 )
                  (  0.0000000  0.0000000 -1.0000000 )


      isym =  5     180 deg rotation - cart. axis [0,1,1]        

 cryst.   s( 5) = (     1          0          0      )
                  (     1         -1          0      )
                  (     1          0         -1      )

 cart.    s( 5) = ( -1.0000000  0.0000000  0.0000000 )
                  (  0.0000000  0.0000000  1.0000000 )
                  (  0.0000000  1.0000000  0.0000000 )


      isym =  6     180 deg rotation - cart. axis [0,1,-1]       

 cryst.   s( 6) = (    -1          0          0      )
                  (     0          0         -1      )
                  (     0         -1          0      )

 cart.    s( 6) = ( -1.0000000  0.0000000  0.0000000 )
                  (  0.0000000  0.0000000 -1.0000000 )
                  (  0.0000000 -1.0000000  0.0000000 )


      isym =  7      90 deg rotation - cart. axis [-1,0,0]       

 cryst.   s( 7) = (     0         -1          1      )
                  (     0          0          1      )
                  (    -1          0          1      )

 cart.    s( 7) = (  1.0000000  0.0000000  0.0000000 )
                  (  0.0000000  0.0000000  1.0000000 )
                  (  0.0000000 -1.0000000  0.0000000 )


      isym =  8      90 deg rotation - cart. axis [1,0,0]        

 cryst.   s( 8) = (     0          1         -1      )
                  (    -1          1          0      )
                  (     0          1          0      )

 cart.    s( 8) = (  1.0000000  0.0000000  0.0000000 )
                  (  0.0000000  0.0000000 -1.0000000 )
                  (  0.0000000  1.0000000  0.0000000 )


      isym =  9     inversion                                    

 cryst.   s( 9) = (    -1          0          0      )
                  (     0         -1          0      )
                  (     0          0         -1      )

 cart.    s( 9) = ( -1.0000000  0.0000000  0.0000000 )
                  (  0.0000000 -1.0000000  0.0000000 )
                  (  0.0000000  0.0000000 -1.0000000 )


      isym = 10     inv. 180 deg rotation - cart. axis [0,0,1]   

 cryst.   s(10) = (     0         -1          1      )
                  (    -1          0          1      )
                  (     0          0          1      )

 cart.    s(10) = (  1.0000000  0.0000000  0.0000000 )
                  (  0.0000000  1.0000000  0.0000000 )
                  (  0.0000000  0.0000000 -1.0000000 )


      isym = 11     inv. 180 deg rotation - cart. axis [0,1,0]   

 cryst.   s(11) = (     0          1         -1      )
                  (     0          1          0      )
                  (    -1          1          0      )

 cart.    s(11) = (  1.0000000  0.0000000  0.0000000 )
                  (  0.0000000 -1.0000000  0.0000000 )
                  (  0.0000000  0.0000000  1.0000000 )


      isym = 12     inv. 180 deg rotation - cart. axis [1,0,0]   

 cryst.   s(12) = (     1          0          0      )
                  (     1          0         -1      )
                  (     1         -1          0      )

 cart.    s(12) = ( -1.0000000  0.0000000  0.0000000 )
                  (  0.0000000  1.0000000  0.0000000 )
                  (  0.0000000  0.0000000  1.0000000 )


      isym = 13     inv. 180 deg rotation - cart. axis [0,1,1]   

 cryst.   s(13) = (    -1          0          0      )
                  (    -1          1          0      )
                  (    -1          0          1      )

 cart.    s(13) = (  1.0000000  0.0000000  0.0000000 )
                  (  0.0000000  0.0000000 -1.0000000 )
                  (  0.0000000 -1.0000000  0.0000000 )


      isym = 14     inv. 180 deg rotation - cart. axis [0,1,-1]  

 cryst.   s(14) = (     1          0          0      )
                  (     0          0          1      )
                  (     0          1          0      )

 cart.    s(14) = (  1.0000000  0.0000000  0.0000000 )
                  (  0.0000000  0.0000000  1.0000000 )
                  (  0.0000000  1.0000000  0.0000000 )


      isym = 15     inv.  90 deg rotation - cart. axis [-1,0,0]  

 cryst.   s(15) = (     0          1         -1      )
                  (     0          0         -1      )
                  (     1          0         -1      )

 cart.    s(15) = ( -1.0000000  0.0000000  0.0000000 )
                  (  0.0000000  0.0000000 -1.0000000 )
                  (  0.0000000  1.0000000  0.0000000 )


      isym = 16     inv.  90 deg rotation - cart. axis [1,0,0]   

 cryst.   s(16) = (     0         -1          1      )
                  (     1         -1          0      )
                  (     0         -1          0      )

 cart.    s(16) = ( -1.0000000  0.0000000  0.0000000 )
                  (  0.0000000  0.0000000  1.0000000 )
                  (  0.0000000 -1.0000000  0.0000000 )


     point group D_4h(4/mmm)
     there are 10 classes
     the character table:

       E     2C4   C2    2C2'  2C2'' i     2S4   s_h   2s_v  2s_d 
A_1g   1.00  1.00  1.00  1.00  1.00  1.00  1.00  1.00  1.00  1.00
A_2g   1.00  1.00  1.00 -1.00 -1.00  1.00  1.00  1.00 -1.00 -1.00
B_1g   1.00 -1.00  1.00  1.00 -1.00  1.00 -1.00  1.00  1.00 -1.00
B_2g   1.00 -1.00  1.00 -1.00  1.00  1.00 -1.00  1.00 -1.00  1.00
E_g    2.00  0.00 -2.00  0.00  0.00  2.00  0.00 -2.00  0.00  0.00
A_1u   1.00  1.00  1.00  1.00  1.00 -1.00 -1.00 -1.00 -1.00 -1.00
A_2u   1.00  1.00  1.00 -1.00 -1.00 -1.00 -1.00 -1.00  1.00  1.00
B_1u   1.00 -1.00  1.00  1.00 -1.00 -1.00  1.00 -1.00 -1.00  1.00
B_2u   1.00 -1.00  1.00 -1.00  1.00 -1.00  1.00 -1.00  1.00 -1.00
E_u    2.00  0.00 -2.00  0.00  0.00 -2.00  0.00  2.00  0.00  0.00

     the symmetry operations in each class:
     E        1
     2C2'     2    3
     C2       4
     2C2''    5    6
     2C4      7    8
     i        9
     2s_v    10   11
     s_h     12
     2s_d    13   14
     2S4     15   16

   Cartesian axes

     site n.     atom                  positions (alat units)
         1           Ca  tau(   1) = (    0.00000000000    0.00000000000    0.00000000000  )
         2           O   tau(   2) = (    0.71417784900    0.70710678119    0.70710678119  )

   Crystallographic axes

     site n.     atom                  positions (cryst. coord.)
         1           Ca  tau(   1) = (    0.00000000000    0.00000000000    0.00000000000  )
         2           O   tau(   2) = (    0.50000000000    0.50000000000    0.50000000000  )

     number of k points=    59  gaussian smearing, width (Ry)=  0.0050
                       cart. coord. in units 2pi/alat
        k(    1) = (   0.0000000   0.0000000   0.0000000), wk =   0.0039063
        k(    2) = (   0.0875132   0.0883883  -0.0883883), wk =   0.0312500
        k(    3) = (   0.1750264   0.1767767  -0.1767767), wk =   0.0312500
        k(    4) = (   0.2625396   0.2651650  -0.2651650), wk =   0.0312500
        k(    5) = (  -0.3500529  -0.3535534   0.3535534), wk =   0.0156250
        k(    6) = (   0.1750264   0.0000000   0.0000000), wk =   0.0078125
        k(    7) = (   0.2625396   0.0883883  -0.0883883), wk =   0.0312500
        k(    8) = (   0.3500529   0.1767767  -0.1767767), wk =   0.0312500
        k(    9) = (  -0.2625396  -0.4419417   0.4419417), wk =   0.0312500
        k(   10) = (  -0.1750264  -0.3535534   0.3535534), wk =   0.0312500
        k(   11) = (  -0.0875132  -0.2651650   0.2651650), wk =   0.0312500
        k(   12) = (   0.0000000  -0.1767767   0.1767767), wk =   0.0156250
        k(   13) = (   0.3500529   0.0000000   0.0000000), wk =   0.0078125
        k(   14) = (   0.4375661   0.0883883  -0.0883883), wk =   0.0312500
        k(   15) = (  -0.1750264  -0.5303301   0.5303301), wk =   0.0312500
        k(   16) = (  -0.0875132  -0.4419417   0.4419417), wk =   0.0312500
        k(   17) = (   0.0000000  -0.3535534   0.3535534), wk =   0.0156250
        k(   18) = (   0.5250793   0.0000000   0.0000000), wk =   0.0078125
        k(   19) = (  -0.0875132  -0.6187184   0.6187184), wk =   0.0312500
        k(   20) = (   0.0000000  -0.5303301   0.5303301), wk =   0.0156250
        k(   21) = (  -0.7001057   0.0000000   0.0000000), wk =   0.0039063
        k(   22) = (   0.0000000   0.1767767   0.0000000), wk =   0.0156250
        k(   23) = (   0.0875132   0.2651650  -0.0883883), wk =   0.0625000
        k(   24) = (   0.1750264   0.3535534  -0.1767767), wk =   0.0625000
        k(   25) = (  -0.4375661  -0.2651650   0.4419417), wk =   0.0625000
        k(   26) = (  -0.3500529  -0.1767767   0.3535534), wk =   0.0625000
        k(   27) = (  -0.2625396  -0.0883883   0.2651650), wk =   0.0625000
        k(   28) = (  -0.1750264   0.0000000   0.1767767), wk =   0.0312500
        k(   29) = (   0.3500529   0.1767767   0.0000000), wk =   0.0312500
        k(   30) = (  -0.2625396  -0.4419417   0.6187184), wk =   0.0625000
        k(   31) = (  -0.1750264  -0.3535534   0.5303301), wk =   0.0625000
        k(   32) = (  -0.0875132  -0.2651650   0.4419417), wk =   0.0625000
        k(   33) = (   0.0000000  -0.1767767   0.3535534), wk =   0.0312500
        k(   34) = (  -0.1750264  -0.5303301   0.7071068), wk =   0.0312500
        k(   35) = (  -0.0875132  -0.4419417   0.6187184), wk =   0.0625000
        k(   36) = (   0.0000000  -0.3535534   0.5303301), wk =   0.0312500
        k(   37) = (  -0.7001057   0.1767767   0.0000000), wk =   0.0156250
        k(   38) = (   0.0000000   0.3535534   0.0000000), wk =   0.0156250
        k(   39) = (   0.0875132   0.4419417  -0.0883883), wk =   0.0625000
        k(   40) = (  -0.5250793  -0.1767767   0.5303301), wk =   0.0625000
        k(   41) = (  -0.4375661  -0.0883883   0.4419417), wk =   0.0625000
        k(   42) = (  -0.3500529   0.0000000   0.3535534), wk =   0.0312500
        k(   43) = (   0.1750264   0.3535534   0.0000000), wk =   0.0312500
        k(   44) = (  -0.4375661  -0.2651650   0.6187184), wk =   0.0625000
        k(   45) = (  -0.3500529  -0.1767767   0.5303301), wk =   0.0312500
        k(   46) = (  -0.1750264  -0.3535534   0.7071068), wk =   0.0312500
        k(   47) = (  -0.0875132  -0.2651650   0.6187184), wk =   0.0625000
        k(   48) = (   0.0000000  -0.1767767   0.5303301), wk =   0.0312500
        k(   49) = (  -0.7001057   0.3535534   0.0000000), wk =   0.0156250
        k(   50) = (   0.0000000   0.5303301   0.0000000), wk =   0.0156250
        k(   51) = (  -0.6125925  -0.0883883   0.6187184), wk =   0.0625000
        k(   52) = (  -0.5250793   0.0000000   0.5303301), wk =   0.0312500
        k(   53) = (  -0.5250793  -0.1767767   0.7071068), wk =   0.0312500
        k(   54) = (  -0.4375661  -0.0883883   0.6187184), wk =   0.0625000
        k(   55) = (  -0.3500529   0.0000000   0.5303301), wk =   0.0312500
        k(   56) = (  -0.7001057   0.5303301   0.0000000), wk =   0.0156250
        k(   57) = (   0.0000000  -0.7071068   0.0000000), wk =   0.0078125
        k(   58) = (   0.1750264  -0.7071068   0.0000000), wk =   0.0156250
        k(   59) = (   0.3500529  -0.7071068   0.0000000), wk =   0.0078125

                       cryst. coord.
        k(    1) = (   0.0000000   0.0000000   0.0000000), wk =   0.0039063
        k(    2) = (   0.0000000   0.0000000   0.1250000), wk =   0.0312500
        k(    3) = (   0.0000000   0.0000000   0.2500000), wk =   0.0312500
        k(    4) = (   0.0000000   0.0000000   0.3750000), wk =   0.0312500
        k(    5) = (   0.0000000   0.0000000  -0.5000000), wk =   0.0156250
        k(    6) = (   0.0000000   0.1250000   0.1250000), wk =   0.0078125
        k(    7) = (   0.0000000   0.1250000   0.2500000), wk =   0.0312500
        k(    8) = (   0.0000000   0.1250000   0.3750000), wk =   0.0312500
        k(    9) = (   0.0000000   0.1250000  -0.5000000), wk =   0.0312500
        k(   10) = (   0.0000000   0.1250000  -0.3750000), wk =   0.0312500
        k(   11) = (   0.0000000   0.1250000  -0.2500000), wk =   0.0312500
        k(   12) = (   0.0000000   0.1250000  -0.1250000), wk =   0.0156250
        k(   13) = (   0.0000000   0.2500000   0.2500000), wk =   0.0078125
        k(   14) = (   0.0000000   0.2500000   0.3750000), wk =   0.0312500
        k(   15) = (   0.0000000   0.2500000  -0.5000000), wk =   0.0312500
        k(   16) = (   0.0000000   0.2500000  -0.3750000), wk =   0.0312500
        k(   17) = (   0.0000000   0.2500000  -0.2500000), wk =   0.0156250
        k(   18) = (   0.0000000   0.3750000   0.3750000), wk =   0.0078125
        k(   19) = (   0.0000000   0.3750000  -0.5000000), wk =   0.0312500
        k(   20) = (   0.0000000   0.3750000  -0.3750000), wk =   0.0156250
        k(   21) = (   0.0000000  -0.5000000  -0.5000000), wk =   0.0039063
        k(   22) = (   0.1250000   0.0000000   0.1250000), wk =   0.0156250
        k(   23) = (   0.1250000   0.0000000   0.2500000), wk =   0.0625000
        k(   24) = (   0.1250000   0.0000000   0.3750000), wk =   0.0625000
        k(   25) = (   0.1250000   0.0000000  -0.5000000), wk =   0.0625000
        k(   26) = (   0.1250000   0.0000000  -0.3750000), wk =   0.0625000
        k(   27) = (   0.1250000  -0.0000000  -0.2500000), wk =   0.0625000
        k(   28) = (   0.1250000   0.0000000  -0.1250000), wk =   0.0312500
        k(   29) = (   0.1250000   0.2500000   0.3750000), wk =   0.0312500
        k(   30) = (   0.1250000   0.2500000  -0.5000000), wk =   0.0625000
        k(   31) = (   0.1250000   0.2500000  -0.3750000), wk =   0.0625000
        k(   32) = (   0.1250000   0.2500000  -0.2500000), wk =   0.0625000
        k(   33) = (   0.1250000   0.2500000  -0.1250000), wk =   0.0312500
        k(   34) = (   0.1250000   0.3750000  -0.5000000), wk =   0.0312500
        k(   35) = (   0.1250000   0.3750000  -0.3750000), wk =   0.0625000
        k(   36) = (   0.1250000   0.3750000  -0.2500000), wk =   0.0312500
        k(   37) = (   0.1250000  -0.5000000  -0.3750000), wk =   0.0156250
        k(   38) = (   0.2500000   0.0000000   0.2500000), wk =   0.0156250
        k(   39) = (   0.2500000   0.0000000   0.3750000), wk =   0.0625000
        k(   40) = (   0.2500000  -0.0000000  -0.5000000), wk =   0.0625000
        k(   41) = (   0.2500000   0.0000000  -0.3750000), wk =   0.0625000
        k(   42) = (   0.2500000   0.0000000  -0.2500000), wk =   0.0312500
        k(   43) = (   0.2500000   0.1250000   0.3750000), wk =   0.0312500
        k(   44) = (   0.2500000   0.1250000  -0.5000000), wk =   0.0625000
        k(   45) = (   0.2500000   0.1250000  -0.3750000), wk =   0.0312500
        k(   46) = (   0.2500000   0.3750000  -0.3750000), wk =   0.0312500
        k(   47) = (   0.2500000   0.3750000  -0.2500000), wk =   0.0625000
        k(   48) = (   0.2500000   0.3750000  -0.1250000), wk =   0.0312500
        k(   49) = (   0.2500000  -0.5000000  -0.2500000), wk =   0.0156250
        k(   50) = (   0.3750000   0.0000000   0.3750000), wk =   0.0156250
        k(   51) = (   0.3750000   0.0000000  -0.5000000), wk =   0.0625000
        k(   52) = (   0.3750000  -0.0000000  -0.3750000), wk =   0.0312500
        k(   53) = (   0.3750000   0.1250000  -0.5000000), wk =   0.0312500
        k(   54) = (   0.3750000   0.1250000  -0.3750000), wk =   0.0625000
        k(   55) = (   0.3750000   0.1250000  -0.2500000), wk =   0.0312500
        k(   56) = (   0.3750000  -0.5000000  -0.1250000), wk =   0.0156250
        k(   57) = (  -0.5000000   0.0000000  -0.5000000), wk =   0.0078125
        k(   58) = (  -0.5000000   0.1250000  -0.3750000), wk =   0.0156250
        k(   59) = (  -0.5000000   0.2500000  -0.2500000), wk =   0.0078125

     Dense  grid:     8825 G-vectors     FFT dimensions: (  30,  30,  30)

     Smooth grid:     6279 G-vectors     FFT dimensions: (  25,  25,  25)

     Largest allocated arrays     est. size (Mb)     dimensions
        Kohn-Sham Wavefunctions         0.08 Mb     (     412,   12)
        NL pseudopotentials             0.19 Mb     (     412,   31)
        Each V/rho on FFT grid          0.21 Mb     (   13500)
        Each G-vector array             0.03 Mb     (    4413)
        G-vector shells                 0.00 Mb     (     601)
     Largest temporary arrays     est. size (Mb)     dimensions
        Auxiliary wavefunctions         0.30 Mb     (     412,   48)
        Each subspace H/S matrix        0.04 Mb     (      48,   48)
        Each <psi_i|beta_j> matrix      0.01 Mb     (      31,   12)
        Arrays for rho mixing           1.65 Mb     (   13500,    8)

     Check: negative/imaginary core charge=   -0.000003    0.000000

     Initial potential from superposition of free atoms

     starting charge   15.99482, renormalised to   16.00000
     Starting wfc are   14 randomized atomic wfcs

     total cpu time spent up to now is        3.1 secs

     per-process dynamical memory:    12.5 Mb

     Self-consistent Calculation

     iteration #  1     ecut=    40.00 Ry     beta=0.30
     Davidson diagonalization with overlap
     ethr =  1.00E-02,  avg # of iterations =  2.2

     total cpu time spent up to now is        8.2 secs

     total energy              =    -107.39252113 Ry
     Harris-Foulkes estimate   =    -107.48093808 Ry
     estimated scf accuracy    <       0.44807625 Ry

     iteration #  2     ecut=    40.00 Ry     beta=0.30
     Davidson diagonalization with overlap
     ethr =  2.80E-03,  avg # of iterations =  1.0

     total cpu time spent up to now is       13.5 secs

     total energy              =    -107.34585421 Ry
     Harris-Foulkes estimate   =    -107.40782461 Ry
     estimated scf accuracy    <       0.16373010 Ry

     iteration #  3     ecut=    40.00 Ry     beta=0.30
     Davidson diagonalization with overlap
     ethr =  1.02E-03,  avg # of iterations =  2.0

     total cpu time spent up to now is       19.7 secs

     total energy              =    -107.37243770 Ry
     Harris-Foulkes estimate   =    -107.37477901 Ry
     estimated scf accuracy    <       0.01032101 Ry

     iteration #  4     ecut=    40.00 Ry     beta=0.30
     Davidson diagonalization with overlap
     ethr =  6.45E-05,  avg # of iterations =  2.4

     total cpu time spent up to now is       25.0 secs

     total energy              =    -107.37213834 Ry
     Harris-Foulkes estimate   =    -107.37451926 Ry
     estimated scf accuracy    <       0.00782741 Ry

     iteration #  5     ecut=    40.00 Ry     beta=0.30
     Davidson diagonalization with overlap
     ethr =  4.89E-05,  avg # of iterations =  2.0

     total cpu time spent up to now is       29.5 secs

     total energy              =    -107.37304921 Ry
     Harris-Foulkes estimate   =    -107.37305243 Ry
     estimated scf accuracy    <       0.00002347 Ry

     iteration #  6     ecut=    40.00 Ry     beta=0.30
     Davidson diagonalization with overlap
     ethr =  1.47E-07,  avg # of iterations =  3.9

     total cpu time spent up to now is       35.5 secs

     total energy              =    -107.37306719 Ry
     Harris-Foulkes estimate   =    -107.37306949 Ry
     estimated scf accuracy    <       0.00001770 Ry

     iteration #  7     ecut=    40.00 Ry     beta=0.30
     Davidson diagonalization with overlap
     ethr =  1.11E-07,  avg # of iterations =  1.9

     total cpu time spent up to now is       40.5 secs

     total energy              =    -107.37306832 Ry
     Harris-Foulkes estimate   =    -107.37306863 Ry
     estimated scf accuracy    <       0.00000163 Ry

     iteration #  8     ecut=    40.00 Ry     beta=0.30
     Davidson diagonalization with overlap
     ethr =  1.02E-08,  avg # of iterations =  2.0

     total cpu time spent up to now is       45.3 secs

     total energy              =    -107.37306848 Ry
     Harris-Foulkes estimate   =    -107.37306849 Ry
     estimated scf accuracy    <       0.00000013 Ry

     iteration #  9     ecut=    40.00 Ry     beta=0.30
     Davidson diagonalization with overlap
     ethr =  8.23E-10,  avg # of iterations =  2.3

     total cpu time spent up to now is       50.6 secs

     total energy              =    -107.37306853 Ry
     Harris-Foulkes estimate   =    -107.37306850 Ry
     estimated scf accuracy    <       0.00000001 Ry

     iteration # 10     ecut=    40.00 Ry     beta=0.30
     Davidson diagonalization with overlap
     ethr =  6.27E-11,  avg # of iterations =  2.0

     total cpu time spent up to now is       55.5 secs

     total energy              =    -107.37306854 Ry
     Harris-Foulkes estimate   =    -107.37306853 Ry
     estimated scf accuracy    <          5.4E-10 Ry

     iteration # 11     ecut=    40.00 Ry     beta=0.30
     Davidson diagonalization with overlap
     ethr =  3.34E-12,  avg # of iterations =  1.8

     total cpu time spent up to now is       60.0 secs

     total energy              =    -107.37306854 Ry
     Harris-Foulkes estimate   =    -107.37306854 Ry
     estimated scf accuracy    <          1.9E-10 Ry

     iteration # 12     ecut=    40.00 Ry     beta=0.30
     Davidson diagonalization with overlap
     ethr =  1.17E-12,  avg # of iterations =  2.0

     total cpu time spent up to now is       63.1 secs

     End of self-consistent calculation

          k = 0.0000 0.0000 0.0000 (   773 PWs)   bands (ev):

   -29.5558 -10.3910 -10.3854 -10.3854  -7.6417   7.7614   7.7867   7.7867
    12.4816  13.9788  14.0499  14.0499

     occupation numbers 
     1.0000   1.0000   1.0000   1.0000   1.0000   1.0000   1.0000   1.0000
     0.0000   0.0000   0.0000   0.0000

          k = 0.0875 0.0884-0.0884 (   793 PWs)   bands (ev):

   -29.5394 -10.6219 -10.3984 -10.3929  -7.3975   7.2270   7.5546   7.5683
    13.1743  13.9746  14.2808  14.3186

     occupation numbers 
     1.0000   1.0000   1.0000   1.0000   1.0000   1.0000   1.0000   1.0000
     0.0000   0.0000   0.0000   0.0000

          k = 0.1750 0.1768-0.1768 (   797 PWs)   bands (ev):

   -29.4996 -11.0815 -10.4205 -10.4109  -6.9128   6.1992   7.0938   7.1016
    14.0286  14.6488  15.0059  15.0264

     occupation numbers 
     1.0000   1.0000   1.0000   1.0000   1.0000   1.0000   1.0000   1.0000
     0.0000   0.0000   0.0000   0.0000

          k = 0.2625 0.2652-0.2652 (   788 PWs)   bands (ev):

   -29.4594 -11.4570 -10.4424 -10.4287  -6.5083   5.3728   6.6947   6.6968
    14.5070  15.8353  15.8521  15.8634

     occupation numbers 
     1.0000   1.0000   1.0000   1.0000   1.0000   1.0000   1.0000   1.0000
     0.0000   0.0000   0.0000   0.0000

          k =-0.3501-0.3536 0.3536 (   784 PWs)   bands (ev):

   -29.4427 -11.5971 -10.4514 -10.4360  -6.3550   5.0640   6.5429   6.5429
    14.8752  16.2213  16.2399  16.2479

     occupation numbers 
     1.0000   1.0000   1.0000   1.0000   1.0000   1.0000   1.0000   1.0000
     0.0000   0.0000   0.0000   0.0000

          k = 0.1750 0.0000 0.0000 (   789 PWs)   bands (ev):

   -29.5345 -10.6212 -10.4204 -10.4204  -7.3723   6.9170   7.6707   7.6707
    13.2778  13.4408  14.6241  14.6241

     occupation numbers 
     1.0000   1.0000   1.0000   1.0000   1.0000   1.0000   1.0000   1.0000
     0.0000   0.0000   0.0000   0.0000

          k = 0.2625 0.0884-0.0884 (   798 PWs)   bands (ev):

   -29.5031 -10.9360 -10.4526 -10.4418  -7.0609   6.2717   7.2974   7.4070
    13.2545  14.2798  15.2066  15.3153

     occupation numbers 
     1.0000   1.0000   1.0000   1.0000   1.0000   1.0000   1.0000   1.0000
     0.0000   0.0000   0.0000   0.0000

          k = 0.3501 0.1768-0.1768 (   786 PWs)   bands (ev):

   -29.4631 -11.2931 -10.4778 -10.4706  -6.7070   5.6860   6.7795   6.9860
    13.6729  15.3787  16.0267  16.0727

     occupation numbers 
     1.0000   1.0000   1.0000   1.0000   1.0000   1.0000   1.0000   1.0000
     0.0000   0.0000   0.0000   0.0000

          k =-0.2625-0.4419 0.4419 (   793 PWs)   bands (ev):

   -29.4382 -11.4953 -10.5208 -10.4640  -6.4903   5.3256   6.5569   6.6645
    14.5079  15.3886  16.3882  16.9195

     occupation numbers 
     1.0000   1.0000   1.0000   1.0000   1.0000   1.0000   1.0000   1.0000
     0.0000   0.0000   0.0000   0.0000

          k =-0.1750-0.3536 0.3536 (   792 PWs)   bands (ev):

   -29.4432 -11.4672 -10.5426 -10.4368  -6.4973   5.3598   6.5890   6.6932
    14.5821  15.3607  15.9771  16.6579

     occupation numbers 
     1.0000   1.0000   1.0000   1.0000   1.0000   1.0000   1.0000   1.0000
     0.0000   0.0000   0.0000   0.0000

          k =-0.0875-0.2652 0.2652 (   794 PWs)   bands (ev):

   -29.4752 -11.2250 -10.5245 -10.4047  -6.7325   5.8210   6.7899   7.0816
    13.9781  14.9770  15.1751  15.9117

     occupation numbers 
     1.0000   1.0000   1.0000   1.0000   1.0000   1.0000   1.0000   1.0000
     0.0000   0.0000   0.0000   0.0000

          k = 0.0000-0.1768 0.1768 (   807 PWs)   bands (ev):

   -29.5150 -10.8769 -10.4657 -10.3864  -7.1032   6.5631   7.1850   7.4746
    13.8017  13.8891  14.5229  15.0788

     occupation numbers 
     1.0000   1.0000   1.0000   1.0000   1.0000   1.0000   1.0000   1.0000
     0.0000   0.0000   0.0000   0.0000

          k = 0.3501 0.0000 0.0000 (   817 PWs)   bands (ev):

   -29.4835 -10.9418 -10.5048 -10.5048  -7.0952   6.0597   7.4956   7.4956
    12.4272  14.4686  15.9202  15.9203

     occupation numbers 
     1.0000   1.0000   1.0000   1.0000   1.0000   1.0000   1.0000   1.0000
     0.0000   0.0000   0.0000   0.0000

          k = 0.4376 0.0884-0.0884 (   793 PWs)   bands (ev):

   -29.4522 -11.1016 -10.5642 -10.5371  -7.0040   5.9572   7.1569   7.2979
    12.3847  15.3212  16.4593  16.5229

     occupation numbers 
     1.0000   1.0000   1.0000   1.0000   1.0000   1.0000   1.0000   1.0000
     0.0000   0.0000   0.0000   0.0000

          k =-0.1750-0.5303 0.5303 (   787 PWs)   bands (ev):

   -29.4274 -11.2393 -10.6703 -10.5310  -6.8359   5.9376   6.6657   6.9668
    13.1205  15.7001  16.7213  16.7785

     occupation numbers 
     1.0000   1.0000   1.0000   1.0000   1.0000   1.0000   1.0000   1.0000
     0.0000   0.0000   0.0000   0.0000

          k =-0.0875-0.4419 0.4419 (   787 PWs)   bands (ev):

   -29.4239 -11.2959 -10.7402 -10.4900  -6.6827   5.7520   6.6287   6.7050
    14.2655  15.0049  16.4193  16.6302

     occupation numbers 
     1.0000   1.0000   1.0000   1.0000   1.0000   1.0000   1.0000   1.0000
     0.0000   0.0000   0.0000   0.0000

          k = 0.0000-0.3536 0.3536 (   792 PWs)   bands (ev):

   -29.4438 -11.2943 -10.6765 -10.4376  -6.6362   5.6423   6.6362   6.8810
    14.2876  15.0735  15.7248  16.2352

     occupation numbers 
     1.0000   1.0000   1.0000   1.0000   1.0000   1.0000   1.0000   1.0000
     0.0000   0.0000   0.0000   0.0000

          k = 0.5251 0.0000 0.0000 (   785 PWs)   bands (ev):

   -29.4328 -11.0502 -10.5890 -10.5890  -7.2329   6.1495   7.4258   7.4258
    11.6397  15.5473  16.6085  17.0702

     occupation numbers 
     1.0000   1.0000   1.0000   1.0000   1.0000   1.0000   1.0000   1.0000
     0.0000   0.0000   0.0000   0.0000

          k =-0.0875-0.6187 0.6187 (   785 PWs)   bands (ev):

   -29.4165 -11.0414 -10.7097 -10.5968  -7.2215   6.3422   7.0978   7.2842
    11.8752  16.0390  16.8332  17.0083

     occupation numbers 
     1.0000   1.0000   1.0000   1.0000   1.0000   1.0000   1.0000   1.0000
     0.0000   0.0000   0.0000   0.0000

          k = 0.0000-0.5303 0.5303 (   786 PWs)   bands (ev):

   -29.4128 -11.0059 -10.9263 -10.5562  -6.9797   6.4081   6.5125   6.9835
    12.9092  15.8340  16.4597  16.9722

     occupation numbers 
     1.0000   1.0000   1.0000   1.0000   1.0000   1.0000   1.0000   1.0000
     0.0000   0.0000   0.0000   0.0000

          k =-0.7001 0.0000 0.0000 (   790 PWs)   bands (ev):

   -29.4120 -11.0399 -10.6237 -10.6237  -7.3995   6.4242   7.4210   7.4210
    11.3553  15.9418  16.8011  17.4752

     occupation numbers 
     1.0000   1.0000   1.0000   1.0000   1.0000   1.0000   1.0000   1.0000
     0.0000   0.0000   0.0000   0.0000

          k = 0.0000 0.1768 0.0000 (   801 PWs)   bands (ev):

   -29.5338 -10.6312 -10.4264 -10.4231  -7.3468   6.9209   7.6369   7.6613
    13.2224  13.4861  14.5803  14.6409

     occupation numbers 
     1.0000   1.0000   1.0000   1.0000   1.0000   1.0000   1.0000   1.0000
     0.0000   0.0000   0.0000   0.0000

          k = 0.0875 0.2652-0.0884 (   798 PWs)   bands (ev):

   -29.5019 -10.9523 -10.4596 -10.4415  -7.0288   6.2625   7.2766   7.3856
    13.2703  14.2041  15.2143  15.3232

     occupation numbers 
     1.0000   1.0000   1.0000   1.0000   1.0000   1.0000   1.0000   1.0000
     0.0000   0.0000   0.0000   0.0000

          k = 0.1750 0.3536-0.1768 (   791 PWs)   bands (ev):

   -29.4620 -11.3053 -10.4817 -10.4696  -6.6868   5.6762   6.7709   6.9724
    13.6594  15.3428  16.0214  16.0884

     occupation numbers 
     1.0000   1.0000   1.0000   1.0000   1.0000   1.0000   1.0000   1.0000
     0.0000   0.0000   0.0000   0.0000

          k =-0.4376-0.2652 0.4419 (   789 PWs)   bands (ev):

   -29.4376 -11.4973 -10.5106 -10.4752  -6.4908   5.3267   6.5625   6.6617
    14.4784  15.3829  16.3927  16.9456

     occupation numbers 
     1.0000   1.0000   1.0000   1.0000   1.0000   1.0000   1.0000   1.0000
     0.0000   0.0000   0.0000   0.0000

          k =-0.3501-0.1768 0.3536 (   789 PWs)   bands (ev):

   -29.4433 -11.4573 -10.5331 -10.4483  -6.5163   5.3710   6.5943   6.7153
    14.5761  15.3373  15.9636  16.7455

     occupation numbers 
     1.0000   1.0000   1.0000   1.0000   1.0000   1.0000   1.0000   1.0000
     0.0000   0.0000   0.0000   0.0000

          k =-0.2625-0.0884 0.2652 (   795 PWs)   bands (ev):

   -29.4757 -11.2064 -10.5189 -10.4140  -6.7600   5.8330   6.7971   7.1163
    13.9635  15.0536  15.1446  15.9364

     occupation numbers 
     1.0000   1.0000   1.0000   1.0000   1.0000   1.0000   1.0000   1.0000
     0.0000   0.0000   0.0000   0.0000

          k =-0.1750 0.0000 0.1768 (   799 PWs)   bands (ev):

   -29.5155 -10.8606 -10.4618 -10.3927  -7.1250   6.5662   7.1866   7.5093
    13.7786  13.9592  14.4864  15.1141

     occupation numbers 
     1.0000   1.0000   1.0000   1.0000   1.0000   1.0000   1.0000   1.0000
     0.0000   0.0000   0.0000   0.0000

          k = 0.3501 0.1768 0.0000 (   792 PWs)   bands (ev):

   -29.4717 -11.1095 -10.5549 -10.4553  -6.8888   5.9186   6.9877   7.2696
    13.1308  14.9599  15.7104  16.0658

     occupation numbers 
     1.0000   1.0000   1.0000   1.0000   1.0000   1.0000   1.0000   1.0000
     0.0000   0.0000   0.0000   0.0000

          k =-0.2625-0.4419 0.6187 (   791 PWs)   bands (ev):

   -29.4396 -11.2784 -10.6257 -10.4972  -6.7248   5.7275   6.6812   6.9313
    13.6630  15.3247  16.3222  16.4685

     occupation numbers 
     1.0000   1.0000   1.0000   1.0000   1.0000   1.0000   1.0000   1.0000
     0.0000   0.0000   0.0000   0.0000

          k =-0.1750-0.3536 0.5303 (   789 PWs)   bands (ev):

   -29.4257 -11.3545 -10.6461 -10.5203  -6.6514   5.6679   6.6194   6.6933
    14.5638  14.6327  16.6450  16.8239

     occupation numbers 
     1.0000   1.0000   1.0000   1.0000   1.0000   1.0000   1.0000   1.0000
     0.0000   0.0000   0.0000   0.0000

          k =-0.0875-0.2652 0.4419 (   793 PWs)   bands (ev):

   -29.4384 -11.2981 -10.6311 -10.4895  -6.6982   5.7201   6.6768   6.8923
    13.6509  15.3117  16.3594  16.4214

     occupation numbers 
     1.0000   1.0000   1.0000   1.0000   1.0000   1.0000   1.0000   1.0000
     0.0000   0.0000   0.0000   0.0000

          k = 0.0000-0.1768 0.3536 (   794 PWs)   bands (ev):

   -29.4700 -11.1364 -10.5603 -10.4511  -6.8478   5.9050   6.9747   7.2236
    13.1348  14.8561  15.7523  16.0679

     occupation numbers 
     1.0000   1.0000   1.0000   1.0000   1.0000   1.0000   1.0000   1.0000
     0.0000   0.0000   0.0000   0.0000

          k =-0.1750-0.5303 0.7071 (   783 PWs)   bands (ev):

   -29.4285 -11.1086 -10.6475 -10.6036  -7.0206   6.1024   6.9551   7.1477
    12.4686  15.6984  16.4722  16.9970

     occupation numbers 
     1.0000   1.0000   1.0000   1.0000   1.0000   1.0000   1.0000   1.0000
     0.0000   0.0000   0.0000   0.0000

          k =-0.0875-0.4419 0.6187 (   781 PWs)   bands (ev):

   -29.4146 -11.0857 -10.7905 -10.6254  -6.9256   6.2412   6.6271   6.8942
    13.3003  15.1972  16.4311  17.1850

     occupation numbers 
     1.0000   1.0000   1.0000   1.0000   1.0000   1.0000   1.0000   1.0000
     0.0000   0.0000   0.0000   0.0000

          k = 0.0000-0.3536 0.5303 (   779 PWs)   bands (ev):

   -29.4187 -11.1734 -10.7915 -10.5618  -6.7915   5.9880   6.7060   6.7107
    14.2460  14.4860  16.4257  16.8752

     occupation numbers 
     1.0000   1.0000   1.0000   1.0000   1.0000   1.0000   1.0000   1.0000
     0.0000   0.0000   0.0000   0.0000

          k =-0.7001 0.1768 0.0000 (   780 PWs)   bands (ev):

   -29.4108 -10.9815 -10.7486 -10.6857  -7.1733   6.4685   6.9125   7.1221
    12.2244  16.1644  16.1736  17.3504

     occupation numbers 
     1.0000   1.0000   1.0000   1.0000   1.0000   1.0000   1.0000   1.0000
     0.0000   0.0000   0.0000   0.0000

          k = 0.0000 0.3536 0.0000 (   817 PWs)   bands (ev):

   -29.4811 -10.9621 -10.5140 -10.5119  -7.0493   6.0497   7.4527   7.4765
    12.4320  14.3815  15.9280  15.9537

     occupation numbers 
     1.0000   1.0000   1.0000   1.0000   1.0000   1.0000   1.0000   1.0000
     0.0000   0.0000   0.0000   0.0000

          k = 0.0875 0.4419-0.0884 (   793 PWs)   bands (ev):

   -29.4494 -11.1190 -10.5661 -10.5475  -6.9736   5.9591   7.1343   7.2731
    12.3683  15.2501  16.4918  16.5299

     occupation numbers 
     1.0000   1.0000   1.0000   1.0000   1.0000   1.0000   1.0000   1.0000
     0.0000   0.0000   0.0000   0.0000

          k =-0.5251-0.1768 0.5303 (   787 PWs)   bands (ev):

   -29.4252 -11.2459 -10.6622 -10.5436  -6.8369   5.9498   6.6743   6.9561
    13.0832  15.6760  16.7544  16.7816

     occupation numbers 
     1.0000   1.0000   1.0000   1.0000   1.0000   1.0000   1.0000   1.0000
     0.0000   0.0000   0.0000   0.0000

          k =-0.4376-0.0884 0.4419 (   787 PWs)   bands (ev):

   -29.4230 -11.2825 -10.7340 -10.5032  -6.7103   5.7642   6.6741   6.7086
    14.2192  14.9893  16.4004  16.6987

     occupation numbers 
     1.0000   1.0000   1.0000   1.0000   1.0000   1.0000   1.0000   1.0000
     0.0000   0.0000   0.0000   0.0000

          k =-0.3501 0.0000 0.3536 (   790 PWs)   bands (ev):

   -29.4440 -11.2679 -10.6749 -10.4496  -6.6739   5.6592   6.6470   6.9331
    14.2687  15.0785  15.6922  16.2963

     occupation numbers 
     1.0000   1.0000   1.0000   1.0000   1.0000   1.0000   1.0000   1.0000
     0.0000   0.0000   0.0000   0.0000

          k = 0.1750 0.3536 0.0000 (   794 PWs)   bands (ev):

   -29.4701 -11.1205 -10.5614 -10.4572  -6.8669   5.9107   6.9746   7.2609
    13.1138  14.9194  15.7325  16.0839

     occupation numbers 
     1.0000   1.0000   1.0000   1.0000   1.0000   1.0000   1.0000   1.0000
     0.0000   0.0000   0.0000   0.0000

          k =-0.4376-0.2652 0.6187 (   790 PWs)   bands (ev):

   -29.4380 -11.2828 -10.6296 -10.4964  -6.7257   5.7320   6.6879   6.9295
    13.6175  15.2950  16.3661  16.4960

     occupation numbers 
     1.0000   1.0000   1.0000   1.0000   1.0000   1.0000   1.0000   1.0000
     0.0000   0.0000   0.0000   0.0000

          k =-0.3501-0.1768 0.5303 (   794 PWs)   bands (ev):

   -29.4247 -11.3492 -10.6434 -10.5242  -6.6724   5.6826   6.6366   6.7070
    14.5245  14.5791  16.6806  16.8913

     occupation numbers 
     1.0000   1.0000   1.0000   1.0000   1.0000   1.0000   1.0000   1.0000
     0.0000   0.0000   0.0000   0.0000

          k =-0.1750-0.3536 0.7071 (   785 PWs)   bands (ev):

   -29.4188 -11.1567 -10.7871 -10.5749  -6.8100   5.9853   6.6998   6.7601
    14.2628  14.4566  16.4606  16.8414

     occupation numbers 
     1.0000   1.0000   1.0000   1.0000   1.0000   1.0000   1.0000   1.0000
     0.0000   0.0000   0.0000   0.0000

          k =-0.0875-0.2652 0.6187 (   782 PWs)   bands (ev):

   -29.4130 -11.0903 -10.7845 -10.6349  -6.9262   6.2532   6.6512   6.8627
    13.2736  15.2186  16.4225  17.1746

     occupation numbers 
     1.0000   1.0000   1.0000   1.0000   1.0000   1.0000   1.0000   1.0000
     0.0000   0.0000   0.0000   0.0000

          k = 0.0000-0.1768 0.5303 (   782 PWs)   bands (ev):

   -29.4257 -11.1251 -10.6547 -10.6038  -7.0008   6.1224   6.9483   7.1015
    12.4495  15.6538  16.4875  17.0098

     occupation numbers 
     1.0000   1.0000   1.0000   1.0000   1.0000   1.0000   1.0000   1.0000
     0.0000   0.0000   0.0000   0.0000

          k =-0.7001 0.3536 0.0000 (   774 PWs)   bands (ev):

   -29.4086 -10.8646 -10.8389 -10.8333  -6.9558   6.4488   6.6659   6.7184
    14.1063  14.1311  16.2774  17.4656

     occupation numbers 
     1.0000   1.0000   1.0000   1.0000   1.0000   1.0000   1.0000   1.0000
     0.0000   0.0000   0.0000   0.0000

          k = 0.0000 0.5303 0.0000 (   793 PWs)   bands (ev):

   -29.4290 -11.0591 -10.6046 -10.5974  -7.2101   6.1764   7.3848   7.4079
    11.6175  15.5060  16.5999  17.0727

     occupation numbers 
     1.0000   1.0000   1.0000   1.0000   1.0000   1.0000   1.0000   1.0000
     0.0000   0.0000   0.0000   0.0000

          k =-0.6126-0.0884 0.6187 (   780 PWs)   bands (ev):

   -29.4128 -11.0441 -10.7141 -10.6099  -7.2217   6.3902   7.0799   7.2635
    11.8411  16.0285  16.8484  16.9968

     occupation numbers 
     1.0000   1.0000   1.0000   1.0000   1.0000   1.0000   1.0000   1.0000
     0.0000   0.0000   0.0000   0.0000

          k =-0.5251 0.0000 0.5303 (   792 PWs)   bands (ev):

   -29.4103 -10.9977 -10.9245 -10.5700  -7.0007   6.4061   6.5715   6.9766
    12.8637  15.8230  16.4877  16.9613

     occupation numbers 
     1.0000   1.0000   1.0000   1.0000   1.0000   1.0000   1.0000   1.0000
     0.0000   0.0000   0.0000   0.0000

          k =-0.5251-0.1768 0.7071 (   787 PWs)   bands (ev):

   -29.4254 -11.1149 -10.6604 -10.6002  -7.0216   6.1268   6.9513   7.1410
    12.4237  15.6658  16.4969  17.0429

     occupation numbers 
     1.0000   1.0000   1.0000   1.0000   1.0000   1.0000   1.0000   1.0000
     0.0000   0.0000   0.0000   0.0000

          k =-0.4376-0.0884 0.6187 (   784 PWs)   bands (ev):

   -29.4120 -11.0817 -10.7882 -10.6298  -6.9568   6.2691   6.6633   6.8992
    13.2339  15.1414  16.4903  17.2267

     occupation numbers 
     1.0000   1.0000   1.0000   1.0000   1.0000   1.0000   1.0000   1.0000
     0.0000   0.0000   0.0000   0.0000

          k =-0.3501 0.0000 0.5303 (   785 PWs)   bands (ev):

   -29.4173 -11.1539 -10.7935 -10.5679  -6.8325   6.0063   6.7248   6.7623
    14.1920  14.4175  16.5058  16.8996

     occupation numbers 
     1.0000   1.0000   1.0000   1.0000   1.0000   1.0000   1.0000   1.0000
     0.0000   0.0000   0.0000   0.0000

          k =-0.7001 0.5303 0.0000 (   778 PWs)   bands (ev):

   -29.4076 -10.9781 -10.7608 -10.6936  -7.1737   6.5262   6.9044   7.0784
    12.1975  16.1592  16.1970  17.3667

     occupation numbers 
     1.0000   1.0000   1.0000   1.0000   1.0000   1.0000   1.0000   1.0000
     0.0000   0.0000   0.0000   0.0000

          k = 0.0000-0.7071 0.0000 (   790 PWs)   bands (ev):

   -29.4076 -11.0372 -10.6420 -10.6327  -7.3988   6.4834   7.3834   7.4058
    11.3240  15.9499  16.8034  17.4438

     occupation numbers 
     1.0000   1.0000   1.0000   1.0000   1.0000   1.0000   1.0000   1.0000
     0.0000   0.0000   0.0000   0.0000

          k = 0.1750-0.7071 0.0000 (   776 PWs)   bands (ev):

   -29.4071 -10.9807 -10.7415 -10.7012  -7.1961   6.5290   6.9099   7.1184
    12.1700  16.1095  16.2194  17.2998

     occupation numbers 
     1.0000   1.0000   1.0000   1.0000   1.0000   1.0000   1.0000   1.0000
     0.0000   0.0000   0.0000   0.0000

          k = 0.3501-0.7071 0.0000 (   772 PWs)   bands (ev):

   -29.4066 -10.8423 -10.8423 -10.8406  -7.0000   6.4784   6.7234   6.7234
    14.0454  14.0454  16.3439  17.5220

     occupation numbers 
     1.0000   1.0000   1.0000   1.0000   1.0000   1.0000   1.0000   1.0000
     0.0000   0.0000   0.0000   0.0000

     the Fermi energy is     8.7800 ev

!    total energy              =    -107.37306855 Ry
     Harris-Foulkes estimate   =    -107.37306854 Ry
     estimated scf accuracy    <          1.2E-11 Ry

     The total energy is the sum of the following terms:

     one-electron contribution =     -25.39161541 Ry
     hartree contribution      =      20.59785724 Ry
     xc contribution           =     -19.15481027 Ry
     ewald contribution        =     -83.42450011 Ry
     smearing contrib. (-TS)   =      -0.00000000 Ry

     convergence has been achieved in  12 iterations

     Forces acting on atoms (Ry/au):

     atom    1 type  1   force =  -0.51776816E-31 -0.17431528E-31  0.17431528E-31
     atom    2 type  2   force =   0.51776816E-31  0.17431528E-31 -0.17431528E-31
     The non-local contrib.  to forces
     atom    1 type  1   force =   0.00000000E+00  0.00000000E+00  0.00000000E+00
     atom    2 type  2   force =  -0.22621636E-26  0.22847852E-26 -0.70828342E-25
     The ionic contribution  to forces
     atom    1 type  1   force =   0.66746315E-14 -0.41509348E-14 -0.25462830E-14
     atom    2 type  2   force =  -0.66746315E-14  0.41509348E-14  0.25462830E-14
     The local contribution  to forces
     atom    1 type  1   force =   0.39929952E-15 -0.43243913E-15  0.84527210E-15
     atom    2 type  2   force =   0.60209938E-14  0.76319761E-14  0.55418787E-14
     The core correction contribution to forces
     atom    1 type  1   force =   0.46020419E-16 -0.82429233E-17  0.52366690E-16
     atom    2 type  2   force =   0.27557110E-16  0.37120073E-16 -0.35456952E-16
     The Hubbard contrib.    to forces
     atom    1 type  1   force =   0.00000000E+00  0.00000000E+00  0.00000000E+00
     atom    2 type  2   force =   0.00000000E+00  0.00000000E+00  0.00000000E+00
     The SCF correction term to forces
     atom    1 type  1   force =   0.34107406E-15 -0.77507131E-16  0.46453615E-16
     atom    2 type  2   force =   0.17835079E-16  0.10241806E-15 -0.12086244E-15

     Total force =     0.000000     Total SCF correction =     0.000000


     entering subroutine stress ...

          total   stress  (Ry/bohr**3)                   (kbar)     P=  -10.87
  -0.0001445701  -0.0000000000  -0.0000000000        -21.27     -0.00     -0.00
   0.0000000000  -0.0000385891  -0.0000000000          0.00     -5.68     -0.00
  -0.0000000000  -0.0000000000  -0.0000385891         -0.00     -0.00     -5.68

     kinetic stress (kbar)  18886.49     -0.00      0.00
                               -0.00  18921.32      0.00
                               -0.00      0.00  18921.32

     local   stress (kbar)  -1356.78     -0.00      0.00
                               -0.00  -2328.33      0.00
                                0.00      0.00  -2328.33

     nonloc. stress (kbar)   4451.04      0.00      0.00
                                0.00   4449.56     -0.00
                                0.00     -0.00   4449.56

     hartree stress (kbar)   5236.95      0.00      0.00
                                0.00   5580.36      0.00
                                0.00      0.00   5580.36

     exc-cor stress (kbar)  -3129.71     -0.00      0.00
                               -0.00  -3128.77      0.00
                                0.00      0.00  -3128.77

     corecor stress (kbar)  -1565.19     -0.00      0.00
                               -0.00  -1565.32      0.00
                                0.00      0.00  -1565.32

     ewald   stress (kbar) -22544.07      0.00     -0.00
                                0.00 -21934.49      0.00
                               -0.00      0.00 -21934.49

     hubbard stress (kbar)      0.00      0.00      0.00
                                0.00      0.00      0.00
                                0.00      0.00      0.00

     london  stress (kbar)      0.00      0.00      0.00
                                0.00      0.00      0.00
                                0.00      0.00      0.00

     XDM     stress (kbar)      0.00      0.00      0.00
                                0.00      0.00      0.00
                                0.00      0.00      0.00

     dft-nl  stress (kbar)      0.00      0.00      0.00
                                0.00      0.00      0.00
                                0.00      0.00      0.00



     Writing output data file CaO_rocksalt.relax.in.up_1.00.sx.save

     init_run     :      2.19s CPU      2.57s WALL (       1 calls)
     electrons    :     46.46s CPU     60.03s WALL (       1 calls)
     forces       :      0.66s CPU      0.84s WALL (       1 calls)
     stress       :      1.65s CPU      1.69s WALL (       1 calls)

     Called by init_run:
     wfcinit      :      1.37s CPU      1.73s WALL (       1 calls)
     potinit      :      0.07s CPU      0.07s WALL (       1 calls)

     Called by electrons:
     c_bands      :     38.59s CPU     50.71s WALL (      12 calls)
     sum_band     :      6.46s CPU      7.90s WALL (      12 calls)
     v_of_rho     :      0.37s CPU      0.38s WALL (      13 calls)
     v_h          :      0.01s CPU      0.02s WALL (      13 calls)
     v_xc         :      0.42s CPU      0.43s WALL (      15 calls)
     newd         :      0.77s CPU      0.77s WALL (      13 calls)
     mix_rho      :      0.29s CPU      0.29s WALL (      12 calls)

     Called by c_bands:
     init_us_2    :      1.08s CPU      1.20s WALL (    1593 calls)
     cegterg      :     36.23s CPU     48.24s WALL (     708 calls)

     Called by sum_band:
     sum_band:bec :      0.04s CPU      0.04s WALL (     708 calls)
     addusdens    :      0.69s CPU      0.68s WALL (      12 calls)

     Called by *egterg:
     h_psi        :     21.06s CPU     24.98s WALL (    2271 calls)
     s_psi        :      1.64s CPU      2.80s WALL (    2271 calls)
     g_psi        :      0.07s CPU      0.08s WALL (    1504 calls)
     cdiaghg      :      1.84s CPU      2.06s WALL (    2212 calls)
     cegterg:over :      5.56s CPU      8.54s WALL (    1504 calls)
     cegterg:upda :      1.30s CPU      3.17s WALL (    1504 calls)
     cegterg:last :      0.52s CPU      1.15s WALL (     708 calls)

     Called by h_psi:
     h_psi:vloc   :     14.98s CPU     15.64s WALL (    2271 calls)
     h_psi:vnl    :      5.99s CPU      9.23s WALL (    2271 calls)
     add_vuspsi   :      1.66s CPU      3.00s WALL (    2271 calls)

     General routines
     calbec       :      6.52s CPU      9.63s WALL (    3097 calls)
     fft          :      0.33s CPU      0.35s WALL (     229 calls)
     ffts         :      0.12s CPU      0.14s WALL (     254 calls)
     fftw         :     15.83s CPU     16.45s WALL (   48888 calls)
     interpolate  :      0.05s CPU      0.07s WALL (      25 calls)

     Parallel routines
     fft_scatter  :      6.10s CPU      6.55s WALL (   49371 calls)

     PWSCF        :  0m51.61s CPU     1m 6.26s WALL


   This run was terminated on:  10:55:28   1Sep2017            

=------------------------------------------------------------------------------=
   JOB DONE.
=------------------------------------------------------------------------------=
