
     Program PWSCF v.5.1 starts on 18Aug2017 at 20: 5: 4 

     This program is part of the open-source Quantum ESPRESSO suite
     for quantum simulation of materials; please cite
         "P. Giannozzi et al., J. Phys.:Condens. Matter 21 395502 (2009);
          URL http://www.quantum-espresso.org", 
     in publications or presentations arising from this work. More details at
     http://www.quantum-espresso.org/quote

     Parallel version (MPI), running on     8 processors
     R & G space division:  proc/nbgrp/npool/nimage =       8
     Reading input from /tmp/CaO_mix444.b.01.25642/CaO_mix444.b.01.t
Warning: card &IONS ignored
Warning: card   ION_DYNAMICS='BFGS', ignored
Warning: card / ignored
Warning: card &CELL ignored
Warning: card  CELL_DYNAMICS = 'BFGS' ignored
Warning: card / ignored
     Message from routine read_cards :
     DEPRECATED: no units specified in CELL_PARAMETERS card

     Current dimensions of program PWSCF are:
     Max number of different atomic species (ntypx) = 10
     Max number of k-points (npk) =  40000
     Max angular momentum in pseudopotentials (lmaxx) =  3
 kfg - two_fermi_energies  F

     Subspace diagonalization in iterative solution of the eigenvalue problem:
     a serial algorithm will be used


     Parallelization info
     --------------------
     sticks:   dense  smooth     PW     G-vecs:    dense   smooth      PW
     Min         990     794    208                58664    41979    5714
     Max         991     795    209                58665    42003    5716
     Sum        7921    6357   1671               469317   335933   45725



     bravais-lattice index     =            0
     lattice parameter (alat)  =    23.975664342  a.u.
     unit-cell volume          =    9827.6687 (a.u.)^3
     number of atoms/cell      =          128
     number of atomic types    =            3
     number of electrons       =      1024.00
     number of Kohn-Sham states=          614
     kinetic-energy cutoff     =      40.0000  Ry
     charge density cutoff     =     200.0000  Ry
     convergence threshold     =      1.0E-10
     mixing beta               =       0.3000
     number of iterations used =            8  local-TF  mixing
     Exchange-correlation      = SLA  PW   PSX  PSC ( 1  4 10  8 0)
     A smooth kinetic-energy cutoff is imposed at      39.5000 Ry
     height of the smooth step-function =             800.0000 Ry
     width of the smooth step-function  =               1.0000 Ry


     celldm(1)=  23.975664  celldm(2)=   0.000000  celldm(3)=   0.000000
     celldm(4)=   0.000000  celldm(5)=   0.000000  celldm(6)=   0.000000

     crystal axes: (cart. coord. in units of alat)
               a(1) = (  -0.000949943892   0.704453808358   0.709749201828 )  
               a(2) = (   0.711602285591   0.002010875133   0.705099916962 )  
               a(3) = (   0.712533314262   0.708243925074  -0.003980355245 )  

     reciprocal axes: (cart. coord. in units 2 pi/alat)
               b(1) = ( -0.700329  0.708531  0.704766 )  
               b(2) = (  0.708867 -0.709199  0.704857 )  
               b(3) = (  0.694568  0.709217 -0.702996 )  


     PseudoPot. # 1 for Ca read from file:
     /users/kfg/psuedo/gbrv_1.5/ca.pbesol.UPF
     MD5 check sum: 0533207b58cddeaa036efa5b63902087
     Pseudo is Ultrasoft + core correction, Zval = 10.0
     Generated by new atomic code, or converted to UPF format
     Using radial grid of  845 points,  6 beta functions with: 
                l(1) =   0
                l(2) =   0
                l(3) =   1
                l(4) =   1
                l(5) =   2
                l(6) =   2
     Q(r) pseudized with  8 coefficients,  rinner =    1.500   1.500   1.500
                                                       1.500   1.500

     PseudoPot. # 2 for Mg read from file:
     /users/kfg/psuedo/gbrv_1.5/mg.pbesol.UPF
     MD5 check sum: 4059f37963cf5867752dbf5ab2400678
     Pseudo is Ultrasoft, Zval = 10.0
     Generated by new atomic code, or converted to UPF format
     Using radial grid of  821 points,  7 beta functions with: 
                l(1) =   0
                l(2) =   0
                l(3) =   0
                l(4) =   1
                l(5) =   1
                l(6) =   2
                l(7) =   2
     Q(r) pseudized with  8 coefficients,  rinner =    1.200   1.200   1.200
                                                       1.200   1.200

     PseudoPot. # 3 for O  read from file:
     /users/kfg/psuedo/gbrv_1.5/o.pbesol.UPF
     MD5 check sum: 501638753501ef6325af9037351f7734
     Pseudo is Ultrasoft + core correction, Zval =  6.0
     Generated by new atomic code, or converted to UPF format
     Using radial grid of  737 points,  5 beta functions with: 
                l(1) =   0
                l(2) =   0
                l(3) =   1
                l(4) =   1
                l(5) =   2
     Q(r) pseudized with  8 coefficients,  rinner =    0.900   0.900   0.900
                                                       0.900   0.900

     atomic species   valence    mass     pseudopotential
        Ca            10.00    40.07800     Ca( 1.00)
        Mg            10.00    40.07800     Mg( 1.00)
        O              6.00    15.99940     O ( 1.00)

     No symmetry found


                                    s                        frac. trans.

      isym =  1     identity                                     

 cryst.   s( 1) = (     1          0          0      )
                  (     0          1          0      )
                  (     0          0          1      )

 cart.    s( 1) = (  1.0000000  0.0000000 -0.0000000 )
                  (  0.0000000  1.0000000  0.0000000 )
                  (  0.0000000 -0.0000000  1.0000000 )


     point group C_1 (1)    
     there are  1 classes
     the character table:

       E    
A      1.00

     the symmetry operations in each class:
     E        1

   Cartesian axes

     site n.     atom                  positions (alat units)
         1           Mg  tau(   1) = (    0.00058675223   -0.00080569516   -0.00161869136  )
         2           O   tau(   2) = (    0.17791177935    0.17351036149    0.17854081392  )
         3           Ca  tau(   3) = (    0.17924858503    0.17807287297   -0.00037100924  )
         4           O   tau(   4) = (    0.35346811672    0.35514708862    0.17954816111  )
         5           Mg  tau(   5) = (    0.35545706968    0.35643161151   -0.00054587613  )
         6           O   tau(   6) = (    0.53813042774    0.53491964888    0.17181478834  )
         7           Ca  tau(   7) = (    0.53252713501    0.52703779297   -0.00340380233  )
         8           O   tau(   8) = (    0.71155188353    0.70546271380    0.16973337200  )
         9           Mg  tau(   9) = (    0.17842683405    0.00415780915    0.17728962578  )
        10           O   tau(  10) = (    0.35893960998    0.17695943384    0.34878581214  )
        11           Mg  tau(  11) = (    0.35649743304    0.17400247784    0.17704827866  )
        12           O   tau(  12) = (    0.53505131168    0.35728321278    0.35505140905  )
        13           Ca  tau(  13) = (    0.53012834856    0.35196725692    0.17661938992  )
        14           O   tau(  14) = (    0.71224868397    0.53141240958    0.35097614528  )
        15           Mg  tau(  15) = (    0.71320598870    0.53148636069    0.17331427096  )
        16           O   tau(  16) = (    0.88706194634    0.70444751936    0.34553770784  )
        17           Ca  tau(  17) = (    0.35364497798    0.00404232456    0.35536431248  )
        18           O   tau(  18) = (    0.53008586922    0.17889196935    0.52821506252  )
        19           Ca  tau(  19) = (    0.53533761647    0.17502711472    0.35019186259  )
        20           O   tau(  20) = (    0.71505314180    0.35471466217    0.52973800285  )
        21           Mg  tau(  21) = (    0.71134830697    0.35877608767    0.35440327296  )
        22           O   tau(  22) = (    0.89325638963    0.53332390281    0.52406284773  )
        23           Ca  tau(  23) = (    0.88644015720    0.53326055963    0.35074664819  )
        24           O   tau(  24) = (    1.06903769716    0.71314749669    0.52599574744  )
        25           Mg  tau(  25) = (    0.53206357237    0.00246566911    0.53253155384  )
        26           O   tau(  26) = (    0.71216008188    0.17862622414    0.70706898266  )
        27           Ca  tau(  27) = (    0.70889604838    0.18057494222    0.52951172099  )
        28           O   tau(  28) = (    0.89112180213    0.35177031136    0.70798868033  )
        29           Ca  tau(  29) = (    0.88649116309    0.35683916335    0.52418929193  )
        30           O   tau(  30) = (    1.06875711650    0.53325769935    0.70082866134  )
        31           Mg  tau(  31) = (    1.07073049168    0.53543605090    0.52591147910  )
        32           O   tau(  32) = (    1.24342032414    0.70821593384    0.70272727882  )
        33           Ca  tau(  33) = (    0.00007463309    0.18014074330    0.17562350570  )
        34           O   tau(  34) = (    0.17990878154    0.35613374452    0.35051476701  )
        35           Ca  tau(  35) = (    0.17423592906    0.35351048343    0.17394714220  )
        36           O   tau(  36) = (    0.35550495738    0.52668803246    0.35218547285  )
        37           Mg  tau(  37) = (    0.35465615101    0.52989098954    0.17752064578  )
        38           O   tau(  38) = (    0.53458364613    0.70415286208    0.35227331618  )
        39           Mg  tau(  39) = (    0.53027446653    0.70893568390    0.17685259533  )
        40           O   tau(  40) = (    0.71385974683    0.88464382783    0.35167868312  )
        41           Mg  tau(  41) = (    0.18135876901    0.17260106026    0.35203971697  )
        42           O   tau(  42) = (    0.35931034553    0.35569955930    0.52938582215  )
        43           Ca  tau(  43) = (    0.35606886361    0.35595894091    0.35067938122  )
        44           O   tau(  44) = (    0.53360581709    0.52741065896    0.52789519541  )
        45           Ca  tau(  45) = (    0.52991460592    0.53090111646    0.35139167331  )
        46           O   tau(  46) = (    0.71074003231    0.70354144958    0.52556208646  )
        47           Mg  tau(  47) = (    0.71346849872    0.71104062463    0.35385554033  )
        48           O   tau(  48) = (    0.89222334446    0.88162632106    0.52933195263  )
        49           Ca  tau(  49) = (    0.35541787765    0.17835216549    0.53259552121  )
        50           O   tau(  50) = (    0.52928888022    0.35401898717    0.70686941187  )
        51           Mg  tau(  51) = (    0.53049149467    0.35071781108    0.53091185636  )
        52           O   tau(  52) = (    0.71307104572    0.53456008993    0.70272494763  )
        53           Ca  tau(  53) = (    0.71586432724    0.53340411294    0.53115590930  )
        54           O   tau(  54) = (    0.89008952302    0.70964396940    0.70815322796  )
        55           Mg  tau(  55) = (    0.88770369151    0.71057976964    0.53064411883  )
        56           O   tau(  56) = (    1.06960026226    0.88921891110    0.70200785073  )
        57           Mg  tau(  57) = (    0.53733748897    0.17955460914    0.71022967024  )
        58           O   tau(  58) = (    0.71060765697    0.35041752787    0.87950503707  )
        59           Mg  tau(  59) = (    0.70826210813    0.35557111169    0.70696908792  )
        60           O   tau(  60) = (    0.88621251659    0.53176425643    0.88008296101  )
        61           Mg  tau(  61) = (    0.89344341494    0.53194622344    0.70134574758  )
        62           O   tau(  62) = (    1.06588892674    0.70701556835    0.87736851061  )
        63           Mg  tau(  63) = (    1.06630687449    0.71141488759    0.70576486020  )
        64           O   tau(  64) = (    1.24207168763    0.88626525734    0.88343457576  )
        65           Ca  tau(  65) = (   -0.00202814604    0.35632964069    0.35663525367  )
        66           O   tau(  66) = (    0.17760931574    0.52611753914    0.53227935027  )
        67           Ca  tau(  67) = (    0.18068815482    0.52569418170    0.35000865671  )
        68           O   tau(  68) = (    0.35536021462    0.70570418369    0.52948240032  )
        69           Mg  tau(  69) = (    0.35490496627    0.70529924325    0.35384988355  )
        70           O   tau(  70) = (    0.53335075730    0.88313035382    0.53260917046  )
        71           Mg  tau(  71) = (    0.53607477258    0.88131887623    0.35056806026  )
        72           O   tau(  72) = (    0.71248837892    1.05702288494    0.52714116159  )
        73           Mg  tau(  73) = (    0.17890738768    0.35223887101    0.53326479608  )
        74           O   tau(  74) = (    0.35414615726    0.53205450528    0.70504966858  )
        75           Ca  tau(  75) = (    0.35918326360    0.53347279643    0.53138516769  )
        76           O   tau(  76) = (    0.53294941696    0.70388362473    0.70253668356  )
        77           Ca  tau(  77) = (    0.53285324682    0.70848557027    0.53295144821  )
        78           O   tau(  78) = (    0.71019608406    0.87987223131    0.70798266144  )
        79           Mg  tau(  79) = (    0.71276853285    0.88729941779    0.52522235246  )
        80           O   tau(  80) = (    0.89309950860    1.05665406355    0.70209287504  )
        81           Mg  tau(  81) = (    0.35265358705    0.35682275557    0.70541934663  )
        82           O   tau(  82) = (    0.53558757739    0.53013762158    0.88423730053  )
        83           Ca  tau(  83) = (    0.53693871149    0.53386507434    0.70488014519  )
        84           O   tau(  84) = (    0.70923677661    0.70992220684    0.88026094252  )
        85           Ca  tau(  85) = (    0.71268626401    0.70671932591    0.70874281610  )
        86           O   tau(  86) = (    0.89110020946    0.88011019610    0.87836205821  )
        87           Ca  tau(  87) = (    0.89254080444    0.88161010344    0.70442908889  )
        88           O   tau(  88) = (    1.06992413089    1.05866108878    0.88073621049  )
        89           Ca  tau(  89) = (    0.53203502480    0.35172360382    0.88213132515  )
        90           O   tau(  90) = (    0.70986138024    0.53394523405    1.06388712485  )
        91           Mg  tau(  91) = (    0.71281852788    0.53397068092    0.88569859567  )
        92           O   tau(  92) = (    0.89192768659    0.70977386137    1.05753059496  )
        93           Mg  tau(  93) = (    0.89128226619    0.70477520993    0.87785425772  )
        94           O   tau(  94) = (    1.06768872352    0.88665274848    1.05756147974  )
        95           Ca  tau(  95) = (    1.06375290988    0.88163797082    0.87983625650  )
        96           O   tau(  96) = (    1.24562605670    1.05930814154    1.05377556414  )
        97           Ca  tau(  97) = (   -0.00091888993    0.53064791358    0.53272045001  )
        98           O   tau(  98) = (    0.17671185982    0.70407153691    0.70959447542  )
        99           Mg  tau(  99) = (    0.17871072679    0.70636177590    0.53415653064  )
       100           O   tau( 100) = (    0.35212304348    0.87983069736    0.70719914651  )
       101           Mg  tau( 101) = (    0.35614761598    0.88337713782    0.52688447796  )
       102           O   tau( 102) = (    0.53419926667    1.06267893399    0.70925145795  )
       103           Mg  tau( 103) = (    0.53075549391    1.06329801434    0.53118228064  )
       104           O   tau( 104) = (    0.71384755986    1.23927425199    0.70834488561  )
       105           Mg  tau( 105) = (    0.17804116206    0.52759038779    0.70550041368  )
       106           O   tau( 106) = (    0.35871901292    0.70692716121    0.88326787536  )
       107           Ca  tau( 107) = (    0.35271402021    0.70864498108    0.70804821833  )
       108           O   tau( 108) = (    0.52930862641    0.88262664543    0.88737138125  )
       109           Mg  tau( 109) = (    0.53434413200    0.88180477959    0.70662163278  )
       110           O   tau( 110) = (    0.71016592852    1.05652931683    0.88063993992  )
       111           Ca  tau( 111) = (    0.71314766774    1.05773407315    0.70890690806  )
       112           O   tau( 112) = (    0.88536060291    1.23777241314    0.88469678960  )
       113           Ca  tau( 113) = (    0.35368086326    0.52780566406    0.88289190311  )
       114           O   tau( 114) = (    0.53239577600    0.70997676130    1.06346889605  )
       115           Mg  tau( 115) = (    0.53277860159    0.70952178648    0.88237088831  )
       116           O   tau( 116) = (    0.70720793048    0.88702699951    1.05753295321  )
       117           Mg  tau( 117) = (    0.71356685018    0.87935773349    0.88562931644  )
       118           O   tau( 118) = (    0.88519263137    1.05964240902    1.06148095695  )
       119           Mg  tau( 119) = (    0.88857580539    1.06186823418    0.88352541132  )
       120           O   tau( 120) = (    1.07107668130    1.23928568810    1.05715860035  )
       121           Mg  tau( 121) = (    0.53678192270    0.53393120671    1.06261762965  )
       122           O   tau( 122) = (    0.70822003946    0.70846179333    1.23342663996  )
       123           Ca  tau( 123) = (    0.71206762135    0.70632540441    1.05606337828  )
       124           O   tau( 124) = (    0.88619148145    0.88063888262    1.23258813929  )
       125           Ca  tau( 125) = (    0.88509727193    0.88421470763    1.06309605878  )
       126           O   tau( 126) = (    1.06388851499    1.06420656495    1.23790517217  )
       127           Ca  tau( 127) = (    1.06735183571    1.05722188240    1.05561381577  )
       128           O   tau( 128) = (    1.24937680170    1.23928568652    1.23116518876  )

   Crystallographic axes

     site n.     atom                  positions (cryst. coord.)
         1           Mg  tau(   1) = (   -0.00212257869   -0.00015361756    0.00097406043  )
         2           O   tau(   2) = (    0.12417030609    0.12890813976    0.12111490868  )
         3           Ca  tau(   3) = (    0.00037574080    0.00051282282    0.25105354724  )
         4           O   tau(   4) = (    0.13062835421    0.12524770954    0.37116250519  )
         5           Mg  tau(   5) = (    0.00322133030   -0.00119386589    0.50006039062  )
         6           O   tau(   6) = (    0.12322824193    0.12320331779    0.63235741559  )
         7           Ca  tau(   7) = (   -0.00192032666    0.00131712726    0.74605359413  )
         8           O   tau(   8) = (    0.12114434899    0.12372002090    0.87522576381  )
         9           Mg  tau(   9) = (    0.00293627664    0.24849604349    0.00224448571  )
        10           O   tau(  10) = (    0.11981805138    0.37478512737    0.12961566191  )
        11           Mg  tau(  11) = (   -0.00160156110    0.25410066006    0.24655310518  )
        12           O   tau(  12) = (    0.12866273523    0.37615583151    0.37542130208  )
        13           Ca  tau(  13) = (    0.00259101549    0.25066716331    0.49366882432  )
        14           O   tau(  14) = (    0.12507014837    0.37540049991    0.62485729570  )
        15           Mg  tau(  15) = (   -0.00075800354    0.25080048571    0.75047027146  )
        16           O   tau(  16) = (    0.12141130857    0.37277023401    0.87281972267  )
        17           Ca  tau(  17) = (    0.00564521471    0.49830152336   -0.00132227126  )
        18           O   tau(  18) = (    0.12778438377    0.62120649981    0.12372094099  )
        19           Ca  tau(  19) = (   -0.00409670545    0.50218939139    0.24977724207  )
        20           O   tau(  20) = (    0.12389563331    0.62870390319    0.37581920153  )
        21           Mg  tau(  21) = (    0.00579785379    0.49961143964    0.49938601483  )
        22           O   tau(  22) = (    0.12164530302    0.62435666596    0.63025588604  )
        23           Ca  tau(  23) = (    0.00422659059    0.49740669169    0.74731724523  )
        24           O   tau(  24) = (    0.12731343536    0.62279396447    0.87852317454  )
        25           Mg  tau(  25) = (    0.00443796368    0.75077234065   -0.00306445373  )
        26           O   tau(  26) = (    0.12613453339    0.87652783613    0.12426182644  )
        27           Ca  tau(  27) = (    0.00466476371    0.74767960634    0.24819886922  )
        28           O   tau(  28) = (    0.12412862341    0.88124256458    0.37071318485  )
        29           Ca  tau(  29) = (    0.00142739705    0.74481299082    0.50030207050  )
        30           O   tau(  30) = (    0.12326880757    0.87340494151    0.62784048601  )
        31           Mg  tau(  31) = (    0.00015447199    0.74996736202    0.75372216111  )
        32           O   tau(  32) = (    0.12624855862    0.87447600070    0.87190468144  )
        33           Ca  tau(  33) = (    0.25135657296   -0.00391336641    0.00434810297  )
        34           O   tau(  34) = (    0.37336753384    0.12202438012    0.13112458054  )
        35           Ca  tau(  35) = (    0.25104280323   -0.00459138647    0.24945029683  )
        36           O   tau(  36) = (    0.37241294354    0.12671942071    0.37287365245  )
        37           Mg  tau(  37) = (    0.25217887889    0.00073251340    0.49734439287  )
        38           O   tau(  38) = (    0.37280023393    0.12786645882    0.62305538872  )
        39           Mg  tau(  39) = (    0.25557622249   -0.00222663011    0.74677452131  )
        40           O   tau(  40) = (    0.37471239577    0.12652625420    0.87600020717  )
        41           Mg  tau(  41) = (    0.24338821053    0.25428834610    0.00089512428  )
        42           O   tau(  42) = (    0.37348214724    0.37558269811    0.12967762259  )
        43           Ca  tau(  43) = (    0.24998973391    0.24713852384    0.25324009109  )
        44           O   tau(  44) = (    0.37203011341    0.37630701519    0.37356610197  )
        45           Ca  tau(  45) = (    0.25269451886    0.24680530803    0.49755909394  )
        46           O   tau(  46) = (    0.37112776063    0.37531535430    0.62315306532  )
        47           Mg  tau(  47) = (    0.25351732965    0.25090254876    0.75107575757  )
        48           O   tau(  48) = (    0.37286530910    0.38032251700    0.87285627322  )
        49           Ca  tau(  49) = (    0.25281412308    0.50086047482   -0.00106019150  )
        50           O   tau(  50) = (    0.37833503574    0.62236730994    0.12177715107  )
        51           Mg  tau(  51) = (    0.25114485092    0.50153612615    0.24396868333  )
        52           O   tau(  52) = (    0.37462519295    0.62168362829    0.38038281496  )
        53           Ca  tau(  53) = (    0.25093383779    0.50355191888    0.50211547553  )
        54           O   tau(  54) = (    0.37853209224    0.62682306075    0.62369067619  )
        55           Mg  tau(  55) = (    0.25576354514    0.49934966097    0.74748546041  )
        56           O   tau(  56) = (    0.37571892055    0.62238634788    0.88005095892  )
        57           Mg  tau(  57) = (    0.25145314802    0.75417121693    0.00127207197  )
        58           O   tau(  58) = (    0.37046833674    0.87513582122    0.12379902632  )
        59           Mg  tau(  59) = (    0.25416492486    0.74820509283    0.24711700194  )
        60           O   tau(  60) = (    0.37638428729    0.87141277174    0.37397653576  )
        61           Mg  tau(  61) = (    0.24548122746    0.75042533888    0.50477951672  )
        62           O   tau(  62) = (    0.37280966792    0.87257812458    0.62497356725  )
        63           Mg  tau(  63) = (    0.25469353310    0.74879840984    0.74902064013  )
        64           O   tau(  64) = (    0.38070293772    0.87462030276    0.87020706987  )
        65           Ca  tau(  65) = (    0.50523549714   -0.00276964429    0.00059321373  )
        66           O   tau(  66) = (    0.62351826894    0.12795997287    0.12230307301  )
        67           Ca  tau(  67) = (    0.49260384617    0.00196797879    0.25227688170  )
        68           O   tau(  68) = (    0.62430571486    0.12462762839    0.37509539478  )
        69           Mg  tau(  69) = (    0.50055772793    0.00079633722    0.49796098728  )
        70           O   tau(  70) = (    0.62756940724    0.12717274053    0.62235756746  )
        71           Mg  tau(  71) = (    0.49608175429    0.00207550060    0.75093905188  )
        72           O   tau(  72) = (    0.62146876317    0.12697894583    0.87395244382  )
        73           Mg  tau(  73) = (    0.50010528135    0.25288935654   -0.00080583527  )
        74           O   tau(  74) = (    0.62585369331    0.37066902103    0.12767369437  )
        75           Ca  tau(  75) = (    0.50093806030    0.25082521594    0.25426366190  )
        76           O   tau(  76) = (    0.62060782299    0.37378444659    0.37549555607  )
        77           Ca  tau(  77) = (    0.50441781782    0.25091928147    0.49791030699  )
        78           O   tau(  78) = (    0.62500841421    0.37845647780    0.61959111742  )
        79           Mg  tau(  79) = (    0.49966592000    0.24619281140    0.75512514205  )
        80           O   tau(  80) = (    0.61802037495    0.37858575513    0.87614725114  )
        81           Mg  tau(  81) = (    0.50300239989    0.49414578580    0.00209974816  )
        82           O   tau(  82) = (    0.62371231185    0.62694799656    0.12636944826  )
        83           Ca  tau(  83) = (    0.49900219184    0.49884116422    0.25603886769  )
        84           O   tau(  84) = (    0.62668133569    0.61973639768    0.37728236179  )
        85           Ca  tau(  85) = (    0.50111600691    0.50355739963    0.49798331179  )
        86           O   tau(  86) = (    0.61856234428    0.62661782167    0.62563409453  )
        87           Ca  tau(  87) = (    0.49603407145    0.50397745290    0.74997265519  )
        88           O   tau(  88) = (    0.62150887858    0.62842554867    0.87480186570  )
        89           Ca  tau(  89) = (    0.49830419039    0.74947638811   -0.00115184081  )
        90           O   tau(  90) = (    0.63097233887    0.87441205262    0.12382179416  )
        91           Mg  tau(  91) = (    0.50333810418    0.75089284485    0.25115963370  )
        92           O   tau(  92) = (    0.62356623718    0.87429494907    0.37944858168  )
        93           Mg  tau(  93) = (    0.49384669792    0.75073639348    0.50176693807  )
        94           O   tau(  94) = (    0.62582167346    0.87346561426    0.62695046332  )
        95           Ca  tau(  95) = (    0.49977014469    0.74896129865    0.74560035426  )
        96           O   tau(  96) = (    0.62087055805    0.87448398637    0.87565175269  )
        97           Ca  tau(  97) = (    0.75206747742   -0.00149488263    0.00120597010  )
        98           O   tau(  98) = (    0.87519844337    0.12610071192    0.12323591425  )
        99           Mg  tau(  99) = (    0.75177851495    0.00223478925    0.24958074170  )
       100           O   tau( 100) = (    0.87519561703    0.12410735377    0.37140628839  )
       101           Mg  tau( 101) = (    0.74781013544   -0.00265090104    0.50347734444  )
       102           O   tau( 102) = (    0.87868244970    0.12494600667    0.62610700839  )
       103           Mg  tau( 103) = (    0.75603568613   -0.00344748351    0.74933608275  )
       104           O   tau( 104) = (    0.87735392310    0.12641255522    0.87676677164  )
       105           Mg  tau( 105) = (    0.74633977968    0.24931758621    0.00187384753  )
       106           O   tau( 106) = (    0.87215608708    0.37550931432    0.12958583702  )
       107           Ca  tau( 107) = (    0.75408975647    0.24652953707    0.24981201237  )
       108           O   tau( 108) = (    0.88006782267    0.37472117203    0.36979632210  )
       109           Mg  tau( 109) = (    0.74857264566    0.25147086538    0.49977732174  )
       110           O   tau( 110) = (    0.87187959697    0.37484867243    0.62348101383  )
       111           Ca  tau( 111) = (    0.74961333498    0.25506073226    0.74713413064  )
       112           O   tau( 112) = (    0.88046121534    0.37336049620    0.87085445241  )
       113           Ca  tau( 113) = (    0.74850634892    0.49870576273   -0.00068524277  )
       114           O   tau( 114) = (    0.87968562763    0.62347624463    0.12569841368  )
       115           Mg  tau( 115) = (    0.75146336814    0.49642213296    0.25295283967  )
       116           O   tau( 116) = (    0.87852178143    0.61764699720    0.37685741369  )
       117           Mg  tau( 117) = (    0.74748262685    0.50642622841    0.49668253826  )
       118           O   tau( 118) = (    0.87895977000    0.62417860825    0.62012633058  )
       119           Mg  tau( 119) = (    0.75275041192    0.49956511006    0.74915683414  )
       120           O   tau( 120) = (    0.87301640879    0.62549623128    0.87968020239  )
       121           Mg  tau( 121) = (    0.75128021347    0.75083679922    0.00448879267  )
       122           O   tau( 122) = (    0.87525795690    0.86898261362    0.12726629001  )
       123           Ca  tau( 123) = (    0.74605001876    0.74820947342    0.25310922593  )
       124           O   tau( 124) = (    0.87202130010    0.87244188234    0.37358002764  )
       125           Ca  tau( 125) = (    0.75586886478    0.74966262436    0.49450834223  )
       126           O   tau( 126) = (    0.88138562049    0.87196720091    0.62345425802  )
       127           Ca  tau( 127) = (    0.74553846974    0.75088647598    0.74905623669  )
       128           O   tau( 128) = (    0.87078171457    0.87453709689    0.88119584856  )

     number of k points=     8  gaussian smearing, width (Ry)=  0.0050
                       cart. coord. in units 2pi/alat
        k(    1) = (   0.0000000   0.0000000   0.0000000), wk =   0.2500000
        k(    2) = (  -0.3472841  -0.3546086   0.3514981), wk =   0.2500000
        k(    3) = (  -0.3544337   0.3545996  -0.3524284), wk =   0.2500000
        k(    4) = (  -0.7017179  -0.0000090  -0.0009303), wk =   0.2500000
        k(    5) = (   0.3501643  -0.3542655  -0.3523832), wk =   0.2500000
        k(    6) = (   0.0028802  -0.7088741  -0.0008851), wk =   0.2500000
        k(    7) = (  -0.0042694   0.0003342  -0.7048116), wk =   0.2500000
        k(    8) = (  -0.3515535  -0.3542744  -0.3533135), wk =   0.2500000

                       cryst. coord.
        k(    1) = (   0.0000000   0.0000000   0.0000000), wk =   0.2500000
        k(    2) = (   0.0000000  -0.0000000  -0.5000000), wk =   0.2500000
        k(    3) = (   0.0000000  -0.5000000  -0.0000000), wk =   0.2500000
        k(    4) = (   0.0000000  -0.5000000  -0.5000000), wk =   0.2500000
        k(    5) = (  -0.5000000   0.0000000   0.0000000), wk =   0.2500000
        k(    6) = (  -0.5000000  -0.0000000  -0.5000000), wk =   0.2500000
        k(    7) = (  -0.5000000  -0.5000000   0.0000000), wk =   0.2500000
        k(    8) = (  -0.5000000  -0.5000000  -0.5000000), wk =   0.2500000

     Dense  grid:   469317 G-vectors     FFT dimensions: ( 108, 120, 120)

     Smooth grid:   335933 G-vectors     FFT dimensions: ( 100, 100, 100)

     Largest allocated arrays     est. size (Mb)     dimensions
        Kohn-Sham Wavefunctions        49.56 Mb     (    5290,  614)
        NL pseudopotentials           162.89 Mb     (    5290, 2018)
        Each V/rho on FFT grid          2.97 Mb     (  194400)
        Each G-vector array             0.45 Mb     (   58665)
        G-vector shells                 0.44 Mb     (   58114)
     Largest temporary arrays     est. size (Mb)     dimensions
        Auxiliary wavefunctions       198.25 Mb     (    5290, 2456)
        Each subspace H/S matrix       92.04 Mb     (    2456, 2456)
        Each <psi_i|beta_j> matrix     18.91 Mb     (    2018,  614)
        Arrays for rho mixing          23.73 Mb     (  194400,    8)

     Check: negative/imaginary core charge=   -0.000003    0.000000

     Initial potential from superposition of free atoms

     starting charge 1013.63689, renormalised to 1024.00000
     Starting wfc are  726 randomized atomic wfcs

     total cpu time spent up to now is      714.4 secs

     Self-consistent Calculation

     iteration #  1     ecut=    40.00 Ry     beta=0.30
     Davidson diagonalization with overlap
     ethr =  1.00E-02,  avg # of iterations =  3.0

     total cpu time spent up to now is     2759.9 secs

     total energy              =   -8580.67098782 Ry
     Harris-Foulkes estimate   =   -8585.39836512 Ry
     estimated scf accuracy    <      24.49254824 Ry

     iteration #  2     ecut=    40.00 Ry     beta=0.30
     Davidson diagonalization with overlap
     ethr =  2.39E-03,  avg # of iterations =  1.0

     total cpu time spent up to now is     4047.3 secs

     total energy              =   -8577.26658422 Ry
     Harris-Foulkes estimate   =   -8581.39729852 Ry
     estimated scf accuracy    <      10.42667830 Ry

     iteration #  3     ecut=    40.00 Ry     beta=0.30
     Davidson diagonalization with overlap
     ethr =  1.02E-03,  avg # of iterations =  2.0

     total cpu time spent up to now is     5611.1 secs

     total energy              =   -8578.49557148 Ry
     Harris-Foulkes estimate   =   -8578.93175467 Ry
     estimated scf accuracy    <       1.44651044 Ry

     iteration #  4     ecut=    40.00 Ry     beta=0.30
     Davidson diagonalization with overlap
     ethr =  1.41E-04,  avg # of iterations =  6.5

     total cpu time spent up to now is     7805.3 secs

     total energy              =   -8578.18645165 Ry
     Harris-Foulkes estimate   =   -8578.59314780 Ry
     estimated scf accuracy    <       0.70904316 Ry

     iteration #  5     ecut=    40.00 Ry     beta=0.30
     Davidson diagonalization with overlap
     ethr =  6.92E-05,  avg # of iterations =  2.8

     total cpu time spent up to now is     9468.9 secs

     total energy              =   -8578.28251158 Ry
     Harris-Foulkes estimate   =   -8578.29933078 Ry
     estimated scf accuracy    <       0.10881383 Ry

     iteration #  6     ecut=    40.00 Ry     beta=0.30
     Davidson diagonalization with overlap
     ethr =  1.06E-05,  avg # of iterations =  9.5

     total cpu time spent up to now is    11885.5 secs

     total energy              =   -8578.27232364 Ry
     Harris-Foulkes estimate   =   -8578.28706326 Ry
     estimated scf accuracy    <       0.04779326 Ry

     iteration #  7     ecut=    40.00 Ry     beta=0.30
     Davidson diagonalization with overlap
     ethr =  4.67E-06,  avg # of iterations =  5.8

     total cpu time spent up to now is    13891.8 secs

     total energy              =   -8578.27363502 Ry
     Harris-Foulkes estimate   =   -8578.27654025 Ry
     estimated scf accuracy    <       0.00757370 Ry

     iteration #  8     ecut=    40.00 Ry     beta=0.30
     Davidson diagonalization with overlap
     ethr =  7.40E-07,  avg # of iterations =  6.6

     total cpu time spent up to now is    16061.2 secs

     total energy              =   -8578.27451047 Ry
     Harris-Foulkes estimate   =   -8578.27504176 Ry
     estimated scf accuracy    <       0.00306474 Ry

     iteration #  9     ecut=    40.00 Ry     beta=0.30
     Davidson diagonalization with overlap
     ethr =  2.99E-07,  avg # of iterations =  1.0

     total cpu time spent up to now is    17222.3 secs

     total energy              =   -8578.27431350 Ry
     Harris-Foulkes estimate   =   -8578.27464245 Ry
     estimated scf accuracy    <       0.00140726 Ry

     iteration # 10     ecut=    40.00 Ry     beta=0.30
     Davidson diagonalization with overlap
     ethr =  1.37E-07,  avg # of iterations =  2.0

     total cpu time spent up to now is    18607.3 secs

     total energy              =   -8578.27427351 Ry
     Harris-Foulkes estimate   =   -8578.27441714 Ry
     estimated scf accuracy    <       0.00058354 Ry

     iteration # 11     ecut=    40.00 Ry     beta=0.30
     Davidson diagonalization with overlap
     ethr =  5.70E-08,  avg # of iterations =  1.5

     total cpu time spent up to now is    19839.1 secs

     total energy              =   -8578.27426771 Ry
     Harris-Foulkes estimate   =   -8578.27431023 Ry
     estimated scf accuracy    <       0.00018671 Ry

     iteration # 12     ecut=    40.00 Ry     beta=0.30
     Davidson diagonalization with overlap
     ethr =  1.82E-08,  avg # of iterations =  2.0

     total cpu time spent up to now is    21148.6 secs

     total energy              =   -8578.27424204 Ry
     Harris-Foulkes estimate   =   -8578.27427996 Ry
     estimated scf accuracy    <       0.00008573 Ry

     iteration # 13     ecut=    40.00 Ry     beta=0.30
     Davidson diagonalization with overlap
     ethr =  8.37E-09,  avg # of iterations =  2.0

     total cpu time spent up to now is    22651.2 secs

     total energy              =   -8578.27425093 Ry
     Harris-Foulkes estimate   =   -8578.27425293 Ry
     estimated scf accuracy    <       0.00000765 Ry

     iteration # 14     ecut=    40.00 Ry     beta=0.30
     Davidson diagonalization with overlap
     ethr =  7.47E-10,  avg # of iterations =  2.0

     total cpu time spent up to now is    23991.8 secs

     total energy              =   -8578.27425106 Ry
     Harris-Foulkes estimate   =   -8578.27425157 Ry
     estimated scf accuracy    <       0.00000316 Ry

     iteration # 15     ecut=    40.00 Ry     beta=0.30
     Davidson diagonalization with overlap
     ethr =  3.09E-10,  avg # of iterations =  2.0

     total cpu time spent up to now is    25498.1 secs

     total energy              =   -8578.27425110 Ry
     Harris-Foulkes estimate   =   -8578.27425132 Ry
     estimated scf accuracy    <       0.00000090 Ry

     iteration # 16     ecut=    40.00 Ry     beta=0.30
     Davidson diagonalization with overlap
     ethr =  8.75E-11,  avg # of iterations =  2.0

     total cpu time spent up to now is    26682.9 secs

     total energy              =   -8578.27425111 Ry
     Harris-Foulkes estimate   =   -8578.27425116 Ry
     estimated scf accuracy    <       0.00000038 Ry

     iteration # 17     ecut=    40.00 Ry     beta=0.30
     Davidson diagonalization with overlap
     ethr =  3.76E-11,  avg # of iterations =  1.0

     total cpu time spent up to now is    27756.4 secs

     total energy              =   -8578.27425109 Ry
     Harris-Foulkes estimate   =   -8578.27425113 Ry
     estimated scf accuracy    <       0.00000023 Ry

     iteration # 18     ecut=    40.00 Ry     beta=0.30
     Davidson diagonalization with overlap
     ethr =  2.29E-11,  avg # of iterations =  1.0

     total cpu time spent up to now is    28825.3 secs

     total energy              =   -8578.27425104 Ry
     Harris-Foulkes estimate   =   -8578.27425109 Ry
     estimated scf accuracy    <       0.00000015 Ry

     iteration # 19     ecut=    40.00 Ry     beta=0.30
     Davidson diagonalization with overlap
     ethr =  1.42E-11,  avg # of iterations =  2.0

     total cpu time spent up to now is    30086.3 secs

     total energy              =   -8578.27425103 Ry
     Harris-Foulkes estimate   =   -8578.27425105 Ry
     estimated scf accuracy    <       0.00000006 Ry

     iteration # 20     ecut=    40.00 Ry     beta=0.30
     Davidson diagonalization with overlap
     ethr =  6.04E-12,  avg # of iterations =  2.0

     total cpu time spent up to now is    31269.8 secs

     total energy              =   -8578.27425103 Ry
     Harris-Foulkes estimate   =   -8578.27425104 Ry
     estimated scf accuracy    <       0.00000002 Ry

     iteration # 21     ecut=    40.00 Ry     beta=0.30
     Davidson diagonalization with overlap
     ethr =  1.98E-12,  avg # of iterations =  2.0

     total cpu time spent up to now is    32449.9 secs

     total energy              =   -8578.27425103 Ry
     Harris-Foulkes estimate   =   -8578.27425104 Ry
     estimated scf accuracy    <          7.4E-09 Ry

     iteration # 22     ecut=    40.00 Ry     beta=0.30
     Davidson diagonalization with overlap
     ethr =  7.18E-13,  avg # of iterations =  2.0

     total cpu time spent up to now is    33658.7 secs

     total energy              =   -8578.27425103 Ry
     Harris-Foulkes estimate   =   -8578.27425103 Ry
     estimated scf accuracy    <          3.6E-09 Ry

     iteration # 23     ecut=    40.00 Ry     beta=0.30
     Davidson diagonalization with overlap
     ethr =  3.53E-13,  avg # of iterations =  1.0

     total cpu time spent up to now is    34742.4 secs

     total energy              =   -8578.27425103 Ry
     Harris-Foulkes estimate   =   -8578.27425103 Ry
     estimated scf accuracy    <          2.5E-09 Ry

     iteration # 24     ecut=    40.00 Ry     beta=0.30
     Davidson diagonalization with overlap
     ethr =  2.45E-13,  avg # of iterations =  2.0

     total cpu time spent up to now is    36101.9 secs

     total energy              =   -8578.27425103 Ry
     Harris-Foulkes estimate   =   -8578.27425103 Ry
     estimated scf accuracy    <          1.6E-10 Ry

     iteration # 25     ecut=    40.00 Ry     beta=0.30
     Davidson diagonalization with overlap
     ethr =  1.00E-13,  avg # of iterations =  1.0

     total cpu time spent up to now is    37195.6 secs

     End of self-consistent calculation

          k = 0.0000 0.0000 0.0000 ( 41923 PWs)   bands (ev):

   -65.4389 -65.3939 -65.3902 -65.3775 -65.3054 -65.2774 -65.2771 -65.2611
   -65.2598 -65.2590 -65.2443 -65.2338 -65.2019 -65.1999 -65.1979 -65.1882
   -65.1505 -65.1299 -65.1293 -65.0779 -65.0770 -65.0738 -65.0516 -65.0490
   -65.0002 -64.9338 -64.9279 -64.9251 -64.9149 -64.9109 -64.9000 -64.8777
   -64.8425 -64.5703 -32.4122 -32.4085 -32.3865 -32.3694 -32.3686 -32.3588
   -32.3506 -32.3504 -32.3439 -32.3413 -32.3404 -32.3326 -32.2768 -32.2669
   -32.2573 -32.2474 -32.2466 -32.2440 -32.2381 -32.2359 -32.2341 -32.2307
   -32.2297 -32.2294 -32.2250 -32.2221 -32.2214 -32.2187 -32.2162 -32.2157
   -32.2117 -32.2108 -32.2039 -32.2009 -32.1958 -32.1884 -32.1744 -32.1708
   -32.1673 -32.1636 -32.1627 -32.1627 -32.1581 -32.1576 -32.1563 -32.1548
   -32.1523 -32.1402 -32.1235 -32.1149 -32.1053 -32.1049 -32.0974 -32.0935
   -32.0890 -32.0862 -32.0846 -32.0533 -32.0500 -32.0479 -32.0456 -32.0403
   -32.0399 -32.0330 -32.0284 -32.0262 -32.0234 -32.0195 -32.0151 -32.0125
   -32.0095 -32.0073 -31.9730 -31.9661 -31.9542 -31.9067 -31.9027 -31.9005
   -31.8970 -31.8932 -31.8881 -31.8879 -31.8849 -31.8842 -31.8838 -31.8806
   -31.8785 -31.8757 -31.8752 -31.8739 -31.8659 -31.8601 -31.8574 -31.8484
   -31.8423 -31.8309 -31.8196 -31.8065 -31.7979 -31.5409 -31.5339 -31.5297
   -28.7775 -28.7479 -28.7319 -28.7130 -28.7041 -28.6976 -28.6903 -28.6746
   -28.6526 -28.6414 -28.6246 -28.6175 -28.6159 -28.5956 -28.5734 -28.5647
   -28.5560 -28.5493 -28.5291 -28.4972 -28.4902 -28.4789 -28.4682 -28.4585
   -28.4570 -28.4275 -28.3867 -28.3583 -28.2710 -28.2582 -11.2414 -11.2060
   -11.1549 -11.1314 -11.1078 -11.0767 -11.0138 -10.9777 -10.9652 -10.9327
   -10.9224 -10.9091 -10.8972 -10.8926 -10.8753 -10.8403 -10.7987 -10.7752
   -10.7565 -10.7233 -10.7193 -10.7071 -10.6787 -10.6534 -10.6392 -10.6321
   -10.6165 -10.5676 -10.5580 -10.5534 -10.5398 -10.4963 -10.4590 -10.4487
   -10.4419 -10.4288 -10.4169 -10.3672 -10.3496 -10.3283 -10.2968 -10.2419
   -10.2317 -10.2209 -10.1931 -10.1761 -10.1574 -10.1401 -10.1167 -10.0930
   -10.0786 -10.0728 -10.0530 -10.0252 -10.0166 -10.0074  -9.9896  -9.9804
    -9.9681  -9.9410  -9.9404  -9.9263  -9.9064  -9.8923  -9.8761  -9.8607
    -9.8510  -9.8452  -9.8185  -9.7953  -9.7900  -9.7850  -9.7668  -9.7585
    -9.7494  -9.7328  -9.7160  -9.7117  -9.6797  -9.6744  -9.6593  -9.6518
    -9.6301  -9.6209  -9.6039  -9.5718  -9.5671  -9.5460  -9.5343  -9.5011
    -8.3952  -7.9233  -7.8428  -7.8076  -7.7876  -7.7719  -7.7415  -7.7168
    -7.6996  -7.6748  -7.6310  -7.6053  -7.5908  -7.5741  -7.5683  -7.5476
    -7.5421  -7.5055  -7.4398  -7.4315  -7.4014  -7.3639  -7.3555  -7.3203
    -7.2874  -7.2674  -7.2455  -7.2286  -7.2138  -7.1993  -7.1583  -7.1396
    -7.0869  -7.0667  -7.0437  -7.0200  -6.9967  -6.9908  -6.9581  -6.9553
    -6.9222  -6.8995  -6.8798  -6.8576  -6.8450  -6.8147  -6.7917  -6.7749
    -6.7479  -6.7252  -6.7131  -6.6937  -6.6658  -6.6517  -6.6381  -6.6205
    -6.5994  -6.5368  -6.5221  -6.4974  -6.4793  -6.3135  -6.2897  -6.2300
     3.6095   3.8003   3.8500   4.0435   4.2238   4.3187   4.3366   4.3537
     4.3688   4.4010   4.4382   4.4459   4.4908   4.5440   4.5861   4.6079
     4.6220   4.6871   4.7034   4.7159   4.7360   4.7817   4.7939   4.8073
     4.8167   4.8559   4.8951   4.9220   4.9457   4.9971   5.0194   5.0368
     5.0635   5.1106   5.1341   5.1627   5.1904   5.2150   5.2363   5.2770
     5.2997   5.3248   5.3575   5.3786   5.4094   5.4170   5.4581   5.5037
     5.5282   5.5446   5.5585   5.5894   5.6112   5.6276   5.6448   5.6621
     5.6812   5.7059   5.7277   5.7654   5.7852   5.7927   5.8192   5.8348
     5.8515   5.8572   5.8725   5.8993   5.9082   5.9328   5.9485   5.9625
     5.9989   6.0143   6.0188   6.0426   6.0564   6.0928   6.0972   6.1133
     6.1203   6.1479   6.1576   6.1681   6.1762   6.2058   6.2072   6.2320
     6.2402   6.2595   6.2662   6.2914   6.3047   6.3281   6.3336   6.3469
     6.3634   6.3790   6.3852   6.4105   6.4209   6.4280   6.4510   6.4635
     6.4670   6.4745   6.4827   6.5041   6.5160   6.5256   6.5353   6.5480
     6.5656   6.5695   6.5754   6.5864   6.5942   6.6069   6.6185   6.6337
     6.6408   6.6558   6.6587   6.6733   6.6799   6.6979   6.7039   6.7253
     6.7330   6.7422   6.7562   6.7644   6.7993   6.8171   6.8188   6.8385
     6.8564   6.8659   6.8686   6.8857   6.9012   6.9159   6.9251   6.9403
     6.9493   6.9575   6.9668   6.9836   6.9955   7.0076   7.0215   7.0358
     7.0461   7.0499   7.0863   7.1003   7.1115   7.1258   7.1354   7.1623
     7.1888   7.1907   7.1994   7.2100   7.2234   7.2382   7.2483   7.2563
     7.2702   7.2784   7.2844   7.2978   7.3103   7.3156   7.3198   7.3407
     7.3552   7.3606   7.3835   7.4049   7.4193   7.4235   7.4318   7.4439
     7.4709   7.4757   7.4919   7.4993   7.5916   7.7584   7.7748   7.8101
    11.6885  12.7270  12.7778  12.8297  13.3816  13.4921  13.5329  13.5777
    13.5996  13.6086  13.6337  13.6949  13.7252  13.7400  13.8100  13.8604
    13.8641  13.9083  13.9230  13.9531  14.0088  14.0171  14.0834  14.1323
    14.1398  14.1496  14.2187  14.2324  14.2769  14.3627  14.3723  14.3946
    14.4229  14.4675  14.5145  14.5351  14.5674  14.5802  14.6163  14.6658
    14.7026  14.7273  14.7671  14.7834  14.8328  14.9049  14.9552  15.0381
    15.0683  15.1163  15.1654  15.1994  15.2084  15.2416  15.2557  15.2783
    15.3074  15.3209  15.3393  15.3672  15.4013  15.4200  15.4311  15.4716
    15.5164  15.5588  15.5787  15.6097  15.6272  15.6571  15.6623  15.6967
    15.7198  15.7708  15.7812  15.8128  15.8259  15.8555  15.8692  15.9011
    15.9275  15.9470  15.9771  16.0224  16.0502  16.0648  16.1101  16.1258
    16.1482  16.1738  16.2182  16.2287  16.2546  16.2782  16.2943  16.3101
    16.3190  16.3421  16.3551  16.4263  16.4494  16.4663

     occupation numbers 
     1.0000   1.0000   1.0000   1.0000   1.0000   1.0000   1.0000   1.0000
     1.0000   1.0000   1.0000   1.0000   1.0000   1.0000   1.0000   1.0000
     1.0000   1.0000   1.0000   1.0000   1.0000   1.0000   1.0000   1.0000
     1.0000   1.0000   1.0000   1.0000   1.0000   1.0000   1.0000   1.0000
     1.0000   1.0000   1.0000   1.0000   1.0000   1.0000   1.0000   1.0000
     1.0000   1.0000   1.0000   1.0000   1.0000   1.0000   1.0000   1.0000
     1.0000   1.0000   1.0000   1.0000   1.0000   1.0000   1.0000   1.0000
     1.0000   1.0000   1.0000   1.0000   1.0000   1.0000   1.0000   1.0000
     1.0000   1.0000   1.0000   1.0000   1.0000   1.0000   1.0000   1.0000
     1.0000   1.0000   1.0000   1.0000   1.0000   1.0000   1.0000   1.0000
     1.0000   1.0000   1.0000   1.0000   1.0000   1.0000   1.0000   1.0000
     1.0000   1.0000   1.0000   1.0000   1.0000   1.0000   1.0000   1.0000
     1.0000   1.0000   1.0000   1.0000   1.0000   1.0000   1.0000   1.0000
     1.0000   1.0000   1.0000   1.0000   1.0000   1.0000   1.0000   1.0000
     1.0000   1.0000   1.0000   1.0000   1.0000   1.0000   1.0000   1.0000
     1.0000   1.0000   1.0000   1.0000   1.0000   1.0000   1.0000   1.0000
     1.0000   1.0000   1.0000   1.0000   1.0000   1.0000   1.0000   1.0000
     1.0000   1.0000   1.0000   1.0000   1.0000   1.0000   1.0000   1.0000
     1.0000   1.0000   1.0000   1.0000   1.0000   1.0000   1.0000   1.0000
     1.0000   1.0000   1.0000   1.0000   1.0000   1.0000   1.0000   1.0000
     1.0000   1.0000   1.0000   1.0000   1.0000   1.0000   1.0000   1.0000
     1.0000   1.0000   1.0000   1.0000   1.0000   1.0000   1.0000   1.0000
     1.0000   1.0000   1.0000   1.0000   1.0000   1.0000   1.0000   1.0000
     1.0000   1.0000   1.0000   1.0000   1.0000   1.0000   1.0000   1.0000
     1.0000   1.0000   1.0000   1.0000   1.0000   1.0000   1.0000   1.0000
     1.0000   1.0000   1.0000   1.0000   1.0000   1.0000   1.0000   1.0000
     1.0000   1.0000   1.0000   1.0000   1.0000   1.0000   1.0000   1.0000
     1.0000   1.0000   1.0000   1.0000   1.0000   1.0000   1.0000   1.0000
     1.0000   1.0000   1.0000   1.0000   1.0000   1.0000   1.0000   1.0000
     1.0000   1.0000   1.0000   1.0000   1.0000   1.0000   1.0000   1.0000
     1.0000   1.0000   1.0000   1.0000   1.0000   1.0000   1.0000   1.0000
     1.0000   1.0000   1.0000   1.0000   1.0000   1.0000   1.0000   1.0000
     1.0000   1.0000   1.0000   1.0000   1.0000   1.0000   1.0000   1.0000
     1.0000   1.0000   1.0000   1.0000   1.0000   1.0000   1.0000   1.0000
     1.0000   1.0000   1.0000   1.0000   1.0000   1.0000   1.0000   1.0000
     1.0000   1.0000   1.0000   1.0000   1.0000   1.0000   1.0000   1.0000
     1.0000   1.0000   1.0000   1.0000   1.0000   1.0000   1.0000   1.0000
     1.0000   1.0000   1.0000   1.0000   1.0000   1.0000   1.0000   1.0000
     1.0000   1.0000   1.0000   1.0000   1.0000   1.0000   1.0000   1.0000
     1.0000   1.0000   1.0000   1.0000   1.0000   1.0000   1.0000   1.0000
     1.0000   1.0000   1.0000   1.0000   1.0000   1.0000   1.0000   1.0000
     1.0000   1.0000   1.0000   1.0000   1.0000   1.0000   1.0000   1.0000
     1.0000   1.0000   1.0000   1.0000   1.0000   1.0000   1.0000   1.0000
     1.0000   1.0000   1.0000   1.0000   1.0000   1.0000   1.0000   1.0000
     1.0000   1.0000   1.0000   1.0000   1.0000   1.0000   1.0000   1.0000
     1.0000   1.0000   1.0000   1.0000   1.0000   1.0000   1.0000   1.0000
     1.0000   1.0000   1.0000   1.0000   1.0000   1.0000   1.0000   1.0000
     1.0000   1.0000   1.0000   1.0000   1.0000   1.0000   1.0000   1.0000
     1.0000   1.0000   1.0000   1.0000   1.0000   1.0000   1.0000   1.0000
     1.0000   1.0000   1.0000   1.0000   1.0000   1.0000   1.0000   1.0000
     1.0000   1.0000   1.0000   1.0000   1.0000   1.0000   1.0000   1.0000
     1.0000   1.0000   1.0000   1.0000   1.0000   1.0000   1.0000   1.0000
     1.0000   1.0000   1.0000   1.0000   1.0000   1.0000   1.0000   1.0000
     1.0000   1.0000   1.0000   1.0000   1.0000   1.0000   1.0000   1.0000
     1.0000   1.0000   1.0000   1.0000   1.0000   1.0000   1.0000   1.0000
     1.0000   1.0000   1.0000   1.0000   1.0000   1.0000   1.0000   1.0000
     1.0000   1.0000   1.0000   1.0000   1.0000   1.0000   1.0000   1.0000
     1.0000   1.0000   1.0000   1.0000   1.0000   1.0000   1.0000   1.0000
     1.0000   1.0000   1.0000   1.0000   1.0000   1.0000   1.0000   1.0000
     1.0000   1.0000   1.0000   1.0000   1.0000   1.0000   1.0000   1.0000
     1.0000   1.0000   1.0000   1.0000   1.0000   1.0000   1.0000   1.0000
     1.0000   1.0000   1.0000   1.0000   1.0000   1.0000   1.0000   1.0000
     1.0000   1.0000   1.0000   1.0000   1.0000   1.0000   1.0000   1.0000
     1.0000   1.0000   1.0000   1.0000   1.0000   1.0000   1.0000   1.0000
     0.0000   0.0000   0.0000   0.0000   0.0000   0.0000   0.0000   0.0000
     0.0000   0.0000   0.0000   0.0000   0.0000   0.0000   0.0000   0.0000
     0.0000   0.0000   0.0000   0.0000   0.0000   0.0000   0.0000   0.0000
     0.0000   0.0000   0.0000   0.0000   0.0000   0.0000   0.0000   0.0000
     0.0000   0.0000   0.0000   0.0000   0.0000   0.0000   0.0000   0.0000
     0.0000   0.0000   0.0000   0.0000   0.0000   0.0000   0.0000   0.0000
     0.0000   0.0000   0.0000   0.0000   0.0000   0.0000   0.0000   0.0000
     0.0000   0.0000   0.0000   0.0000   0.0000   0.0000   0.0000   0.0000
     0.0000   0.0000   0.0000   0.0000   0.0000   0.0000   0.0000   0.0000
     0.0000   0.0000   0.0000   0.0000   0.0000   0.0000   0.0000   0.0000
     0.0000   0.0000   0.0000   0.0000   0.0000   0.0000   0.0000   0.0000
     0.0000   0.0000   0.0000   0.0000   0.0000   0.0000   0.0000   0.0000
     0.0000   0.0000   0.0000   0.0000   0.0000   0.0000

          k =-0.3473-0.3546 0.3515 ( 41996 PWs)   bands (ev):

   -65.4389 -65.3939 -65.3902 -65.3775 -65.3054 -65.2774 -65.2771 -65.2611
   -65.2598 -65.2590 -65.2443 -65.2338 -65.2019 -65.1999 -65.1979 -65.1882
   -65.1505 -65.1299 -65.1293 -65.0779 -65.0770 -65.0738 -65.0516 -65.0490
   -65.0002 -64.9338 -64.9279 -64.9251 -64.9149 -64.9109 -64.9000 -64.8777
   -64.8425 -64.5703 -32.4122 -32.4085 -32.3865 -32.3694 -32.3686 -32.3588
   -32.3506 -32.3504 -32.3439 -32.3413 -32.3404 -32.3326 -32.2768 -32.2669
   -32.2573 -32.2474 -32.2466 -32.2440 -32.2381 -32.2359 -32.2341 -32.2307
   -32.2297 -32.2294 -32.2250 -32.2221 -32.2214 -32.2187 -32.2162 -32.2156
   -32.2117 -32.2108 -32.2039 -32.2009 -32.1958 -32.1884 -32.1744 -32.1708
   -32.1673 -32.1636 -32.1627 -32.1627 -32.1580 -32.1576 -32.1563 -32.1549
   -32.1523 -32.1402 -32.1235 -32.1149 -32.1053 -32.1049 -32.0974 -32.0935
   -32.0890 -32.0862 -32.0846 -32.0533 -32.0500 -32.0479 -32.0456 -32.0403
   -32.0399 -32.0330 -32.0284 -32.0262 -32.0234 -32.0195 -32.0151 -32.0125
   -32.0095 -32.0073 -31.9730 -31.9661 -31.9542 -31.9067 -31.9027 -31.9005
   -31.8970 -31.8932 -31.8881 -31.8879 -31.8849 -31.8842 -31.8838 -31.8806
   -31.8785 -31.8757 -31.8752 -31.8739 -31.8659 -31.8601 -31.8574 -31.8484
   -31.8423 -31.8309 -31.8195 -31.8065 -31.7979 -31.5409 -31.5339 -31.5297
   -28.7773 -28.7462 -28.7339 -28.7145 -28.7041 -28.6996 -28.6868 -28.6744
   -28.6526 -28.6413 -28.6222 -28.6203 -28.6163 -28.5954 -28.5735 -28.5642
   -28.5559 -28.5493 -28.5292 -28.4973 -28.4901 -28.4792 -28.4682 -28.4586
   -28.4569 -28.4274 -28.3867 -28.3583 -28.2710 -28.2582 -11.2295 -11.1972
   -11.1461 -11.1196 -11.1095 -11.0658 -11.0224 -11.0002 -10.9763 -10.9521
   -10.9445 -10.9251 -10.9003 -10.8896 -10.8617 -10.8231 -10.8032 -10.7759
   -10.7665 -10.7285 -10.7200 -10.7082 -10.6929 -10.6650 -10.6567 -10.6416
   -10.6309 -10.6120 -10.5891 -10.5542 -10.4832 -10.4701 -10.4380 -10.4319
   -10.4048 -10.3980 -10.3871 -10.3459 -10.3277 -10.2977 -10.2731 -10.2523
   -10.2309 -10.2144 -10.1857 -10.1819 -10.1608 -10.1457 -10.1371 -10.1081
   -10.0991 -10.0718 -10.0520 -10.0343 -10.0296 -10.0106  -9.9883  -9.9707
    -9.9617  -9.9354  -9.9261  -9.9090  -9.9027  -9.8838  -9.8739  -9.8624
    -9.8532  -9.8399  -9.8215  -9.8115  -9.8044  -9.7832  -9.7761  -9.7684
    -9.7566  -9.7305  -9.7186  -9.7026  -9.6953  -9.6845  -9.6784  -9.6698
    -9.6421  -9.6251  -9.6137  -9.5879  -9.5788  -9.5535  -9.5303  -9.5001
    -8.1409  -8.0817  -7.8578  -7.8368  -7.8218  -7.7890  -7.7480  -7.7050
    -7.6708  -7.6603  -7.6192  -7.6011  -7.5899  -7.5741  -7.5279  -7.5018
    -7.4705  -7.4642  -7.4525  -7.4350  -7.4178  -7.4145  -7.3802  -7.3647
    -7.3452  -7.2956  -7.2884  -7.2425  -7.2296  -7.1771  -7.1635  -7.1375
    -7.0983  -7.0894  -7.0649  -7.0324  -7.0162  -6.9841  -6.9740  -6.9433
    -6.9093  -6.8997  -6.8818  -6.8475  -6.8318  -6.8164  -6.7797  -6.7751
    -6.7191  -6.6899  -6.6857  -6.6837  -6.6440  -6.6423  -6.6059  -6.5902
    -6.5826  -6.5440  -6.5226  -6.4941  -6.4505  -6.3407  -6.3077  -6.2978
     3.8164   3.8676   3.9222   4.0397   4.1101   4.1871   4.2993   4.3548
     4.3770   4.4066   4.4163   4.4719   4.4892   4.4944   4.5227   4.5595
     4.5963   4.6364   4.6686   4.6913   4.7313   4.7471   4.7657   4.7886
     4.8181   4.8517   4.9116   4.9512   4.9786   4.9950   5.0196   5.0399
     5.0887   5.1171   5.1469   5.1686   5.2085   5.2157   5.2506   5.2574
     5.2671   5.2790   5.2893   5.3011   5.3372   5.3766   5.4155   5.4219
     5.4501   5.4815   5.5235   5.5480   5.5593   5.5834   5.6188   5.6204
     5.7059   5.7158   5.7365   5.7580   5.7817   5.8209   5.8470   5.8642
     5.9068   5.9116   5.9200   5.9296   5.9582   5.9728   5.9950   6.0115
     6.0275   6.0428   6.0551   6.0756   6.0989   6.1037   6.1183   6.1372
     6.1626   6.1818   6.2008   6.2105   6.2338   6.2554   6.2569   6.2715
     6.2871   6.2967   6.3082   6.3241   6.3400   6.3747   6.3835   6.3942
     6.4052   6.4143   6.4257   6.4311   6.4444   6.4543   6.4670   6.4823
     6.4915   6.5008   6.5078   6.5255   6.5358   6.5584   6.5687   6.5793
     6.5830   6.5897   6.6007   6.6231   6.6375   6.6451   6.6534   6.6708
     6.6791   6.6849   6.7007   6.7094   6.7245   6.7328   6.7486   6.7514
     6.7688   6.7792   6.7885   6.7928   6.7978   6.8161   6.8347   6.8402
     6.8611   6.8653   6.8695   6.8800   6.8878   6.9013   6.9055   6.9235
     6.9317   6.9407   6.9519   6.9670   6.9771   6.9878   6.9998   7.0083
     7.0109   7.0239   7.0331   7.0356   7.0594   7.0604   7.0783   7.0989
     7.1154   7.1169   7.1461   7.1586   7.1605   7.1675   7.1881   7.2054
     7.2197   7.2208   7.2533   7.2669   7.2747   7.2855   7.2977   7.3078
     7.3352   7.3405   7.3604   7.3883   7.3991   7.4177   7.4342   7.4412
     7.4536   7.4760   7.4959   7.5665   7.6310   7.6623   7.6835   7.6914
    12.3300  12.5601  13.0278  13.0581  13.1330  13.3232  13.4031  13.4249
    13.4498  13.4969  13.5179  13.5509  13.6141  13.6719  13.6814  13.7313
    13.8732  13.8890  13.9549  14.0554  14.0901  14.1507  14.1803  14.2078
    14.2506  14.2674  14.3280  14.3548  14.3827  14.3977  14.4493  14.4586
    14.5017  14.5674  14.6219  14.6533  14.6617  14.6931  14.7441  14.7613
    14.7866  14.8068  14.8164  14.8564  14.8688  14.9437  14.9590  15.0145
    15.0460  15.0649  15.0711  15.0802  15.1138  15.1387  15.1863  15.2128
    15.2206  15.2285  15.2861  15.3082  15.3234  15.3537  15.3619  15.4069
    15.4222  15.4609  15.4724  15.5164  15.5722  15.5955  15.6102  15.6441
    15.7018  15.7210  15.7414  15.7498  15.7939  15.8267  15.8403  15.8728
    15.8934  15.9293  15.9461  15.9697  15.9829  16.0206  16.0837  16.1289
    16.1473  16.1550  16.1636  16.1796  16.2147  16.2453  16.2517  16.2881
    16.3066  16.3629  16.3791  16.4137  16.4443  16.4940

     occupation numbers 
     1.0000   1.0000   1.0000   1.0000   1.0000   1.0000   1.0000   1.0000
     1.0000   1.0000   1.0000   1.0000   1.0000   1.0000   1.0000   1.0000
     1.0000   1.0000   1.0000   1.0000   1.0000   1.0000   1.0000   1.0000
     1.0000   1.0000   1.0000   1.0000   1.0000   1.0000   1.0000   1.0000
     1.0000   1.0000   1.0000   1.0000   1.0000   1.0000   1.0000   1.0000
     1.0000   1.0000   1.0000   1.0000   1.0000   1.0000   1.0000   1.0000
     1.0000   1.0000   1.0000   1.0000   1.0000   1.0000   1.0000   1.0000
     1.0000   1.0000   1.0000   1.0000   1.0000   1.0000   1.0000   1.0000
     1.0000   1.0000   1.0000   1.0000   1.0000   1.0000   1.0000   1.0000
     1.0000   1.0000   1.0000   1.0000   1.0000   1.0000   1.0000   1.0000
     1.0000   1.0000   1.0000   1.0000   1.0000   1.0000   1.0000   1.0000
     1.0000   1.0000   1.0000   1.0000   1.0000   1.0000   1.0000   1.0000
     1.0000   1.0000   1.0000   1.0000   1.0000   1.0000   1.0000   1.0000
     1.0000   1.0000   1.0000   1.0000   1.0000   1.0000   1.0000   1.0000
     1.0000   1.0000   1.0000   1.0000   1.0000   1.0000   1.0000   1.0000
     1.0000   1.0000   1.0000   1.0000   1.0000   1.0000   1.0000   1.0000
     1.0000   1.0000   1.0000   1.0000   1.0000   1.0000   1.0000   1.0000
     1.0000   1.0000   1.0000   1.0000   1.0000   1.0000   1.0000   1.0000
     1.0000   1.0000   1.0000   1.0000   1.0000   1.0000   1.0000   1.0000
     1.0000   1.0000   1.0000   1.0000   1.0000   1.0000   1.0000   1.0000
     1.0000   1.0000   1.0000   1.0000   1.0000   1.0000   1.0000   1.0000
     1.0000   1.0000   1.0000   1.0000   1.0000   1.0000   1.0000   1.0000
     1.0000   1.0000   1.0000   1.0000   1.0000   1.0000   1.0000   1.0000
     1.0000   1.0000   1.0000   1.0000   1.0000   1.0000   1.0000   1.0000
     1.0000   1.0000   1.0000   1.0000   1.0000   1.0000   1.0000   1.0000
     1.0000   1.0000   1.0000   1.0000   1.0000   1.0000   1.0000   1.0000
     1.0000   1.0000   1.0000   1.0000   1.0000   1.0000   1.0000   1.0000
     1.0000   1.0000   1.0000   1.0000   1.0000   1.0000   1.0000   1.0000
     1.0000   1.0000   1.0000   1.0000   1.0000   1.0000   1.0000   1.0000
     1.0000   1.0000   1.0000   1.0000   1.0000   1.0000   1.0000   1.0000
     1.0000   1.0000   1.0000   1.0000   1.0000   1.0000   1.0000   1.0000
     1.0000   1.0000   1.0000   1.0000   1.0000   1.0000   1.0000   1.0000
     1.0000   1.0000   1.0000   1.0000   1.0000   1.0000   1.0000   1.0000
     1.0000   1.0000   1.0000   1.0000   1.0000   1.0000   1.0000   1.0000
     1.0000   1.0000   1.0000   1.0000   1.0000   1.0000   1.0000   1.0000
     1.0000   1.0000   1.0000   1.0000   1.0000   1.0000   1.0000   1.0000
     1.0000   1.0000   1.0000   1.0000   1.0000   1.0000   1.0000   1.0000
     1.0000   1.0000   1.0000   1.0000   1.0000   1.0000   1.0000   1.0000
     1.0000   1.0000   1.0000   1.0000   1.0000   1.0000   1.0000   1.0000
     1.0000   1.0000   1.0000   1.0000   1.0000   1.0000   1.0000   1.0000
     1.0000   1.0000   1.0000   1.0000   1.0000   1.0000   1.0000   1.0000
     1.0000   1.0000   1.0000   1.0000   1.0000   1.0000   1.0000   1.0000
     1.0000   1.0000   1.0000   1.0000   1.0000   1.0000   1.0000   1.0000
     1.0000   1.0000   1.0000   1.0000   1.0000   1.0000   1.0000   1.0000
     1.0000   1.0000   1.0000   1.0000   1.0000   1.0000   1.0000   1.0000
     1.0000   1.0000   1.0000   1.0000   1.0000   1.0000   1.0000   1.0000
     1.0000   1.0000   1.0000   1.0000   1.0000   1.0000   1.0000   1.0000
     1.0000   1.0000   1.0000   1.0000   1.0000   1.0000   1.0000   1.0000
     1.0000   1.0000   1.0000   1.0000   1.0000   1.0000   1.0000   1.0000
     1.0000   1.0000   1.0000   1.0000   1.0000   1.0000   1.0000   1.0000
     1.0000   1.0000   1.0000   1.0000   1.0000   1.0000   1.0000   1.0000
     1.0000   1.0000   1.0000   1.0000   1.0000   1.0000   1.0000   1.0000
     1.0000   1.0000   1.0000   1.0000   1.0000   1.0000   1.0000   1.0000
     1.0000   1.0000   1.0000   1.0000   1.0000   1.0000   1.0000   1.0000
     1.0000   1.0000   1.0000   1.0000   1.0000   1.0000   1.0000   1.0000
     1.0000   1.0000   1.0000   1.0000   1.0000   1.0000   1.0000   1.0000
     1.0000   1.0000   1.0000   1.0000   1.0000   1.0000   1.0000   1.0000
     1.0000   1.0000   1.0000   1.0000   1.0000   1.0000   1.0000   1.0000
     1.0000   1.0000   1.0000   1.0000   1.0000   1.0000   1.0000   1.0000
     1.0000   1.0000   1.0000   1.0000   1.0000   1.0000   1.0000   1.0000
     1.0000   1.0000   1.0000   1.0000   1.0000   1.0000   1.0000   1.0000
     1.0000   1.0000   1.0000   1.0000   1.0000   1.0000   1.0000   1.0000
     1.0000   1.0000   1.0000   1.0000   1.0000   1.0000   1.0000   1.0000
     1.0000   1.0000   1.0000   1.0000   1.0000   1.0000   1.0000   1.0000
     0.0000   0.0000   0.0000   0.0000   0.0000   0.0000   0.0000   0.0000
     0.0000   0.0000   0.0000   0.0000   0.0000   0.0000   0.0000   0.0000
     0.0000   0.0000   0.0000   0.0000   0.0000   0.0000   0.0000   0.0000
     0.0000   0.0000   0.0000   0.0000   0.0000   0.0000   0.0000   0.0000
     0.0000   0.0000   0.0000   0.0000   0.0000   0.0000   0.0000   0.0000
     0.0000   0.0000   0.0000   0.0000   0.0000   0.0000   0.0000   0.0000
     0.0000   0.0000   0.0000   0.0000   0.0000   0.0000   0.0000   0.0000
     0.0000   0.0000   0.0000   0.0000   0.0000   0.0000   0.0000   0.0000
     0.0000   0.0000   0.0000   0.0000   0.0000   0.0000   0.0000   0.0000
     0.0000   0.0000   0.0000   0.0000   0.0000   0.0000   0.0000   0.0000
     0.0000   0.0000   0.0000   0.0000   0.0000   0.0000   0.0000   0.0000
     0.0000   0.0000   0.0000   0.0000   0.0000   0.0000   0.0000   0.0000
     0.0000   0.0000   0.0000   0.0000   0.0000   0.0000

          k =-0.3544 0.3546-0.3524 ( 41998 PWs)   bands (ev):

   -65.4389 -65.3939 -65.3902 -65.3775 -65.3054 -65.2774 -65.2771 -65.2611
   -65.2598 -65.2590 -65.2443 -65.2338 -65.2019 -65.1999 -65.1979 -65.1882
   -65.1505 -65.1299 -65.1293 -65.0779 -65.0770 -65.0738 -65.0516 -65.0490
   -65.0002 -64.9338 -64.9279 -64.9251 -64.9149 -64.9109 -64.9000 -64.8777
   -64.8425 -64.5703 -32.4122 -32.4085 -32.3865 -32.3694 -32.3686 -32.3588
   -32.3506 -32.3504 -32.3439 -32.3413 -32.3404 -32.3326 -32.2768 -32.2669
   -32.2573 -32.2474 -32.2466 -32.2440 -32.2381 -32.2359 -32.2341 -32.2307
   -32.2297 -32.2294 -32.2250 -32.2221 -32.2214 -32.2187 -32.2162 -32.2157
   -32.2117 -32.2108 -32.2039 -32.2009 -32.1958 -32.1884 -32.1744 -32.1708
   -32.1673 -32.1636 -32.1627 -32.1627 -32.1581 -32.1576 -32.1563 -32.1548
   -32.1523 -32.1402 -32.1235 -32.1148 -32.1053 -32.1049 -32.0974 -32.0935
   -32.0890 -32.0862 -32.0846 -32.0533 -32.0500 -32.0479 -32.0456 -32.0403
   -32.0399 -32.0330 -32.0284 -32.0262 -32.0234 -32.0195 -32.0151 -32.0125
   -32.0095 -32.0073 -31.9730 -31.9661 -31.9542 -31.9068 -31.9027 -31.9005
   -31.8970 -31.8932 -31.8881 -31.8879 -31.8849 -31.8841 -31.8838 -31.8806
   -31.8785 -31.8757 -31.8752 -31.8740 -31.8659 -31.8601 -31.8574 -31.8484
   -31.8423 -31.8309 -31.8195 -31.8065 -31.7979 -31.5409 -31.5339 -31.5297
   -28.7771 -28.7466 -28.7350 -28.7127 -28.7042 -28.6977 -28.6889 -28.6748
   -28.6524 -28.6414 -28.6224 -28.6202 -28.6156 -28.5954 -28.5732 -28.5648
   -28.5561 -28.5499 -28.5289 -28.4972 -28.4902 -28.4788 -28.4682 -28.4586
   -28.4568 -28.4276 -28.3867 -28.3583 -28.2710 -28.2582 -11.2194 -11.1950
   -11.1616 -11.1347 -11.1096 -11.0845 -11.0367 -11.0040 -10.9915 -10.9660
   -10.9293 -10.9095 -10.8881 -10.8599 -10.8411 -10.8047 -10.7870 -10.7714
   -10.7490 -10.7302 -10.6995 -10.6900 -10.6853 -10.6704 -10.6402 -10.6279
   -10.6065 -10.5947 -10.5703 -10.5560 -10.5264 -10.5181 -10.4752 -10.4491
   -10.4300 -10.4253 -10.4150 -10.3769 -10.3677 -10.3283 -10.3088 -10.2528
   -10.2202 -10.2037 -10.1928 -10.1876 -10.1626 -10.1365 -10.1106 -10.0972
   -10.0804 -10.0590 -10.0478 -10.0249 -10.0201 -10.0063  -9.9862  -9.9655
    -9.9529  -9.9442  -9.9259  -9.9062  -9.8875  -9.8829  -9.8714  -9.8630
    -9.8520  -9.8270  -9.8246  -9.8157  -9.7896  -9.7819  -9.7692  -9.7487
    -9.7419  -9.7366  -9.7257  -9.7077  -9.6908  -9.6765  -9.6673  -9.6648
    -9.6276  -9.6249  -9.6096  -9.5819  -9.5740  -9.5670  -9.5403  -9.5275
    -8.1528  -8.1076  -7.8847  -7.8371  -7.8009  -7.7817  -7.7556  -7.7196
    -7.6980  -7.6858  -7.6435  -7.6147  -7.5917  -7.5824  -7.5660  -7.5473
    -7.5331  -7.4865  -7.4448  -7.4073  -7.3928  -7.3654  -7.3294  -7.3004
    -7.2729  -7.2672  -7.2482  -7.2275  -7.2176  -7.1835  -7.1441  -7.1198
    -7.1009  -7.0671  -7.0315  -7.0072  -6.9966  -6.9876  -6.9553  -6.9351
    -6.9180  -6.8982  -6.8874  -6.8785  -6.8351  -6.8178  -6.8032  -6.7802
    -6.7664  -6.7461  -6.7238  -6.7049  -6.6995  -6.6682  -6.6161  -6.6116
    -6.5840  -6.5544  -6.4980  -6.4698  -6.4320  -6.3521  -6.2920  -6.2445
     3.7839   3.9515   3.9985   4.0142   4.0618   4.1943   4.2326   4.2738
     4.3689   4.3947   4.4178   4.4520   4.4954   4.5018   4.5415   4.5732
     4.5981   4.6278   4.6527   4.6907   4.7219   4.7676   4.7818   4.8220
     4.8544   4.8714   4.8998   4.9182   4.9667   4.9940   5.0463   5.0581
     5.0880   5.1048   5.1293   5.1438   5.1873   5.2101   5.2404   5.2601
     5.3089   5.3447   5.3498   5.3536   5.3734   5.4045   5.4173   5.4517
     5.4873   5.4920   5.5068   5.5425   5.5511   5.6003   5.6373   5.6598
     5.6682   5.7047   5.7080   5.7390   5.7575   5.7793   5.8185   5.8320
     5.8673   5.8704   5.8868   5.8880   5.9147   5.9397   5.9556   5.9668
     5.9897   5.9990   6.0332   6.0692   6.0764   6.0849   6.1253   6.1548
     6.1708   6.1918   6.2089   6.2261   6.2387   6.2539   6.2662   6.2825
     6.3066   6.3121   6.3194   6.3402   6.3447   6.3606   6.3770   6.3921
     6.3971   6.4296   6.4369   6.4476   6.4571   6.4648   6.4934   6.4956
     6.5092   6.5212   6.5241   6.5365   6.5433   6.5517   6.5684   6.5822
     6.5903   6.6044   6.6122   6.6364   6.6451   6.6638   6.6655   6.6757
     6.6842   6.6920   6.7019   6.7194   6.7225   6.7338   6.7480   6.7569
     6.7652   6.7798   6.7812   6.7901   6.8056   6.8279   6.8428   6.8519
     6.8659   6.8750   6.8838   6.8859   6.8942   6.9089   6.9133   6.9205
     6.9270   6.9428   6.9598   6.9696   6.9757   6.9891   7.0007   7.0102
     7.0219   7.0321   7.0407   7.0562   7.0754   7.0887   7.0909   7.1031
     7.1113   7.1232   7.1315   7.1384   7.1427   7.1748   7.1809   7.1872
     7.1903   7.2256   7.2316   7.2598   7.2739   7.2820   7.2903   7.3109
     7.3146   7.3269   7.3625   7.3789   7.3965   7.4128   7.4320   7.4527
     7.4791   7.4842   7.4986   7.5140   7.5595   7.6463   7.6851   7.7025
    12.3534  12.5164  13.0913  13.1613  13.1751  13.2127  13.2348  13.2923
    13.4462  13.4671  13.5369  13.6058  13.6576  13.6958  13.7298  13.8187
    13.8406  13.8887  13.9303  13.9975  14.1490  14.1978  14.2233  14.2474
    14.2939  14.3219  14.3672  14.3786  14.4255  14.4387  14.4694  14.5159
    14.5431  14.5659  14.5792  14.6075  14.6506  14.6762  14.6991  14.7176
    14.7744  14.7961  14.8086  14.8474  14.8544  14.8765  14.9125  14.9697
    14.9996  15.0197  15.0593  15.0749  15.1049  15.1197  15.1399  15.1572
    15.2301  15.2917  15.3101  15.3503  15.3692  15.3867  15.4152  15.4368
    15.4759  15.4804  15.5250  15.5648  15.5681  15.6077  15.6138  15.6487
    15.6743  15.6938  15.7154  15.7690  15.7737  15.8038  15.8388  15.8698
    15.9080  15.9136  15.9182  15.9709  16.0004  16.0098  16.0523  16.0668
    16.0925  16.1373  16.1803  16.1945  16.2192  16.2456  16.2906  16.3010
    16.3099  16.3523  16.3967  16.4040  16.4304  16.4710

     occupation numbers 
     1.0000   1.0000   1.0000   1.0000   1.0000   1.0000   1.0000   1.0000
     1.0000   1.0000   1.0000   1.0000   1.0000   1.0000   1.0000   1.0000
     1.0000   1.0000   1.0000   1.0000   1.0000   1.0000   1.0000   1.0000
     1.0000   1.0000   1.0000   1.0000   1.0000   1.0000   1.0000   1.0000
     1.0000   1.0000   1.0000   1.0000   1.0000   1.0000   1.0000   1.0000
     1.0000   1.0000   1.0000   1.0000   1.0000   1.0000   1.0000   1.0000
     1.0000   1.0000   1.0000   1.0000   1.0000   1.0000   1.0000   1.0000
     1.0000   1.0000   1.0000   1.0000   1.0000   1.0000   1.0000   1.0000
     1.0000   1.0000   1.0000   1.0000   1.0000   1.0000   1.0000   1.0000
     1.0000   1.0000   1.0000   1.0000   1.0000   1.0000   1.0000   1.0000
     1.0000   1.0000   1.0000   1.0000   1.0000   1.0000   1.0000   1.0000
     1.0000   1.0000   1.0000   1.0000   1.0000   1.0000   1.0000   1.0000
     1.0000   1.0000   1.0000   1.0000   1.0000   1.0000   1.0000   1.0000
     1.0000   1.0000   1.0000   1.0000   1.0000   1.0000   1.0000   1.0000
     1.0000   1.0000   1.0000   1.0000   1.0000   1.0000   1.0000   1.0000
     1.0000   1.0000   1.0000   1.0000   1.0000   1.0000   1.0000   1.0000
     1.0000   1.0000   1.0000   1.0000   1.0000   1.0000   1.0000   1.0000
     1.0000   1.0000   1.0000   1.0000   1.0000   1.0000   1.0000   1.0000
     1.0000   1.0000   1.0000   1.0000   1.0000   1.0000   1.0000   1.0000
     1.0000   1.0000   1.0000   1.0000   1.0000   1.0000   1.0000   1.0000
     1.0000   1.0000   1.0000   1.0000   1.0000   1.0000   1.0000   1.0000
     1.0000   1.0000   1.0000   1.0000   1.0000   1.0000   1.0000   1.0000
     1.0000   1.0000   1.0000   1.0000   1.0000   1.0000   1.0000   1.0000
     1.0000   1.0000   1.0000   1.0000   1.0000   1.0000   1.0000   1.0000
     1.0000   1.0000   1.0000   1.0000   1.0000   1.0000   1.0000   1.0000
     1.0000   1.0000   1.0000   1.0000   1.0000   1.0000   1.0000   1.0000
     1.0000   1.0000   1.0000   1.0000   1.0000   1.0000   1.0000   1.0000
     1.0000   1.0000   1.0000   1.0000   1.0000   1.0000   1.0000   1.0000
     1.0000   1.0000   1.0000   1.0000   1.0000   1.0000   1.0000   1.0000
     1.0000   1.0000   1.0000   1.0000   1.0000   1.0000   1.0000   1.0000
     1.0000   1.0000   1.0000   1.0000   1.0000   1.0000   1.0000   1.0000
     1.0000   1.0000   1.0000   1.0000   1.0000   1.0000   1.0000   1.0000
     1.0000   1.0000   1.0000   1.0000   1.0000   1.0000   1.0000   1.0000
     1.0000   1.0000   1.0000   1.0000   1.0000   1.0000   1.0000   1.0000
     1.0000   1.0000   1.0000   1.0000   1.0000   1.0000   1.0000   1.0000
     1.0000   1.0000   1.0000   1.0000   1.0000   1.0000   1.0000   1.0000
     1.0000   1.0000   1.0000   1.0000   1.0000   1.0000   1.0000   1.0000
     1.0000   1.0000   1.0000   1.0000   1.0000   1.0000   1.0000   1.0000
     1.0000   1.0000   1.0000   1.0000   1.0000   1.0000   1.0000   1.0000
     1.0000   1.0000   1.0000   1.0000   1.0000   1.0000   1.0000   1.0000
     1.0000   1.0000   1.0000   1.0000   1.0000   1.0000   1.0000   1.0000
     1.0000   1.0000   1.0000   1.0000   1.0000   1.0000   1.0000   1.0000
     1.0000   1.0000   1.0000   1.0000   1.0000   1.0000   1.0000   1.0000
     1.0000   1.0000   1.0000   1.0000   1.0000   1.0000   1.0000   1.0000
     1.0000   1.0000   1.0000   1.0000   1.0000   1.0000   1.0000   1.0000
     1.0000   1.0000   1.0000   1.0000   1.0000   1.0000   1.0000   1.0000
     1.0000   1.0000   1.0000   1.0000   1.0000   1.0000   1.0000   1.0000
     1.0000   1.0000   1.0000   1.0000   1.0000   1.0000   1.0000   1.0000
     1.0000   1.0000   1.0000   1.0000   1.0000   1.0000   1.0000   1.0000
     1.0000   1.0000   1.0000   1.0000   1.0000   1.0000   1.0000   1.0000
     1.0000   1.0000   1.0000   1.0000   1.0000   1.0000   1.0000   1.0000
     1.0000   1.0000   1.0000   1.0000   1.0000   1.0000   1.0000   1.0000
     1.0000   1.0000   1.0000   1.0000   1.0000   1.0000   1.0000   1.0000
     1.0000   1.0000   1.0000   1.0000   1.0000   1.0000   1.0000   1.0000
     1.0000   1.0000   1.0000   1.0000   1.0000   1.0000   1.0000   1.0000
     1.0000   1.0000   1.0000   1.0000   1.0000   1.0000   1.0000   1.0000
     1.0000   1.0000   1.0000   1.0000   1.0000   1.0000   1.0000   1.0000
     1.0000   1.0000   1.0000   1.0000   1.0000   1.0000   1.0000   1.0000
     1.0000   1.0000   1.0000   1.0000   1.0000   1.0000   1.0000   1.0000
     1.0000   1.0000   1.0000   1.0000   1.0000   1.0000   1.0000   1.0000
     1.0000   1.0000   1.0000   1.0000   1.0000   1.0000   1.0000   1.0000
     1.0000   1.0000   1.0000   1.0000   1.0000   1.0000   1.0000   1.0000
     1.0000   1.0000   1.0000   1.0000   1.0000   1.0000   1.0000   1.0000
     1.0000   1.0000   1.0000   1.0000   1.0000   1.0000   1.0000   1.0000
     0.0000   0.0000   0.0000   0.0000   0.0000   0.0000   0.0000   0.0000
     0.0000   0.0000   0.0000   0.0000   0.0000   0.0000   0.0000   0.0000
     0.0000   0.0000   0.0000   0.0000   0.0000   0.0000   0.0000   0.0000
     0.0000   0.0000   0.0000   0.0000   0.0000   0.0000   0.0000   0.0000
     0.0000   0.0000   0.0000   0.0000   0.0000   0.0000   0.0000   0.0000
     0.0000   0.0000   0.0000   0.0000   0.0000   0.0000   0.0000   0.0000
     0.0000   0.0000   0.0000   0.0000   0.0000   0.0000   0.0000   0.0000
     0.0000   0.0000   0.0000   0.0000   0.0000   0.0000   0.0000   0.0000
     0.0000   0.0000   0.0000   0.0000   0.0000   0.0000   0.0000   0.0000
     0.0000   0.0000   0.0000   0.0000   0.0000   0.0000   0.0000   0.0000
     0.0000   0.0000   0.0000   0.0000   0.0000   0.0000   0.0000   0.0000
     0.0000   0.0000   0.0000   0.0000   0.0000   0.0000   0.0000   0.0000
     0.0000   0.0000   0.0000   0.0000   0.0000   0.0000

          k =-0.7017-0.0000-0.0009 ( 41988 PWs)   bands (ev):

   -65.4389 -65.3939 -65.3902 -65.3775 -65.3054 -65.2774 -65.2771 -65.2611
   -65.2598 -65.2590 -65.2443 -65.2338 -65.2019 -65.1999 -65.1979 -65.1882
   -65.1505 -65.1299 -65.1293 -65.0779 -65.0770 -65.0738 -65.0516 -65.0490
   -65.0002 -64.9338 -64.9279 -64.9251 -64.9149 -64.9109 -64.9000 -64.8777
   -64.8425 -64.5703 -32.4122 -32.4085 -32.3865 -32.3694 -32.3686 -32.3588
   -32.3506 -32.3504 -32.3439 -32.3413 -32.3404 -32.3326 -32.2768 -32.2669
   -32.2573 -32.2474 -32.2466 -32.2440 -32.2381 -32.2359 -32.2341 -32.2307
   -32.2297 -32.2294 -32.2250 -32.2221 -32.2214 -32.2187 -32.2162 -32.2156
   -32.2117 -32.2108 -32.2039 -32.2009 -32.1958 -32.1884 -32.1744 -32.1708
   -32.1673 -32.1635 -32.1627 -32.1627 -32.1580 -32.1576 -32.1563 -32.1549
   -32.1523 -32.1402 -32.1235 -32.1148 -32.1053 -32.1049 -32.0974 -32.0935
   -32.0890 -32.0862 -32.0846 -32.0533 -32.0500 -32.0479 -32.0456 -32.0403
   -32.0399 -32.0330 -32.0284 -32.0262 -32.0234 -32.0195 -32.0151 -32.0125
   -32.0095 -32.0073 -31.9730 -31.9661 -31.9542 -31.9068 -31.9027 -31.9005
   -31.8970 -31.8932 -31.8881 -31.8879 -31.8849 -31.8841 -31.8838 -31.8806
   -31.8785 -31.8757 -31.8752 -31.8740 -31.8659 -31.8601 -31.8574 -31.8484
   -31.8423 -31.8309 -31.8195 -31.8065 -31.7979 -31.5409 -31.5339 -31.5297
   -28.7770 -28.7456 -28.7358 -28.7137 -28.7049 -28.6976 -28.6879 -28.6742
   -28.6526 -28.6415 -28.6229 -28.6187 -28.6167 -28.5956 -28.5733 -28.5643
   -28.5561 -28.5497 -28.5291 -28.4973 -28.4900 -28.4790 -28.4682 -28.4585
   -28.4570 -28.4274 -28.3867 -28.3583 -28.2710 -28.2582 -11.2126 -11.1884
   -11.1479 -11.1178 -11.1037 -11.0643 -11.0271 -11.0003 -10.9920 -10.9769
   -10.9499 -10.9462 -10.9096 -10.9045 -10.8355 -10.8054 -10.7797 -10.7711
   -10.7604 -10.7530 -10.7246 -10.7141 -10.6883 -10.6724 -10.6488 -10.6413
   -10.6230 -10.5940 -10.5648 -10.5357 -10.5249 -10.4979 -10.4826 -10.4344
   -10.4100 -10.3968 -10.3794 -10.3496 -10.3187 -10.2892 -10.2659 -10.2501
   -10.2322 -10.2100 -10.1936 -10.1749 -10.1587 -10.1319 -10.1123 -10.0919
   -10.0786 -10.0547 -10.0512 -10.0360 -10.0275 -10.0169 -10.0160  -9.9729
    -9.9585  -9.9245  -9.9180  -9.9091  -9.9004  -9.8969  -9.8832  -9.8633
    -9.8500  -9.8411  -9.8290  -9.8159  -9.7996  -9.7824  -9.7642  -9.7592
    -9.7457  -9.7350  -9.7208  -9.7053  -9.6910  -9.6810  -9.6726  -9.6621
    -9.6493  -9.6329  -9.6129  -9.5949  -9.5874  -9.5724  -9.5361  -9.5258
    -8.0840  -8.0464  -7.9110  -7.8632  -7.8399  -7.8046  -7.7455  -7.7256
    -7.6827  -7.6462  -7.6225  -7.5897  -7.5616  -7.5462  -7.5183  -7.5060
    -7.4924  -7.4757  -7.4503  -7.4319  -7.4218  -7.4035  -7.3938  -7.3537
    -7.3469  -7.2693  -7.2602  -7.2443  -7.2331  -7.2065  -7.1563  -7.1403
    -7.1079  -7.0754  -7.0625  -7.0312  -7.0114  -7.0018  -6.9957  -6.9555
    -6.9328  -6.8968  -6.8673  -6.8380  -6.8232  -6.8112  -6.7988  -6.7950
    -6.7411  -6.7272  -6.6825  -6.6719  -6.6058  -6.5998  -6.5912  -6.5757
    -6.5676  -6.5413  -6.5099  -6.4990  -6.4646  -6.3610  -6.3163  -6.3040
     3.8208   4.0153   4.0195   4.0429   4.0577   4.1317   4.1961   4.2231
     4.3708   4.4173   4.4310   4.4450   4.5199   4.5397   4.5595   4.5751
     4.5984   4.6212   4.6798   4.6905   4.7141   4.7451   4.8046   4.8158
     4.8434   4.8575   4.8684   4.8996   4.9283   4.9535   4.9902   5.0216
     5.0842   5.0949   5.1347   5.1642   5.1892   5.2102   5.2371   5.2564
     5.2704   5.3007   5.3232   5.3406   5.3530   5.3563   5.3781   5.4068
     5.4363   5.4827   5.5216   5.5332   5.5487   5.5539   5.6003   5.6143
[...]
     atom   76 type  3   force =   0.00000000E+00  0.00000000E+00  0.00000000E+00
     atom   77 type  1   force =   0.00000000E+00  0.00000000E+00  0.00000000E+00
     atom   78 type  3   force =   0.00000000E+00  0.00000000E+00  0.00000000E+00
     atom   79 type  2   force =   0.00000000E+00  0.00000000E+00  0.00000000E+00
     atom   80 type  3   force =   0.00000000E+00  0.00000000E+00  0.00000000E+00
     atom   81 type  2   force =   0.00000000E+00  0.00000000E+00  0.00000000E+00
     atom   82 type  3   force =   0.00000000E+00  0.00000000E+00  0.00000000E+00
     atom   83 type  1   force =   0.00000000E+00  0.00000000E+00  0.00000000E+00
     atom   84 type  3   force =   0.00000000E+00  0.00000000E+00  0.00000000E+00
     atom   85 type  1   force =   0.00000000E+00  0.00000000E+00  0.00000000E+00
     atom   86 type  3   force =   0.00000000E+00  0.00000000E+00  0.00000000E+00
     atom   87 type  1   force =   0.00000000E+00  0.00000000E+00  0.00000000E+00
     atom   88 type  3   force =   0.00000000E+00  0.00000000E+00  0.00000000E+00
     atom   89 type  1   force =   0.00000000E+00  0.00000000E+00  0.00000000E+00
     atom   90 type  3   force =   0.00000000E+00  0.00000000E+00  0.00000000E+00
     atom   91 type  2   force =   0.00000000E+00  0.00000000E+00  0.00000000E+00
     atom   92 type  3   force =   0.00000000E+00  0.00000000E+00  0.00000000E+00
     atom   93 type  2   force =   0.00000000E+00  0.00000000E+00  0.00000000E+00
     atom   94 type  3   force =   0.00000000E+00  0.00000000E+00  0.00000000E+00
     atom   95 type  1   force =   0.00000000E+00  0.00000000E+00  0.00000000E+00
     atom   96 type  3   force =   0.00000000E+00  0.00000000E+00  0.00000000E+00
     atom   97 type  1   force =   0.00000000E+00  0.00000000E+00  0.00000000E+00
     atom   98 type  3   force =   0.00000000E+00  0.00000000E+00  0.00000000E+00
     atom   99 type  2   force =   0.00000000E+00  0.00000000E+00  0.00000000E+00
     atom  100 type  3   force =   0.00000000E+00  0.00000000E+00  0.00000000E+00
     atom  101 type  2   force =   0.00000000E+00  0.00000000E+00  0.00000000E+00
     atom  102 type  3   force =   0.00000000E+00  0.00000000E+00  0.00000000E+00
     atom  103 type  2   force =   0.00000000E+00  0.00000000E+00  0.00000000E+00
     atom  104 type  3   force =   0.00000000E+00  0.00000000E+00  0.00000000E+00
     atom  105 type  2   force =   0.00000000E+00  0.00000000E+00  0.00000000E+00
     atom  106 type  3   force =   0.00000000E+00  0.00000000E+00  0.00000000E+00
     atom  107 type  1   force =   0.00000000E+00  0.00000000E+00  0.00000000E+00
     atom  108 type  3   force =   0.00000000E+00  0.00000000E+00  0.00000000E+00
     atom  109 type  2   force =   0.00000000E+00  0.00000000E+00  0.00000000E+00
     atom  110 type  3   force =   0.00000000E+00  0.00000000E+00  0.00000000E+00
     atom  111 type  1   force =   0.00000000E+00  0.00000000E+00  0.00000000E+00
     atom  112 type  3   force =   0.00000000E+00  0.00000000E+00  0.00000000E+00
     atom  113 type  1   force =   0.00000000E+00  0.00000000E+00  0.00000000E+00
     atom  114 type  3   force =   0.00000000E+00  0.00000000E+00  0.00000000E+00
     atom  115 type  2   force =   0.00000000E+00  0.00000000E+00  0.00000000E+00
     atom  116 type  3   force =   0.00000000E+00  0.00000000E+00  0.00000000E+00
     atom  117 type  2   force =   0.00000000E+00  0.00000000E+00  0.00000000E+00
     atom  118 type  3   force =   0.00000000E+00  0.00000000E+00  0.00000000E+00
     atom  119 type  2   force =   0.00000000E+00  0.00000000E+00  0.00000000E+00
     atom  120 type  3   force =   0.00000000E+00  0.00000000E+00  0.00000000E+00
     atom  121 type  2   force =   0.00000000E+00  0.00000000E+00  0.00000000E+00
     atom  122 type  3   force =   0.00000000E+00  0.00000000E+00  0.00000000E+00
     atom  123 type  1   force =   0.00000000E+00  0.00000000E+00  0.00000000E+00
     atom  124 type  3   force =   0.00000000E+00  0.00000000E+00  0.00000000E+00
     atom  125 type  1   force =   0.00000000E+00  0.00000000E+00  0.00000000E+00
     atom  126 type  3   force =   0.00000000E+00  0.00000000E+00  0.00000000E+00
     atom  127 type  1   force =   0.00000000E+00  0.00000000E+00  0.00000000E+00
     atom  128 type  3   force =   0.00000000E+00  0.00000000E+00  0.00000000E+00
     The SCF correction term to forces
     atom    1 type  2   force =   0.37629775E-05  0.17543433E-05  0.81343448E-05
     atom    2 type  3   force =  -0.30859949E-05 -0.14454370E-05 -0.36766478E-06
     atom    3 type  1   force =  -0.44835002E-06 -0.12112184E-05  0.24747574E-05
     atom    4 type  3   force =  -0.24432311E-05  0.89321360E-06 -0.99101105E-06
     atom    5 type  2   force =  -0.20765780E-05 -0.89510958E-06 -0.25922502E-05
     atom    6 type  3   force =   0.25290912E-05  0.23012533E-05  0.26608661E-05
     atom    7 type  1   force =   0.61541301E-06 -0.95778048E-06  0.39452651E-05
     atom    8 type  3   force =   0.10753367E-05 -0.12099365E-06  0.21782048E-05
     atom    9 type  2   force =  -0.25764453E-05 -0.14089224E-05  0.90476184E-06
     atom   10 type  3   force =  -0.67885094E-06 -0.93549407E-06  0.68125579E-06
     atom   11 type  2   force =  -0.38939678E-05 -0.45909384E-05 -0.22700383E-05
     atom   12 type  3   force =  -0.61804780E-06  0.25823148E-05  0.32953711E-05
     atom   13 type  1   force =  -0.16785927E-06  0.40799100E-05 -0.20317924E-05
     atom   14 type  3   force =  -0.45982116E-06  0.37210431E-05 -0.27916141E-06
     atom   15 type  2   force =   0.24995509E-05  0.72390693E-05  0.79354172E-06
     atom   16 type  3   force =  -0.23585061E-05 -0.10349076E-05 -0.24832812E-05
     atom   17 type  1   force =  -0.61890348E-05 -0.27850366E-06 -0.19560172E-05
     atom   18 type  3   force =   0.11568931E-06  0.24316591E-05  0.10639842E-05
     atom   19 type  1   force =  -0.12762687E-05  0.34850172E-06  0.35734567E-05
     atom   20 type  3   force =   0.53371395E-06 -0.11705798E-06  0.93168263E-07
     atom   21 type  2   force =   0.11543025E-05  0.36738271E-05  0.46050479E-05
     atom   22 type  3   force =  -0.14696974E-05 -0.29721812E-06 -0.42519301E-06
     atom   23 type  1   force =  -0.26746518E-05  0.48687115E-05 -0.25253746E-05
     atom   24 type  3   force =  -0.21027308E-05  0.19377296E-05 -0.76955639E-06
     atom   25 type  2   force =  -0.91114789E-06  0.73757332E-05  0.93349568E-07
     atom   26 type  3   force =   0.25070782E-06  0.46405604E-06  0.19408915E-05
     atom   27 type  1   force =   0.52699786E-06  0.17488625E-05  0.26139314E-05
     atom   28 type  3   force =   0.13461671E-06 -0.41888742E-07  0.60380897E-06
     atom   29 type  1   force =   0.92622104E-06  0.34341722E-06  0.15593129E-05
     atom   30 type  3   force =  -0.24285482E-05 -0.22113853E-05  0.30404603E-06
     atom   31 type  2   force =  -0.70482979E-05 -0.31330906E-05  0.33986730E-06
     atom   32 type  3   force =   0.96544245E-06  0.25417925E-05  0.35729570E-05
     atom   33 type  1   force =  -0.15601730E-06 -0.38091017E-05  0.22026831E-05
     atom   34 type  3   force =  -0.16338202E-05 -0.60331952E-06 -0.18542078E-05
     atom   35 type  1   force =  -0.25681391E-05 -0.11599474E-05 -0.26468054E-05
     atom   36 type  3   force =   0.26517631E-05 -0.68381523E-07  0.19679696E-05
     atom   37 type  2   force =   0.84808099E-06 -0.76732793E-06  0.12318367E-05
     atom   38 type  3   force =   0.29225290E-05 -0.96443109E-06  0.23749385E-06
     atom   39 type  2   force =   0.56482557E-05  0.11142630E-05  0.42442924E-05
     atom   40 type  3   force =  -0.87828111E-06 -0.12931665E-05 -0.20985925E-05
     atom   41 type  2   force =  -0.44950274E-05 -0.46687924E-05 -0.47348863E-05
     atom   42 type  3   force =   0.21491671E-05  0.18314086E-05  0.16588637E-05
     atom   43 type  1   force =   0.69715251E-06  0.18887241E-05  0.20137120E-05
     atom   44 type  3   force =  -0.13635481E-05  0.14959498E-05 -0.57181789E-06
     atom   45 type  1   force =   0.24047240E-05  0.59780166E-05  0.17791859E-06
     atom   46 type  3   force =  -0.15930928E-05 -0.11626632E-05 -0.25805622E-05
     atom   47 type  2   force =  -0.12650446E-05 -0.94327174E-06 -0.20006667E-05
     atom   48 type  3   force =  -0.27579000E-06 -0.11002280E-05 -0.10443251E-05
     atom   49 type  1   force =   0.81224488E-06  0.18390328E-06  0.18909346E-05
     atom   50 type  3   force =  -0.14624993E-05 -0.99530167E-06 -0.10935420E-05
     atom   51 type  2   force =  -0.34101288E-05  0.39633734E-06 -0.43380721E-06
     atom   52 type  3   force =   0.41253016E-06  0.19901101E-06 -0.16196972E-05
     atom   53 type  1   force =   0.94013292E-06  0.29993083E-05 -0.23342605E-05
     atom   54 type  3   force =  -0.44049289E-06 -0.16272174E-05 -0.76299607E-06
     atom   55 type  2   force =  -0.24922583E-05 -0.15269753E-05 -0.33862981E-05
     atom   56 type  3   force =   0.19228909E-05  0.16537952E-05 -0.22333620E-06
     atom   57 type  2   force =   0.60053307E-06  0.21685125E-05  0.20381964E-05
     atom   58 type  3   force =   0.16764765E-05 -0.28797827E-05  0.44191196E-06
     atom   59 type  2   force =   0.24719459E-05 -0.45741259E-05  0.21765529E-05
     atom   60 type  3   force =  -0.35158484E-06 -0.19248069E-05 -0.13011900E-05
     atom   61 type  2   force =  -0.96986336E-06 -0.21453042E-05 -0.13604335E-05
     atom   62 type  3   force =   0.16430590E-05  0.85528066E-06  0.14129902E-06
     atom   63 type  2   force =   0.57646776E-07  0.32245251E-05  0.14551490E-05
     atom   64 type  3   force =   0.19857224E-05 -0.61335741E-06  0.57684411E-06
     atom   65 type  1   force =  -0.15393447E-07 -0.68605805E-05 -0.18637220E-05
     atom   66 type  3   force =   0.33497595E-05 -0.26158886E-06  0.27138731E-05
     atom   67 type  1   force =   0.11687062E-05 -0.75542480E-06 -0.23302021E-05
     atom   68 type  3   force =   0.20836112E-05 -0.11336021E-05  0.17226655E-05
     atom   69 type  2   force =   0.43486909E-05  0.49499251E-06  0.33630896E-05
     atom   70 type  3   force =   0.21273580E-06 -0.13912808E-05  0.46503185E-06
     atom   71 type  2   force =   0.32488355E-05 -0.32225812E-05 -0.35948280E-05
     atom   72 type  3   force =  -0.78817243E-06 -0.22008717E-05 -0.93323674E-06
     atom   73 type  2   force =   0.36140592E-06  0.70026068E-06  0.19722539E-05
     atom   74 type  3   force =  -0.80558412E-06  0.92990971E-06 -0.59215451E-06
     atom   75 type  1   force =   0.23223551E-05  0.17906899E-05  0.33546105E-05
     atom   76 type  3   force =  -0.19529689E-05 -0.88105043E-06 -0.27643834E-05
     atom   77 type  1   force =   0.11617720E-06  0.76751206E-06 -0.25807764E-05
     atom   78 type  3   force =  -0.19821765E-05 -0.54296978E-06 -0.29190437E-05
     atom   79 type  2   force =  -0.36989828E-05 -0.13320170E-05 -0.37745179E-05
     atom   80 type  3   force =   0.21394546E-05  0.30689381E-05 -0.17252669E-06
     atom   81 type  2   force =   0.10027065E-05  0.17358356E-05 -0.54367876E-06
     atom   82 type  3   force =  -0.19723497E-05  0.67292022E-07 -0.25963247E-05
     atom   83 type  1   force =  -0.32449284E-05  0.12453867E-05 -0.34267840E-05
     atom   84 type  3   force =   0.74368216E-06 -0.11478054E-05 -0.12694740E-05
     atom   85 type  1   force =  -0.50015093E-06 -0.16491402E-05 -0.43498741E-05
     atom   86 type  3   force =   0.21551173E-05 -0.23608870E-06  0.11858814E-05
     atom   87 type  1   force =   0.22619049E-05 -0.35315494E-06 -0.23765830E-05
     atom   88 type  3   force =  -0.18586220E-07  0.90651562E-06 -0.10851945E-05
     atom   89 type  1   force =   0.43632874E-06 -0.52069525E-05 -0.13263530E-05
     atom   90 type  3   force =   0.16547550E-05 -0.22333851E-05 -0.15167259E-05
     atom   91 type  2   force =   0.28580598E-05 -0.30946544E-05 -0.13525420E-05
     atom   92 type  3   force =   0.10789482E-05  0.15188375E-05  0.59823474E-06
     atom   93 type  2   force =   0.19665436E-05 -0.23450622E-06 -0.12146714E-05
     atom   94 type  3   force =   0.61492396E-06  0.24738655E-06  0.69245656E-06
     atom   95 type  1   force =   0.44696664E-05 -0.10878963E-05 -0.31559924E-06
     atom   96 type  3   force =   0.12043098E-05 -0.36248974E-05 -0.93539285E-06
     atom   97 type  1   force =   0.23102160E-05 -0.26592362E-05  0.31455448E-05
     atom   98 type  3   force =   0.11751699E-05 -0.10842564E-05  0.30246754E-05
     atom   99 type  2   force =   0.36925406E-05  0.25892754E-05  0.30559222E-05
     atom  100 type  3   force =  -0.43480345E-06 -0.85779449E-06 -0.16377672E-05
     atom  101 type  2   force =   0.24164379E-06 -0.15657821E-05  0.99999676E-06
     atom  102 type  3   force =  -0.50541914E-06 -0.14876094E-05 -0.16504844E-05
     atom  103 type  2   force =   0.81634610E-06 -0.48812071E-05  0.35895192E-05
     atom  104 type  3   force =   0.25491275E-05  0.33855446E-06  0.38552989E-05
     atom  105 type  2   force =   0.30991411E-05  0.31437282E-05  0.37486185E-05
     atom  106 type  3   force =  -0.31971573E-05 -0.20278518E-05 -0.15890853E-05
     atom  107 type  1   force =  -0.15288850E-05 -0.17298263E-05 -0.58718936E-06
     atom  108 type  3   force =  -0.16760375E-05 -0.13048749E-05 -0.10149283E-05
     atom  109 type  2   force =  -0.17060398E-05 -0.10396664E-05 -0.69219664E-05
     atom  110 type  3   force =   0.51108813E-06  0.41057381E-05 -0.71401008E-06
     atom  111 type  1   force =  -0.78565573E-06  0.23270836E-05 -0.13609137E-05
     atom  112 type  3   force =  -0.15943676E-06  0.31707767E-05 -0.65811091E-06
     atom  113 type  1   force =  -0.52919561E-05  0.24444932E-05 -0.33079990E-05
     atom  114 type  3   force =  -0.14345694E-05  0.19943421E-05 -0.45732812E-06
     atom  115 type  2   force =  -0.55288075E-05 -0.15308061E-05 -0.35536875E-05
     atom  116 type  3   force =   0.11523505E-05  0.40474596E-06  0.33385850E-05
     atom  117 type  2   force =   0.54478114E-06 -0.14199675E-05 -0.25748033E-06
     atom  118 type  3   force =   0.58531237E-06  0.58033959E-06  0.16519541E-05
     atom  119 type  2   force =   0.36485090E-05  0.58405316E-05 -0.59010823E-06
     atom  120 type  3   force =  -0.36715785E-05  0.29611972E-06 -0.23347958E-05
     atom  121 type  2   force =  -0.13307065E-05 -0.16817842E-05 -0.27352417E-05
     atom  122 type  3   force =   0.15082594E-05  0.31550740E-05  0.85910822E-06
     atom  123 type  1   force =   0.20464536E-05  0.20142991E-05 -0.17826365E-06
     atom  124 type  3   force =   0.15752905E-06  0.85653587E-06 -0.17465282E-06
     atom  125 type  1   force =   0.24797676E-05 -0.11991820E-06  0.31643442E-05
     atom  126 type  3   force =  -0.13462030E-05 -0.14623846E-05  0.13938858E-05
     atom  127 type  1   force =  -0.77573479E-06 -0.19575504E-05  0.92856309E-06
     atom  128 type  3   force =  -0.79848464E-07 -0.24445788E-05  0.74781023E-06

     Total force =     0.577511     Total SCF correction =     0.000045


     entering subroutine stress ...

          total   stress  (Ry/bohr**3)                   (kbar)     P=   31.17
   0.0001201095  -0.0000243500   0.0000418387         17.67     -3.58      6.15
  -0.0000243500   0.0003059442   0.0000119514         -3.58     45.01      1.76
   0.0000418387   0.0000119514   0.0002095677          6.15      1.76     30.83

     kinetic stress (kbar)  21222.69     -1.84      6.00
                               -1.84  21257.94      1.39
                                6.00      1.39  21239.40

     local   stress (kbar)  -2616.59    -39.14     76.66
                              -39.14  -3892.39     36.91
                               76.66     36.91  -3179.70

     nonloc. stress (kbar)   5383.65      0.16     -0.16
                                0.16   5385.24     -0.21
                               -0.16     -0.21   5384.13

     hartree stress (kbar)  11260.32     13.44    -32.75
                               13.44  11713.78    -16.86
                              -32.75    -16.86  11458.40

     exc-cor stress (kbar)  -5509.27      0.06     -0.11
                                0.06  -5508.17     -0.02
                               -0.11     -0.02  -5508.75

     corecor stress (kbar)  -1021.33      0.00     -0.02
                                0.00  -1021.47     -0.00
                               -0.02     -0.00  -1021.39

     ewald   stress (kbar) -28701.80     23.72    -43.47
                               23.72 -27889.92    -19.45
                              -43.47    -19.45 -28341.25

     hubbard stress (kbar)      0.00      0.00      0.00
                                0.00      0.00      0.00
                                0.00      0.00      0.00

     london  stress (kbar)      0.00      0.00      0.00
                                0.00      0.00      0.00
                                0.00      0.00      0.00

     XDM     stress (kbar)      0.00      0.00      0.00
                                0.00      0.00      0.00
                                0.00      0.00      0.00

     dft-nl  stress (kbar)      0.00      0.00      0.00
                                0.00      0.00      0.00
                                0.00      0.00      0.00



     Writing output data file CaO_mix444.b.011.save

     init_run     :    804.93s CPU    714.07s WALL (       1 calls)
     electrons    :  50039.72s CPU  36481.35s WALL (       1 calls)
     forces       :    542.41s CPU    331.22s WALL (       1 calls)
     stress       :   2091.59s CPU   2057.08s WALL (       1 calls)

     Called by init_run:
     wfcinit      :    764.67s CPU    673.19s WALL (       1 calls)
     potinit      :      6.82s CPU      6.93s WALL (       1 calls)

     Called by electrons:
     c_bands      :  44503.24s CPU  31928.46s WALL (      25 calls)
     sum_band     :   5059.35s CPU   4059.61s WALL (      25 calls)
     v_of_rho     :     11.99s CPU     13.67s WALL (      26 calls)
     v_h          :      0.73s CPU      0.93s WALL (      26 calls)
     v_xc         :     11.96s CPU     13.53s WALL (      28 calls)
     newd         :    470.27s CPU    482.37s WALL (      26 calls)
     mix_rho      :     15.68s CPU     18.08s WALL (      25 calls)

     Called by c_bands:
     init_us_2    :     54.78s CPU     56.75s WALL (     424 calls)
     cegterg      :  44146.97s CPU  31560.67s WALL (     200 calls)

     Called by sum_band:
     sum_band:bec :     17.66s CPU     17.86s WALL (     200 calls)
     addusdens    :    392.67s CPU    395.59s WALL (      25 calls)

     Called by *egterg:
     h_psi        :  18511.81s CPU  14125.96s WALL (     733 calls)
     s_psi        :   5928.66s CPU   3353.04s WALL (     733 calls)
     g_psi        :      9.97s CPU     10.26s WALL (     525 calls)
     cdiaghg      :   9126.07s CPU   7716.98s WALL (     725 calls)
     cegterg:over :   4897.05s CPU   2984.35s WALL (     525 calls)
     cegterg:upda :   2236.37s CPU   1271.27s WALL (     525 calls)
     cegterg:last :   1727.63s CPU    974.92s WALL (     200 calls)

     Called by h_psi:
     h_psi:vloc   :   5561.11s CPU   6673.08s WALL (     733 calls)
     h_psi:vnl    :  12933.10s CPU   7434.72s WALL (     733 calls)
     add_vuspsi   :   5908.59s CPU   3324.86s WALL (     733 calls)

     General routines
     calbec       :  10687.91s CPU   6363.21s WALL (     949 calls)
     fft          :     70.89s CPU     73.03s WALL (     437 calls)
     ffts         :      9.67s CPU     11.32s WALL (     679 calls)
     fftw         :   6171.54s CPU   7533.06s WALL (  670356 calls)
     interpolate  :      2.25s CPU      2.72s WALL (      51 calls)

     Parallel routines
     fft_scatter  :   3039.13s CPU   3818.87s WALL (  671472 calls)

     PWSCF        :    14h51m CPU       11h 0m WALL


   This run was terminated on:   7: 5:12  19Aug2017            

=------------------------------------------------------------------------------=
   JOB DONE.
=------------------------------------------------------------------------------=
