
     Program PWSCF v.5.1 starts on 18Aug2017 at 20: 2: 0 

     This program is part of the open-source Quantum ESPRESSO suite
     for quantum simulation of materials; please cite
         "P. Giannozzi et al., J. Phys.:Condens. Matter 21 395502 (2009);
          URL http://www.quantum-espresso.org", 
     in publications or presentations arising from this work. More details at
     http://www.quantum-espresso.org/quote

     Parallel version (MPI), running on     8 processors
     R & G space division:  proc/nbgrp/npool/nimage =       8
     Reading input from /tmp/CaO_rocksalt.relax.in.up_1.00.super.444.a.04.14976/CaO_rocksalt.relax.in.up_1.00.super.444.a.04.t
Warning: card &IONS ignored
Warning: card   ION_DYNAMICS='BFGS', ignored
Warning: card / ignored
Warning: card &CELL ignored
Warning: card  CELL_DYNAMICS = 'BFGS' ignored
Warning: card / ignored
     Message from routine read_cards :
     DEPRECATED: no units specified in CELL_PARAMETERS card

     Current dimensions of program PWSCF are:
     Max number of different atomic species (ntypx) = 10
     Max number of k-points (npk) =  40000
     Max angular momentum in pseudopotentials (lmaxx) =  3
 kfg - two_fermi_energies  F

     Subspace diagonalization in iterative solution of the eigenvalue problem:
     a serial algorithm will be used


     Parallelization info
     --------------------
     sticks:   dense  smooth     PW     G-vecs:    dense   smooth      PW
     Min        1103     882    234                68777    49200    6687
     Max        1104     883    235                68779    49224    6688
     Sum        8831    7063   1877               550227   393681   53497



     bravais-lattice index     =            0
     lattice parameter (alat)  =    25.399837967  a.u.
     unit-cell volume          =   11521.8266 (a.u.)^3
     number of atoms/cell      =          128
     number of atomic types    =            2
     number of electrons       =      1024.00
     number of Kohn-Sham states=          614
     kinetic-energy cutoff     =      40.0000  Ry
     charge density cutoff     =     200.0000  Ry
     convergence threshold     =      1.0E-10
     mixing beta               =       0.3000
     number of iterations used =            8  local-TF  mixing
     Exchange-correlation      = SLA  PW   PSX  PSC ( 1  4 10  8 0)
     A smooth kinetic-energy cutoff is imposed at      39.5000 Ry
     height of the smooth step-function =             800.0000 Ry
     width of the smooth step-function  =               1.0000 Ry


     celldm(1)=  25.399838  celldm(2)=   0.000000  celldm(3)=   0.000000
     celldm(4)=   0.000000  celldm(5)=   0.000000  celldm(6)=   0.000000

     crystal axes: (cart. coord. in units of alat)
               a(1) = (   0.002078141852   0.701998010790   0.712175873063 )  
               a(2) = (   0.707238613520   0.001774184234   0.702594431559 )  
               a(3) = (   0.703788079882   0.709651228387  -0.000978253539 )  

     reciprocal axes: (cart. coord. in units 2 pi/alat)
               b(1) = ( -0.709125  0.704248  0.712034 )  
               b(2) = (  0.719769 -0.712857  0.700569 )  
               b(3) = (  0.699678  0.714273 -0.706106 )  


     PseudoPot. # 1 for Ca read from file:
     /users/kfg/psuedo/gbrv_1.5/ca.pbesol.UPF
     MD5 check sum: 0533207b58cddeaa036efa5b63902087
     Pseudo is Ultrasoft + core correction, Zval = 10.0
     Generated by new atomic code, or converted to UPF format
     Using radial grid of  845 points,  6 beta functions with: 
                l(1) =   0
                l(2) =   0
                l(3) =   1
                l(4) =   1
                l(5) =   2
                l(6) =   2
     Q(r) pseudized with  8 coefficients,  rinner =    1.500   1.500   1.500
                                                       1.500   1.500

     PseudoPot. # 2 for O  read from file:
     /users/kfg/psuedo/gbrv_1.5/o.pbesol.UPF
     MD5 check sum: 501638753501ef6325af9037351f7734
     Pseudo is Ultrasoft + core correction, Zval =  6.0
     Generated by new atomic code, or converted to UPF format
     Using radial grid of  737 points,  5 beta functions with: 
                l(1) =   0
                l(2) =   0
                l(3) =   1
                l(4) =   1
                l(5) =   2
     Q(r) pseudized with  8 coefficients,  rinner =    0.900   0.900   0.900
                                                       0.900   0.900

     atomic species   valence    mass     pseudopotential
        Ca            10.00    40.07800     Ca( 1.00)
        O              6.00    15.99940     O ( 1.00)

     No symmetry found


                                    s                        frac. trans.

      isym =  1     identity                                     

 cryst.   s( 1) = (     1          0          0      )
                  (     0          1          0      )
                  (     0          0          1      )

 cart.    s( 1) = (  1.0000000  0.0000000  0.0000000 )
                  (  0.0000000  1.0000000  0.0000000 )
                  (  0.0000000  0.0000000  1.0000000 )


     point group C_1 (1)    
     there are  1 classes
     the character table:

       E    
A      1.00

     the symmetry operations in each class:
     E        1

   Cartesian axes

     site n.     atom                  positions (alat units)
         1           Ca  tau(   1) = (   -0.00431746680   -0.00021651325    0.00393367447  )
         2           O   tau(   2) = (    0.17524617114    0.18088045579    0.17767283869  )
         3           Ca  tau(   3) = (    0.16963333738    0.17367091298    0.00730714883  )
         4           O   tau(   4) = (    0.34656042703    0.34948703244    0.17858892569  )
         5           Ca  tau(   5) = (    0.34489823485    0.34799038079   -0.00297822993  )
         6           O   tau(   6) = (    0.52980650820    0.53257945512    0.16970847128  )
         7           Ca  tau(   7) = (    0.52971001761    0.53938895734    0.00275575389  )
         8           O   tau(   8) = (    0.70042080608    0.70441446610    0.17416034842  )
         9           Ca  tau(   9) = (    0.17192262724   -0.00090276853    0.18042974243  )
        10           O   tau(  10) = (    0.36105731524    0.17492602679    0.35829641612  )
        11           Ca  tau(  11) = (    0.34944947439    0.17794120312    0.18063871942  )
        12           O   tau(  12) = (    0.52196175783    0.35920206836    0.34997654825  )
        13           Ca  tau(  13) = (    0.53266704189    0.36238164367    0.17119928180  )
        14           O   tau(  14) = (    0.71021260610    0.53242945508    0.34876828565  )
        15           Ca  tau(  15) = (    0.70910616076    0.52876402453    0.18227521875  )
        16           O   tau(  16) = (    0.87369836861    0.71603850740    0.35277008062  )
        17           Ca  tau(  17) = (    0.35215830745    0.00850849531    0.34982825634  )
        18           O   tau(  18) = (    0.52409867090    0.17714384928    0.52939445171  )
        19           Ca  tau(  19) = (    0.53508437271    0.18563856432    0.34854885327  )
        20           O   tau(  20) = (    0.69859934662    0.35507360462    0.53220496075  )
        21           Ca  tau(  21) = (    0.70943718234    0.36347346175    0.34838763989  )
        22           O   tau(  22) = (    0.87451671553    0.53347035815    0.52352711883  )
        23           Ca  tau(  23) = (    0.88888107278    0.53805287918    0.35643600091  )
        24           O   tau(  24) = (    1.05983633062    0.71127841558    0.52934694457  )
        25           Ca  tau(  25) = (    0.52820907645    0.00726539283    0.52858906762  )
        26           O   tau(  26) = (    0.71312664655    0.17730665614    0.70324841397  )
        27           Ca  tau(  27) = (    0.70034917749    0.17966350358    0.52630637520  )
        28           O   tau(  28) = (    0.88135609516    0.35665275049    0.69763236189  )
        29           Ca  tau(  29) = (    0.88728382844    0.35379187422    0.52728388889  )
        30           O   tau(  30) = (    1.06156407323    0.52696772382    0.69531304215  )
        31           Ca  tau(  31) = (    1.06211049058    0.53937598176    0.52732720051  )
        32           O   tau(  32) = (    1.23847945632    0.70940752743    0.69514389560  )
        33           Ca  tau(  33) = (   -0.00449773086    0.17562256191    0.17970638922  )
        34           O   tau(  34) = (    0.17102708811    0.35548611744    0.36202148644  )
        35           Ca  tau(  35) = (    0.18172494269    0.34518953004    0.18202837187  )
        36           O   tau(  36) = (    0.35545451626    0.53721860579    0.34891839378  )
        37           Ca  tau(  37) = (    0.35645094421    0.52717983410    0.17306571141  )
        38           O   tau(  38) = (    0.52964080373    0.70482636076    0.35345206230  )
        39           Ca  tau(  39) = (    0.53221977058    0.70087917424    0.17723757466  )
        40           O   tau(  40) = (    0.71213861247    0.88188844689    0.35084894161  )
        41           Ca  tau(  41) = (    0.17751620727    0.17883659286    0.36132551770  )
        42           O   tau(  42) = (    0.34739152086    0.35597008925    0.53721082035  )
        43           Ca  tau(  43) = (    0.34783991397    0.35478772086    0.35129174983  )
        44           O   tau(  44) = (    0.53222388257    0.52903020191    0.52978645305  )
        45           Ca  tau(  45) = (    0.53285327656    0.53012499291    0.35929968606  )
        46           O   tau(  46) = (    0.70972973552    0.70177917003    0.53196865691  )
        47           Ca  tau(  47) = (    0.71126013621    0.70086815881    0.34958838395  )
        48           O   tau(  48) = (    0.87431401049    0.89219657996    0.52684618988  )
        49           Ca  tau(  49) = (    0.35041106893    0.17882605860    0.53130850970  )
        50           O   tau(  50) = (    0.52785879730    0.36012906771    0.70004898150  )
        51           Ca  tau(  51) = (    0.52444516634    0.36143006557    0.52598158658  )
        52           O   tau(  52) = (    0.70923214625    0.53500568827    0.69831338652  )
        53           Ca  tau(  53) = (    0.69976872749    0.52792196241    0.52536209988  )
        54           O   tau(  54) = (    0.87949502307    0.70359878926    0.70443541035  )
        55           Ca  tau(  55) = (    0.87999835770    0.70639285228    0.52664726831  )
        56           O   tau(  56) = (    1.06328790930    0.88644740680    0.70980856280  )
        57           Ca  tau(  57) = (    0.53372316555    0.17560060794    0.71273680623  )
        58           O   tau(  58) = (    0.71048231362    0.34631740708    0.88438293212  )
        59           Ca  tau(  59) = (    0.70602573334    0.35044243138    0.69850487893  )
        60           O   tau(  60) = (    0.88591638827    0.52510713562    0.88314021256  )
        61           Ca  tau(  61) = (    0.88738263132    0.52484231224    0.70288206275  )
        62           O   tau(  62) = (    1.06436412129    0.70689617591    0.88038730682  )
        63           Ca  tau(  63) = (    1.05976614507    0.71414751749    0.71174777292  )
        64           O   tau(  64) = (    1.23172029893    0.89266906303    0.87787104074  )
        65           Ca  tau(  65) = (   -0.00519272847    0.35136180883    0.35801764044  )
        66           O   tau(  66) = (    0.17190992872    0.52948793843    0.53687484926  )
        67           Ca  tau(  67) = (    0.18213296293    0.53247087494    0.35103089189  )
        68           O   tau(  68) = (    0.35152099588    0.70469256809    0.52509612107  )
        69           Ca  tau(  69) = (    0.34924401309    0.69825834815    0.35080191104  )
        70           O   tau(  70) = (    0.53543490938    0.88711427211    0.52477903350  )
        71           Ca  tau(  71) = (    0.52486819461    0.88297141121    0.35076296722  )
        72           O   tau(  72) = (    0.70073325157    1.06215448723    0.53551533507  )
        73           Ca  tau(  73) = (    0.17187587921    0.35430687146    0.53037533370  )
        74           O   tau(  74) = (    0.35052495602    0.52038017969    0.71475307275  )
        75           Ca  tau(  75) = (    0.35606584414    0.52193283400    0.53567432948  )
        76           O   tau(  76) = (    0.52850211520    0.71315943513    0.71263259098  )
        77           Ca  tau(  77) = (    0.53539866745    0.70418141243    0.53115782864  )
        78           O   tau(  78) = (    0.70344860556    0.88746146169    0.71025023117  )
        79           Ca  tau(  79) = (    0.70108101702    0.87793707301    0.52994395892  )
        80           O   tau(  80) = (    0.88401256143    1.05922552394    0.70338777076  )
        81           Ca  tau(  81) = (    0.36176338190    0.35902336432    0.70308159320  )
        82           O   tau(  82) = (    0.52953358637    0.52480684360    0.87733766183  )
        83           Ca  tau(  83) = (    0.53744618404    0.53710676343    0.71422337165  )
        84           O   tau(  84) = (    0.70154359188    0.70507469525    0.88067020811  )
        85           Ca  tau(  85) = (    0.71336193766    0.70704160212    0.69904017117  )
        86           O   tau(  86) = (    0.88096022517    0.87679319610    0.88190730410  )
        87           Ca  tau(  87) = (    0.87748138178    0.88588075790    0.71348254859  )
        88           O   tau(  88) = (    1.06115650933    1.06062138608    0.87570295164  )
        89           Ca  tau(  89) = (    0.52552324275    0.34461493063    0.87938648356  )
        90           O   tau(  90) = (    0.70437371161    0.53371760104    1.06418426050  )
        91           Ca  tau(  91) = (    0.70703945693    0.53035635974    0.88607270519  )
        92           O   tau(  92) = (    0.89099238301    0.70819921355    1.06181162706  )
        93           Ca  tau(  93) = (    0.88283957568    0.71109197477    0.88849540433  )
        94           O   tau(  94) = (    1.05619565445    0.88227571046    1.05322875327  )
        95           Ca  tau(  95) = (    1.06550576916    0.88873852100    0.88104916070  )
        96           O   tau(  96) = (    1.24218123403    1.05574670171    1.06327465682  )
        97           Ca  tau(  97) = (   -0.00369344324    0.52164537585    0.52766791936  )
        98           O   tau(  98) = (    0.18346067936    0.70926009359    0.70586035109  )
        99           Ca  tau(  99) = (    0.18237176147    0.70217538532    0.53925079085  )
       100           O   tau( 100) = (    0.35933125033    0.87741434084    0.70495450851  )
       101           Ca  tau( 101) = (    0.35382284840    0.88869374996    0.53182787524  )
       102           O   tau( 102) = (    0.53057844103    1.05710074035    0.71317861029  )
       103           Ca  tau( 103) = (    0.52623893660    1.05389659920    0.52584637301  )
       104           O   tau( 104) = (    0.71219670964    1.23680223346    0.70301096964  )
       105           Ca  tau( 105) = (    0.17899070149    0.52997143542    0.71432289593  )
       106           O   tau( 106) = (    0.35930458947    0.70653347442    0.88127082735  )
       107           Ca  tau( 107) = (    0.36048758738    0.70311583704    0.70474578499  )
       108           O   tau( 108) = (    0.52657438613    0.88333081917    0.88452817575  )
       109           Ca  tau( 109) = (    0.53007656170    0.87990168602    0.71455752642  )
       110           O   tau( 110) = (    0.70045970982    1.05533750306    0.89160086406  )
       111           Ca  tau( 111) = (    0.70864327185    1.05833531013    0.70625952515  )
       112           O   tau( 112) = (    0.88927536991    1.24206141681    0.87945924346  )
       113           Ca  tau( 113) = (    0.35046764734    0.52455767734    0.87961930652  )
       114           O   tau( 114) = (    0.52596550780    0.71151694285    1.05801798186  )
       115           Ca  tau( 115) = (    0.52758955174    0.71153713571    0.87869911672  )
       116           O   tau( 116) = (    0.70695174117    0.88018823053    1.06867066377  )
       117           Ca  tau( 117) = (    0.71413072636    0.88347978607    0.88922797761  )
       118           O   tau( 118) = (    0.87637574290    1.05640773384    1.06620215273  )
       119           Ca  tau( 119) = (    0.88967872696    1.06300508339    0.88361195172  )
       120           O   tau( 120) = (    1.06219990124    1.24395542166    1.06717052730  )
       121           Ca  tau( 121) = (    0.53663600930    0.52995022540    1.05874771742  )
       122           O   tau( 122) = (    0.71147418886    0.70053679908    1.23680500715  )
       123           Ca  tau( 123) = (    0.70508003460    0.69854401650    1.06450493006  )
       124           O   tau( 124) = (    0.89114593239    0.87809247003    1.23051371730  )
       125           Ca  tau( 125) = (    0.88977257486    0.88951973652    1.05923377932  )
       126           O   tau( 126) = (    1.06220389349    1.05982133937    1.23018398583  )
       127           Ca  tau( 127) = (    1.06425898903    1.05303196365    1.05566166808  )
       128           O   tau( 128) = (    1.24033043999    1.23866038646    1.23168299058  )

   Crystallographic axes

     site n.     atom                  positions (cryst. coord.)
         1           Ca  tau(   1) = (    0.00571005302   -0.00019742705   -0.00595307761  )
         2           O   tau(   2) = (    0.12962227499    0.12166705004    0.12635786883  )
         3           Ca  tau(   3) = (    0.00721904348    0.00341353571    0.23757741244  )
         4           O   tau(   4) = (    0.12753213905    0.12542322675    0.36600683577  )
         5           Ca  tau(   5) = (   -0.00162512298   -0.00190661182    0.49198054284  )
         6           O   tau(   6) = (    0.12020700279    0.12057807597    0.63126847758  )
         7           Ca  tau(   7) = (    0.00619502526   -0.00130749431    0.75395118090  )
         8           O   tau(   8) = (    0.12340444345    0.12400609757    0.87023703745  )
         9           Ca  tau(   9) = (    0.00592170207    0.25079171267   -0.00775696861  )
        10           O   tau(  10) = (    0.12227568288    0.38619219988    0.12457325655  )
        11           Ca  tau(  11) = (    0.00613223762    0.25122634477    0.24405039512  )
        12           O   tau(  12) = (    0.13202627393    0.36481519781    0.37465254294  )
        13           Ca  tau(  13) = (   -0.00062135556    0.24500812036    0.51064964026  )
        14           O   tau(  14) = (    0.11966756568    0.37597958643    0.63095220165  )
        15           Ca  tau(  15) = (   -0.00067788687    0.26115622778    0.74512174339  )
        16           O   tau(  16) = (    0.13589139355    0.36556818411    0.87366076368  )
        17           Ca  tau(  17) = (    0.00535743656    0.49248633892    0.00545877165  )
        18           O   tau(  18) = (    0.13004849285    0.62182940338    0.11942038946  )
        19           Ca  tau(  19) = (   -0.00052753600    0.49698621792    0.26087060942  )
        20           O   tau(  20) = (    0.13361350576    0.62256014813    0.36662045037  )
        21           Ca  tau(  21) = (    0.00095956221    0.49559625634    0.50999780942  )
        22           O   tau(  22) = (    0.12832269463    0.61592929857    0.62325730167  )
        23           Ca  tau(  23) = (    0.00238927932    0.50594276546    0.75456499298  )
        24           O   tau(  24) = (    0.12627275902    0.62664217338    0.87581531097  )
        25           Ca  tau(  25) = (    0.00692375619    0.74532276992    0.00152552382  )
        26           O   tau(  26) = (    0.11990861925    0.87956663261    0.12903596448  )
        27           Ca  tau(  27) = (    0.00464053250    0.74472957702    0.24671918334  )
        28           O   tau(  28) = (    0.12291817185    0.86887050370    0.37880988754  )
        29           Ca  tau(  29) = (   -0.00459396529    0.75583562162    0.50119808554  )
        30           O   tau(  30) = (    0.11342069215    0.87554364173    0.62818639635  )
        31           Ca  tau(  31) = (    0.00216010323    0.74940592974    0.75604746098  )
        32           O   tau(  32) = (    0.11632795112    0.87270994494    0.88240133163  )
        33           Ca  tau(  33) = (    0.25482823204   -0.00253435808   -0.00459641797  )
        34           O   tau(  34) = (    0.38684220638    0.12331038161    0.11795214239  )
        35           Ca  tau(  35) = (    0.24384356591    0.01225274812    0.24517690696  )
        36           O   tau(  36) = (    0.37471495613    0.11732671713    0.38605061444  )
        37           Ca  tau(  37) = (    0.24172553164    0.00200316590    0.50374807152  )
        38           O   tau(  38) = (    0.37246061395    0.12639647748    0.62444124988  )
        39           Ca  tau(  39) = (    0.24238133817    0.00761609066    0.74785249911  )
        40           O   tau(  40) = (    0.36588892027    0.12970921688    0.88043957321  )
        41           Ca  tau(  41) = (    0.25734006424    0.25341933007   -0.00319203690  )
        42           O   tau(  42) = (    0.38685937451    0.37263935444    0.11799380268  )
        43           Ca  tau(  43) = (    0.25332806685    0.24355579457    0.24874163807  )
        44           O   tau(  44) = (    0.37238092093    0.37710765223    0.37617137409  )
        45           Ca  tau(  45) = (    0.25131326657    0.25734247750    0.49777551648  )
        46           O   tau(  46) = (    0.36971895695    0.38325442117    0.62221724713  )
        47           Ca  tau(  47) = (    0.23813121693    0.25723539077    0.75141719469  )
        48           O   tau(  48) = (    0.38346178861    0.36238813295    0.87700013603  )
        49           Ca  tau(  49) = (    0.25576224523    0.49695612123   -0.00225493938  )
        50           O   tau(  50) = (    0.37776077644    0.61364882452    0.13225232941  )
        51           Ca  tau(  51) = (    0.25715582394    0.48831813041    0.25370324911  )
        52           O   tau(  52) = (    0.37106506395    0.61831789826    0.38529030980  )
        53           Ca  tau(  53) = (    0.24963995177    0.49539177156    0.49573125855  )
        54           O   tau(  54) = (    0.37341779974    0.62497404917    0.62051807977  )
        55           Ca  tau(  55) = (    0.24843741956    0.49879168490    0.74840331187  )
        56           O   tau(  56) = (    0.37568226103    0.63068190697    0.87592360319  )
        57           Ca  tau(  57) = (    0.25268265315    0.75830092292   -0.00440706272  )
        58           O   tau(  58) = (    0.36978308528    0.88408007267    0.12000528212  )
        59           Ca  tau(  59) = (    0.24349693987    0.74771138597    0.25108317872  )
        60           O   tau(  60) = (    0.37040580013    0.88203004478    0.37133468724  )
        61           Ca  tau(  61) = (    0.24082965550    0.75699089008    0.49945285468  )
        62           O   tau(  62) = (    0.36992840944    0.87895308603    0.62798136016  )
        63           Ca  tau(  63) = (    0.25821864095    0.75233078388    0.74902113956  )
        64           O   tau(  64) = (    0.38029042554    0.86521863336    0.87954597773  )
        65           Ca  tau(  65) = (    0.50604864134   -0.00339219511   -0.00546368726  )
        66           O   tau(  66) = (    0.63325802013    0.12240427084    0.11938949284  )
        67           Ca  tau(  67) = (    0.49578216085   -0.00256044541    0.25989855236  )
        68           O   tau(  68) = (    0.62089193475    0.11853517535    0.37852025193  )
        69           Ca  tau(  69) = (    0.49387194868   -0.00062218948    0.49540156124  )
        70           O   tau(  70) = (    0.61871827661    0.12064806676    0.63772343750  )
        71           Ca  tau(  71) = (    0.49938847683   -0.00591454670    0.75024486123  )
        72           O   tau(  72) = (    0.63241737300    0.12236764705    0.87082445844  )
        73           Ca  tau(  73) = (    0.50528345489    0.24270545550   -0.00117200242  )
        74           O   tau(  74) = (    0.62683886343    0.38207443837    0.11225609263  )
        75           Ca  tau(  75) = (    0.49649301840    0.25949874297    0.24369058661  )
        76           O   tau(  76) = (    0.63488530756    0.37126737967    0.37597696550  )
        77           Ca  tau(  77) = (    0.49445587753    0.25549573996    0.50253005872  )
        78           O   tau(  78) = (    0.63188186508    0.37126709655    0.62456448379  )
        79           Ca  tau(  79) = (    0.49846909460    0.25003549980    0.74342033103  )
        80           O   tau(  80) = (    0.61991760032    0.37398067927    0.87843304725  )
        81           Ca  tau(  81) = (    0.49692378837    0.49701117397    0.01310793754  )
        82           O   tau(  82) = (    0.61878259241    0.62166555327    0.12586428632  )
        83           Ca  tau(  83) = (    0.50569087473    0.50431988127    0.25536208726  )
        84           O   tau(  84) = (    0.62613210809    0.61930258440    0.37262310473  )
        85           Ca  tau(  85) = (    0.48980989118    0.49916255113    0.51054717025  )
        86           O   tau(  86) = (    0.62071650959    0.62689713717    0.61993722056  )
        87           Ca  tau(  87) = (    0.50965921930    0.49992185734    0.74291993758  )
        88           O   tau(  88) = (    0.61797769737    0.62120713305    0.88170091290  )
        89           Ca  tau(  89) = (    0.49618554500    0.74866544057   -0.00709447847  )
        90           O   tau(  90) = (    0.63411559432    0.87205700250    0.12262717509  )
        91           Ca  tau(  91) = (    0.50303665598    0.75159235400    0.24785719738  )
        92           O   tau(  92) = (    0.62296851722    0.88033679411    0.37950286457  )
        93           Ca  tau(  93) = (    0.50738008764    0.75098653379    0.49824443320  )
        94           O   tau(  94) = (    0.62230042875    0.86914052103    0.62549040176  )
        95           Ca  tau(  95) = (    0.49765212556    0.75061089255    0.75819779527  )
        96           O   tau(  96) = (    0.61973298322    0.88638510441    0.87243246404  )
        97           Ca  tau(  97) = (    0.74570397614   -0.00484914431   -0.00257694018  )
        98           O   tau(  98) = (    0.87199458262    0.12095233089    0.13655586797  )
        99           Ca  tau(  99) = (    0.74914573580    0.00849743243    0.24837763388  )
       100           O   tau( 100) = (    0.86505762335    0.12703406277    0.38035617695  )
       101           Ca  tau( 101) = (    0.75363525060   -0.00625849547    0.50680445904  )
       102           O   tau( 102) = (    0.87602153651    0.12796340802    0.62271199708  )
       103           Ca  tau( 103) = (    0.74345539476   -0.00411512052    0.74966359625  )
       104           O   tau( 104) = (    0.86654614858    0.12346209243    0.88532153722  )
       105           Ca  tau( 105) = (    0.75492637582    0.25147075229   -0.00060809327  )
       106           O   tau( 106) = (    0.87027727629    0.37235026520    0.13378394324  )
       107           Ca  tau( 107) = (    0.74133972494    0.25197004466    0.25681599107  )
       108           O   tau( 108) = (    0.87849055225    0.36899673247    0.37480035286  )
       109           Ca  tau( 109) = (    0.75256726796    0.25488578544    0.49481876807  )
       110           O   tau( 110) = (    0.88135543372    0.37649281979    0.61432962662  )
       111           Ca  tau( 111) = (    0.74569416862    0.25040167208    0.75306743231  )
       112           O   tau( 112) = (    0.87031617902    0.37078307582    0.88838478350  )
       113           Ca  tau( 113) = (    0.74721182465    0.49455542271   -0.00121322926  )
       114           O   tau( 114) = (    0.88145342752    0.61257880764    0.12915014981  )
       115           Ca  tau( 115) = (    0.75263490676    0.48810809122    0.25691907142  )
       116           O   tau( 116) = (    0.87948300964    0.63007160667    0.36873753424  )
       117           Ca  tau( 117) = (    0.74894102664    0.50718040848    0.50281720008  )
       118           O   tau( 118) = (    0.88168473653    0.62466916306    0.61489152279  )
       119           Ca  tau( 119) = (    0.74688703440    0.50162422230    0.75783973262  )
       120           O   tau( 120) = (    0.88268173038    0.62540345200    0.87818494058  )
       121           Ca  tau( 121) = (    0.74653839209    0.75020144738    0.00641267627  )
       122           O   tau( 122) = (    0.86947428500    0.87918223812    0.12486098209  )
       123           Ca  tau( 123) = (    0.74992164872    0.75529237705    0.24062592467  )
       124           O   tau( 124) = (    0.86262812906    0.87752518919    0.38183876414  )
       125           Ca  tau( 125) = (    0.74969253140    0.74839724629    0.50998189209  )
       126           O   tau( 126) = (    0.86907401565    0.87086979239    0.63156098062  )
       127           Ca  tau( 127) = (    0.73856950740    0.75492389546    0.75138073919  )
       128           O   tau( 128) = (    0.86977436477    0.87264333390    0.88287352639  )

     number of k points=     8  gaussian smearing, width (Ry)=  0.0050
                       cart. coord. in units 2pi/alat
        k(    1) = (   0.0000000   0.0000000   0.0000000), wk =   0.2500000
        k(    2) = (  -0.3498389  -0.3571363   0.3530532), wk =   0.2500000
        k(    3) = (  -0.3598847   0.3564285  -0.3502846), wk =   0.2500000
        k(    4) = (  -0.7097236  -0.0007077   0.0027686), wk =   0.2500000
        k(    5) = (   0.3545624  -0.3521238  -0.3560169), wk =   0.2500000
        k(    6) = (   0.0047235  -0.7092600  -0.0029637), wk =   0.2500000
        k(    7) = (  -0.0053223   0.0043047  -0.7063015), wk =   0.2500000
        k(    8) = (  -0.3551612  -0.3528315  -0.3532483), wk =   0.2500000

                       cryst. coord.
        k(    1) = (   0.0000000   0.0000000   0.0000000), wk =   0.2500000
        k(    2) = (   0.0000000  -0.0000000  -0.5000000), wk =   0.2500000
        k(    3) = (  -0.0000000  -0.5000000  -0.0000000), wk =   0.2500000
        k(    4) = (  -0.0000000  -0.5000000  -0.5000000), wk =   0.2500000
        k(    5) = (  -0.5000000   0.0000000   0.0000000), wk =   0.2500000
        k(    6) = (  -0.5000000  -0.0000000  -0.5000000), wk =   0.2500000
        k(    7) = (  -0.5000000  -0.5000000  -0.0000000), wk =   0.2500000
        k(    8) = (  -0.5000000  -0.5000000  -0.5000000), wk =   0.2500000

     Dense  grid:   550227 G-vectors     FFT dimensions: ( 120, 120, 120)

     Smooth grid:   393681 G-vectors     FFT dimensions: ( 108, 108, 108)

     Largest allocated arrays     est. size (Mb)     dimensions
        Kohn-Sham Wavefunctions        57.87 Mb     (    6177,  614)
        NL pseudopotentials           187.00 Mb     (    6177, 1984)
        Each V/rho on FFT grid          3.30 Mb     (  216000)
        Each G-vector array             0.52 Mb     (   68779)
        G-vector shells                 0.52 Mb     (   67955)
     Largest temporary arrays     est. size (Mb)     dimensions
        Auxiliary wavefunctions       231.49 Mb     (    6177, 2456)
        Each subspace H/S matrix       92.04 Mb     (    2456, 2456)
        Each <psi_i|beta_j> matrix     18.59 Mb     (    1984,  614)
        Arrays for rho mixing          26.37 Mb     (  216000,    8)

     Check: negative/imaginary core charge=   -0.000003    0.000000

     Initial potential from superposition of free atoms

     starting charge 1023.66864, renormalised to 1024.00000
     Starting wfc are  896 randomized atomic wfcs

     total cpu time spent up to now is     1361.6 secs

     Self-consistent Calculation

     iteration #  1     ecut=    40.00 Ry     beta=0.30
     Davidson diagonalization with overlap
     ethr =  1.00E-02,  avg # of iterations =  2.0

     total cpu time spent up to now is     3964.6 secs

     total energy              =   -6872.68115821 Ry
     Harris-Foulkes estimate   =   -6878.50220566 Ry
     estimated scf accuracy    <      29.47925330 Ry

     iteration #  2     ecut=    40.00 Ry     beta=0.30
     Davidson diagonalization with overlap
     ethr =  2.88E-03,  avg # of iterations =  1.0

     total cpu time spent up to now is     6284.3 secs

     total energy              =   -6869.35045546 Ry
     Harris-Foulkes estimate   =   -6873.68981983 Ry
     estimated scf accuracy    <      11.23402349 Ry

     iteration #  3     ecut=    40.00 Ry     beta=0.30
     Davidson diagonalization with overlap
     ethr =  1.10E-03,  avg # of iterations =  2.0

     total cpu time spent up to now is     9182.5 secs

     total energy              =   -6871.32600794 Ry
     Harris-Foulkes estimate   =   -6871.54220578 Ry
     estimated scf accuracy    <       0.80427124 Ry

     iteration #  4     ecut=    40.00 Ry     beta=0.30
     Davidson diagonalization with overlap
     ethr =  7.85E-05,  avg # of iterations =  9.1

     total cpu time spent up to now is    14076.1 secs

     total energy              =   -6871.31485187 Ry
     Harris-Foulkes estimate   =   -6871.54216619 Ry
     estimated scf accuracy    <       0.72041163 Ry

     iteration #  5     ecut=    40.00 Ry     beta=0.30
     Davidson diagonalization with overlap
     ethr =  7.04E-05,  avg # of iterations =  5.9

     total cpu time spent up to now is    17687.5 secs

     total energy              =   -6871.40005290 Ry
     Harris-Foulkes estimate   =   -6871.40273214 Ry
     estimated scf accuracy    <       0.02179281 Ry

     iteration #  6     ecut=    40.00 Ry     beta=0.30
     Davidson diagonalization with overlap
     ethr =  2.13E-06,  avg # of iterations = 14.4

     total cpu time spent up to now is    25265.2 secs

     total energy              =   -6871.39904170 Ry
     Harris-Foulkes estimate   =   -6871.40182692 Ry
     estimated scf accuracy    <       0.01515490 Ry

     iteration #  7     ecut=    40.00 Ry     beta=0.30
     Davidson diagonalization with overlap
     ethr =  1.48E-06,  avg # of iterations =  3.9

     total cpu time spent up to now is    27967.1 secs

     total energy              =   -6871.39635427 Ry
     Harris-Foulkes estimate   =   -6871.39958536 Ry
     estimated scf accuracy    <       0.00744206 Ry

     iteration #  8     ecut=    40.00 Ry     beta=0.30
     Davidson diagonalization with overlap
     ethr =  7.27E-07,  avg # of iterations =  9.4

     total cpu time spent up to now is    33313.8 secs

     total energy              =   -6871.39774055 Ry
     Harris-Foulkes estimate   =   -6871.39781666 Ry
     estimated scf accuracy    <       0.00203862 Ry

     iteration #  9     ecut=    40.00 Ry     beta=0.30
     Davidson diagonalization with overlap
     ethr =  1.99E-07,  avg # of iterations =  2.0

     total cpu time spent up to now is    36210.0 secs

     total energy              =   -6871.39736911 Ry
     Harris-Foulkes estimate   =   -6871.39790579 Ry
     estimated scf accuracy    <       0.00136708 Ry

     iteration # 10     ecut=    40.00 Ry     beta=0.30
     Davidson diagonalization with overlap
     ethr =  1.34E-07,  avg # of iterations =  2.0

     total cpu time spent up to now is    39084.4 secs

     total energy              =   -6871.39751059 Ry
     Harris-Foulkes estimate   =   -6871.39760824 Ry
     estimated scf accuracy    <       0.00035901 Ry

     iteration # 11     ecut=    40.00 Ry     beta=0.30
     Davidson diagonalization with overlap
     ethr =  3.51E-08,  avg # of iterations =  2.0

     total cpu time spent up to now is    42160.8 secs

     total energy              =   -6871.39752711 Ry
     Harris-Foulkes estimate   =   -6871.39758502 Ry
     estimated scf accuracy    <       0.00019230 Ry

     iteration # 12     ecut=    40.00 Ry     beta=0.30
     Davidson diagonalization with overlap
     ethr =  1.88E-08,  avg # of iterations =  2.0

     total cpu time spent up to now is    44989.6 secs

     total energy              =   -6871.39754900 Ry
     Harris-Foulkes estimate   =   -6871.39755280 Ry
     estimated scf accuracy    <       0.00002457 Ry

     iteration # 13     ecut=    40.00 Ry     beta=0.30
     Davidson diagonalization with overlap
     ethr =  2.40E-09,  avg # of iterations =  2.0

     total cpu time spent up to now is    47896.8 secs

     total energy              =   -6871.39754927 Ry
     Harris-Foulkes estimate   =   -6871.39755173 Ry
     estimated scf accuracy    <       0.00000974 Ry

     iteration # 14     ecut=    40.00 Ry     beta=0.30
     Davidson diagonalization with overlap
     ethr =  9.51E-10,  avg # of iterations =  2.0

     total cpu time spent up to now is    50715.5 secs

     total energy              =   -6871.39754897 Ry
     Harris-Foulkes estimate   =   -6871.39755006 Ry
     estimated scf accuracy    <       0.00000391 Ry

     iteration # 15     ecut=    40.00 Ry     beta=0.30
     Davidson diagonalization with overlap
     ethr =  3.82E-10,  avg # of iterations =  2.0

     total cpu time spent up to now is    53661.7 secs

     total energy              =   -6871.39754935 Ry
     Harris-Foulkes estimate   =   -6871.39754939 Ry
     estimated scf accuracy    <       0.00000103 Ry

     iteration # 16     ecut=    40.00 Ry     beta=0.30
     Davidson diagonalization with overlap
     ethr =  1.00E-10,  avg # of iterations =  1.0

     total cpu time spent up to now is    55935.1 secs

     total energy              =   -6871.39754913 Ry
     Harris-Foulkes estimate   =   -6871.39754936 Ry
     estimated scf accuracy    <       0.00000078 Ry

     iteration # 17     ecut=    40.00 Ry     beta=0.30
     Davidson diagonalization with overlap
     ethr =  7.60E-11,  avg # of iterations =  2.0

     total cpu time spent up to now is    58671.8 secs

     total energy              =   -6871.39754920 Ry
     Harris-Foulkes estimate   =   -6871.39754921 Ry
     estimated scf accuracy    <       0.00000020 Ry

     iteration # 18     ecut=    40.00 Ry     beta=0.30
     Davidson diagonalization with overlap
     ethr =  1.97E-11,  avg # of iterations =  2.0

     total cpu time spent up to now is    61054.3 secs

     total energy              =   -6871.39754919 Ry
     Harris-Foulkes estimate   =   -6871.39754921 Ry
     estimated scf accuracy    <       0.00000011 Ry

     iteration # 19     ecut=    40.00 Ry     beta=0.30
     Davidson diagonalization with overlap
     ethr =  1.09E-11,  avg # of iterations =  2.0

     total cpu time spent up to now is    63751.8 secs

     total energy              =   -6871.39754918 Ry
     Harris-Foulkes estimate   =   -6871.39754919 Ry
     estimated scf accuracy    <       0.00000005 Ry

     iteration # 20     ecut=    40.00 Ry     beta=0.30
     Davidson diagonalization with overlap
     ethr =  5.17E-12,  avg # of iterations =  2.0

     total cpu time spent up to now is    66387.2 secs

     total energy              =   -6871.39754918 Ry
     Harris-Foulkes estimate   =   -6871.39754918 Ry
     estimated scf accuracy    <       0.00000002 Ry

     iteration # 21     ecut=    40.00 Ry     beta=0.30
     Davidson diagonalization with overlap
     ethr =  1.69E-12,  avg # of iterations =  2.0

     total cpu time spent up to now is    69159.9 secs

     total energy              =   -6871.39754918 Ry
     Harris-Foulkes estimate   =   -6871.39754918 Ry
     estimated scf accuracy    <          4.3E-09 Ry

     iteration # 22     ecut=    40.00 Ry     beta=0.30
     Davidson diagonalization with overlap
     ethr =  4.17E-13,  avg # of iterations =  1.0

     total cpu time spent up to now is    71505.7 secs

     total energy              =   -6871.39754918 Ry
     Harris-Foulkes estimate   =   -6871.39754918 Ry
     estimated scf accuracy    <          2.5E-09 Ry

     iteration # 23     ecut=    40.00 Ry     beta=0.30
     Davidson diagonalization with overlap
     ethr =  2.45E-13,  avg # of iterations =  2.0

     total cpu time spent up to now is    73981.0 secs

     total energy              =   -6871.39754918 Ry
     Harris-Foulkes estimate   =   -6871.39754918 Ry
     estimated scf accuracy    <          1.2E-09 Ry

     iteration # 24     ecut=    40.00 Ry     beta=0.30
     Davidson diagonalization with overlap
     ethr =  1.18E-13,  avg # of iterations =  2.0

     total cpu time spent up to now is    76624.8 secs

     total energy              =   -6871.39754918 Ry
     Harris-Foulkes estimate   =   -6871.39754918 Ry
     estimated scf accuracy    <          2.0E-10 Ry

     iteration # 25     ecut=    40.00 Ry     beta=0.30
     Davidson diagonalization with overlap
     ethr =  1.00E-13,  avg # of iterations =  1.0

     total cpu time spent up to now is    78946.3 secs

     End of self-consistent calculation

          k = 0.0000 0.0000 0.0000 ( 49267 PWs)   bands (ev):

   -29.9946 -29.8163 -29.5943 -29.5258 -29.4900 -29.4500 -29.4392 -29.4029
   -29.3845 -29.3764 -29.3584 -29.3208 -29.3122 -29.3002 -29.2945 -29.2497
   -29.2225 -29.2192 -29.2166 -29.2117 -29.1994 -29.1809 -29.1775 -29.1393
   -29.1372 -29.1054 -29.0674 -29.0645 -29.0564 -29.0409 -29.0373 -29.0308
   -29.0143 -29.0044 -28.9717 -28.9645 -28.9573 -28.9552 -28.9356 -28.9282
   -28.9263 -28.9246 -28.9102 -28.9086 -28.8999 -28.8926 -28.8686 -28.8372
   -28.8289 -28.8267 -28.8207 -28.7955 -28.7464 -28.6639 -28.6569 -28.6545
   -28.6189 -28.5681 -28.5564 -28.5175 -28.4776 -28.4438 -28.1664 -28.1276
   -11.6582 -11.6389 -11.5396 -11.5202 -11.4967 -11.4202 -11.3793 -11.3574
   -11.3336 -11.3065 -11.2688 -11.2396 -11.2132 -11.2037 -11.1887 -11.1724
   -11.1319 -11.1221 -11.1063 -11.1008 -11.0795 -11.0646 -11.0522 -11.0479
   -11.0332 -11.0239 -11.0101 -10.9944 -10.9794 -10.9658 -10.9605 -10.9527
   -10.9319 -10.9266 -10.9137 -10.9004 -10.8901 -10.8788 -10.8733 -10.8674
   -10.8589 -10.8305 -10.8254 -10.8066 -10.8037 -10.7745 -10.7644 -10.7539
   -10.7259 -10.7239 -10.7078 -10.7045 -10.6970 -10.6895 -10.6805 -10.6785
   -10.6698 -10.6598 -10.6449 -10.6319 -10.6131 -10.6063 -10.6002 -10.5836
   -10.5772 -10.5760 -10.5662 -10.5610 -10.5442 -10.5375 -10.5236 -10.5200
   -10.5174 -10.5050 -10.4951 -10.4919 -10.4876 -10.4748 -10.4660 -10.4564
   -10.4484 -10.4405 -10.4353 -10.4235 -10.4170 -10.4112 -10.4029 -10.3992
   -10.3958 -10.3935 -10.3829 -10.3758 -10.3715 -10.3643 -10.3565 -10.3429
   -10.3384 -10.3306 -10.3286 -10.3181 -10.3122 -10.3026 -10.2991 -10.2939
   -10.2929 -10.2865 -10.2780 -10.2731 -10.2668 -10.2638 -10.2607 -10.2483
   -10.2446 -10.2426 -10.2270 -10.2240 -10.2184 -10.2153 -10.1985 -10.1919
   -10.1872 -10.1804 -10.1742 -10.1715 -10.1677 -10.1571 -10.1481 -10.1377
   -10.1355 -10.1328 -10.1216 -10.1140 -10.1103 -10.1041 -10.0985 -10.0912
   -10.0842 -10.0803 -10.0721 -10.0679 -10.0611 -10.0577 -10.0534 -10.0460
   -10.0433 -10.0378 -10.0304 -10.0221 -10.0212 -10.0159 -10.0127 -10.0122
   -10.0025  -9.9940  -9.9924  -9.9821  -9.9754  -9.9639  -9.9563  -9.9528
    -9.9460  -9.9346  -9.9033  -9.8929  -9.8888  -9.8835  -9.8760  -9.8645
    -9.8513  -9.8498  -9.8370  -9.8292  -9.8145  -9.8084  -9.7973  -9.7892
    -9.7808  -9.7714  -9.7617  -9.7574  -9.7432  -9.7247  -9.7084  -9.6893
    -9.6670  -9.6231  -9.5318  -9.4840  -9.4669  -9.4601  -9.3884  -9.3338
    -7.4564  -7.2544  -7.2258  -7.1769  -7.0520  -7.0396  -6.9779  -6.9516
    -6.8827  -6.8557  -6.8499  -6.8240  -6.8155  -6.8089  -6.7709  -6.7539
    -6.7350  -6.7058  -6.6948  -6.6776  -6.6673  -6.6544  -6.6130  -6.6069
    -6.5923  -6.5781  -6.5570  -6.5492  -6.5447  -6.5207  -6.5127  -6.5026
    -6.4874  -6.4699  -6.4680  -6.4624  -6.4338  -6.4144  -6.4101  -6.3798
    -6.3744  -6.3376  -6.3272  -6.3094  -6.3043  -6.3011  -6.2536  -6.2469
    -6.2393  -6.2281  -6.1813  -6.1562  -6.1344  -6.1036  -6.0782  -6.0629
    -6.0575  -6.0375  -5.9962  -5.9926  -5.8720  -5.8207  -5.7256  -5.6987
     5.1772   5.1859   5.2018   5.2381   5.6095   5.6441   5.6624   5.6704
     5.7307   5.7445   5.7563   5.7918   5.8030   5.8148   5.8386   5.9223
     5.9530   5.9854   6.0038   6.0132   6.0265   6.0642   6.0694   6.0759
     6.0914   6.1006   6.1167   6.1204   6.1338   6.1507   6.1569   6.1744
     6.1813   6.1985   6.2070   6.2306   6.2353   6.2474   6.2635   6.2748
     6.2873   6.2922   6.3121   6.3304   6.3412   6.3623   6.3710   6.3743
     6.3842   6.4027   6.4078   6.4201   6.4432   6.4519   6.4612   6.4726
     6.4950   6.4992   6.5291   6.5394   6.5607   6.5950   6.6062   6.6213
     6.6230   6.6329   6.6412   6.6532   6.6568   6.6724   6.6885   6.7001
     6.7142   6.7275   6.7334   6.7394   6.7466   6.7563   6.7713   6.7822
     6.7870   6.8032   6.8122   6.8194   6.8265   6.8391   6.8482   6.8547
     6.8702   6.8744   6.8828   6.9000   6.9066   6.9198   6.9225   6.9402
     6.9491   6.9553   6.9618   6.9628   6.9655   6.9765   6.9896   6.9965
     6.9992   7.0168   7.0228   7.0372   7.0415   7.0517   7.0573   7.0688
     7.0740   7.0773   7.0926   7.1015   7.1100   7.1132   7.1223   7.1343
     7.1408   7.1451   7.1560   7.1672   7.1747   7.1825   7.1955   7.2055
     7.2113   7.2185   7.2254   7.2462   7.2516   7.2645   7.2707   7.2715
     7.2848   7.2914   7.3006   7.3118   7.3191   7.3286   7.3352   7.3405
     7.3480   7.3612   7.3848   7.3884   7.4015   7.4060   7.4227   7.4284
     7.4377   7.4426   7.4545   7.4605   7.4904   7.4936   7.4992   7.5032
     7.5326   7.5409   7.5571   7.5629   7.5864   7.6035   7.6209   7.6385
     7.6387   7.6695   7.6754   7.7489   7.7737   7.7945   7.8094   7.8139
     7.8191   7.8526   7.8648   7.8826   7.9161   7.9230   7.9276   7.9483
     7.9791   8.0088   8.0291   8.0405   8.0805   8.1985   8.2753   8.2993
    11.5697  11.5746  11.5968  12.5097  12.5795  12.5976  12.6461  12.6871
    12.7139  12.8697  12.9905  13.0617  13.0997  13.1286  13.1619  13.1935
    13.2367  13.2713  13.2821  13.2934  13.3157  13.3449  13.3938  13.4129
    13.4322  13.4717  13.4998  13.5097  13.5545  13.5845  13.6144  13.6531
    13.6857  13.7308  14.0057  14.0873  14.1319  14.1400  14.1742  14.1951
    14.2190  14.2463  14.2550  14.2787  14.2977  14.3069  14.3428  14.3528
    14.3803  14.4019  14.4054  14.4304  14.4389  14.4698  14.4947  14.5149
    14.5214  14.5432  14.5595  14.5930  14.6149  14.6234  14.6522  14.6931
    14.7029  14.7400  14.7523  14.7624  14.7778  14.8152  14.8283  14.8666
    14.8761  14.9119  14.9388  14.9566  15.0014  15.0161  15.0556  15.0779
    15.1142  15.1304  15.1356  15.1599  15.1836  15.2018  15.2205  15.2269
    15.2375  15.2807  15.2857  15.3217  15.3471  15.3546  15.3732  15.4011
    15.4056  15.4131  15.4255  15.4457  15.4539  15.4751

     occupation numbers 
     1.0000   1.0000   1.0000   1.0000   1.0000   1.0000   1.0000   1.0000
     1.0000   1.0000   1.0000   1.0000   1.0000   1.0000   1.0000   1.0000
     1.0000   1.0000   1.0000   1.0000   1.0000   1.0000   1.0000   1.0000
     1.0000   1.0000   1.0000   1.0000   1.0000   1.0000   1.0000   1.0000
     1.0000   1.0000   1.0000   1.0000   1.0000   1.0000   1.0000   1.0000
     1.0000   1.0000   1.0000   1.0000   1.0000   1.0000   1.0000   1.0000
     1.0000   1.0000   1.0000   1.0000   1.0000   1.0000   1.0000   1.0000
     1.0000   1.0000   1.0000   1.0000   1.0000   1.0000   1.0000   1.0000
     1.0000   1.0000   1.0000   1.0000   1.0000   1.0000   1.0000   1.0000
     1.0000   1.0000   1.0000   1.0000   1.0000   1.0000   1.0000   1.0000
     1.0000   1.0000   1.0000   1.0000   1.0000   1.0000   1.0000   1.0000
     1.0000   1.0000   1.0000   1.0000   1.0000   1.0000   1.0000   1.0000
     1.0000   1.0000   1.0000   1.0000   1.0000   1.0000   1.0000   1.0000
     1.0000   1.0000   1.0000   1.0000   1.0000   1.0000   1.0000   1.0000
     1.0000   1.0000   1.0000   1.0000   1.0000   1.0000   1.0000   1.0000
     1.0000   1.0000   1.0000   1.0000   1.0000   1.0000   1.0000   1.0000
     1.0000   1.0000   1.0000   1.0000   1.0000   1.0000   1.0000   1.0000
     1.0000   1.0000   1.0000   1.0000   1.0000   1.0000   1.0000   1.0000
     1.0000   1.0000   1.0000   1.0000   1.0000   1.0000   1.0000   1.0000
     1.0000   1.0000   1.0000   1.0000   1.0000   1.0000   1.0000   1.0000
     1.0000   1.0000   1.0000   1.0000   1.0000   1.0000   1.0000   1.0000
     1.0000   1.0000   1.0000   1.0000   1.0000   1.0000   1.0000   1.0000
     1.0000   1.0000   1.0000   1.0000   1.0000   1.0000   1.0000   1.0000
     1.0000   1.0000   1.0000   1.0000   1.0000   1.0000   1.0000   1.0000
     1.0000   1.0000   1.0000   1.0000   1.0000   1.0000   1.0000   1.0000
     1.0000   1.0000   1.0000   1.0000   1.0000   1.0000   1.0000   1.0000
     1.0000   1.0000   1.0000   1.0000   1.0000   1.0000   1.0000   1.0000
     1.0000   1.0000   1.0000   1.0000   1.0000   1.0000   1.0000   1.0000
     1.0000   1.0000   1.0000   1.0000   1.0000   1.0000   1.0000   1.0000
     1.0000   1.0000   1.0000   1.0000   1.0000   1.0000   1.0000   1.0000
     1.0000   1.0000   1.0000   1.0000   1.0000   1.0000   1.0000   1.0000
     1.0000   1.0000   1.0000   1.0000   1.0000   1.0000   1.0000   1.0000
     1.0000   1.0000   1.0000   1.0000   1.0000   1.0000   1.0000   1.0000
     1.0000   1.0000   1.0000   1.0000   1.0000   1.0000   1.0000   1.0000
     1.0000   1.0000   1.0000   1.0000   1.0000   1.0000   1.0000   1.0000
     1.0000   1.0000   1.0000   1.0000   1.0000   1.0000   1.0000   1.0000
     1.0000   1.0000   1.0000   1.0000   1.0000   1.0000   1.0000   1.0000
     1.0000   1.0000   1.0000   1.0000   1.0000   1.0000   1.0000   1.0000
     1.0000   1.0000   1.0000   1.0000   1.0000   1.0000   1.0000   1.0000
     1.0000   1.0000   1.0000   1.0000   1.0000   1.0000   1.0000   1.0000
     1.0000   1.0000   1.0000   1.0000   1.0000   1.0000   1.0000   1.0000
     1.0000   1.0000   1.0000   1.0000   1.0000   1.0000   1.0000   1.0000
     1.0000   1.0000   1.0000   1.0000   1.0000   1.0000   1.0000   1.0000
     1.0000   1.0000   1.0000   1.0000   1.0000   1.0000   1.0000   1.0000
     1.0000   1.0000   1.0000   1.0000   1.0000   1.0000   1.0000   1.0000
     1.0000   1.0000   1.0000   1.0000   1.0000   1.0000   1.0000   1.0000
     1.0000   1.0000   1.0000   1.0000   1.0000   1.0000   1.0000   1.0000
     1.0000   1.0000   1.0000   1.0000   1.0000   1.0000   1.0000   1.0000
     1.0000   1.0000   1.0000   1.0000   1.0000   1.0000   1.0000   1.0000
     1.0000   1.0000   1.0000   1.0000   1.0000   1.0000   1.0000   1.0000
     1.0000   1.0000   1.0000   1.0000   1.0000   1.0000   1.0000   1.0000
     1.0000   1.0000   1.0000   1.0000   1.0000   1.0000   1.0000   1.0000
     1.0000   1.0000   1.0000   1.0000   1.0000   1.0000   1.0000   1.0000
     1.0000   1.0000   1.0000   1.0000   1.0000   1.0000   1.0000   1.0000
     1.0000   1.0000   1.0000   1.0000   1.0000   1.0000   1.0000   1.0000
     1.0000   1.0000   1.0000   1.0000   1.0000   1.0000   1.0000   1.0000
     1.0000   1.0000   1.0000   1.0000   1.0000   1.0000   1.0000   1.0000
     1.0000   1.0000   1.0000   1.0000   1.0000   1.0000   1.0000   1.0000
     1.0000   1.0000   1.0000   1.0000   1.0000   1.0000   1.0000   1.0000
     1.0000   1.0000   1.0000   1.0000   1.0000   1.0000   1.0000   1.0000
     1.0000   1.0000   1.0000   1.0000   1.0000   1.0000   1.0000   1.0000
     1.0000   1.0000   1.0000   1.0000   1.0000   1.0000   1.0000   1.0000
     1.0000   1.0000   1.0000   1.0000   1.0000   1.0000   1.0000   1.0000
     1.0000   1.0000   1.0000   1.0000   1.0000   1.0000   1.0000   1.0000
     0.0000   0.0000   0.0000   0.0000   0.0000   0.0000   0.0000   0.0000
     0.0000   0.0000   0.0000   0.0000   0.0000   0.0000   0.0000   0.0000
     0.0000   0.0000   0.0000   0.0000   0.0000   0.0000   0.0000   0.0000
     0.0000   0.0000   0.0000   0.0000   0.0000   0.0000   0.0000   0.0000
     0.0000   0.0000   0.0000   0.0000   0.0000   0.0000   0.0000   0.0000
     0.0000   0.0000   0.0000   0.0000   0.0000   0.0000   0.0000   0.0000
     0.0000   0.0000   0.0000   0.0000   0.0000   0.0000   0.0000   0.0000
     0.0000   0.0000   0.0000   0.0000   0.0000   0.0000   0.0000   0.0000
     0.0000   0.0000   0.0000   0.0000   0.0000   0.0000   0.0000   0.0000
     0.0000   0.0000   0.0000   0.0000   0.0000   0.0000   0.0000   0.0000
     0.0000   0.0000   0.0000   0.0000   0.0000   0.0000   0.0000   0.0000
     0.0000   0.0000   0.0000   0.0000   0.0000   0.0000   0.0000   0.0000
     0.0000   0.0000   0.0000   0.0000   0.0000   0.0000

          k =-0.3498-0.3571 0.3531 ( 49196 PWs)   bands (ev):

   -29.9946 -29.8163 -29.5943 -29.5258 -29.4900 -29.4498 -29.4393 -29.4034
   -29.3840 -29.3766 -29.3585 -29.3208 -29.3119 -29.3007 -29.2945 -29.2492
   -29.2226 -29.2192 -29.2165 -29.2119 -29.1995 -29.1808 -29.1775 -29.1394
   -29.1371 -29.1055 -29.0674 -29.0644 -29.0564 -29.0409 -29.0373 -29.0308
   -29.0143 -29.0045 -28.9720 -28.9642 -28.9572 -28.9550 -28.9356 -28.9280
   -28.9268 -28.9244 -28.9101 -28.9086 -28.9000 -28.8926 -28.8687 -28.8372
   -28.8289 -28.8266 -28.8207 -28.7955 -28.7464 -28.6638 -28.6570 -28.6545
   -28.6189 -28.5681 -28.5564 -28.5175 -28.4776 -28.4438 -28.1664 -28.1276
   -11.6479 -11.6236 -11.5232 -11.4973 -11.4956 -11.4105 -11.3859 -11.3718
   -11.3230 -11.3035 -11.2730 -11.2549 -11.2467 -11.2326 -11.2136 -11.1989
   -11.1780 -11.1364 -11.1308 -11.1001 -11.0791 -11.0592 -11.0527 -11.0377
   -11.0263 -11.0242 -11.0025 -10.9875 -10.9712 -10.9656 -10.9470 -10.9331
   -10.9283 -10.9179 -10.9063 -10.8881 -10.8845 -10.8704 -10.8622 -10.8489
   -10.8418 -10.8312 -10.8236 -10.8071 -10.7954 -10.7869 -10.7788 -10.7712
   -10.7608 -10.7441 -10.7359 -10.7143 -10.7023 -10.6942 -10.6795 -10.6706
   -10.6636 -10.6502 -10.6480 -10.6379 -10.6306 -10.6053 -10.6006 -10.5889
   -10.5836 -10.5669 -10.5528 -10.5430 -10.5391 -10.5297 -10.5237 -10.5106
   -10.5062 -10.5000 -10.4891 -10.4850 -10.4769 -10.4649 -10.4600 -10.4514
   -10.4476 -10.4415 -10.4314 -10.4267 -10.4177 -10.4078 -10.4039 -10.3984
   -10.3938 -10.3868 -10.3738 -10.3706 -10.3662 -10.3548 -10.3504 -10.3432
   -10.3400 -10.3385 -10.3285 -10.3178 -10.3137 -10.3092 -10.3074 -10.2964
   -10.2805 -10.2778 -10.2742 -10.2704 -10.2673 -10.2519 -10.2471 -10.2401
   -10.2372 -10.2239 -10.2219 -10.2130 -10.2058 -10.2001 -10.1926 -10.1896
   -10.1863 -10.1773 -10.1700 -10.1653 -10.1587 -10.1546 -10.1494 -10.1429
   -10.1377 -10.1337 -10.1213 -10.1158 -10.1145 -10.1043 -10.0998 -10.0944
   -10.0869 -10.0830 -10.0752 -10.0713 -10.0658 -10.0580 -10.0571 -10.0522
   -10.0470 -10.0392 -10.0372 -10.0303 -10.0279 -10.0184 -10.0170 -10.0093
   -10.0020  -9.9979  -9.9927  -9.9867  -9.9823  -9.9684  -9.9590  -9.9536
    -9.9395  -9.9230  -9.9126  -9.8998  -9.8879  -9.8770  -9.8718  -9.8542
    -9.8537  -9.8469  -9.8357  -9.8342  -9.8258  -9.8132  -9.8104  -9.7959
    -9.7889  -9.7783  -9.7723  -9.7671  -9.7507  -9.7386  -9.7052  -9.7003
    -9.6675  -9.6355  -9.5172  -9.4867  -9.4705  -9.4619  -9.3893  -9.3523
    -7.2930  -7.1904  -7.1737  -7.0929  -7.0707  -7.0510  -7.0257  -6.9957
    -6.9328  -6.9277  -6.8909  -6.8667  -6.8401  -6.8318  -6.7961  -6.7776
    -6.7628  -6.7422  -6.7383  -6.6891  -6.6804  -6.6597  -6.6230  -6.6172
    -6.5988  -6.5881  -6.5839  -6.5653  -6.5567  -6.5377  -6.5343  -6.5018
    -6.4814  -6.4736  -6.4492  -6.4223  -6.4086  -6.4049  -6.3851  -6.3513
    -6.3403  -6.3247  -6.3169  -6.3014  -6.2952  -6.2463  -6.2401  -6.2350
    -6.2033  -6.1765  -6.1686  -6.1537  -6.1304  -6.1124  -6.0642  -6.0321
    -6.0313  -6.0179  -5.9669  -5.9557  -5.9406  -5.8951  -5.7540  -5.7306
     5.3269   5.3317   5.3648   5.4135   5.5339   5.5484   5.5734   5.5931
     5.6644   5.6895   5.7102   5.7206   5.7567   5.8306   5.8407   5.8762
     5.8821   5.9022   5.9205   5.9411   5.9582   5.9625   5.9865   5.9901
     6.0157   6.0301   6.0406   6.0545   6.0704   6.0934   6.1108   6.1408
     6.1569   6.1776   6.2090   6.2239   6.2556   6.2661   6.2898   6.3179
     6.3429   6.3469   6.3592   6.3732   6.3751   6.3951   6.3958   6.4097
     6.4147   6.4327   6.4568   6.4723   6.4761   6.4849   6.4960   6.5037
     6.5159   6.5341   6.5423   6.5588   6.5864   6.6031   6.6170   6.6286
     6.6375   6.6473   6.6583   6.6648   6.6765   6.6921   6.6978   6.7067
     6.7190   6.7234   6.7298   6.7466   6.7611   6.7808   6.7822   6.7954
     6.8068   6.8139   6.8151   6.8316   6.8417   6.8502   6.8513   6.8662
     6.8762   6.8816   6.8859   6.9017   6.9102   6.9189   6.9240   6.9367
     6.9412   6.9520   6.9540   6.9659   6.9728   6.9790   6.9930   7.0003
     7.0150   7.0285   7.0308   7.0369   7.0412   7.0522   7.0578   7.0770
     7.0855   7.0947   7.0975   7.1033   7.1099   7.1172   7.1315   7.1384
     7.1449   7.1547   7.1682   7.1769   7.1859   7.1961   7.2048   7.2227
     7.2285   7.2326   7.2365   7.2540   7.2594   7.2769   7.2798   7.2821
     7.2903   7.2961   7.3053   7.3210   7.3260   7.3438   7.3530   7.3705
     7.3811   7.3855   7.4121   7.4178   7.4294   7.4453   7.4529   7.4622
     7.4799   7.4919   7.5024   7.5059   7.5323   7.5483   7.5503   7.5593
     7.5727   7.5751   7.6019   7.6051   7.6199   7.6357   7.6421   7.6547
     7.6629   7.6749   7.6868   7.6991   7.7218   7.7332   7.7367   7.7699
     7.7702   7.7998   7.8168   7.8295   7.8461   7.8533   7.8706   7.8874
     7.9054   7.9367   7.9557   7.9645   8.0459   8.0738   8.1339   8.2226
    11.9060  11.9453  11.9888  12.1763  12.1961  12.2539  12.5107  12.5220
    12.5709  12.6392  12.7209  12.7595  13.1976  13.2129  13.3198  13.3397
    13.3773  13.3918  13.4161  13.4590  13.4732  13.4814  13.5157  13.5486
    13.5510  13.5910  13.5993  13.6198  13.6592  13.6897  13.7218  13.7755
    13.8263  13.8405  13.8707  13.8926  13.9455  13.9483  13.9820  13.9975
    14.0203  14.0441  14.0863  14.1148  14.1833  14.1995  14.2402  14.2886
    14.3125  14.3408  14.3856  14.4041  14.4370  14.4640  14.4740  14.5302
    14.5381  14.5679  14.5771  14.6114  14.6154  14.6423  14.6549  14.6668
    14.6970  14.7121  14.7376  14.7817  14.8151  14.8274  14.8432  14.8569
    14.9295  14.9636  14.9734  14.9846  15.1175  15.1643  15.1742  15.2176
    15.2331  15.2423  15.2703  15.2821  15.3008  15.3157  15.3414  15.3638
    15.3803  15.3809  15.4062  15.4188  15.4354  15.4478  15.4539  15.4657
    15.4745  15.4920  15.4965  15.5048  15.5170  15.5335

     occupation numbers 
     1.0000   1.0000   1.0000   1.0000   1.0000   1.0000   1.0000   1.0000
     1.0000   1.0000   1.0000   1.0000   1.0000   1.0000   1.0000   1.0000
     1.0000   1.0000   1.0000   1.0000   1.0000   1.0000   1.0000   1.0000
     1.0000   1.0000   1.0000   1.0000   1.0000   1.0000   1.0000   1.0000
     1.0000   1.0000   1.0000   1.0000   1.0000   1.0000   1.0000   1.0000
     1.0000   1.0000   1.0000   1.0000   1.0000   1.0000   1.0000   1.0000
     1.0000   1.0000   1.0000   1.0000   1.0000   1.0000   1.0000   1.0000
     1.0000   1.0000   1.0000   1.0000   1.0000   1.0000   1.0000   1.0000
     1.0000   1.0000   1.0000   1.0000   1.0000   1.0000   1.0000   1.0000
     1.0000   1.0000   1.0000   1.0000   1.0000   1.0000   1.0000   1.0000
     1.0000   1.0000   1.0000   1.0000   1.0000   1.0000   1.0000   1.0000
     1.0000   1.0000   1.0000   1.0000   1.0000   1.0000   1.0000   1.0000
     1.0000   1.0000   1.0000   1.0000   1.0000   1.0000   1.0000   1.0000
     1.0000   1.0000   1.0000   1.0000   1.0000   1.0000   1.0000   1.0000
     1.0000   1.0000   1.0000   1.0000   1.0000   1.0000   1.0000   1.0000
     1.0000   1.0000   1.0000   1.0000   1.0000   1.0000   1.0000   1.0000
     1.0000   1.0000   1.0000   1.0000   1.0000   1.0000   1.0000   1.0000
     1.0000   1.0000   1.0000   1.0000   1.0000   1.0000   1.0000   1.0000
     1.0000   1.0000   1.0000   1.0000   1.0000   1.0000   1.0000   1.0000
     1.0000   1.0000   1.0000   1.0000   1.0000   1.0000   1.0000   1.0000
     1.0000   1.0000   1.0000   1.0000   1.0000   1.0000   1.0000   1.0000
     1.0000   1.0000   1.0000   1.0000   1.0000   1.0000   1.0000   1.0000
     1.0000   1.0000   1.0000   1.0000   1.0000   1.0000   1.0000   1.0000
     1.0000   1.0000   1.0000   1.0000   1.0000   1.0000   1.0000   1.0000
     1.0000   1.0000   1.0000   1.0000   1.0000   1.0000   1.0000   1.0000
     1.0000   1.0000   1.0000   1.0000   1.0000   1.0000   1.0000   1.0000
     1.0000   1.0000   1.0000   1.0000   1.0000   1.0000   1.0000   1.0000
     1.0000   1.0000   1.0000   1.0000   1.0000   1.0000   1.0000   1.0000
     1.0000   1.0000   1.0000   1.0000   1.0000   1.0000   1.0000   1.0000
     1.0000   1.0000   1.0000   1.0000   1.0000   1.0000   1.0000   1.0000
     1.0000   1.0000   1.0000   1.0000   1.0000   1.0000   1.0000   1.0000
     1.0000   1.0000   1.0000   1.0000   1.0000   1.0000   1.0000   1.0000
     1.0000   1.0000   1.0000   1.0000   1.0000   1.0000   1.0000   1.0000
     1.0000   1.0000   1.0000   1.0000   1.0000   1.0000   1.0000   1.0000
     1.0000   1.0000   1.0000   1.0000   1.0000   1.0000   1.0000   1.0000
     1.0000   1.0000   1.0000   1.0000   1.0000   1.0000   1.0000   1.0000
     1.0000   1.0000   1.0000   1.0000   1.0000   1.0000   1.0000   1.0000
     1.0000   1.0000   1.0000   1.0000   1.0000   1.0000   1.0000   1.0000
     1.0000   1.0000   1.0000   1.0000   1.0000   1.0000   1.0000   1.0000
     1.0000   1.0000   1.0000   1.0000   1.0000   1.0000   1.0000   1.0000
     1.0000   1.0000   1.0000   1.0000   1.0000   1.0000   1.0000   1.0000
     1.0000   1.0000   1.0000   1.0000   1.0000   1.0000   1.0000   1.0000
     1.0000   1.0000   1.0000   1.0000   1.0000   1.0000   1.0000   1.0000
     1.0000   1.0000   1.0000   1.0000   1.0000   1.0000   1.0000   1.0000
     1.0000   1.0000   1.0000   1.0000   1.0000   1.0000   1.0000   1.0000
     1.0000   1.0000   1.0000   1.0000   1.0000   1.0000   1.0000   1.0000
     1.0000   1.0000   1.0000   1.0000   1.0000   1.0000   1.0000   1.0000
     1.0000   1.0000   1.0000   1.0000   1.0000   1.0000   1.0000   1.0000
     1.0000   1.0000   1.0000   1.0000   1.0000   1.0000   1.0000   1.0000
     1.0000   1.0000   1.0000   1.0000   1.0000   1.0000   1.0000   1.0000
     1.0000   1.0000   1.0000   1.0000   1.0000   1.0000   1.0000   1.0000
     1.0000   1.0000   1.0000   1.0000   1.0000   1.0000   1.0000   1.0000
     1.0000   1.0000   1.0000   1.0000   1.0000   1.0000   1.0000   1.0000
     1.0000   1.0000   1.0000   1.0000   1.0000   1.0000   1.0000   1.0000
     1.0000   1.0000   1.0000   1.0000   1.0000   1.0000   1.0000   1.0000
     1.0000   1.0000   1.0000   1.0000   1.0000   1.0000   1.0000   1.0000
     1.0000   1.0000   1.0000   1.0000   1.0000   1.0000   1.0000   1.0000
     1.0000   1.0000   1.0000   1.0000   1.0000   1.0000   1.0000   1.0000
     1.0000   1.0000   1.0000   1.0000   1.0000   1.0000   1.0000   1.0000
     1.0000   1.0000   1.0000   1.0000   1.0000   1.0000   1.0000   1.0000
     1.0000   1.0000   1.0000   1.0000   1.0000   1.0000   1.0000   1.0000
     1.0000   1.0000   1.0000   1.0000   1.0000   1.0000   1.0000   1.0000
     1.0000   1.0000   1.0000   1.0000   1.0000   1.0000   1.0000   1.0000
     1.0000   1.0000   1.0000   1.0000   1.0000   1.0000   1.0000   1.0000
     0.0000   0.0000   0.0000   0.0000   0.0000   0.0000   0.0000   0.0000
     0.0000   0.0000   0.0000   0.0000   0.0000   0.0000   0.0000   0.0000
     0.0000   0.0000   0.0000   0.0000   0.0000   0.0000   0.0000   0.0000
     0.0000   0.0000   0.0000   0.0000   0.0000   0.0000   0.0000   0.0000
     0.0000   0.0000   0.0000   0.0000   0.0000   0.0000   0.0000   0.0000
     0.0000   0.0000   0.0000   0.0000   0.0000   0.0000   0.0000   0.0000
     0.0000   0.0000   0.0000   0.0000   0.0000   0.0000   0.0000   0.0000
     0.0000   0.0000   0.0000   0.0000   0.0000   0.0000   0.0000   0.0000
     0.0000   0.0000   0.0000   0.0000   0.0000   0.0000   0.0000   0.0000
     0.0000   0.0000   0.0000   0.0000   0.0000   0.0000   0.0000   0.0000
     0.0000   0.0000   0.0000   0.0000   0.0000   0.0000   0.0000   0.0000
     0.0000   0.0000   0.0000   0.0000   0.0000   0.0000   0.0000   0.0000
     0.0000   0.0000   0.0000   0.0000   0.0000   0.0000

          k =-0.3599 0.3564-0.3503 ( 49218 PWs)   bands (ev):

   -29.9946 -29.8163 -29.5943 -29.5258 -29.4900 -29.4498 -29.4394 -29.4033
   -29.3841 -29.3765 -29.3585 -29.3208 -29.3122 -29.3002 -29.2945 -29.2499
   -29.2222 -29.2189 -29.2165 -29.2122 -29.1995 -29.1810 -29.1775 -29.1394
   -29.1370 -29.1054 -29.0674 -29.0645 -29.0565 -29.0409 -29.0373 -29.0308
   -29.0143 -29.0045 -28.9721 -28.9643 -28.9572 -28.9551 -28.9356 -28.9278
   -28.9260 -28.9250 -28.9112 -28.9075 -28.9003 -28.8926 -28.8687 -28.8372
   -28.8288 -28.8267 -28.8207 -28.7955 -28.7464 -28.6639 -28.6570 -28.6545
   -28.6189 -28.5681 -28.5564 -28.5175 -28.4776 -28.4438 -28.1664 -28.1276
   -11.6274 -11.5971 -11.5655 -11.5027 -11.4913 -11.4521 -11.4073 -11.3920
   -11.3579 -11.2835 -11.2358 -11.2233 -11.2082 -11.1966 -11.1908 -11.1687
   -11.1618 -11.1467 -11.1373 -11.0896 -11.0803 -11.0701 -11.0635 -11.0437
   -11.0389 -11.0331 -11.0200 -10.9930 -10.9798 -10.9740 -10.9586 -10.9572
   -10.9364 -10.9225 -10.9154 -10.9027 -10.8945 -10.8850 -10.8561 -10.8487
   -10.8428 -10.8395 -10.8181 -10.8061 -10.7926 -10.7866 -10.7774 -10.7478
   -10.7378 -10.7271 -10.7200 -10.7133 -10.7029 -10.6894 -10.6802 -10.6689
   -10.6654 -10.6474 -10.6441 -10.6247 -10.6197 -10.6135 -10.6057 -10.5985
   -10.5751 -10.5696 -10.5617 -10.5601 -10.5409 -10.5359 -10.5294 -10.5177
   -10.5144 -10.5055 -10.4950 -10.4925 -10.4807 -10.4607 -10.4594 -10.4473
   -10.4470 -10.4408 -10.4278 -10.4251 -10.4158 -10.4088 -10.4031 -10.3941
   -10.3902 -10.3795 -10.3721 -10.3679 -10.3669 -10.3583 -10.3451 -10.3392
   -10.3375 -10.3323 -10.3207 -10.3200 -10.3157 -10.3084 -10.3012 -10.2988
   -10.2953 -10.2883 -10.2796 -10.2676 -10.2616 -10.2561 -10.2526 -10.2435
   -10.2352 -10.2256 -10.2204 -10.2134 -10.2055 -10.1967 -10.1944 -10.1881
   -10.1856 -10.1828 -10.1666 -10.1624 -10.1583 -10.1472 -10.1409 -10.1346
   -10.1301 -10.1252 -10.1209 -10.1163 -10.1139 -10.1116 -10.1073 -10.0965
   -10.0866 -10.0830 -10.0790 -10.0739 -10.0661 -10.0603 -10.0563 -10.0468
   -10.0444 -10.0365 -10.0312 -10.0257 -10.0226 -10.0136 -10.0115 -10.0044
    -9.9988  -9.9922  -9.9913  -9.9843  -9.9810  -9.9773  -9.9706  -9.9554
    -9.9537  -9.9370  -9.9137  -9.8913  -9.8803  -9.8774  -9.8667  -9.8628
    -9.8589  -9.8501  -9.8441  -9.8357  -9.8236  -9.8221  -9.8110  -9.8013
    -9.7858  -9.7823  -9.7697  -9.7635  -9.7362  -9.7243  -9.7072  -9.6910
    -9.6745  -9.6308  -9.5394  -9.4894  -9.4740  -9.4662  -9.3988  -9.3339
    -7.2514  -7.2356  -7.1505  -7.1249  -7.1066  -7.0613  -7.0423  -6.9717
    -6.9484  -6.8616  -6.8592  -6.8398  -6.8263  -6.8082  -6.7930  -6.7874
    -6.7570  -6.7453  -6.7259  -6.7141  -6.6974  -6.6811  -6.6606  -6.6377
    -6.6190  -6.5941  -6.5722  -6.5505  -6.5471  -6.5374  -6.5314  -6.5190
    -6.4902  -6.4632  -6.4600  -6.4137  -6.4096  -6.4053  -6.3901  -6.3453
    -6.3406  -6.3213  -6.2976  -6.2864  -6.2827  -6.2534  -6.2450  -6.2355
    -6.2239  -6.1889  -6.1846  -6.1703  -6.0833  -6.0772  -6.0522  -6.0437
    -6.0370  -6.0205  -5.9824  -5.9581  -5.9534  -5.8867  -5.7565  -5.7282
     5.3647   5.3918   5.4085   5.4213   5.4353   5.4603   5.4769   5.5144
     5.7568   5.7651   5.7888   5.8068   5.8142   5.8410   5.8424   5.8571
     5.8767   5.8834   5.9103   5.9232   5.9336   5.9453   5.9809   5.9890
     6.0114   6.0349   6.0359   6.0510   6.0539   6.0873   6.0916   6.1246
     6.1485   6.1767   6.1941   6.2078   6.2406   6.2526   6.2953   6.3104
     6.3466   6.3513   6.3652   6.3734   6.3912   6.3951   6.4170   6.4229
     6.4287   6.4359   6.4440   6.4565   6.4697   6.4722   6.5035   6.5155
     6.5166   6.5383   6.5526   6.5675   6.5795   6.5904   6.6047   6.6153
     6.6294   6.6365   6.6535   6.6619   6.6772   6.6861   6.7001   6.7042
     6.7213   6.7277   6.7347   6.7471   6.7581   6.7688   6.7791   6.7915
     6.8028   6.8146   6.8292   6.8378   6.8432   6.8547   6.8611   6.8691
     6.8749   6.8791   6.8844   6.9062   6.9105   6.9147   6.9170   6.9373
     6.9454   6.9624   6.9712   6.9814   6.9833   6.9939   6.9963   7.0118
     7.0160   7.0191   7.0211   7.0371   7.0478   7.0538   7.0557   7.0681
     7.0741   7.0765   7.0953   7.1033   7.1107   7.1189   7.1250   7.1417
     7.1503   7.1523   7.1631   7.1806   7.1916   7.2026   7.2073   7.2149
     7.2224   7.2298   7.2359   7.2402   7.2575   7.2649   7.2755   7.2809
     7.2862   7.2975   7.3124   7.3160   7.3390   7.3459   7.3635   7.3668
     7.3802   7.3881   7.4024   7.4168   7.4213   7.4437   7.4643   7.4716
     7.4865   7.4981   7.5092   7.5299   7.5454   7.5492   7.5669   7.5709
     7.5900   7.6000   7.6071   7.6109   7.6194   7.6253   7.6493   7.6506
     7.6605   7.6770   7.6913   7.7016   7.7148   7.7204   7.7331   7.7459
     7.7695   7.7872   7.7973   7.8215   7.8266   7.8645   7.8734   7.8974
     7.9156   7.9255   7.9751   7.9760   8.0316   8.0415   8.1459   8.1984
    11.9850  12.0115  12.0283  12.0730  12.1239  12.1600  12.5238  12.5463
    12.6131  12.6519  12.6986  12.7513  13.1700  13.2514  13.2955  13.3410
    13.3763  13.3990  13.4315  13.4626  13.4782  13.5104  13.5378  13.5544
    13.5551  13.5798  13.5875  13.6202  13.6668  13.6725  13.7123  13.7599
    13.8032  13.8633  13.8730  13.8872  13.9213  13.9519  13.9700  14.0062
    14.0310  14.0452  14.0991  14.1643  14.1802  14.1843  14.2348  14.2734
    14.3461  14.3556  14.3761  14.3863  14.4368  14.4611  14.4738  14.5098
    14.5235  14.5647  14.5910  14.6080  14.6198  14.6371  14.6458  14.6668
    14.7032  14.7156  14.7497  14.7519  14.7744  14.8377  14.8661  14.8968
    14.9239  14.9529  14.9731  15.0295  15.1182  15.1476  15.1738  15.2158
    15.2452  15.2579  15.2639  15.2758  15.3088  15.3257  15.3482  15.3605
    15.3718  15.3787  15.3919  15.4078  15.4210  15.4422  15.4583  15.4681
    15.4837  15.4942  15.5034  15.5090  15.5400  15.5498

     occupation numbers 
     1.0000   1.0000   1.0000   1.0000   1.0000   1.0000   1.0000   1.0000
     1.0000   1.0000   1.0000   1.0000   1.0000   1.0000   1.0000   1.0000
     1.0000   1.0000   1.0000   1.0000   1.0000   1.0000   1.0000   1.0000
     1.0000   1.0000   1.0000   1.0000   1.0000   1.0000   1.0000   1.0000
     1.0000   1.0000   1.0000   1.0000   1.0000   1.0000   1.0000   1.0000
     1.0000   1.0000   1.0000   1.0000   1.0000   1.0000   1.0000   1.0000
     1.0000   1.0000   1.0000   1.0000   1.0000   1.0000   1.0000   1.0000
     1.0000   1.0000   1.0000   1.0000   1.0000   1.0000   1.0000   1.0000
     1.0000   1.0000   1.0000   1.0000   1.0000   1.0000   1.0000   1.0000
     1.0000   1.0000   1.0000   1.0000   1.0000   1.0000   1.0000   1.0000
     1.0000   1.0000   1.0000   1.0000   1.0000   1.0000   1.0000   1.0000
     1.0000   1.0000   1.0000   1.0000   1.0000   1.0000   1.0000   1.0000
     1.0000   1.0000   1.0000   1.0000   1.0000   1.0000   1.0000   1.0000
     1.0000   1.0000   1.0000   1.0000   1.0000   1.0000   1.0000   1.0000
     1.0000   1.0000   1.0000   1.0000   1.0000   1.0000   1.0000   1.0000
     1.0000   1.0000   1.0000   1.0000   1.0000   1.0000   1.0000   1.0000
     1.0000   1.0000   1.0000   1.0000   1.0000   1.0000   1.0000   1.0000
     1.0000   1.0000   1.0000   1.0000   1.0000   1.0000   1.0000   1.0000
     1.0000   1.0000   1.0000   1.0000   1.0000   1.0000   1.0000   1.0000
     1.0000   1.0000   1.0000   1.0000   1.0000   1.0000   1.0000   1.0000
     1.0000   1.0000   1.0000   1.0000   1.0000   1.0000   1.0000   1.0000
     1.0000   1.0000   1.0000   1.0000   1.0000   1.0000   1.0000   1.0000
     1.0000   1.0000   1.0000   1.0000   1.0000   1.0000   1.0000   1.0000
     1.0000   1.0000   1.0000   1.0000   1.0000   1.0000   1.0000   1.0000
     1.0000   1.0000   1.0000   1.0000   1.0000   1.0000   1.0000   1.0000
     1.0000   1.0000   1.0000   1.0000   1.0000   1.0000   1.0000   1.0000
     1.0000   1.0000   1.0000   1.0000   1.0000   1.0000   1.0000   1.0000
     1.0000   1.0000   1.0000   1.0000   1.0000   1.0000   1.0000   1.0000
     1.0000   1.0000   1.0000   1.0000   1.0000   1.0000   1.0000   1.0000
     1.0000   1.0000   1.0000   1.0000   1.0000   1.0000   1.0000   1.0000
     1.0000   1.0000   1.0000   1.0000   1.0000   1.0000   1.0000   1.0000
     1.0000   1.0000   1.0000   1.0000   1.0000   1.0000   1.0000   1.0000
     1.0000   1.0000   1.0000   1.0000   1.0000   1.0000   1.0000   1.0000
     1.0000   1.0000   1.0000   1.0000   1.0000   1.0000   1.0000   1.0000
     1.0000   1.0000   1.0000   1.0000   1.0000   1.0000   1.0000   1.0000
     1.0000   1.0000   1.0000   1.0000   1.0000   1.0000   1.0000   1.0000
     1.0000   1.0000   1.0000   1.0000   1.0000   1.0000   1.0000   1.0000
     1.0000   1.0000   1.0000   1.0000   1.0000   1.0000   1.0000   1.0000
     1.0000   1.0000   1.0000   1.0000   1.0000   1.0000   1.0000   1.0000
     1.0000   1.0000   1.0000   1.0000   1.0000   1.0000   1.0000   1.0000
     1.0000   1.0000   1.0000   1.0000   1.0000   1.0000   1.0000   1.0000
     1.0000   1.0000   1.0000   1.0000   1.0000   1.0000   1.0000   1.0000
     1.0000   1.0000   1.0000   1.0000   1.0000   1.0000   1.0000   1.0000
     1.0000   1.0000   1.0000   1.0000   1.0000   1.0000   1.0000   1.0000
     1.0000   1.0000   1.0000   1.0000   1.0000   1.0000   1.0000   1.0000
     1.0000   1.0000   1.0000   1.0000   1.0000   1.0000   1.0000   1.0000
     1.0000   1.0000   1.0000   1.0000   1.0000   1.0000   1.0000   1.0000
     1.0000   1.0000   1.0000   1.0000   1.0000   1.0000   1.0000   1.0000
     1.0000   1.0000   1.0000   1.0000   1.0000   1.0000   1.0000   1.0000
     1.0000   1.0000   1.0000   1.0000   1.0000   1.0000   1.0000   1.0000
     1.0000   1.0000   1.0000   1.0000   1.0000   1.0000   1.0000   1.0000
     1.0000   1.0000   1.0000   1.0000   1.0000   1.0000   1.0000   1.0000
     1.0000   1.0000   1.0000   1.0000   1.0000   1.0000   1.0000   1.0000
     1.0000   1.0000   1.0000   1.0000   1.0000   1.0000   1.0000   1.0000
     1.0000   1.0000   1.0000   1.0000   1.0000   1.0000   1.0000   1.0000
     1.0000   1.0000   1.0000   1.0000   1.0000   1.0000   1.0000   1.0000
     1.0000   1.0000   1.0000   1.0000   1.0000   1.0000   1.0000   1.0000
     1.0000   1.0000   1.0000   1.0000   1.0000   1.0000   1.0000   1.0000
     1.0000   1.0000   1.0000   1.0000   1.0000   1.0000   1.0000   1.0000
     1.0000   1.0000   1.0000   1.0000   1.0000   1.0000   1.0000   1.0000
     1.0000   1.0000   1.0000   1.0000   1.0000   1.0000   1.0000   1.0000
     1.0000   1.0000   1.0000   1.0000   1.0000   1.0000   1.0000   1.0000
     1.0000   1.0000   1.0000   1.0000   1.0000   1.0000   1.0000   1.0000
     1.0000   1.0000   1.0000   1.0000   1.0000   1.0000   1.0000   1.0000
     0.0000   0.0000   0.0000   0.0000   0.0000   0.0000   0.0000   0.0000
     0.0000   0.0000   0.0000   0.0000   0.0000   0.0000   0.0000   0.0000
     0.0000   0.0000   0.0000   0.0000   0.0000   0.0000   0.0000   0.0000
     0.0000   0.0000   0.0000   0.0000   0.0000   0.0000   0.0000   0.0000
     0.0000   0.0000   0.0000   0.0000   0.0000   0.0000   0.0000   0.0000
     0.0000   0.0000   0.0000   0.0000   0.0000   0.0000   0.0000   0.0000
     0.0000   0.0000   0.0000   0.0000   0.0000   0.0000   0.0000   0.0000
     0.0000   0.0000   0.0000   0.0000   0.0000   0.0000   0.0000   0.0000
     0.0000   0.0000   0.0000   0.0000   0.0000   0.0000   0.0000   0.0000
     0.0000   0.0000   0.0000   0.0000   0.0000   0.0000   0.0000   0.0000
     0.0000   0.0000   0.0000   0.0000   0.0000   0.0000   0.0000   0.0000
     0.0000   0.0000   0.0000   0.0000   0.0000   0.0000   0.0000   0.0000
     0.0000   0.0000   0.0000   0.0000   0.0000   0.0000

          k =-0.7097-0.0007 0.0028 ( 49188 PWs)   bands (ev):

   -29.9946 -29.8163 -29.5943 -29.5258 -29.4900 -29.4500 -29.4392 -29.4030
   -29.3844 -29.3765 -29.3584 -29.3208 -29.3120 -29.3007 -29.2945 -29.2494
   -29.2222 -29.2191 -29.2163 -29.2124 -29.1994 -29.1810 -29.1775 -29.1394
   -29.1371 -29.1054 -29.0674 -29.0644 -29.0566 -29.0409 -29.0373 -29.0308
   -29.0143 -29.0045 -28.9719 -28.9645 -28.9571 -28.9550 -28.9357 -28.9276
   -28.9266 -28.9247 -28.9113 -28.9075 -28.9003 -28.8926 -28.8686 -28.8372
   -28.8288 -28.8268 -28.8207 -28.7955 -28.7464 -28.6639 -28.6569 -28.6545
   -28.6189 -28.5681 -28.5564 -28.5175 -28.4776 -28.4438 -28.1664 -28.1276
   -11.6249 -11.5937 -11.5648 -11.4978 -11.4849 -11.4452 -11.4054 -11.3826
   -11.3429 -11.2838 -11.2578 -11.2481 -11.2199 -11.2129 -11.2005 -11.1806
   -11.1664 -11.1521 -11.1193 -11.1045 -11.0971 -11.0789 -11.0775 -11.0495
   -11.0245 -11.0197 -11.0046 -10.9915 -10.9805 -10.9608 -10.9448 -10.9389
   -10.9249 -10.9192 -10.9176 -10.9049 -10.8892 -10.8725 -10.8680 -10.8588
   -10.8449 -10.8317 -10.8111 -10.8082 -10.7987 -10.7929 -10.7780 -10.7571
   -10.7390 -10.7356 -10.7289 -10.7172 -10.7035 -10.6985 -10.6856 -10.6651
   -10.6579 -10.6481 -10.6393 -10.6278 -10.6174 -10.6118 -10.6014 -10.5942
   -10.5874 -10.5782 -10.5646 -10.5520 -10.5451 -10.5367 -10.5296 -10.5246
   -10.5034 -10.4954 -10.4865 -10.4783 -10.4625 -10.4605 -10.4539 -10.4517
   -10.4426 -10.4299 -10.4262 -10.4212 -10.4107 -10.4105 -10.4046 -10.3959
   -10.3879 -10.3817 -10.3764 -10.3693 -10.3659 -10.3539 -10.3523 -10.3429
   -10.3419 -10.3345 -10.3260 -10.3206 -10.3162 -10.3043 -10.3031 -10.2984
   -10.2876 -10.2852 -10.2741 -10.2691 -10.2652 -10.2523 -10.2452 -10.2346
   -10.2315 -10.2289 -10.2185 -10.2155 -10.2016 -10.1971 -10.1910 -10.1845
   -10.1792 -10.1757 -10.1741 -10.1659 -10.1557 -10.1495 -10.1398 -10.1370
   -10.1320 -10.1272 -10.1202 -10.1141 -10.1048 -10.1031 -10.0998 -10.0954
   -10.0904 -10.0887 -10.0789 -10.0732 -10.0706 -10.0653 -10.0560 -10.0476
   -10.0462 -10.0361 -10.0349 -10.0297 -10.0218 -10.0206 -10.0161 -10.0050
    -9.9992  -9.9976  -9.9923  -9.9848  -9.9821  -9.9627  -9.9598  -9.9534
    -9.9505  -9.9337  -9.9137  -9.9069  -9.9059  -9.8883  -9.8755  -9.8697
    -9.8662  -9.8550  -9.8480  -9.8351  -9.8195  -9.8100  -9.8036  -9.8008
    -9.7886  -9.7766  -9.7698  -9.7666  -9.7510  -9.7240  -9.7054  -9.6978
    -9.6729  -9.6267  -9.5227  -9.4907  -9.4712  -9.4655  -9.3986  -9.3510
    -7.2338  -7.1978  -7.1514  -7.1066  -7.0807  -7.0430  -7.0032  -6.9808
    -6.9475  -6.9228  -6.9123  -6.8694  -6.8490  -6.8376  -6.8164  -6.7940
    -6.7508  -6.7396  -6.7281  -6.6997  -6.6787  -6.6697  -6.6415  -6.6195
    -6.6068  -6.5843  -6.5746  -6.5699  -6.5610  -6.5374  -6.5300  -6.5155
    -6.5073  -6.4900  -6.4669  -6.4553  -6.4042  -6.3856  -6.3787  -6.3508
    -6.3344  -6.3267  -6.3016  -6.2873  -6.2678  -6.2431  -6.2381  -6.2234
    -6.2136  -6.1846  -6.1737  -6.1360  -6.1123  -6.0869  -6.0784  -6.0388
    -6.0150  -6.0070  -5.9744  -5.9569  -5.9496  -5.8925  -5.7634  -5.7384
     5.3922   5.4107   5.4225   5.4417   5.4596   5.4794   5.5002   5.5096
     5.6786   5.7002   5.7244   5.7477   5.7546   5.7807   5.8375   5.8784
     5.8910   5.8948   5.9115   5.9220   5.9277   5.9396   5.9579   6.0166
     6.0420   6.0537   6.0563   6.0795   6.0869   6.1203   6.1239   6.1460
     6.1667   6.1740   6.1858   6.2041   6.2114   6.2285   6.2445   6.2672
     6.2930   6.2976   6.3168   6.3492   6.3661   6.3808   6.3844   6.4105
     6.4283   6.4456   6.4542   6.4636   6.4766   6.4881   6.5182   6.5302
     6.5392   6.5632   6.5831   6.5924   6.6077   6.6142   6.6264   6.6382
     6.6447   6.6598   6.6757   6.6885   6.7005   6.7031   6.7252   6.7279
     6.7303   6.7534   6.7588   6.7796   6.7830   6.7881   6.7925   6.8093
     6.8165   6.8237   6.8383   6.8502   6.8560   6.8651   6.8722   6.8790
     6.8883   6.8942   6.8953   6.9035   6.9131   6.9255   6.9328   6.9388
     6.9494   6.9662   6.9696   6.9868   6.9893   6.9988   7.0006   7.0042
     7.0100   7.0158   7.0337   7.0464   7.0500   7.0559   7.0653   7.0672
     7.0829   7.0924   7.1016   7.1101   7.1167   7.1286   7.1384   7.1423
     7.1466   7.1601   7.1649   7.1701   7.1715   7.1894   7.1959   7.2161
[...]
     atom   77 type  1   force =   0.00000000E+00  0.00000000E+00  0.00000000E+00
     atom   78 type  2   force =   0.00000000E+00  0.00000000E+00  0.00000000E+00
     atom   79 type  1   force =   0.00000000E+00  0.00000000E+00  0.00000000E+00
     atom   80 type  2   force =   0.00000000E+00  0.00000000E+00  0.00000000E+00
     atom   81 type  1   force =   0.00000000E+00  0.00000000E+00  0.00000000E+00
     atom   82 type  2   force =   0.00000000E+00  0.00000000E+00  0.00000000E+00
     atom   83 type  1   force =   0.00000000E+00  0.00000000E+00  0.00000000E+00
     atom   84 type  2   force =   0.00000000E+00  0.00000000E+00  0.00000000E+00
     atom   85 type  1   force =   0.00000000E+00  0.00000000E+00  0.00000000E+00
     atom   86 type  2   force =   0.00000000E+00  0.00000000E+00  0.00000000E+00
     atom   87 type  1   force =   0.00000000E+00  0.00000000E+00  0.00000000E+00
     atom   88 type  2   force =   0.00000000E+00  0.00000000E+00  0.00000000E+00
     atom   89 type  1   force =   0.00000000E+00  0.00000000E+00  0.00000000E+00
     atom   90 type  2   force =   0.00000000E+00  0.00000000E+00  0.00000000E+00
     atom   91 type  1   force =   0.00000000E+00  0.00000000E+00  0.00000000E+00
     atom   92 type  2   force =   0.00000000E+00  0.00000000E+00  0.00000000E+00
     atom   93 type  1   force =   0.00000000E+00  0.00000000E+00  0.00000000E+00
     atom   94 type  2   force =   0.00000000E+00  0.00000000E+00  0.00000000E+00
     atom   95 type  1   force =   0.00000000E+00  0.00000000E+00  0.00000000E+00
     atom   96 type  2   force =   0.00000000E+00  0.00000000E+00  0.00000000E+00
     atom   97 type  1   force =   0.00000000E+00  0.00000000E+00  0.00000000E+00
     atom   98 type  2   force =   0.00000000E+00  0.00000000E+00  0.00000000E+00
     atom   99 type  1   force =   0.00000000E+00  0.00000000E+00  0.00000000E+00
     atom  100 type  2   force =   0.00000000E+00  0.00000000E+00  0.00000000E+00
     atom  101 type  1   force =   0.00000000E+00  0.00000000E+00  0.00000000E+00
     atom  102 type  2   force =   0.00000000E+00  0.00000000E+00  0.00000000E+00
     atom  103 type  1   force =   0.00000000E+00  0.00000000E+00  0.00000000E+00
     atom  104 type  2   force =   0.00000000E+00  0.00000000E+00  0.00000000E+00
     atom  105 type  1   force =   0.00000000E+00  0.00000000E+00  0.00000000E+00
     atom  106 type  2   force =   0.00000000E+00  0.00000000E+00  0.00000000E+00
     atom  107 type  1   force =   0.00000000E+00  0.00000000E+00  0.00000000E+00
     atom  108 type  2   force =   0.00000000E+00  0.00000000E+00  0.00000000E+00
     atom  109 type  1   force =   0.00000000E+00  0.00000000E+00  0.00000000E+00
     atom  110 type  2   force =   0.00000000E+00  0.00000000E+00  0.00000000E+00
     atom  111 type  1   force =   0.00000000E+00  0.00000000E+00  0.00000000E+00
     atom  112 type  2   force =   0.00000000E+00  0.00000000E+00  0.00000000E+00
     atom  113 type  1   force =   0.00000000E+00  0.00000000E+00  0.00000000E+00
     atom  114 type  2   force =   0.00000000E+00  0.00000000E+00  0.00000000E+00
     atom  115 type  1   force =   0.00000000E+00  0.00000000E+00  0.00000000E+00
     atom  116 type  2   force =   0.00000000E+00  0.00000000E+00  0.00000000E+00
     atom  117 type  1   force =   0.00000000E+00  0.00000000E+00  0.00000000E+00
     atom  118 type  2   force =   0.00000000E+00  0.00000000E+00  0.00000000E+00
     atom  119 type  1   force =   0.00000000E+00  0.00000000E+00  0.00000000E+00
     atom  120 type  2   force =   0.00000000E+00  0.00000000E+00  0.00000000E+00
     atom  121 type  1   force =   0.00000000E+00  0.00000000E+00  0.00000000E+00
     atom  122 type  2   force =   0.00000000E+00  0.00000000E+00  0.00000000E+00
     atom  123 type  1   force =   0.00000000E+00  0.00000000E+00  0.00000000E+00
     atom  124 type  2   force =   0.00000000E+00  0.00000000E+00  0.00000000E+00
     atom  125 type  1   force =   0.00000000E+00  0.00000000E+00  0.00000000E+00
     atom  126 type  2   force =   0.00000000E+00  0.00000000E+00  0.00000000E+00
     atom  127 type  1   force =   0.00000000E+00  0.00000000E+00  0.00000000E+00
     atom  128 type  2   force =   0.00000000E+00  0.00000000E+00  0.00000000E+00
     The SCF correction term to forces
     atom    1 type  1   force =   0.10609349E-05  0.11271831E-06  0.11386934E-05
     atom    2 type  2   force =  -0.10727410E-05  0.33410898E-06 -0.24646023E-06
     atom    3 type  1   force =  -0.39641691E-06  0.28454324E-06 -0.69077413E-06
     atom    4 type  2   force =  -0.10991655E-05  0.10014187E-05  0.19772322E-05
     atom    5 type  1   force =  -0.10045050E-05  0.12574971E-05 -0.12336048E-05
     atom    6 type  2   force =   0.76053298E-06  0.70683205E-06  0.21252516E-05
     atom    7 type  1   force =  -0.85500379E-06 -0.16363124E-06 -0.93380287E-06
     atom    8 type  2   force =   0.34158042E-06 -0.16539903E-05  0.19922651E-05
     atom    9 type  1   force =  -0.10220508E-05 -0.21567400E-05 -0.52997423E-06
     atom   10 type  2   force =   0.74939970E-06  0.16706522E-05  0.69748194E-06
     atom   11 type  1   force =  -0.71225799E-06  0.56460188E-06 -0.60379264E-06
     atom   12 type  2   force =  -0.27375090E-06  0.19402845E-05  0.59044243E-06
     atom   13 type  1   force =   0.17230969E-05  0.11966128E-05  0.34427352E-05
     atom   14 type  2   force =  -0.18466938E-06  0.13410238E-06 -0.11842975E-05
     atom   15 type  1   force =   0.12930810E-05  0.10288241E-06  0.25307966E-05
     atom   16 type  2   force =  -0.19040605E-05 -0.15968883E-05 -0.31813825E-06
     atom   17 type  1   force =   0.13025696E-05 -0.36161297E-05  0.12735038E-05
     atom   18 type  2   force =  -0.24585858E-06  0.57524489E-06  0.18145135E-06
     atom   19 type  1   force =   0.37183946E-06  0.12299401E-05  0.11107600E-05
     atom   20 type  2   force =  -0.11837317E-07  0.36676241E-06 -0.15887726E-06
     atom   21 type  1   force =   0.13407602E-05  0.12912052E-05 -0.74106736E-06
     atom   22 type  2   force =  -0.18708843E-06 -0.45894300E-06 -0.11591032E-05
     atom   23 type  1   force =  -0.77588145E-06 -0.30979208E-05 -0.10014163E-05
     atom   24 type  2   force =   0.37398397E-06 -0.74586282E-06  0.72149605E-06
     atom   25 type  1   force =  -0.16690699E-05 -0.79567026E-06 -0.65511815E-06
     atom   26 type  2   force =   0.64562505E-06  0.14088615E-05  0.33762221E-06
     atom   27 type  1   force =   0.84565590E-06  0.17075029E-05 -0.11513035E-05
     atom   28 type  2   force =  -0.11378911E-05  0.18025285E-06 -0.33170824E-06
     atom   29 type  1   force =  -0.11034931E-06  0.33815458E-06 -0.29866213E-05
     atom   30 type  2   force =  -0.52983634E-06  0.84843432E-06 -0.21084457E-06
     atom   31 type  1   force =   0.28669058E-06 -0.96304296E-06 -0.28314302E-05
     atom   32 type  2   force =  -0.11957821E-05  0.11509640E-06 -0.98057565E-07
     atom   33 type  1   force =   0.11149009E-05  0.21826338E-05  0.14399571E-05
     atom   34 type  2   force =   0.35705877E-06  0.87456381E-06 -0.81421347E-06
     atom   35 type  1   force =  -0.25492790E-05  0.22304625E-05  0.90499237E-06
     atom   36 type  2   force =   0.41285658E-06 -0.95189971E-06  0.26181338E-06
     atom   37 type  1   force =  -0.21126803E-05  0.15456815E-05  0.25584240E-05
     atom   38 type  2   force =   0.57990910E-06 -0.39177573E-06  0.89557734E-06
     atom   39 type  1   force =  -0.55867554E-06 -0.57260182E-06  0.37602552E-05
     atom   40 type  2   force =  -0.11138868E-05  0.97631267E-07  0.62643138E-06
     atom   41 type  1   force =  -0.33307488E-05  0.13650809E-05 -0.89507076E-07
     atom   42 type  2   force =   0.60171103E-06  0.13950181E-05 -0.42850050E-06
     atom   43 type  1   force =   0.12555870E-05  0.28199989E-05  0.86672933E-06
     atom   44 type  2   force =  -0.95578147E-06  0.49988811E-06 -0.68821351E-06
     atom   45 type  1   force =  -0.27453684E-06  0.45863530E-06  0.55930127E-07
     atom   46 type  2   force =  -0.86150013E-06 -0.39288224E-07 -0.57453534E-06
     atom   47 type  1   force =  -0.25113504E-05 -0.76678324E-06  0.54839354E-06
     atom   48 type  2   force =  -0.92915170E-06  0.10848904E-06  0.85916550E-06
     atom   49 type  1   force =   0.77874446E-06  0.79068720E-06  0.16691972E-05
     atom   50 type  2   force =  -0.37177898E-07  0.13771500E-05  0.47030293E-06
     atom   51 type  1   force =   0.30249793E-06  0.12898336E-05  0.13998428E-07
     atom   52 type  2   force =  -0.44273084E-06 -0.37838646E-06  0.91137069E-06
     atom   53 type  1   force =   0.23591718E-06  0.61498608E-06  0.25702814E-06
     atom   54 type  2   force =   0.17191777E-06  0.39645480E-06  0.10579035E-05
     atom   55 type  1   force =  -0.11510019E-05 -0.98062376E-06  0.14671651E-05
     atom   56 type  2   force =  -0.54322038E-06  0.17436485E-06  0.73418970E-06
     atom   57 type  1   force =  -0.23141433E-05  0.20052972E-05 -0.98343636E-06
     atom   58 type  2   force =  -0.25856558E-06  0.91637828E-06  0.14545362E-06
     atom   59 type  1   force =  -0.19054626E-06  0.16889091E-05  0.10096572E-05
     atom   60 type  2   force =  -0.55264020E-06  0.59415855E-06  0.81168506E-06
     atom   61 type  1   force =  -0.19224659E-05  0.12069482E-05  0.10781062E-05
     atom   62 type  2   force =  -0.92475908E-06  0.12213545E-07  0.40754879E-06
     atom   63 type  1   force =  -0.19751232E-05  0.43284762E-06  0.24736129E-06
     atom   64 type  2   force =  -0.10508184E-05  0.12857225E-05  0.12244140E-05
     atom   65 type  1   force =  -0.15194199E-06 -0.13525611E-05 -0.25349515E-05
     atom   66 type  2   force =   0.23651635E-05 -0.42176285E-06 -0.52891302E-06
     atom   67 type  1   force =   0.13325195E-05 -0.80221656E-06 -0.25630331E-05
     atom   68 type  2   force =   0.15354519E-05 -0.42133359E-06 -0.17642757E-06
     atom   69 type  1   force =   0.12841819E-05  0.44047332E-06  0.20903734E-06
     atom   70 type  2   force =  -0.80015437E-07 -0.95458728E-06 -0.24079925E-05
     atom   71 type  1   force =  -0.66930314E-06 -0.59261861E-06  0.18922435E-05
     atom   72 type  2   force =  -0.48413393E-06 -0.17870889E-05 -0.60467703E-06
     atom   73 type  1   force =   0.19023631E-05 -0.85317116E-06 -0.68084608E-07
     atom   74 type  2   force =   0.75519606E-06 -0.41574273E-06 -0.14083465E-06
     atom   75 type  1   force =   0.14559747E-05  0.55302662E-06 -0.76446661E-06
     atom   76 type  2   force =  -0.23848247E-06 -0.15220464E-05 -0.11161170E-05
     atom   77 type  1   force =  -0.10798445E-05 -0.18216479E-06 -0.25491359E-05
     atom   78 type  2   force =   0.16561896E-05 -0.19301307E-06 -0.20289503E-06
     atom   79 type  1   force =  -0.73140509E-06 -0.19559046E-06 -0.11241830E-05
     atom   80 type  2   force =   0.62173256E-06 -0.61486873E-06  0.20485004E-05
     atom   81 type  1   force =  -0.42528882E-06  0.58226191E-06  0.13926828E-05
     atom   82 type  2   force =   0.30442017E-06 -0.13930508E-05 -0.54925216E-06
     atom   83 type  1   force =  -0.31616443E-06 -0.21046318E-05  0.49288263E-06
     atom   84 type  2   force =   0.16423243E-05 -0.92807880E-06 -0.15637007E-06
     atom   85 type  1   force =   0.73698545E-06 -0.14065714E-05  0.95663406E-06
     atom   86 type  2   force =   0.32061747E-06  0.43823895E-06 -0.23399955E-06
     atom   87 type  1   force =   0.72570197E-06  0.38306341E-06  0.15070532E-05
     atom   88 type  2   force =  -0.87164115E-06  0.20083503E-06  0.16550020E-05
     atom   89 type  1   force =  -0.14050380E-06  0.22854370E-05  0.59922939E-06
     atom   90 type  2   force =  -0.21410141E-06 -0.30485871E-06 -0.23811949E-05
     atom   91 type  1   force =   0.55116906E-06 -0.78186469E-06 -0.14504807E-05
     atom   92 type  2   force =   0.58646833E-06 -0.19032332E-07 -0.13574687E-05
     atom   93 type  1   force =   0.19957192E-06 -0.84733748E-07 -0.74784356E-06
     atom   94 type  2   force =   0.28277348E-06  0.19977004E-05  0.23226127E-06
     atom   95 type  1   force =  -0.18173954E-05  0.68835680E-06  0.89511312E-06
     atom   96 type  2   force =  -0.17293147E-05 -0.61156124E-06 -0.27008709E-06
     atom   97 type  1   force =  -0.92468373E-06  0.10027666E-06 -0.24240898E-06
     atom   98 type  2   force =   0.10583621E-05  0.12441820E-06  0.10559297E-05
     atom   99 type  1   force =   0.22912698E-05  0.14017498E-05 -0.16400354E-05
     atom  100 type  2   force =  -0.80131603E-06 -0.12468851E-05 -0.11217577E-05
     atom  101 type  1   force =  -0.76782088E-07 -0.84376498E-06 -0.32284393E-05
     atom  102 type  2   force =   0.76100334E-06  0.36950602E-06 -0.56777551E-06
     atom  103 type  1   force =  -0.13414444E-05 -0.97659785E-06 -0.33578413E-05
     atom  104 type  2   force =   0.43191961E-06 -0.77973480E-06  0.19062253E-05
     atom  105 type  1   force =   0.18811688E-05 -0.16595586E-05  0.19999416E-05
     atom  106 type  2   force =  -0.73636935E-06 -0.14554773E-05 -0.12448101E-05
     atom  107 type  1   force =  -0.49025670E-07 -0.10709156E-05 -0.68311105E-06
     atom  108 type  2   force =   0.85006451E-06 -0.62859144E-07  0.43484000E-06
     atom  109 type  1   force =   0.10603138E-05 -0.14305272E-05 -0.15673016E-05
     atom  110 type  2   force =   0.20471823E-05  0.10918902E-05  0.10054562E-05
     atom  111 type  1   force =   0.18462279E-05 -0.10699735E-05  0.14063185E-05
     atom  112 type  2   force =  -0.33176684E-06 -0.15364468E-05  0.11028187E-05
     atom  113 type  1   force =   0.22427869E-09 -0.26515541E-05  0.34916187E-06
     atom  114 type  2   force =   0.53688327E-06 -0.10226287E-05  0.75581990E-06
     atom  115 type  1   force =   0.16839917E-05 -0.27442868E-05 -0.65612783E-06
     atom  116 type  2   force =   0.93695847E-06  0.50988624E-06 -0.19476403E-06
     atom  117 type  1   force =   0.27459776E-05  0.33700304E-07 -0.25593318E-06
     atom  118 type  2   force =   0.16790764E-05  0.73713078E-06 -0.97603672E-06
     atom  119 type  1   force =   0.70111922E-06  0.99325366E-07  0.15247939E-05
     atom  120 type  2   force =   0.21820069E-06 -0.25424008E-05  0.27416159E-06
     atom  121 type  1   force =  -0.33091558E-05 -0.18788869E-05 -0.58983051E-06
     atom  122 type  2   force =  -0.57866581E-06  0.86227890E-06 -0.80014550E-06
     atom  123 type  1   force =   0.93485862E-06  0.11425014E-05 -0.21959097E-05
     atom  124 type  2   force =   0.80794425E-06  0.11467991E-05 -0.84628519E-06
     atom  125 type  1   force =   0.15255692E-05  0.12375434E-05 -0.54737990E-06
     atom  126 type  2   force =  -0.59893966E-06 -0.30228063E-06 -0.31453230E-05
     atom  127 type  1   force =  -0.11519447E-05  0.12593875E-05 -0.28945993E-07
     atom  128 type  2   force =  -0.19895934E-05  0.90707406E-07 -0.13816273E-05

     Total force =     0.496206     Total SCF correction =     0.000024


     entering subroutine stress ...

          total   stress  (Ry/bohr**3)                   (kbar)     P=   33.46
   0.0002519341  -0.0000305016   0.0000211186         37.06     -4.49      3.11
  -0.0000305016   0.0002370216  -0.0000087421         -4.49     34.87     -1.29
   0.0000211186  -0.0000087421   0.0001933655          3.11     -1.29     28.45

     kinetic stress (kbar)  19471.32     -1.98      1.96
                               -1.98  19468.15      0.39
                                1.96      0.39  19453.97

     local   stress (kbar)  -2091.40    -43.53    -12.59
                              -43.53  -1985.21    -47.81
                              -12.59    -47.81  -1625.68

     nonloc. stress (kbar)   4567.00      0.08     -0.11
                                0.08   4567.27     -0.07
                               -0.11     -0.07   4567.55

     hartree stress (kbar)   5652.53     17.06      3.64
                               17.06   5616.69     17.98
                                3.64     17.98   5488.27

     exc-cor stress (kbar)  -3220.44      0.06     -0.01
                                0.06  -3220.55      0.05
                               -0.01      0.05  -3220.89

     corecor stress (kbar)  -1607.05      0.00     -0.01
                                0.00  -1607.04     -0.00
                               -0.01     -0.00  -1606.98

     ewald   stress (kbar) -22734.89     23.82     10.22
                               23.82 -22804.44     28.17
                               10.22     28.17 -23027.78

     hubbard stress (kbar)      0.00      0.00      0.00
                                0.00      0.00      0.00
                                0.00      0.00      0.00

     london  stress (kbar)      0.00      0.00      0.00
                                0.00      0.00      0.00
                                0.00      0.00      0.00

     XDM     stress (kbar)      0.00      0.00      0.00
                                0.00      0.00      0.00
                                0.00      0.00      0.00

     dft-nl  stress (kbar)      0.00      0.00      0.00
                                0.00      0.00      0.00
                                0.00      0.00      0.00



     Writing output data file CaO_rocksalt.relax.in.up_1.00.super.444.a.044.save

     init_run     :   1589.87s CPU   1358.01s WALL (       1 calls)
     electrons    :  91037.95s CPU  77584.90s WALL (       1 calls)
     forces       :    803.48s CPU    557.41s WALL (       1 calls)
     stress       :   3115.72s CPU   3067.37s WALL (       1 calls)

     Called by init_run:
     wfcinit      :   1523.95s CPU   1290.30s WALL (       1 calls)
     potinit      :      9.52s CPU      9.76s WALL (       1 calls)

     Called by electrons:
     c_bands      :  80866.41s CPU  68126.65s WALL (      25 calls)
     sum_band     :   9358.76s CPU   8620.20s WALL (      25 calls)
     v_of_rho     :     19.07s CPU     21.03s WALL (      26 calls)
     v_h          :      1.06s CPU      1.30s WALL (      26 calls)
     v_xc         :     18.90s CPU     20.72s WALL (      28 calls)
     newd         :    801.44s CPU    820.63s WALL (      26 calls)
     mix_rho      :     27.54s CPU     32.38s WALL (      25 calls)

     Called by c_bands:
     init_us_2    :     73.80s CPU     76.50s WALL (     424 calls)
     cegterg      :  79919.02s CPU  67154.75s WALL (     200 calls)

     Called by sum_band:
     sum_band:bec :     21.11s CPU     21.66s WALL (     200 calls)
     addusdens    :    742.38s CPU    756.23s WALL (      25 calls)

     Called by *egterg:
     h_psi        :  36227.47s CPU  33153.44s WALL (     837 calls)
     s_psi        :   8018.34s CPU   4900.06s WALL (     837 calls)
     g_psi        :     17.18s CPU     18.29s WALL (     629 calls)
     cdiaghg      :  16721.94s CPU  15422.18s WALL (     829 calls)
     cegterg:over :   9111.94s CPU   6651.58s WALL (     629 calls)
     cegterg:upda :   3590.72s CPU   2315.92s WALL (     629 calls)
     cegterg:last :   2544.03s CPU   1561.02s WALL (     200 calls)

     Called by h_psi:
     h_psi:vloc   :  16977.37s CPU  20587.07s WALL (     837 calls)
     h_psi:vnl    :  19223.62s CPU  12538.78s WALL (     837 calls)
     add_vuspsi   :   8339.01s CPU   5185.11s WALL (     837 calls)

     General routines
     calbec       :  16531.06s CPU  11332.75s WALL (    1053 calls)
     fft          :    403.14s CPU    409.69s WALL (     437 calls)
     ffts         :     21.15s CPU     25.22s WALL (     587 calls)
     fftw         :  19491.55s CPU  23804.62s WALL (  696078 calls)
     interpolate  :      4.99s CPU      6.03s WALL (      51 calls)

     Parallel routines
     fft_scatter  :  10117.12s CPU  11551.80s WALL (  697102 calls)

     PWSCF        :     1d    2h49m CPU        0d   22h56m WALL


   This run was terminated on:  18:58:44  19Aug2017            

=------------------------------------------------------------------------------=
   JOB DONE.
=------------------------------------------------------------------------------=
