
     Program PWSCF v.5.1 starts on 21Aug2017 at 10:35: 5 

     This program is part of the open-source Quantum ESPRESSO suite
     for quantum simulation of materials; please cite
         "P. Giannozzi et al., J. Phys.:Condens. Matter 21 395502 (2009);
          URL http://www.quantum-espresso.org", 
     in publications or presentations arising from this work. More details at
     http://www.quantum-espresso.org/quote

     Parallel version (MPI), running on     8 processors
     R & G space division:  proc/nbgrp/npool/nimage =       8
     Reading input from /tmp/MgO_rocksalt.relax.in.up_1.00.super.444.singleCa.17563/MgO_rocksalt.relax.in.up_1.00.super.444.singleCa.t
Warning: card &IONS ignored
Warning: card   ION_DYNAMICS='BFGS', ignored
Warning: card / ignored
Warning: card &CELL ignored
Warning: card  CELL_DYNAMICS = 'BFGS' ignored
Warning: card / ignored
     Message from routine read_cards :
     DEPRECATED: no units specified in CELL_PARAMETERS card

     Current dimensions of program PWSCF are:
     Max number of different atomic species (ntypx) = 10
     Max number of k-points (npk) =  40000
     Max angular momentum in pseudopotentials (lmaxx) =  3
 kfg - two_fermi_energies  F

     Subspace diagonalization in iterative solution of the eigenvalue problem:
     a serial algorithm will be used


     Parallelization info
     --------------------
     sticks:   dense  smooth     PW     G-vecs:    dense   smooth      PW
     Min         874     701    186                48415    34660    4751
     Max         875     702    187                48418    34666    4753
     Sum        6997    5611   1495               387335   277305   38013



     bravais-lattice index     =            0
     lattice parameter (alat)  =    22.550292335  a.u.
     unit-cell volume          =    8108.5189 (a.u.)^3
     number of atoms/cell      =          128
     number of atomic types    =            3
     number of electrons       =      1024.00
     number of Kohn-Sham states=          614
     kinetic-energy cutoff     =      40.0000  Ry
     charge density cutoff     =     200.0000  Ry
     convergence threshold     =      1.0E-10
     mixing beta               =       0.3000
     number of iterations used =            8  local-TF  mixing
     Exchange-correlation      = SLA  PW   PSX  PSC ( 1  4 10  8 0)
     A smooth kinetic-energy cutoff is imposed at      39.5000 Ry
     height of the smooth step-function =             800.0000 Ry
     width of the smooth step-function  =               1.0000 Ry


     celldm(1)=  22.550292  celldm(2)=   0.000000  celldm(3)=   0.000000
     celldm(4)=   0.000000  celldm(5)=   0.000000  celldm(6)=   0.000000

     crystal axes: (cart. coord. in units of alat)
               a(1) = (  -0.000000000000   0.707106781187   0.707106781187 )  
               a(2) = (   0.707106781187   0.000000000000   0.707106781187 )  
               a(3) = (   0.707106781187   0.707106781187  -0.000000000000 )  

     reciprocal axes: (cart. coord. in units 2 pi/alat)
               b(1) = ( -0.707107  0.707107  0.707107 )  
               b(2) = (  0.707107 -0.707107  0.707107 )  
               b(3) = (  0.707107  0.707107 -0.707107 )  


     PseudoPot. # 1 for Mg read from file:
     /users/kfg/psuedo/gbrv_1.5/mg.pbesol.UPF
     MD5 check sum: 4059f37963cf5867752dbf5ab2400678
     Pseudo is Ultrasoft, Zval = 10.0
     Generated by new atomic code, or converted to UPF format
     Using radial grid of  821 points,  7 beta functions with: 
                l(1) =   0
                l(2) =   0
                l(3) =   0
                l(4) =   1
                l(5) =   1
                l(6) =   2
                l(7) =   2
     Q(r) pseudized with  8 coefficients,  rinner =    1.200   1.200   1.200
                                                       1.200   1.200

     PseudoPot. # 2 for Ca read from file:
     /users/kfg/psuedo/gbrv_1.5/ca.pbesol.UPF
     MD5 check sum: 0533207b58cddeaa036efa5b63902087
     Pseudo is Ultrasoft + core correction, Zval = 10.0
     Generated by new atomic code, or converted to UPF format
     Using radial grid of  845 points,  6 beta functions with: 
                l(1) =   0
                l(2) =   0
                l(3) =   1
                l(4) =   1
                l(5) =   2
                l(6) =   2
     Q(r) pseudized with  8 coefficients,  rinner =    1.500   1.500   1.500
                                                       1.500   1.500

     PseudoPot. # 3 for O  read from file:
     /users/kfg/psuedo/gbrv_1.5/o.pbesol.UPF
     MD5 check sum: 501638753501ef6325af9037351f7734
     Pseudo is Ultrasoft + core correction, Zval =  6.0
     Generated by new atomic code, or converted to UPF format
     Using radial grid of  737 points,  5 beta functions with: 
                l(1) =   0
                l(2) =   0
                l(3) =   1
                l(4) =   1
                l(5) =   2
     Q(r) pseudized with  8 coefficients,  rinner =    0.900   0.900   0.900
                                                       0.900   0.900

     atomic species   valence    mass     pseudopotential
        Mg            10.00    24.30500     Mg( 1.00)
        Ca            10.00    24.30500     Ca( 1.00)
        O              6.00    15.99940     O ( 1.00)

     48 Sym. Ops., with inversion, found


                                    s                        frac. trans.

      isym =  1     identity                                     

 cryst.   s( 1) = (     1          0          0      )
                  (     0          1          0      )
                  (     0          0          1      )

 cart.    s( 1) = (  1.0000000  0.0000000  0.0000000 )
                  (  0.0000000  1.0000000  0.0000000 )
                  (  0.0000000  0.0000000  1.0000000 )


      isym =  2     180 deg rotation - cart. axis [0,0,1]        

 cryst.   s( 2) = (     0          1         -1      )
                  (     1          0         -1      )
                  (     0          0         -1      )

 cart.    s( 2) = ( -1.0000000  0.0000000  0.0000000 )
                  (  0.0000000 -1.0000000  0.0000000 )
                  (  0.0000000  0.0000000  1.0000000 )


      isym =  3     180 deg rotation - cart. axis [0,1,0]        

 cryst.   s( 3) = (     0         -1          1      )
                  (     0         -1          0      )
                  (     1         -1          0      )

 cart.    s( 3) = ( -1.0000000  0.0000000  0.0000000 )
                  (  0.0000000  1.0000000  0.0000000 )
                  (  0.0000000  0.0000000 -1.0000000 )


      isym =  4     180 deg rotation - cart. axis [1,0,0]        

 cryst.   s( 4) = (    -1          0          0      )
                  (    -1          0          1      )
                  (    -1          1          0      )

 cart.    s( 4) = (  1.0000000  0.0000000  0.0000000 )
                  (  0.0000000 -1.0000000  0.0000000 )
                  (  0.0000000  0.0000000 -1.0000000 )


      isym =  5     180 deg rotation - cart. axis [1,1,0]        

 cryst.   s( 5) = (    -1          0          1      )
                  (     0         -1          1      )
                  (     0          0          1      )

 cart.    s( 5) = (  0.0000000  1.0000000  0.0000000 )
                  (  1.0000000  0.0000000  0.0000000 )
                  (  0.0000000  0.0000000 -1.0000000 )


      isym =  6     180 deg rotation - cart. axis [1,-1,0]       

 cryst.   s( 6) = (     0         -1          0      )
                  (    -1          0          0      )
                  (     0          0         -1      )

 cart.    s( 6) = (  0.0000000 -1.0000000  0.0000000 )
                  ( -1.0000000  0.0000000  0.0000000 )
                  (  0.0000000  0.0000000 -1.0000000 )


      isym =  7      90 deg rotation - cart. axis [0,0,-1]       

 cryst.   s( 7) = (     0          1          0      )
                  (     0          1         -1      )
                  (    -1          1          0      )

 cart.    s( 7) = (  0.0000000  1.0000000  0.0000000 )
                  ( -1.0000000  0.0000000  0.0000000 )
                  (  0.0000000  0.0000000  1.0000000 )


      isym =  8      90 deg rotation - cart. axis [0,0,1]        

 cryst.   s( 8) = (     1          0         -1      )
                  (     1          0          0      )
                  (     1         -1          0      )

 cart.    s( 8) = (  0.0000000 -1.0000000  0.0000000 )
                  (  1.0000000  0.0000000  0.0000000 )
                  (  0.0000000  0.0000000  1.0000000 )


      isym =  9     180 deg rotation - cart. axis [1,0,1]        

 cryst.   s( 9) = (    -1          1          0      )
                  (     0          1          0      )
                  (     0          1         -1      )

 cart.    s( 9) = (  0.0000000  0.0000000  1.0000000 )
                  (  0.0000000 -1.0000000  0.0000000 )
                  (  1.0000000  0.0000000  0.0000000 )


      isym = 10     180 deg rotation - cart. axis [-1,0,1]       

 cryst.   s(10) = (     0          0         -1      )
                  (     0         -1          0      )
                  (    -1          0          0      )

 cart.    s(10) = (  0.0000000  0.0000000 -1.0000000 )
                  (  0.0000000 -1.0000000  0.0000000 )
                  ( -1.0000000  0.0000000  0.0000000 )


      isym = 11      90 deg rotation - cart. axis [0,1,0]        

 cryst.   s(11) = (     0          0          1      )
                  (    -1          0          1      )
                  (     0         -1          1      )

 cart.    s(11) = (  0.0000000  0.0000000  1.0000000 )
                  (  0.0000000  1.0000000  0.0000000 )
                  ( -1.0000000  0.0000000  0.0000000 )


      isym = 12      90 deg rotation - cart. axis [0,-1,0]       

 cryst.   s(12) = (     1         -1          0      )
                  (     1          0         -1      )
                  (     1          0          0      )

 cart.    s(12) = (  0.0000000  0.0000000 -1.0000000 )
                  (  0.0000000  1.0000000  0.0000000 )
                  (  1.0000000  0.0000000  0.0000000 )


      isym = 13     180 deg rotation - cart. axis [0,1,1]        

 cryst.   s(13) = (     1          0          0      )
                  (     1         -1          0      )
                  (     1          0         -1      )

 cart.    s(13) = ( -1.0000000  0.0000000  0.0000000 )
                  (  0.0000000  0.0000000  1.0000000 )
                  (  0.0000000  1.0000000  0.0000000 )


      isym = 14     180 deg rotation - cart. axis [0,1,-1]       

 cryst.   s(14) = (    -1          0          0      )
                  (     0          0         -1      )
                  (     0         -1          0      )

 cart.    s(14) = ( -1.0000000  0.0000000  0.0000000 )
                  (  0.0000000  0.0000000 -1.0000000 )
                  (  0.0000000 -1.0000000  0.0000000 )


      isym = 15      90 deg rotation - cart. axis [-1,0,0]       

 cryst.   s(15) = (     0         -1          1      )
                  (     0          0          1      )
                  (    -1          0          1      )

 cart.    s(15) = (  1.0000000  0.0000000  0.0000000 )
                  (  0.0000000  0.0000000  1.0000000 )
                  (  0.0000000 -1.0000000  0.0000000 )


      isym = 16      90 deg rotation - cart. axis [1,0,0]        

 cryst.   s(16) = (     0          1         -1      )
                  (    -1          1          0      )
                  (     0          1          0      )

 cart.    s(16) = (  1.0000000  0.0000000  0.0000000 )
                  (  0.0000000  0.0000000 -1.0000000 )
                  (  0.0000000  1.0000000  0.0000000 )


      isym = 17     120 deg rotation - cart. axis [-1,-1,-1]     

 cryst.   s(17) = (     0          0          1      )
                  (     1          0          0      )
                  (     0          1          0      )

 cart.    s(17) = (  0.0000000  1.0000000  0.0000000 )
                  (  0.0000000  0.0000000  1.0000000 )
                  (  1.0000000  0.0000000  0.0000000 )


      isym = 18     120 deg rotation - cart. axis [-1,1,1]       

 cryst.   s(18) = (     1         -1          0      )
                  (     0         -1          1      )
                  (     0         -1          0      )

 cart.    s(18) = (  0.0000000 -1.0000000  0.0000000 )
                  (  0.0000000  0.0000000  1.0000000 )
                  ( -1.0000000  0.0000000  0.0000000 )


      isym = 19     120 deg rotation - cart. axis [1,1,-1]       

 cryst.   s(19) = (    -1          1          0      )
                  (    -1          0          0      )
                  (    -1          0          1      )

 cart.    s(19) = (  0.0000000  1.0000000  0.0000000 )
                  (  0.0000000  0.0000000 -1.0000000 )
                  ( -1.0000000  0.0000000  0.0000000 )


      isym = 20     120 deg rotation - cart. axis [1,-1,1]       

 cryst.   s(20) = (     0          0         -1      )
                  (     0          1         -1      )
                  (     1          0         -1      )

 cart.    s(20) = (  0.0000000 -1.0000000  0.0000000 )
                  (  0.0000000  0.0000000 -1.0000000 )
                  (  1.0000000  0.0000000  0.0000000 )


      isym = 21     120 deg rotation - cart. axis [1,1,1]        

 cryst.   s(21) = (     0          1          0      )
                  (     0          0          1      )
                  (     1          0          0      )

 cart.    s(21) = (  0.0000000  0.0000000  1.0000000 )
                  (  1.0000000  0.0000000  0.0000000 )
                  (  0.0000000  1.0000000  0.0000000 )


      isym = 22     120 deg rotation - cart. axis [-1,1,-1]      

 cryst.   s(22) = (    -1          0          1      )
                  (    -1          1          0      )
                  (    -1          0          0      )

 cart.    s(22) = (  0.0000000  0.0000000  1.0000000 )
                  ( -1.0000000  0.0000000  0.0000000 )
                  (  0.0000000 -1.0000000  0.0000000 )


      isym = 23     120 deg rotation - cart. axis [1,-1,-1]      

 cryst.   s(23) = (     1          0         -1      )
                  (     0          0         -1      )
                  (     0          1         -1      )

 cart.    s(23) = (  0.0000000  0.0000000 -1.0000000 )
                  ( -1.0000000  0.0000000  0.0000000 )
                  (  0.0000000  1.0000000  0.0000000 )


      isym = 24     120 deg rotation - cart. axis [-1,-1,1]      

 cryst.   s(24) = (     0         -1          0      )
                  (     1         -1          0      )
                  (     0         -1          1      )

 cart.    s(24) = (  0.0000000  0.0000000 -1.0000000 )
                  (  1.0000000  0.0000000  0.0000000 )
                  (  0.0000000 -1.0000000  0.0000000 )


      isym = 25     inversion                                    

 cryst.   s(25) = (    -1          0          0      )
                  (     0         -1          0      )
                  (     0          0         -1      )

 cart.    s(25) = ( -1.0000000  0.0000000  0.0000000 )
                  (  0.0000000 -1.0000000  0.0000000 )
                  (  0.0000000  0.0000000 -1.0000000 )


      isym = 26     inv. 180 deg rotation - cart. axis [0,0,1]   

 cryst.   s(26) = (     0         -1          1      )
                  (    -1          0          1      )
                  (     0          0          1      )

 cart.    s(26) = (  1.0000000  0.0000000  0.0000000 )
                  (  0.0000000  1.0000000  0.0000000 )
                  (  0.0000000  0.0000000 -1.0000000 )


      isym = 27     inv. 180 deg rotation - cart. axis [0,1,0]   

 cryst.   s(27) = (     0          1         -1      )
                  (     0          1          0      )
                  (    -1          1          0      )

 cart.    s(27) = (  1.0000000  0.0000000  0.0000000 )
                  (  0.0000000 -1.0000000  0.0000000 )
                  (  0.0000000  0.0000000  1.0000000 )


      isym = 28     inv. 180 deg rotation - cart. axis [1,0,0]   

 cryst.   s(28) = (     1          0          0      )
                  (     1          0         -1      )
                  (     1         -1          0      )

 cart.    s(28) = ( -1.0000000  0.0000000  0.0000000 )
                  (  0.0000000  1.0000000  0.0000000 )
                  (  0.0000000  0.0000000  1.0000000 )


      isym = 29     inv. 180 deg rotation - cart. axis [1,1,0]   

 cryst.   s(29) = (     1          0         -1      )
                  (     0          1         -1      )
                  (     0          0         -1      )

 cart.    s(29) = (  0.0000000 -1.0000000  0.0000000 )
                  ( -1.0000000  0.0000000  0.0000000 )
                  (  0.0000000  0.0000000  1.0000000 )


      isym = 30     inv. 180 deg rotation - cart. axis [1,-1,0]  

 cryst.   s(30) = (     0          1          0      )
                  (     1          0          0      )
                  (     0          0          1      )

 cart.    s(30) = (  0.0000000  1.0000000  0.0000000 )
                  (  1.0000000  0.0000000  0.0000000 )
                  (  0.0000000  0.0000000  1.0000000 )


      isym = 31     inv.  90 deg rotation - cart. axis [0,0,-1]  

 cryst.   s(31) = (     0         -1          0      )
                  (     0         -1          1      )
                  (     1         -1          0      )

 cart.    s(31) = (  0.0000000 -1.0000000  0.0000000 )
                  (  1.0000000  0.0000000  0.0000000 )
                  (  0.0000000  0.0000000 -1.0000000 )


      isym = 32     inv.  90 deg rotation - cart. axis [0,0,1]   

 cryst.   s(32) = (    -1          0          1      )
                  (    -1          0          0      )
                  (    -1          1          0      )

 cart.    s(32) = (  0.0000000  1.0000000  0.0000000 )
                  ( -1.0000000  0.0000000  0.0000000 )
                  (  0.0000000  0.0000000 -1.0000000 )


      isym = 33     inv. 180 deg rotation - cart. axis [1,0,1]   

 cryst.   s(33) = (     1         -1          0      )
                  (     0         -1          0      )
                  (     0         -1          1      )

 cart.    s(33) = (  0.0000000  0.0000000 -1.0000000 )
                  (  0.0000000  1.0000000  0.0000000 )
                  ( -1.0000000  0.0000000  0.0000000 )


      isym = 34     inv. 180 deg rotation - cart. axis [-1,0,1]  

 cryst.   s(34) = (     0          0          1      )
                  (     0          1          0      )
                  (     1          0          0      )

 cart.    s(34) = (  0.0000000  0.0000000  1.0000000 )
                  (  0.0000000  1.0000000  0.0000000 )
                  (  1.0000000  0.0000000  0.0000000 )


      isym = 35     inv.  90 deg rotation - cart. axis [0,1,0]   

 cryst.   s(35) = (     0          0         -1      )
                  (     1          0         -1      )
                  (     0          1         -1      )

 cart.    s(35) = (  0.0000000  0.0000000 -1.0000000 )
                  (  0.0000000 -1.0000000  0.0000000 )
                  (  1.0000000  0.0000000  0.0000000 )


      isym = 36     inv.  90 deg rotation - cart. axis [0,-1,0]  

 cryst.   s(36) = (    -1          1          0      )
                  (    -1          0          1      )
                  (    -1          0          0      )

 cart.    s(36) = (  0.0000000  0.0000000  1.0000000 )
                  (  0.0000000 -1.0000000  0.0000000 )
                  ( -1.0000000  0.0000000  0.0000000 )


      isym = 37     inv. 180 deg rotation - cart. axis [0,1,1]   

 cryst.   s(37) = (    -1          0          0      )
                  (    -1          1          0      )
                  (    -1          0          1      )

 cart.    s(37) = (  1.0000000  0.0000000  0.0000000 )
                  (  0.0000000  0.0000000 -1.0000000 )
                  (  0.0000000 -1.0000000  0.0000000 )


      isym = 38     inv. 180 deg rotation - cart. axis [0,1,-1]  

 cryst.   s(38) = (     1          0          0      )
                  (     0          0          1      )
                  (     0          1          0      )

 cart.    s(38) = (  1.0000000  0.0000000  0.0000000 )
                  (  0.0000000  0.0000000  1.0000000 )
                  (  0.0000000  1.0000000  0.0000000 )


      isym = 39     inv.  90 deg rotation - cart. axis [-1,0,0]  

 cryst.   s(39) = (     0          1         -1      )
                  (     0          0         -1      )
                  (     1          0         -1      )

 cart.    s(39) = ( -1.0000000  0.0000000  0.0000000 )
                  (  0.0000000  0.0000000 -1.0000000 )
                  (  0.0000000  1.0000000  0.0000000 )


      isym = 40     inv.  90 deg rotation - cart. axis [1,0,0]   

 cryst.   s(40) = (     0         -1          1      )
                  (     1         -1          0      )
                  (     0         -1          0      )

 cart.    s(40) = ( -1.0000000  0.0000000  0.0000000 )
                  (  0.0000000  0.0000000  1.0000000 )
                  (  0.0000000 -1.0000000  0.0000000 )


      isym = 41     inv. 120 deg rotation - cart. axis [-1,-1,-1]

 cryst.   s(41) = (     0          0         -1      )
                  (    -1          0          0      )
                  (     0         -1          0      )

 cart.    s(41) = (  0.0000000 -1.0000000  0.0000000 )
                  (  0.0000000  0.0000000 -1.0000000 )
                  ( -1.0000000  0.0000000  0.0000000 )


      isym = 42     inv. 120 deg rotation - cart. axis [-1,1,1]  

 cryst.   s(42) = (    -1          1          0      )
                  (     0          1         -1      )
                  (     0          1          0      )

 cart.    s(42) = (  0.0000000  1.0000000  0.0000000 )
                  (  0.0000000  0.0000000 -1.0000000 )
                  (  1.0000000  0.0000000  0.0000000 )


      isym = 43     inv. 120 deg rotation - cart. axis [1,1,-1]  

 cryst.   s(43) = (     1         -1          0      )
                  (     1          0          0      )
                  (     1          0         -1      )

 cart.    s(43) = (  0.0000000 -1.0000000  0.0000000 )
                  (  0.0000000  0.0000000  1.0000000 )
                  (  1.0000000  0.0000000  0.0000000 )


      isym = 44     inv. 120 deg rotation - cart. axis [1,-1,1]  

 cryst.   s(44) = (     0          0          1      )
                  (     0         -1          1      )
                  (    -1          0          1      )

 cart.    s(44) = (  0.0000000  1.0000000  0.0000000 )
                  (  0.0000000  0.0000000  1.0000000 )
                  ( -1.0000000  0.0000000  0.0000000 )


      isym = 45     inv. 120 deg rotation - cart. axis [1,1,1]   

 cryst.   s(45) = (     0         -1          0      )
                  (     0          0         -1      )
                  (    -1          0          0      )

 cart.    s(45) = (  0.0000000  0.0000000 -1.0000000 )
                  ( -1.0000000  0.0000000  0.0000000 )
                  (  0.0000000 -1.0000000  0.0000000 )


      isym = 46     inv. 120 deg rotation - cart. axis [-1,1,-1] 

 cryst.   s(46) = (     1          0         -1      )
                  (     1         -1          0      )
                  (     1          0          0      )

 cart.    s(46) = (  0.0000000  0.0000000 -1.0000000 )
                  (  1.0000000  0.0000000  0.0000000 )
                  (  0.0000000  1.0000000  0.0000000 )


      isym = 47     inv. 120 deg rotation - cart. axis [1,-1,-1] 

 cryst.   s(47) = (    -1          0          1      )
                  (     0          0          1      )
                  (     0         -1          1      )

 cart.    s(47) = (  0.0000000  0.0000000  1.0000000 )
                  (  1.0000000  0.0000000  0.0000000 )
                  (  0.0000000 -1.0000000  0.0000000 )


      isym = 48     inv. 120 deg rotation - cart. axis [-1,-1,1] 

 cryst.   s(48) = (     0          1          0      )
                  (    -1          1          0      )
                  (     0          1         -1      )

 cart.    s(48) = (  0.0000000  0.0000000  1.0000000 )
                  ( -1.0000000  0.0000000  0.0000000 )
                  (  0.0000000  1.0000000  0.0000000 )


     point group O_h (m-3m) 
     there are 10 classes
     the character table:

       E     8C3   6C2'  6C4   3C2   i     6S4   8S6   3s_h  6s_d 
A_1g   1.00  1.00  1.00  1.00  1.00  1.00  1.00  1.00  1.00  1.00
A_2g   1.00  1.00 -1.00 -1.00  1.00  1.00 -1.00  1.00  1.00 -1.00
E_g    2.00 -1.00  0.00  0.00  2.00  2.00  0.00 -1.00  2.00  0.00
T_1g   3.00  0.00 -1.00  1.00 -1.00  3.00  1.00  0.00 -1.00 -1.00
T_2g   3.00  0.00  1.00 -1.00 -1.00  3.00 -1.00  0.00 -1.00  1.00
A_1u   1.00  1.00  1.00  1.00  1.00 -1.00 -1.00 -1.00 -1.00 -1.00
A_2u   1.00  1.00 -1.00 -1.00  1.00 -1.00  1.00 -1.00 -1.00  1.00
E_u    2.00 -1.00  0.00  0.00  2.00 -2.00  0.00  1.00 -2.00  0.00
T_1u   3.00  0.00 -1.00  1.00 -1.00 -3.00 -1.00  0.00  1.00  1.00
T_2u   3.00  0.00  1.00 -1.00 -1.00 -3.00  1.00  0.00  1.00 -1.00

     the symmetry operations in each class:
     E        1
     3C2      2    4    3
     6C2'     5    6   14   13   10    9
     6C4      7    8   15   16   12   11
     8C3     17   19   20   18   24   21   22   23
     i       25
     3s_h    26   28   27
     6s_d    29   30   38   37   34   33
     6S4     31   32   39   40   36   35
     8S6     41   43   44   42   48   45   46   47

   Cartesian axes

     site n.     atom                  positions (alat units)
         1           Mg  tau(   1) = (    0.00000000000    0.00000000000    0.00000000000  )
         2           O   tau(   2) = (    0.17677669530    0.17677669530    0.17677669530  )
         3           Mg  tau(   3) = (    0.17677669530    0.17677669530    0.00000000000  )
         4           O   tau(   4) = (    0.35355339059    0.35355339059    0.17677669530  )
         5           Mg  tau(   5) = (    0.35355339059    0.35355339059    0.00000000000  )
         6           O   tau(   6) = (    0.53033008589    0.53033008589    0.17677669530  )
         7           Mg  tau(   7) = (    0.53033008589    0.53033008589    0.00000000000  )
         8           O   tau(   8) = (    0.70710678119    0.70710678119    0.17677669530  )
         9           Mg  tau(   9) = (    0.17677669530    0.00000000000    0.17677669530  )
        10           O   tau(  10) = (    0.35355339059    0.17677669530    0.35355339059  )
        11           Mg  tau(  11) = (    0.35355339059    0.17677669530    0.17677669530  )
        12           O   tau(  12) = (    0.53033008589    0.35355339059    0.35355339059  )
        13           Mg  tau(  13) = (    0.53033008589    0.35355339059    0.17677669530  )
        14           O   tau(  14) = (    0.70710678119    0.53033008589    0.35355339059  )
        15           Mg  tau(  15) = (    0.70710678119    0.53033008589    0.17677669530  )
        16           O   tau(  16) = (    0.88388347648    0.70710678119    0.35355339059  )
        17           Mg  tau(  17) = (    0.35355339059    0.00000000000    0.35355339059  )
        18           O   tau(  18) = (    0.53033008589    0.17677669530    0.53033008589  )
        19           Mg  tau(  19) = (    0.53033008589    0.17677669530    0.35355339059  )
        20           O   tau(  20) = (    0.70710678119    0.35355339059    0.53033008589  )
        21           Mg  tau(  21) = (    0.70710678119    0.35355339059    0.35355339059  )
        22           O   tau(  22) = (    0.88388347648    0.53033008589    0.53033008589  )
        23           Mg  tau(  23) = (    0.88388347648    0.53033008589    0.35355339059  )
        24           O   tau(  24) = (    1.06066017178    0.70710678119    0.53033008589  )
        25           Mg  tau(  25) = (    0.53033008589    0.00000000000    0.53033008589  )
        26           O   tau(  26) = (    0.70710678119    0.17677669530    0.70710678119  )
        27           Mg  tau(  27) = (    0.70710678119    0.17677669530    0.53033008589  )
        28           O   tau(  28) = (    0.88388347648    0.35355339059    0.70710678119  )
        29           Mg  tau(  29) = (    0.88388347648    0.35355339059    0.53033008589  )
        30           O   tau(  30) = (    1.06066017178    0.53033008589    0.70710678119  )
        31           Mg  tau(  31) = (    1.06066017178    0.53033008589    0.53033008589  )
        32           O   tau(  32) = (    1.23743686708    0.70710678119    0.70710678119  )
        33           Mg  tau(  33) = (    0.00000000000    0.17677669530    0.17677669530  )
        34           O   tau(  34) = (    0.17677669530    0.35355339059    0.35355339059  )
        35           Mg  tau(  35) = (    0.17677669530    0.35355339059    0.17677669530  )
        36           O   tau(  36) = (    0.35355339059    0.53033008589    0.35355339059  )
        37           Mg  tau(  37) = (    0.35355339059    0.53033008589    0.17677669530  )
        38           O   tau(  38) = (    0.53033008589    0.70710678119    0.35355339059  )
        39           Mg  tau(  39) = (    0.53033008589    0.70710678119    0.17677669530  )
        40           O   tau(  40) = (    0.70710678119    0.88388347648    0.35355339059  )
        41           Mg  tau(  41) = (    0.17677669530    0.17677669530    0.35355339059  )
        42           O   tau(  42) = (    0.35355339059    0.35355339059    0.53033008589  )
        43           Mg  tau(  43) = (    0.35355339059    0.35355339059    0.35355339059  )
        44           O   tau(  44) = (    0.53033008589    0.53033008589    0.53033008589  )
        45           Mg  tau(  45) = (    0.53033008589    0.53033008589    0.35355339059  )
        46           O   tau(  46) = (    0.70710678119    0.70710678119    0.53033008589  )
        47           Mg  tau(  47) = (    0.70710678119    0.70710678119    0.35355339059  )
        48           O   tau(  48) = (    0.88388347648    0.88388347648    0.53033008589  )
        49           Mg  tau(  49) = (    0.35355339059    0.17677669530    0.53033008589  )
        50           O   tau(  50) = (    0.53033008589    0.35355339059    0.70710678119  )
        51           Mg  tau(  51) = (    0.53033008589    0.35355339059    0.53033008589  )
        52           O   tau(  52) = (    0.70710678119    0.53033008589    0.70710678119  )
        53           Mg  tau(  53) = (    0.70710678119    0.53033008589    0.53033008589  )
        54           O   tau(  54) = (    0.88388347648    0.70710678119    0.70710678119  )
        55           Mg  tau(  55) = (    0.88388347648    0.70710678119    0.53033008589  )
        56           O   tau(  56) = (    1.06066017178    0.88388347648    0.70710678119  )
        57           Mg  tau(  57) = (    0.53033008589    0.17677669530    0.70710678119  )
        58           O   tau(  58) = (    0.70710678119    0.35355339059    0.88388347648  )
        59           Mg  tau(  59) = (    0.70710678119    0.35355339059    0.70710678119  )
        60           O   tau(  60) = (    0.88388347648    0.53033008589    0.88388347648  )
        61           Mg  tau(  61) = (    0.88388347648    0.53033008589    0.70710678119  )
        62           O   tau(  62) = (    1.06066017178    0.70710678119    0.88388347648  )
        63           Mg  tau(  63) = (    1.06066017178    0.70710678119    0.70710678119  )
        64           O   tau(  64) = (    1.23743686708    0.88388347648    0.88388347648  )
        65           Mg  tau(  65) = (    0.00000000000    0.35355339059    0.35355339059  )
        66           O   tau(  66) = (    0.17677669530    0.53033008589    0.53033008589  )
        67           Mg  tau(  67) = (    0.17677669530    0.53033008589    0.35355339059  )
        68           O   tau(  68) = (    0.35355339059    0.70710678119    0.53033008589  )
        69           Mg  tau(  69) = (    0.35355339059    0.70710678119    0.35355339059  )
        70           O   tau(  70) = (    0.53033008589    0.88388347648    0.53033008589  )
        71           Mg  tau(  71) = (    0.53033008589    0.88388347648    0.35355339059  )
        72           O   tau(  72) = (    0.70710678119    1.06066017178    0.53033008589  )
        73           Mg  tau(  73) = (    0.17677669530    0.35355339059    0.53033008589  )
        74           O   tau(  74) = (    0.35355339059    0.53033008589    0.70710678119  )
        75           Mg  tau(  75) = (    0.35355339059    0.53033008589    0.53033008589  )
        76           O   tau(  76) = (    0.53033008589    0.70710678119    0.70710678119  )
        77           Mg  tau(  77) = (    0.53033008589    0.70710678119    0.53033008589  )
        78           O   tau(  78) = (    0.70710678119    0.88388347648    0.70710678119  )
        79           Mg  tau(  79) = (    0.70710678119    0.88388347648    0.53033008589  )
        80           O   tau(  80) = (    0.88388347648    1.06066017178    0.70710678119  )
        81           Mg  tau(  81) = (    0.35355339059    0.35355339059    0.70710678119  )
        82           O   tau(  82) = (    0.53033008589    0.53033008589    0.88388347648  )
        83           Mg  tau(  83) = (    0.53033008589    0.53033008589    0.70710678119  )
        84           O   tau(  84) = (    0.70710678119    0.70710678119    0.88388347648  )
        85           Ca  tau(  85) = (    0.70710678119    0.70710678119    0.70710678119  )
        86           O   tau(  86) = (    0.88388347648    0.88388347648    0.88388347648  )
        87           Mg  tau(  87) = (    0.88388347648    0.88388347648    0.70710678119  )
        88           O   tau(  88) = (    1.06066017178    1.06066017178    0.88388347648  )
        89           Mg  tau(  89) = (    0.53033008589    0.35355339059    0.88388347648  )
        90           O   tau(  90) = (    0.70710678119    0.53033008589    1.06066017178  )
        91           Mg  tau(  91) = (    0.70710678119    0.53033008589    0.88388347648  )
        92           O   tau(  92) = (    0.88388347648    0.70710678119    1.06066017178  )
        93           Mg  tau(  93) = (    0.88388347648    0.70710678119    0.88388347648  )
        94           O   tau(  94) = (    1.06066017178    0.88388347648    1.06066017178  )
        95           Mg  tau(  95) = (    1.06066017178    0.88388347648    0.88388347648  )
        96           O   tau(  96) = (    1.23743686708    1.06066017178    1.06066017178  )
        97           Mg  tau(  97) = (    0.00000000000    0.53033008589    0.53033008589  )
        98           O   tau(  98) = (    0.17677669530    0.70710678119    0.70710678119  )
        99           Mg  tau(  99) = (    0.17677669530    0.70710678119    0.53033008589  )
       100           O   tau( 100) = (    0.35355339059    0.88388347648    0.70710678119  )
       101           Mg  tau( 101) = (    0.35355339059    0.88388347648    0.53033008589  )
       102           O   tau( 102) = (    0.53033008589    1.06066017178    0.70710678119  )
       103           Mg  tau( 103) = (    0.53033008589    1.06066017178    0.53033008589  )
       104           O   tau( 104) = (    0.70710678119    1.23743686708    0.70710678119  )
       105           Mg  tau( 105) = (    0.17677669530    0.53033008589    0.70710678119  )
       106           O   tau( 106) = (    0.35355339059    0.70710678119    0.88388347648  )
       107           Mg  tau( 107) = (    0.35355339059    0.70710678119    0.70710678119  )
       108           O   tau( 108) = (    0.53033008589    0.88388347648    0.88388347648  )
       109           Mg  tau( 109) = (    0.53033008589    0.88388347648    0.70710678119  )
       110           O   tau( 110) = (    0.70710678119    1.06066017178    0.88388347648  )
       111           Mg  tau( 111) = (    0.70710678119    1.06066017178    0.70710678119  )
       112           O   tau( 112) = (    0.88388347648    1.23743686708    0.88388347648  )
       113           Mg  tau( 113) = (    0.35355339059    0.53033008589    0.88388347648  )
       114           O   tau( 114) = (    0.53033008589    0.70710678119    1.06066017178  )
       115           Mg  tau( 115) = (    0.53033008589    0.70710678119    0.88388347648  )
       116           O   tau( 116) = (    0.70710678119    0.88388347648    1.06066017178  )
       117           Mg  tau( 117) = (    0.70710678119    0.88388347648    0.88388347648  )
       118           O   tau( 118) = (    0.88388347648    1.06066017178    1.06066017178  )
       119           Mg  tau( 119) = (    0.88388347648    1.06066017178    0.88388347648  )
       120           O   tau( 120) = (    1.06066017178    1.23743686708    1.06066017178  )
       121           Mg  tau( 121) = (    0.53033008589    0.53033008589    1.06066017178  )
       122           O   tau( 122) = (    0.70710678119    0.70710678119    1.23743686708  )
       123           Mg  tau( 123) = (    0.70710678119    0.70710678119    1.06066017178  )
       124           O   tau( 124) = (    0.88388347648    0.88388347648    1.23743686708  )
       125           Mg  tau( 125) = (    0.88388347648    0.88388347648    1.06066017178  )
       126           O   tau( 126) = (    1.06066017178    1.06066017178    1.23743686708  )
       127           Mg  tau( 127) = (    1.06066017178    1.06066017178    1.06066017178  )
       128           O   tau( 128) = (    1.23743686708    1.23743686708    1.23743686708  )

   Crystallographic axes

     site n.     atom                  positions (cryst. coord.)
         1           Mg  tau(   1) = (    0.00000000000    0.00000000000    0.00000000000  )
         2           O   tau(   2) = (    0.12500000000    0.12500000000    0.12500000000  )
         3           Mg  tau(   3) = (    0.00000000000    0.00000000000    0.25000000000  )
         4           O   tau(   4) = (    0.12500000000    0.12500000000    0.37500000000  )
         5           Mg  tau(   5) = (    0.00000000000    0.00000000000    0.50000000000  )
         6           O   tau(   6) = (    0.12500000000    0.12500000000    0.62500000000  )
         7           Mg  tau(   7) = (    0.00000000000    0.00000000000    0.75000000000  )
         8           O   tau(   8) = (    0.12500000000    0.12500000000    0.87500000000  )
         9           Mg  tau(   9) = (    0.00000000000    0.25000000000    0.00000000000  )
        10           O   tau(  10) = (    0.12500000000    0.37500000000    0.12500000000  )
        11           Mg  tau(  11) = (    0.00000000000    0.25000000000    0.25000000000  )
        12           O   tau(  12) = (    0.12500000000    0.37500000000    0.37500000000  )
        13           Mg  tau(  13) = (    0.00000000000    0.25000000000    0.50000000000  )
        14           O   tau(  14) = (    0.12500000000    0.37500000000    0.62500000000  )
        15           Mg  tau(  15) = (   -0.00000000000    0.25000000000    0.75000000000  )
        16           O   tau(  16) = (    0.12500000000    0.37500000000    0.87500000000  )
        17           Mg  tau(  17) = (    0.00000000000    0.50000000000    0.00000000000  )
        18           O   tau(  18) = (    0.12500000000    0.62500000000    0.12500000000  )
        19           Mg  tau(  19) = (    0.00000000000    0.50000000000    0.25000000000  )
        20           O   tau(  20) = (    0.12500000000    0.62500000000    0.37500000000  )
        21           Mg  tau(  21) = (    0.00000000000    0.50000000000    0.50000000000  )
        22           O   tau(  22) = (    0.12500000000    0.62500000000    0.62500000000  )
        23           Mg  tau(  23) = (    0.00000000000    0.50000000000    0.75000000000  )
        24           O   tau(  24) = (    0.12500000000    0.62500000000    0.87500000000  )
        25           Mg  tau(  25) = (    0.00000000000    0.75000000000    0.00000000000  )
        26           O   tau(  26) = (    0.12500000000    0.87500000000    0.12500000000  )
        27           Mg  tau(  27) = (   -0.00000000000    0.75000000000    0.25000000000  )
        28           O   tau(  28) = (    0.12500000000    0.87500000000    0.37500000000  )
        29           Mg  tau(  29) = (    0.00000000000    0.75000000000    0.50000000000  )
        30           O   tau(  30) = (    0.12500000000    0.87500000000    0.62500000000  )
        31           Mg  tau(  31) = (    0.00000000000    0.75000000000    0.75000000000  )
        32           O   tau(  32) = (    0.12500000000    0.87500000000    0.87500000000  )
        33           Mg  tau(  33) = (    0.25000000000    0.00000000000    0.00000000000  )
        34           O   tau(  34) = (    0.37500000000    0.12500000000    0.12500000000  )
        35           Mg  tau(  35) = (    0.25000000000    0.00000000000    0.25000000000  )
        36           O   tau(  36) = (    0.37500000000    0.12500000000    0.37500000000  )
        37           Mg  tau(  37) = (    0.25000000000    0.00000000000    0.50000000000  )
        38           O   tau(  38) = (    0.37500000000    0.12500000000    0.62500000000  )
        39           Mg  tau(  39) = (    0.25000000000   -0.00000000000    0.75000000000  )
        40           O   tau(  40) = (    0.37500000000    0.12500000000    0.87500000000  )
        41           Mg  tau(  41) = (    0.25000000000    0.25000000000    0.00000000000  )
        42           O   tau(  42) = (    0.37500000000    0.37500000000    0.12500000000  )
        43           Mg  tau(  43) = (    0.25000000000    0.25000000000    0.25000000000  )
        44           O   tau(  44) = (    0.37500000000    0.37500000000    0.37500000000  )
        45           Mg  tau(  45) = (    0.25000000000    0.25000000000    0.50000000000  )
        46           O   tau(  46) = (    0.37500000000    0.37500000000    0.62500000000  )
        47           Mg  tau(  47) = (    0.25000000000    0.25000000000    0.75000000000  )
        48           O   tau(  48) = (    0.37500000000    0.37500000000    0.87500000000  )
        49           Mg  tau(  49) = (    0.25000000000    0.50000000000    0.00000000000  )
        50           O   tau(  50) = (    0.37500000000    0.62500000000    0.12500000000  )
        51           Mg  tau(  51) = (    0.25000000000    0.50000000000    0.25000000000  )
        52           O   tau(  52) = (    0.37500000000    0.62500000000    0.37500000000  )
        53           Mg  tau(  53) = (    0.25000000000    0.50000000000    0.50000000000  )
        54           O   tau(  54) = (    0.37500000000    0.62500000000    0.62500000000  )
        55           Mg  tau(  55) = (    0.25000000000    0.50000000000    0.75000000000  )
        56           O   tau(  56) = (    0.37500000000    0.62500000000    0.87500000000  )
        57           Mg  tau(  57) = (    0.25000000000    0.75000000000    0.00000000000  )
        58           O   tau(  58) = (    0.37500000000    0.87500000000    0.12500000000  )
        59           Mg  tau(  59) = (    0.25000000000    0.75000000000    0.25000000000  )
        60           O   tau(  60) = (    0.37500000000    0.87500000000    0.37500000000  )
        61           Mg  tau(  61) = (    0.25000000000    0.75000000000    0.50000000000  )
        62           O   tau(  62) = (    0.37500000000    0.87500000000    0.62500000000  )
        63           Mg  tau(  63) = (    0.25000000000    0.75000000000    0.75000000000  )
        64           O   tau(  64) = (    0.37500000000    0.87500000000    0.87500000000  )
        65           Mg  tau(  65) = (    0.50000000000    0.00000000000    0.00000000000  )
        66           O   tau(  66) = (    0.62500000000    0.12500000000    0.12500000000  )
        67           Mg  tau(  67) = (    0.50000000000    0.00000000000    0.25000000000  )
        68           O   tau(  68) = (    0.62500000000    0.12500000000    0.37500000000  )
        69           Mg  tau(  69) = (    0.50000000000    0.00000000000    0.50000000000  )
        70           O   tau(  70) = (    0.62500000000    0.12500000000    0.62500000000  )
        71           Mg  tau(  71) = (    0.50000000000    0.00000000000    0.75000000000  )
        72           O   tau(  72) = (    0.62500000000    0.12500000000    0.87500000000  )
        73           Mg  tau(  73) = (    0.50000000000    0.25000000000    0.00000000000  )
        74           O   tau(  74) = (    0.62500000000    0.37500000000    0.12500000000  )
        75           Mg  tau(  75) = (    0.50000000000    0.25000000000    0.25000000000  )
        76           O   tau(  76) = (    0.62500000000    0.37500000000    0.37500000000  )
        77           Mg  tau(  77) = (    0.50000000000    0.25000000000    0.50000000000  )
        78           O   tau(  78) = (    0.62500000000    0.37500000000    0.62500000000  )
        79           Mg  tau(  79) = (    0.50000000000    0.25000000000    0.75000000000  )
        80           O   tau(  80) = (    0.62500000000    0.37500000000    0.87500000000  )
        81           Mg  tau(  81) = (    0.50000000000    0.50000000000    0.00000000000  )
        82           O   tau(  82) = (    0.62500000000    0.62500000000    0.12500000000  )
        83           Mg  tau(  83) = (    0.50000000000    0.50000000000    0.25000000000  )
        84           O   tau(  84) = (    0.62500000000    0.62500000000    0.37500000000  )
        85           Ca  tau(  85) = (    0.50000000000    0.50000000000    0.50000000000  )
        86           O   tau(  86) = (    0.62500000000    0.62500000000    0.62500000000  )
        87           Mg  tau(  87) = (    0.50000000000    0.50000000000    0.75000000000  )
        88           O   tau(  88) = (    0.62500000000    0.62500000000    0.87500000000  )
        89           Mg  tau(  89) = (    0.50000000000    0.75000000000    0.00000000000  )
        90           O   tau(  90) = (    0.62500000000    0.87500000000    0.12500000000  )
        91           Mg  tau(  91) = (    0.50000000000    0.75000000000    0.25000000000  )
        92           O   tau(  92) = (    0.62500000000    0.87500000000    0.37500000000  )
        93           Mg  tau(  93) = (    0.50000000000    0.75000000000    0.50000000000  )
        94           O   tau(  94) = (    0.62500000000    0.87500000000    0.62500000000  )
        95           Mg  tau(  95) = (    0.50000000000    0.75000000000    0.75000000000  )
        96           O   tau(  96) = (    0.62500000000    0.87500000000    0.87500000000  )
        97           Mg  tau(  97) = (    0.75000000000    0.00000000000    0.00000000000  )
        98           O   tau(  98) = (    0.87500000000    0.12500000000    0.12500000000  )
        99           Mg  tau(  99) = (    0.75000000000   -0.00000000000    0.25000000000  )
       100           O   tau( 100) = (    0.87500000000    0.12500000000    0.37500000000  )
       101           Mg  tau( 101) = (    0.75000000000    0.00000000000    0.50000000000  )
       102           O   tau( 102) = (    0.87500000000    0.12500000000    0.62500000000  )
       103           Mg  tau( 103) = (    0.75000000000    0.00000000000    0.75000000000  )
       104           O   tau( 104) = (    0.87500000000    0.12500000000    0.87500000000  )
       105           Mg  tau( 105) = (    0.75000000000    0.25000000000    0.00000000000  )
       106           O   tau( 106) = (    0.87500000000    0.37500000000    0.12500000000  )
       107           Mg  tau( 107) = (    0.75000000000    0.25000000000    0.25000000000  )
       108           O   tau( 108) = (    0.87500000000    0.37500000000    0.37500000000  )
       109           Mg  tau( 109) = (    0.75000000000    0.25000000000    0.50000000000  )
       110           O   tau( 110) = (    0.87500000000    0.37500000000    0.62500000000  )
       111           Mg  tau( 111) = (    0.75000000000    0.25000000000    0.75000000000  )
       112           O   tau( 112) = (    0.87500000000    0.37500000000    0.87500000000  )
       113           Mg  tau( 113) = (    0.75000000000    0.50000000000    0.00000000000  )
       114           O   tau( 114) = (    0.87500000000    0.62500000000    0.12500000000  )
       115           Mg  tau( 115) = (    0.75000000000    0.50000000000    0.25000000000  )
       116           O   tau( 116) = (    0.87500000000    0.62500000000    0.37500000000  )
       117           Mg  tau( 117) = (    0.75000000000    0.50000000000    0.50000000000  )
       118           O   tau( 118) = (    0.87500000000    0.62500000000    0.62500000000  )
       119           Mg  tau( 119) = (    0.75000000000    0.50000000000    0.75000000000  )
       120           O   tau( 120) = (    0.87500000000    0.62500000000    0.87500000000  )
       121           Mg  tau( 121) = (    0.75000000000    0.75000000000    0.00000000000  )
       122           O   tau( 122) = (    0.87500000000    0.87500000000    0.12500000000  )
       123           Mg  tau( 123) = (    0.75000000000    0.75000000000    0.25000000000  )
       124           O   tau( 124) = (    0.87500000000    0.87500000000    0.37500000000  )
       125           Mg  tau( 125) = (    0.75000000000    0.75000000000    0.50000000000  )
       126           O   tau( 126) = (    0.87500000000    0.87500000000    0.62500000000  )
       127           Mg  tau( 127) = (    0.75000000000    0.75000000000    0.75000000000  )
       128           O   tau( 128) = (    0.87500000000    0.87500000000    0.87500000000  )

     number of k points=     3  gaussian smearing, width (Ry)=  0.0050
                       cart. coord. in units 2pi/alat
        k(    1) = (   0.0000000   0.0000000   0.0000000), wk =   0.2500000
        k(    2) = (  -0.3535534  -0.3535534   0.3535534), wk =   1.0000000
        k(    3) = (  -0.7071068   0.0000000   0.0000000), wk =   0.7500000

                       cryst. coord.
        k(    1) = (   0.0000000   0.0000000   0.0000000), wk =   0.2500000
        k(    2) = (   0.0000000   0.0000000  -0.5000000), wk =   1.0000000
        k(    3) = (   0.0000000  -0.5000000  -0.5000000), wk =   0.7500000

     Dense  grid:   387335 G-vectors     FFT dimensions: ( 108, 108, 108)

     Smooth grid:   277305 G-vectors     FFT dimensions: (  96,  96,  96)

     Largest allocated arrays     est. size (Mb)     dimensions
        Kohn-Sham Wavefunctions        40.64 Mb     (    4338,  614)
        NL pseudopotentials           135.50 Mb     (    4338, 2047)
        Each V/rho on FFT grid          2.49 Mb     (  163296)
        Each G-vector array             0.37 Mb     (   48418)
        G-vector shells                 0.01 Mb     (    1718)
     Largest temporary arrays     est. size (Mb)     dimensions
        Auxiliary wavefunctions       162.57 Mb     (    4338, 2456)
        Each subspace H/S matrix       92.04 Mb     (    2456, 2456)
        Each <psi_i|beta_j> matrix     19.18 Mb     (    2047,  614)
        Arrays for rho mixing          19.93 Mb     (  163296,    8)

     Check: negative/imaginary core charge=   -0.000003    0.000000

     Initial potential from superposition of free atoms

     starting charge 1005.08040, renormalised to 1024.00000
     Starting wfc are  581 randomized atomic wfcs +   33 random wfc

     total cpu time spent up to now is      151.7 secs

     Self-consistent Calculation

     iteration #  1     ecut=    40.00 Ry     beta=0.30
     Davidson diagonalization with overlap
     ethr =  1.00E-02,  avg # of iterations =  6.0

     total cpu time spent up to now is     1079.1 secs

     total energy              =  -10039.81195323 Ry
     Harris-Foulkes estimate   =  -10044.22179700 Ry
     estimated scf accuracy    <      22.11469335 Ry

     iteration #  2     ecut=    40.00 Ry     beta=0.30
     Davidson diagonalization with overlap
     ethr =  2.16E-03,  avg # of iterations =  1.0

     total cpu time spent up to now is     1470.8 secs

     total energy              =  -10035.51807136 Ry
     Harris-Foulkes estimate   =  -10040.33546606 Ry
     estimated scf accuracy    <      10.39131489 Ry

     iteration #  3     ecut=    40.00 Ry     beta=0.30
     Davidson diagonalization with overlap
     ethr =  1.01E-03,  avg # of iterations =  2.3

     total cpu time spent up to now is     1974.9 secs

     total energy              =  -10036.41541884 Ry
     Harris-Foulkes estimate   =  -10037.06949955 Ry
     estimated scf accuracy    <       1.28385179 Ry

     iteration #  4     ecut=    40.00 Ry     beta=0.30
     Davidson diagonalization with overlap
     ethr =  1.25E-04,  avg # of iterations =  8.3

     total cpu time spent up to now is     2634.7 secs

     total energy              =  -10036.35804276 Ry
     Harris-Foulkes estimate   =  -10036.49714569 Ry
     estimated scf accuracy    <       0.22388818 Ry

     iteration #  5     ecut=    40.00 Ry     beta=0.30
     Davidson diagonalization with overlap
     ethr =  2.19E-05,  avg # of iterations =  8.0

     total cpu time spent up to now is     3447.2 secs

     total energy              =  -10036.37761420 Ry
     Harris-Foulkes estimate   =  -10036.38438194 Ry
     estimated scf accuracy    <       0.03002991 Ry

     iteration #  6     ecut=    40.00 Ry     beta=0.30
     Davidson diagonalization with overlap
     ethr =  2.93E-06,  avg # of iterations =  4.3

     total cpu time spent up to now is     4043.6 secs

     total energy              =  -10036.37769506 Ry
     Harris-Foulkes estimate   =  -10036.38189836 Ry
     estimated scf accuracy    <       0.01233102 Ry

     iteration #  7     ecut=    40.00 Ry     beta=0.30
     Davidson diagonalization with overlap
     ethr =  1.20E-06,  avg # of iterations =  2.0

     total cpu time spent up to now is     4518.2 secs

     total energy              =  -10036.37913406 Ry
     Harris-Foulkes estimate   =  -10036.37952647 Ry
     estimated scf accuracy    <       0.00130863 Ry

     iteration #  8     ecut=    40.00 Ry     beta=0.30
     Davidson diagonalization with overlap
     ethr =  1.28E-07,  avg # of iterations =  2.0

     total cpu time spent up to now is     5016.8 secs

     total energy              =  -10036.37885792 Ry
     Harris-Foulkes estimate   =  -10036.37940196 Ry
     estimated scf accuracy    <       0.00092356 Ry

     iteration #  9     ecut=    40.00 Ry     beta=0.30
     Davidson diagonalization with overlap
     ethr =  9.02E-08,  avg # of iterations =  3.0

     total cpu time spent up to now is     5580.3 secs

     total energy              =  -10036.37906841 Ry
     Harris-Foulkes estimate   =  -10036.37928117 Ry
     estimated scf accuracy    <       0.00055098 Ry

     iteration # 10     ecut=    40.00 Ry     beta=0.30
     Davidson diagonalization with overlap
     ethr =  5.38E-08,  avg # of iterations =  2.0

     total cpu time spent up to now is     6061.2 secs

     total energy              =  -10036.37912568 Ry
     Harris-Foulkes estimate   =  -10036.37914148 Ry
     estimated scf accuracy    <       0.00004192 Ry

     iteration # 11     ecut=    40.00 Ry     beta=0.30
     Davidson diagonalization with overlap
     ethr =  4.09E-09,  avg # of iterations =  2.0

     total cpu time spent up to now is     6631.9 secs

     total energy              =  -10036.37912990 Ry
     Harris-Foulkes estimate   =  -10036.37913587 Ry
     estimated scf accuracy    <       0.00001803 Ry

     iteration # 12     ecut=    40.00 Ry     beta=0.30
     Davidson diagonalization with overlap
     ethr =  1.76E-09,  avg # of iterations =  2.0

     total cpu time spent up to now is     7162.2 secs

     total energy              =  -10036.37912850 Ry
     Harris-Foulkes estimate   =  -10036.37913262 Ry
     estimated scf accuracy    <       0.00000919 Ry

     iteration # 13     ecut=    40.00 Ry     beta=0.30
     Davidson diagonalization with overlap
     ethr =  8.97E-10,  avg # of iterations =  2.0

     total cpu time spent up to now is     7614.4 secs

     total energy              =  -10036.37912909 Ry
     Harris-Foulkes estimate   =  -10036.37912974 Ry
     estimated scf accuracy    <       0.00000236 Ry

     iteration # 14     ecut=    40.00 Ry     beta=0.30
     Davidson diagonalization with overlap
     ethr =  2.31E-10,  avg # of iterations =  2.0

     total cpu time spent up to now is     8077.9 secs

     total energy              =  -10036.37912929 Ry
     Harris-Foulkes estimate   =  -10036.37912941 Ry
     estimated scf accuracy    <       0.00000050 Ry

     iteration # 15     ecut=    40.00 Ry     beta=0.30
     Davidson diagonalization with overlap
     ethr =  4.87E-11,  avg # of iterations =  2.0

     total cpu time spent up to now is     8494.8 secs

     total energy              =  -10036.37912932 Ry
     Harris-Foulkes estimate   =  -10036.37912932 Ry
     estimated scf accuracy    <       0.00000010 Ry

     iteration # 16     ecut=    40.00 Ry     beta=0.30
     Davidson diagonalization with overlap
     ethr =  9.98E-12,  avg # of iterations =  2.0

     total cpu time spent up to now is     8906.3 secs

     total energy              =  -10036.37912933 Ry
     Harris-Foulkes estimate   =  -10036.37912933 Ry
     estimated scf accuracy    <       0.00000005 Ry

     iteration # 17     ecut=    40.00 Ry     beta=0.30
     Davidson diagonalization with overlap
     ethr =  4.93E-12,  avg # of iterations =  2.0

     total cpu time spent up to now is     9308.2 secs

     total energy              =  -10036.37912932 Ry
     Harris-Foulkes estimate   =  -10036.37912933 Ry
     estimated scf accuracy    <       0.00000002 Ry

     iteration # 18     ecut=    40.00 Ry     beta=0.30
     Davidson diagonalization with overlap
     ethr =  2.39E-12,  avg # of iterations =  2.0

     total cpu time spent up to now is     9735.4 secs

     total energy              =  -10036.37912933 Ry
     Harris-Foulkes estimate   =  -10036.37912933 Ry
     estimated scf accuracy    <          7.2E-09 Ry

     iteration # 19     ecut=    40.00 Ry     beta=0.30
     Davidson diagonalization with overlap
     ethr =  7.05E-13,  avg # of iterations =  1.0

     total cpu time spent up to now is    10105.7 secs

     total energy              =  -10036.37912933 Ry
     Harris-Foulkes estimate   =  -10036.37912933 Ry
     estimated scf accuracy    <          3.5E-09 Ry

     iteration # 20     ecut=    40.00 Ry     beta=0.30
     Davidson diagonalization with overlap
     ethr =  3.47E-13,  avg # of iterations =  2.0

     total cpu time spent up to now is    10572.8 secs

     total energy              =  -10036.37912933 Ry
     Harris-Foulkes estimate   =  -10036.37912933 Ry
     estimated scf accuracy    <          9.2E-10 Ry

     iteration # 21     ecut=    40.00 Ry     beta=0.30
     Davidson diagonalization with overlap
     ethr =  1.00E-13,  avg # of iterations =  1.0

     total cpu time spent up to now is    10942.4 secs

     total energy              =  -10036.37912933 Ry
     Harris-Foulkes estimate   =  -10036.37912933 Ry
     estimated scf accuracy    <          6.1E-10 Ry

     iteration # 22     ecut=    40.00 Ry     beta=0.30
     Davidson diagonalization with overlap
     ethr =  1.00E-13,  avg # of iterations =  2.0

     total cpu time spent up to now is    11358.0 secs

     total energy              =  -10036.37912933 Ry
     Harris-Foulkes estimate   =  -10036.37912933 Ry
     estimated scf accuracy    <          1.5E-10 Ry

     iteration # 23     ecut=    40.00 Ry     beta=0.30
     Davidson diagonalization with overlap
     ethr =  1.00E-13,  avg # of iterations =  1.0

     total cpu time spent up to now is    11727.5 secs

     End of self-consistent calculation

          k = 0.0000 0.0000 0.0000 ( 34621 PWs)   bands (ev):

   -64.2127 -64.2112 -64.2112 -64.2112 -64.2097 -64.2097 -64.2097 -64.2082
   -64.2082 -64.2081 -64.2081 -64.2081 -64.1819 -64.1809 -64.1788 -64.1788
   -64.1788 -64.1783 -64.1783 -64.1783 -64.1769 -64.1769 -64.1769 -64.1767
   -64.1767 -64.1767 -64.1758 -64.1758 -64.1753 -64.1753 -64.1753 -64.1752
   -64.1752 -64.1752 -64.1752 -64.1752 -64.1752 -64.1746 -64.1728 -64.1706
   -64.1706 -64.1706 -64.1699 -64.1699 -64.1699 -64.1695 -64.1695 -64.1687
   -64.1685 -64.1685 -64.1685 -64.1680 -64.1680 -64.1680 -64.1676 -64.1676
   -64.1662 -64.1254 -64.1254 -64.1254 -64.1254 -64.1254 -64.1253 -31.2286
   -31.2183 -31.2183 -31.2183 -31.2165 -31.2157 -31.2157 -31.2157 -31.2144
   -31.2144 -31.2144 -31.2101 -31.2101 -31.2031 -31.2031 -31.2031 -31.2027
   -31.2027 -31.2027 -31.1982 -31.1975 -31.1975 -31.1975 -31.1975 -31.1975
   -31.1975 -31.1933 -31.1933 -31.1920 -31.1920 -31.1920 -31.1895 -31.1895
   -31.1895 -31.1891 -31.1891 -31.1891 -31.1890 -31.1882 -31.1882 -31.1877
   -31.1877 -31.1877 -31.1837 -31.1837 -31.1837 -31.1815 -31.1815 -31.1815
   -31.1802 -31.1802 -31.1802 -31.1800 -31.1800 -31.1800 -31.1791 -31.1791
   -31.1790 -31.1790 -31.1775 -31.1756 -31.1756 -31.1756 -31.1749 -31.1735
   -31.1735 -31.1735 -31.1717 -31.1693 -31.1693 -31.1693 -31.1645 -31.1645
   -31.1645 -31.1627 -31.1627 -31.1626 -31.1626 -31.1626 -31.1622 -31.1622
   -31.1622 -31.1608 -31.1608 -31.1608 -31.1605 -31.1599 -31.1599 -31.1599
   -31.1587 -31.1559 -31.1559 -31.1559 -31.1543 -31.1543 -31.1533 -31.1533
   -31.1533 -31.1530 -31.1530 -31.1515 -31.1515 -31.1515 -31.1501 -31.1500
   -31.1500 -31.1500 -31.1492 -31.1492 -31.1492 -31.1485 -31.1485 -31.1485
   -31.1484 -31.1484 -31.1484 -31.1481 -31.1474 -31.1474 -31.1474 -31.1459
   -31.1459 -31.1442 -31.1442 -31.1442 -31.1438 -31.1431 -31.1431 -31.1431
   -31.1425 -31.1425 -31.1422 -31.1422 -31.1422 -31.1407 -31.1407 -31.1407
   -31.1384 -31.1384 -31.1384 -31.1374 -31.1374 -31.1374 -31.1349 -31.1349
   -31.1349 -31.1342 -31.1342 -31.1329 -31.1329 -31.1329 -31.1324 -31.1324
   -31.1324 -31.1320 -31.1313 -31.1313 -31.1304 -31.1304 -31.1304 -31.1301
   -31.1301 -31.1301 -31.1266 -31.1266 -31.1263 -31.1263 -31.1263 -31.1224
   -31.1224 -31.1224 -31.1048 -31.1048 -31.1048 -31.1047 -31.1047 -31.1047
   -31.1044 -31.1013 -31.1013 -31.1013 -31.0992 -31.0992 -31.0992 -31.0958
   -31.0958 -31.0958 -31.0952 -31.0952 -27.5750 -10.1795 -10.1795 -10.1795
    -9.3973  -8.8057  -8.8022  -8.8022  -8.8022  -8.7445  -8.7363  -8.7363
    -8.7363  -8.6418  -8.6418  -8.5882  -8.5882  -8.5882  -8.5578  -8.1729
    -8.1729  -8.1729  -8.1724  -8.1724  -8.1566  -8.1566  -8.1566  -8.1226
    -8.1182  -8.1182  -8.1182  -8.0871  -8.0375  -8.0375  -8.0375  -8.0143
    -8.0143  -7.9806  -7.9803  -7.9803  -7.9803  -7.9787  -7.9787  -7.9787
    -7.9755  -7.9755  -7.9726  -7.9726  -7.9726  -7.9682  -7.9682  -7.9682
    -7.9679  -7.9679  -7.9679  -7.9295  -7.8557  -7.8557  -7.8442  -7.8054
    -7.8054  -7.8054  -7.7950  -7.7950  -7.7801  -6.8326  -6.8326  -6.8326
     3.0514   3.0514   3.0514   3.1403   3.6539   3.6539   3.6539   3.8309
     3.8309   3.8309   3.8723   3.8723   3.8787   3.8787   3.8787   3.8789
     3.8789   3.8789   3.8826   3.8826   3.8826   3.8839   3.8839   3.8848
     3.8859   3.8859   3.8859   4.0244   4.0264   4.0264   4.0264   4.1806
     4.1806   4.1815   4.1815   4.1815   4.1939   4.1939   4.1939   4.1965
     4.1965   4.1965   4.5170   4.7308   4.7308   4.7308   4.7494   4.7494
     4.7494   4.7568   4.7568   4.7568   4.8877   4.8877   4.8877   5.0275
     5.0275   5.0275   5.0382   5.0382   5.0401   5.0401   5.0401   5.0414
     5.0646   5.0908   5.0908   5.0908   5.3454   5.6780   5.6780   5.6780
     5.6958   5.6958   5.6964   5.7054   5.7054   5.7121   5.7121   5.7121
     5.7470   5.7470   5.7470   5.7782   5.7782   5.7782   5.7883   5.7891
     5.7891   5.7891   5.7894   5.7894   5.7894   5.7941   5.7941   5.7941
     5.7947   5.7947   5.7947   5.7984   5.7984   5.8444   5.9192   5.9192
     5.9362   5.9362   5.9362   6.0367   6.0367   6.0367   6.2055   6.3672
     6.3672   6.3672   6.4324   6.4324   6.4324   6.5781   6.5781   6.6885
     6.6885   6.6885   6.6911   6.6911   6.6911   6.6983   6.6983   6.6983
     6.6996   6.6996   6.7012   6.7012   6.7012   6.7024   6.7024   6.7024
     6.7066   6.7066   6.8253   6.8253   6.8253   6.9484   6.9484   6.9676
     6.9676   6.9676   6.9794   6.9794   6.9794   6.9858   6.9858   6.9858
     7.0523   7.0523   7.0523   7.0578   7.0578   7.0578   7.0635   7.0635
     7.0635   7.0647   7.0647   7.0647   7.0702   7.0702   7.0702   7.0711
     7.0711   7.0766   7.1711   7.1711   7.1711   7.3449   7.3449   7.3726
     7.3726   7.3726   7.3805   7.3805   7.3805   7.3821   7.3821   7.3828
     7.3828   7.3828   7.4452   7.4452   7.4452   7.7408   7.7408   7.7408
    12.3780  14.6725  14.6725  14.6725  14.6850  14.7406  14.7406  14.7406
    14.7979  15.4477  15.5215  15.5215  15.5215  15.6425  15.6425  15.6846
    15.6846  15.6846  15.7318  15.7318  15.7318  15.8106  16.8681  16.8681
    16.8681  17.0048  17.0048  17.0672  17.0672  17.0672  17.0721  17.0721
    17.0721  17.0853  17.1168  17.1168  17.1168  17.2004  17.2004  17.2331
    17.2592  17.2592  17.2592  17.2636  17.2636  17.2636  17.2643  17.2643
    17.2643  17.2652  17.2652  17.2688  17.2688  17.2688  17.3662  17.4834
    17.4834  17.4834  17.5525  17.5525  17.8019  17.8019  17.8019  17.8269
    18.6643  18.7019  18.7019  18.8455  18.8455  18.8455  19.1161  19.1161
    19.1386  19.1431  19.1431  19.1431  19.1466  19.1466  19.1466  19.1472
    19.1472  19.1472  19.1477  19.1477  19.1477  19.1482  19.1482  19.1482
    19.1483  19.1483  19.1868  19.1868  19.1868  19.2065  19.2065  19.2065
    19.2068  19.2068  19.2068  19.2306  19.2306  19.2306

     occupation numbers 
     1.0000   1.0000   1.0000   1.0000   1.0000   1.0000   1.0000   1.0000
     1.0000   1.0000   1.0000   1.0000   1.0000   1.0000   1.0000   1.0000
     1.0000   1.0000   1.0000   1.0000   1.0000   1.0000   1.0000   1.0000
     1.0000   1.0000   1.0000   1.0000   1.0000   1.0000   1.0000   1.0000
     1.0000   1.0000   1.0000   1.0000   1.0000   1.0000   1.0000   1.0000
     1.0000   1.0000   1.0000   1.0000   1.0000   1.0000   1.0000   1.0000
     1.0000   1.0000   1.0000   1.0000   1.0000   1.0000   1.0000   1.0000
     1.0000   1.0000   1.0000   1.0000   1.0000   1.0000   1.0000   1.0000
     1.0000   1.0000   1.0000   1.0000   1.0000   1.0000   1.0000   1.0000
     1.0000   1.0000   1.0000   1.0000   1.0000   1.0000   1.0000   1.0000
     1.0000   1.0000   1.0000   1.0000   1.0000   1.0000   1.0000   1.0000
     1.0000   1.0000   1.0000   1.0000   1.0000   1.0000   1.0000   1.0000
     1.0000   1.0000   1.0000   1.0000   1.0000   1.0000   1.0000   1.0000
     1.0000   1.0000   1.0000   1.0000   1.0000   1.0000   1.0000   1.0000
     1.0000   1.0000   1.0000   1.0000   1.0000   1.0000   1.0000   1.0000
     1.0000   1.0000   1.0000   1.0000   1.0000   1.0000   1.0000   1.0000
     1.0000   1.0000   1.0000   1.0000   1.0000   1.0000   1.0000   1.0000
     1.0000   1.0000   1.0000   1.0000   1.0000   1.0000   1.0000   1.0000
     1.0000   1.0000   1.0000   1.0000   1.0000   1.0000   1.0000   1.0000
     1.0000   1.0000   1.0000   1.0000   1.0000   1.0000   1.0000   1.0000
     1.0000   1.0000   1.0000   1.0000   1.0000   1.0000   1.0000   1.0000
     1.0000   1.0000   1.0000   1.0000   1.0000   1.0000   1.0000   1.0000
     1.0000   1.0000   1.0000   1.0000   1.0000   1.0000   1.0000   1.0000
     1.0000   1.0000   1.0000   1.0000   1.0000   1.0000   1.0000   1.0000
     1.0000   1.0000   1.0000   1.0000   1.0000   1.0000   1.0000   1.0000
     1.0000   1.0000   1.0000   1.0000   1.0000   1.0000   1.0000   1.0000
     1.0000   1.0000   1.0000   1.0000   1.0000   1.0000   1.0000   1.0000
     1.0000   1.0000   1.0000   1.0000   1.0000   1.0000   1.0000   1.0000
     1.0000   1.0000   1.0000   1.0000   1.0000   1.0000   1.0000   1.0000
     1.0000   1.0000   1.0000   1.0000   1.0000   1.0000   1.0000   1.0000
     1.0000   1.0000   1.0000   1.0000   1.0000   1.0000   1.0000   1.0000
     1.0000   1.0000   1.0000   1.0000   1.0000   1.0000   1.0000   1.0000
     1.0000   1.0000   1.0000   1.0000   1.0000   1.0000   1.0000   1.0000
     1.0000   1.0000   1.0000   1.0000   1.0000   1.0000   1.0000   1.0000
     1.0000   1.0000   1.0000   1.0000   1.0000   1.0000   1.0000   1.0000
     1.0000   1.0000   1.0000   1.0000   1.0000   1.0000   1.0000   1.0000
     1.0000   1.0000   1.0000   1.0000   1.0000   1.0000   1.0000   1.0000
     1.0000   1.0000   1.0000   1.0000   1.0000   1.0000   1.0000   1.0000
     1.0000   1.0000   1.0000   1.0000   1.0000   1.0000   1.0000   1.0000
     1.0000   1.0000   1.0000   1.0000   1.0000   1.0000   1.0000   1.0000
     1.0000   1.0000   1.0000   1.0000   1.0000   1.0000   1.0000   1.0000
     1.0000   1.0000   1.0000   1.0000   1.0000   1.0000   1.0000   1.0000
     1.0000   1.0000   1.0000   1.0000   1.0000   1.0000   1.0000   1.0000
     1.0000   1.0000   1.0000   1.0000   1.0000   1.0000   1.0000   1.0000
     1.0000   1.0000   1.0000   1.0000   1.0000   1.0000   1.0000   1.0000
     1.0000   1.0000   1.0000   1.0000   1.0000   1.0000   1.0000   1.0000
     1.0000   1.0000   1.0000   1.0000   1.0000   1.0000   1.0000   1.0000
     1.0000   1.0000   1.0000   1.0000   1.0000   1.0000   1.0000   1.0000
     1.0000   1.0000   1.0000   1.0000   1.0000   1.0000   1.0000   1.0000
     1.0000   1.0000   1.0000   1.0000   1.0000   1.0000   1.0000   1.0000
     1.0000   1.0000   1.0000   1.0000   1.0000   1.0000   1.0000   1.0000
     1.0000   1.0000   1.0000   1.0000   1.0000   1.0000   1.0000   1.0000
     1.0000   1.0000   1.0000   1.0000   1.0000   1.0000   1.0000   1.0000
     1.0000   1.0000   1.0000   1.0000   1.0000   1.0000   1.0000   1.0000
     1.0000   1.0000   1.0000   1.0000   1.0000   1.0000   1.0000   1.0000
     1.0000   1.0000   1.0000   1.0000   1.0000   1.0000   1.0000   1.0000
     1.0000   1.0000   1.0000   1.0000   1.0000   1.0000   1.0000   1.0000
     1.0000   1.0000   1.0000   1.0000   1.0000   1.0000   1.0000   1.0000
     1.0000   1.0000   1.0000   1.0000   1.0000   1.0000   1.0000   1.0000
     1.0000   1.0000   1.0000   1.0000   1.0000   1.0000   1.0000   1.0000
     1.0000   1.0000   1.0000   1.0000   1.0000   1.0000   1.0000   1.0000
     1.0000   1.0000   1.0000   1.0000   1.0000   1.0000   1.0000   1.0000
     1.0000   1.0000   1.0000   1.0000   1.0000   1.0000   1.0000   1.0000
     1.0000   1.0000   1.0000   1.0000   1.0000   1.0000   1.0000   1.0000
     0.0000   0.0000   0.0000   0.0000   0.0000   0.0000   0.0000   0.0000
     0.0000   0.0000   0.0000   0.0000   0.0000   0.0000   0.0000   0.0000
     0.0000   0.0000   0.0000   0.0000   0.0000   0.0000   0.0000   0.0000
     0.0000   0.0000   0.0000   0.0000   0.0000   0.0000   0.0000   0.0000
     0.0000   0.0000   0.0000   0.0000   0.0000   0.0000   0.0000   0.0000
     0.0000   0.0000   0.0000   0.0000   0.0000   0.0000   0.0000   0.0000
     0.0000   0.0000   0.0000   0.0000   0.0000   0.0000   0.0000   0.0000
     0.0000   0.0000   0.0000   0.0000   0.0000   0.0000   0.0000   0.0000
     0.0000   0.0000   0.0000   0.0000   0.0000   0.0000   0.0000   0.0000
     0.0000   0.0000   0.0000   0.0000   0.0000   0.0000   0.0000   0.0000
     0.0000   0.0000   0.0000   0.0000   0.0000   0.0000   0.0000   0.0000
     0.0000   0.0000   0.0000   0.0000   0.0000   0.0000   0.0000   0.0000
     0.0000   0.0000   0.0000   0.0000   0.0000   0.0000

          k =-0.3536-0.3536 0.3536 ( 34640 PWs)   bands (ev):

   -64.2127 -64.2112 -64.2112 -64.2112 -64.2096 -64.2096 -64.2096 -64.2081
   -64.2081 -64.2081 -64.2081 -64.2081 -64.1814 -64.1814 -64.1788 -64.1787
   -64.1787 -64.1785 -64.1785 -64.1784 -64.1770 -64.1769 -64.1769 -64.1767
   -64.1767 -64.1766 -64.1754 -64.1754 -64.1754 -64.1754 -64.1753 -64.1753
   -64.1753 -64.1752 -64.1752 -64.1752 -64.1748 -64.1748 -64.1728 -64.1707
   -64.1706 -64.1706 -64.1697 -64.1697 -64.1696 -64.1694 -64.1694 -64.1689
   -64.1689 -64.1688 -64.1686 -64.1680 -64.1677 -64.1677 -64.1676 -64.1676
   -64.1662 -64.1254 -64.1254 -64.1254 -64.1254 -64.1253 -64.1253 -31.2261
   -31.2197 -31.2165 -31.2159 -31.2159 -31.2158 -31.2158 -31.2139 -31.2120
   -31.2120 -31.2120 -31.2120 -31.2118 -31.2050 -31.2050 -31.2041 -31.2021
   -31.2021 -31.2009 -31.2009 -31.1982 -31.1982 -31.1982 -31.1961 -31.1959
   -31.1959 -31.1937 -31.1937 -31.1929 -31.1929 -31.1928 -31.1928 -31.1918
   -31.1898 -31.1898 -31.1892 -31.1887 -31.1884 -31.1884 -31.1881 -31.1880
   -31.1878 -31.1878 -31.1871 -31.1847 -31.1847 -31.1846 -31.1841 -31.1841
   -31.1825 -31.1803 -31.1803 -31.1802 -31.1802 -31.1792 -31.1787 -31.1786
   -31.1774 -31.1774 -31.1757 -31.1757 -31.1742 -31.1742 -31.1720 -31.1718
   -31.1718 -31.1711 -31.1711 -31.1710 -31.1710 -31.1697 -31.1689 -31.1689
   -31.1689 -31.1668 -31.1668 -31.1667 -31.1664 -31.1664 -31.1644 -31.1613
   -31.1609 -31.1609 -31.1607 -31.1607 -31.1598 -31.1598 -31.1594 -31.1588
   -31.1586 -31.1566 -31.1566 -31.1542 -31.1538 -31.1538 -31.1534 -31.1529
   -31.1529 -31.1513 -31.1513 -31.1510 -31.1510 -31.1507 -31.1498 -31.1487
   -31.1486 -31.1486 -31.1484 -31.1480 -31.1480 -31.1480 -31.1472 -31.1462
   -31.1462 -31.1462 -31.1462 -31.1459 -31.1451 -31.1451 -31.1447 -31.1447
   -31.1435 -31.1435 -31.1426 -31.1425 -31.1424 -31.1424 -31.1421 -31.1412
   -31.1412 -31.1401 -31.1399 -31.1399 -31.1398 -31.1398 -31.1394 -31.1389
   -31.1389 -31.1378 -31.1375 -31.1372 -31.1372 -31.1367 -31.1367 -31.1366
   -31.1361 -31.1354 -31.1351 -31.1346 -31.1346 -31.1342 -31.1342 -31.1337
   -31.1337 -31.1326 -31.1326 -31.1325 -31.1322 -31.1322 -31.1311 -31.1296
   -31.1292 -31.1292 -31.1281 -31.1281 -31.1274 -31.1273 -31.1265 -31.1265
   -31.1229 -31.1229 -31.1053 -31.1053 -31.1037 -31.1037 -31.1032 -31.1032
   -31.1016 -31.1016 -31.1012 -31.1006 -31.1006 -31.1005 -31.1000 -31.0990
   -31.0960 -31.0960 -31.0958 -31.0958 -27.5750 -10.1813 -10.1797 -10.1797
    -9.2176  -9.2117  -8.8450  -8.8450  -8.8444  -8.7897  -8.7801  -8.7801
    -8.5313  -8.5313  -8.4841  -8.4840  -8.4686  -8.4686  -8.2993  -8.2920
    -8.2909  -8.2909  -8.2785  -8.2785  -8.2460  -8.1652  -8.1290  -8.1290
    -8.1065  -8.1065  -8.1053  -8.1053  -8.1014  -8.1013  -8.1003  -8.0711
    -8.0711  -8.0659  -8.0475  -8.0475  -8.0427  -8.0349  -7.9412  -7.9412
    -7.9326  -7.9326  -7.9200  -7.9034  -7.9034  -7.9009  -7.9009  -7.8920
    -7.8774  -7.8722  -7.8722  -7.8573  -7.8565  -7.8565  -7.8410  -7.8410
    -7.8387  -7.8387  -7.8369  -7.8351  -7.8351  -6.8324  -6.8317  -6.8317
     3.3059   3.3059   3.3409   3.3409   3.3640   3.3968   3.6257   3.6315
     3.8243   3.8243   3.8267   3.8595   3.8595   3.8931   3.9010   3.9408
     3.9408   3.9462   3.9533   3.9533   3.9581   3.9581   3.9789   3.9818
     3.9818   3.9837   3.9837   3.9934   4.0007   4.0352   4.0352   4.1215
     4.1668   4.1668   4.1929   4.1963   4.1963   4.1980   4.1980   4.1998
     4.2573   4.2766   4.2766   4.3105   4.3105   4.3133   4.3808   4.4084
     4.4139   4.4139   4.5013   4.5013   4.5159   4.5298   4.5298   4.8038
     5.1944   5.1944   5.2141   5.2195   5.2195   5.2222   5.2222   5.2258
     5.2270   5.2389   5.3019   5.3019   5.3053   5.3053   5.3395   5.3916
     5.4160   5.4160   5.4224   5.4224   5.4527   5.4527   5.4653   5.6173
     5.9291   5.9291   5.9709   5.9709   5.9777   5.9796   5.9796   5.9855
     5.9874   5.9881   5.9882   5.9882   5.9915   5.9915   6.0297   6.0907
     6.0907   6.1193   6.2475   6.2475   6.3287   6.3287   6.3369   6.3377
     6.3393   6.3393   6.3427   6.3427   6.4213   6.4402   6.4535   6.4535
     6.4554   6.4671   6.4957   6.4957   6.5006   6.5006   6.5102   6.5257
     6.5257   6.5343   6.5343   6.5508   6.5644   6.6026   6.6026   6.6601
     6.6969   6.6969   6.7016   6.7361   6.7361   6.7381   6.7381   6.7505
     6.7633   6.7653   6.7758   6.7758   6.7803   6.7968   6.7968   6.8164
     6.8248   6.8291   6.8291   6.8295   6.8295   6.8469   6.8487   6.8487
     6.8543   6.8543   6.8562   6.8569   6.8881   6.9261   6.9261   6.9343
     6.9343   6.9505   6.9521   6.9585   7.0469   7.0469   7.1281   7.1281
     7.1633   7.1633   7.2182   7.2182   7.2262   7.2262   7.2362   7.2373
     7.2375   7.2375   7.2440   7.2857   7.2857   7.3018   7.3018   7.3059
     7.3072   7.3232   7.3791   7.3791   7.6177   7.6177   7.6556   7.6556
    13.2715  13.3085  14.8281  14.8281  14.8475  14.8711  14.8711  14.9432
    15.3489  15.4280  15.6022  15.6022  15.6446  15.6843  15.6843  15.6903
    15.8076  15.8076  15.8747  16.1658  16.1730  16.1730  16.2251  16.2363
    16.2363  16.7284  16.7284  16.7660  16.7660  16.8022  16.8605  17.0386
    17.0386  17.0616  17.0781  17.0786  17.0786  17.0788  17.0788  17.0797
    17.1491  17.1491  17.1507  17.1610  17.2183  17.2183  17.4061  17.4061
    17.4602  17.5213  17.5213  17.5638  17.6235  17.6235  17.6700  18.0318
    18.0318  18.0403  18.0403  18.0543  18.1465  18.1478  18.1478  18.1482
    18.1514  18.1514  18.1585  18.1740  18.1808  18.1808  18.1954  18.2064
    18.2064  18.2504  18.2504  18.2700  18.6594  18.6594  18.9460  19.1973
    19.2105  19.2105  19.2142  19.2149  19.2152  19.2152  19.2287  19.2287
    19.2656  19.2656  19.2971  19.2971  19.2998  19.2998  19.3006  19.3034
    19.3081  19.3081  19.3333  19.3399  19.4939  19.5008

     occupation numbers 
     1.0000   1.0000   1.0000   1.0000   1.0000   1.0000   1.0000   1.0000
     1.0000   1.0000   1.0000   1.0000   1.0000   1.0000   1.0000   1.0000
     1.0000   1.0000   1.0000   1.0000   1.0000   1.0000   1.0000   1.0000
     1.0000   1.0000   1.0000   1.0000   1.0000   1.0000   1.0000   1.0000
     1.0000   1.0000   1.0000   1.0000   1.0000   1.0000   1.0000   1.0000
     1.0000   1.0000   1.0000   1.0000   1.0000   1.0000   1.0000   1.0000
     1.0000   1.0000   1.0000   1.0000   1.0000   1.0000   1.0000   1.0000
     1.0000   1.0000   1.0000   1.0000   1.0000   1.0000   1.0000   1.0000
     1.0000   1.0000   1.0000   1.0000   1.0000   1.0000   1.0000   1.0000
     1.0000   1.0000   1.0000   1.0000   1.0000   1.0000   1.0000   1.0000
     1.0000   1.0000   1.0000   1.0000   1.0000   1.0000   1.0000   1.0000
     1.0000   1.0000   1.0000   1.0000   1.0000   1.0000   1.0000   1.0000
     1.0000   1.0000   1.0000   1.0000   1.0000   1.0000   1.0000   1.0000
     1.0000   1.0000   1.0000   1.0000   1.0000   1.0000   1.0000   1.0000
     1.0000   1.0000   1.0000   1.0000   1.0000   1.0000   1.0000   1.0000
     1.0000   1.0000   1.0000   1.0000   1.0000   1.0000   1.0000   1.0000
     1.0000   1.0000   1.0000   1.0000   1.0000   1.0000   1.0000   1.0000
     1.0000   1.0000   1.0000   1.0000   1.0000   1.0000   1.0000   1.0000
     1.0000   1.0000   1.0000   1.0000   1.0000   1.0000   1.0000   1.0000
     1.0000   1.0000   1.0000   1.0000   1.0000   1.0000   1.0000   1.0000
     1.0000   1.0000   1.0000   1.0000   1.0000   1.0000   1.0000   1.0000
     1.0000   1.0000   1.0000   1.0000   1.0000   1.0000   1.0000   1.0000
     1.0000   1.0000   1.0000   1.0000   1.0000   1.0000   1.0000   1.0000
     1.0000   1.0000   1.0000   1.0000   1.0000   1.0000   1.0000   1.0000
     1.0000   1.0000   1.0000   1.0000   1.0000   1.0000   1.0000   1.0000
     1.0000   1.0000   1.0000   1.0000   1.0000   1.0000   1.0000   1.0000
     1.0000   1.0000   1.0000   1.0000   1.0000   1.0000   1.0000   1.0000
     1.0000   1.0000   1.0000   1.0000   1.0000   1.0000   1.0000   1.0000
     1.0000   1.0000   1.0000   1.0000   1.0000   1.0000   1.0000   1.0000
     1.0000   1.0000   1.0000   1.0000   1.0000   1.0000   1.0000   1.0000
     1.0000   1.0000   1.0000   1.0000   1.0000   1.0000   1.0000   1.0000
     1.0000   1.0000   1.0000   1.0000   1.0000   1.0000   1.0000   1.0000
     1.0000   1.0000   1.0000   1.0000   1.0000   1.0000   1.0000   1.0000
     1.0000   1.0000   1.0000   1.0000   1.0000   1.0000   1.0000   1.0000
[...]
     atom   77 type  1   force =   0.00000000E+00  0.00000000E+00  0.00000000E+00
     atom   78 type  3   force =   0.00000000E+00  0.00000000E+00  0.00000000E+00
     atom   79 type  1   force =   0.00000000E+00  0.00000000E+00  0.00000000E+00
     atom   80 type  3   force =   0.00000000E+00  0.00000000E+00  0.00000000E+00
     atom   81 type  1   force =   0.00000000E+00  0.00000000E+00  0.00000000E+00
     atom   82 type  3   force =   0.00000000E+00  0.00000000E+00  0.00000000E+00
     atom   83 type  1   force =   0.00000000E+00  0.00000000E+00  0.00000000E+00
     atom   84 type  3   force =   0.00000000E+00  0.00000000E+00  0.00000000E+00
     atom   85 type  2   force =   0.00000000E+00  0.00000000E+00  0.00000000E+00
     atom   86 type  3   force =   0.00000000E+00  0.00000000E+00  0.00000000E+00
     atom   87 type  1   force =   0.00000000E+00  0.00000000E+00  0.00000000E+00
     atom   88 type  3   force =   0.00000000E+00  0.00000000E+00  0.00000000E+00
     atom   89 type  1   force =   0.00000000E+00  0.00000000E+00  0.00000000E+00
     atom   90 type  3   force =   0.00000000E+00  0.00000000E+00  0.00000000E+00
     atom   91 type  1   force =   0.00000000E+00  0.00000000E+00  0.00000000E+00
     atom   92 type  3   force =   0.00000000E+00  0.00000000E+00  0.00000000E+00
     atom   93 type  1   force =   0.00000000E+00  0.00000000E+00  0.00000000E+00
     atom   94 type  3   force =   0.00000000E+00  0.00000000E+00  0.00000000E+00
     atom   95 type  1   force =   0.00000000E+00  0.00000000E+00  0.00000000E+00
     atom   96 type  3   force =   0.00000000E+00  0.00000000E+00  0.00000000E+00
     atom   97 type  1   force =   0.00000000E+00  0.00000000E+00  0.00000000E+00
     atom   98 type  3   force =   0.00000000E+00  0.00000000E+00  0.00000000E+00
     atom   99 type  1   force =   0.00000000E+00  0.00000000E+00  0.00000000E+00
     atom  100 type  3   force =   0.00000000E+00  0.00000000E+00  0.00000000E+00
     atom  101 type  1   force =   0.00000000E+00  0.00000000E+00  0.00000000E+00
     atom  102 type  3   force =   0.00000000E+00  0.00000000E+00  0.00000000E+00
     atom  103 type  1   force =   0.00000000E+00  0.00000000E+00  0.00000000E+00
     atom  104 type  3   force =   0.00000000E+00  0.00000000E+00  0.00000000E+00
     atom  105 type  1   force =   0.00000000E+00  0.00000000E+00  0.00000000E+00
     atom  106 type  3   force =   0.00000000E+00  0.00000000E+00  0.00000000E+00
     atom  107 type  1   force =   0.00000000E+00  0.00000000E+00  0.00000000E+00
     atom  108 type  3   force =   0.00000000E+00  0.00000000E+00  0.00000000E+00
     atom  109 type  1   force =   0.00000000E+00  0.00000000E+00  0.00000000E+00
     atom  110 type  3   force =   0.00000000E+00  0.00000000E+00  0.00000000E+00
     atom  111 type  1   force =   0.00000000E+00  0.00000000E+00  0.00000000E+00
     atom  112 type  3   force =   0.00000000E+00  0.00000000E+00  0.00000000E+00
     atom  113 type  1   force =   0.00000000E+00  0.00000000E+00  0.00000000E+00
     atom  114 type  3   force =   0.00000000E+00  0.00000000E+00  0.00000000E+00
     atom  115 type  1   force =   0.00000000E+00  0.00000000E+00  0.00000000E+00
     atom  116 type  3   force =   0.00000000E+00  0.00000000E+00  0.00000000E+00
     atom  117 type  1   force =   0.00000000E+00  0.00000000E+00  0.00000000E+00
     atom  118 type  3   force =   0.00000000E+00  0.00000000E+00  0.00000000E+00
     atom  119 type  1   force =   0.00000000E+00  0.00000000E+00  0.00000000E+00
     atom  120 type  3   force =   0.00000000E+00  0.00000000E+00  0.00000000E+00
     atom  121 type  1   force =   0.00000000E+00  0.00000000E+00  0.00000000E+00
     atom  122 type  3   force =   0.00000000E+00  0.00000000E+00  0.00000000E+00
     atom  123 type  1   force =   0.00000000E+00  0.00000000E+00  0.00000000E+00
     atom  124 type  3   force =   0.00000000E+00  0.00000000E+00  0.00000000E+00
     atom  125 type  1   force =   0.00000000E+00  0.00000000E+00  0.00000000E+00
     atom  126 type  3   force =   0.00000000E+00  0.00000000E+00  0.00000000E+00
     atom  127 type  1   force =   0.00000000E+00  0.00000000E+00  0.00000000E+00
     atom  128 type  3   force =   0.00000000E+00  0.00000000E+00  0.00000000E+00
     The SCF correction term to forces
     atom    1 type  1   force =  -0.11231599E-14 -0.66144934E-16  0.17364154E-14
     atom    2 type  3   force =  -0.15488577E-05 -0.15488577E-05 -0.15488577E-05
     atom    3 type  1   force =  -0.22383374E-05 -0.22383374E-05  0.10328334E-14
     atom    4 type  3   force =  -0.20081364E-15 -0.44139048E-15 -0.26261740E-05
     atom    5 type  1   force =  -0.42633386E-15 -0.17614535E-15 -0.90457686E-16
     atom    6 type  3   force =   0.15488577E-05  0.15488577E-05 -0.15488577E-05
     atom    7 type  1   force =   0.22383374E-05  0.22383374E-05 -0.23801852E-14
     atom    8 type  3   force =   0.42845454E-16 -0.65999669E-16 -0.33759394E-06
     atom    9 type  1   force =  -0.22383374E-05 -0.97471967E-15 -0.22383374E-05
     atom   10 type  3   force =  -0.64530263E-15 -0.26261740E-05 -0.32492721E-15
     atom   11 type  1   force =  -0.32388403E-05 -0.30640124E-05 -0.30640124E-05
     atom   12 type  3   force =   0.26261740E-05 -0.97264718E-15 -0.11123892E-14
     atom   13 type  1   force =   0.30640124E-05  0.32388403E-05 -0.30640124E-05
     atom   14 type  3   force =   0.26023710E-14  0.14915275E-05 -0.12107733E-05
     atom   15 type  1   force =   0.27698940E-14  0.22383374E-05 -0.22383374E-05
     atom   16 type  3   force =  -0.14915275E-05 -0.11627110E-14 -0.12107733E-05
     atom   17 type  1   force =  -0.10397864E-14 -0.35413221E-14  0.30090388E-14
     atom   18 type  3   force =   0.15488577E-05 -0.15488577E-05  0.15488577E-05
     atom   19 type  1   force =   0.30640124E-05 -0.30640124E-05  0.32388403E-05
     atom   20 type  3   force =   0.24333865E-14 -0.12107733E-05  0.14915275E-05
     atom   21 type  1   force =   0.41432480E-14 -0.11078169E-14  0.60712035E-15
     atom   22 type  3   force =  -0.11374806E-05  0.11374806E-05  0.11374806E-05
     atom   23 type  1   force =  -0.30640124E-05  0.30640124E-05 -0.32388403E-05
     atom   24 type  3   force =   0.12107733E-05 -0.18488405E-14  0.14915275E-05
     atom   25 type  1   force =   0.22383374E-05 -0.90941327E-15  0.22383374E-05
     atom   26 type  3   force =   0.40242493E-15 -0.33759394E-06  0.25376789E-15
     atom   27 type  1   force =  -0.29560529E-15 -0.22383374E-05  0.22383374E-05
     atom   28 type  3   force =  -0.14915275E-05 -0.12107733E-05 -0.12600070E-14
     atom   29 type  1   force =  -0.30640124E-05 -0.32388403E-05  0.30640124E-05
     atom   30 type  3   force =   0.12107733E-05  0.14915275E-05 -0.19853391E-14
     atom   31 type  1   force =   0.32388403E-05  0.30640124E-05  0.30640124E-05
     atom   32 type  3   force =   0.33759394E-06 -0.66008993E-15  0.85434681E-16
     atom   33 type  1   force =  -0.27565324E-14 -0.22383374E-05 -0.22383374E-05
     atom   34 type  3   force =  -0.26261740E-05 -0.85965525E-15 -0.36973848E-15
     atom   35 type  1   force =  -0.30640124E-05 -0.32388403E-05 -0.30640124E-05
     atom   36 type  3   force =  -0.71769800E-15  0.26261740E-05 -0.15492114E-14
     atom   37 type  1   force =   0.32388403E-05  0.30640124E-05 -0.30640124E-05
     atom   38 type  3   force =   0.14915275E-05  0.23230587E-14 -0.12107733E-05
     atom   39 type  1   force =   0.22383374E-05  0.50677633E-14 -0.22383374E-05
     atom   40 type  3   force =  -0.85713138E-15 -0.14915275E-05 -0.12107733E-05
     atom   41 type  1   force =  -0.30640124E-05 -0.30640124E-05 -0.32388403E-05
     atom   42 type  3   force =  -0.10891040E-14 -0.13044350E-14  0.26261740E-05
     atom   43 type  1   force =  -0.21118465E-14 -0.34726929E-15 -0.17902756E-14
     atom   44 type  3   force =   0.11374806E-05  0.11374806E-05  0.11374806E-05
     atom   45 type  1   force =   0.30640124E-05  0.30640124E-05 -0.32388403E-05
     atom   46 type  3   force =   0.17961860E-14  0.11189470E-14  0.40670745E-06
     atom   47 type  1   force =   0.12551982E-14  0.33473026E-14 -0.72993635E-06
     atom   48 type  3   force =  -0.11374806E-05 -0.11374806E-05  0.11374806E-05
     atom   49 type  1   force =   0.32388403E-05 -0.30640124E-05  0.30640124E-05
     atom   50 type  3   force =   0.14915275E-05 -0.12107733E-05  0.19411784E-14
     atom   51 type  1   force =   0.30640124E-05 -0.32388403E-05  0.30640124E-05
     atom   52 type  3   force =   0.16375474E-14  0.40670745E-06  0.24958191E-15
     atom   53 type  1   force =   0.43135551E-14  0.19360781E-05  0.19360781E-05
     atom   54 type  3   force =  -0.40670745E-06  0.74467944E-15 -0.58357216E-15
     atom   55 type  1   force =  -0.19360781E-05  0.27936102E-14  0.19360781E-05
     atom   56 type  3   force =   0.12107733E-05 -0.14915275E-05  0.15740222E-14
     atom   57 type  1   force =   0.22383374E-05 -0.22383374E-05  0.30118465E-14
     atom   58 type  3   force =  -0.64626322E-15 -0.12107733E-05 -0.14915275E-05
     atom   59 type  1   force =   0.11755031E-14 -0.72993635E-06  0.15070085E-14
     atom   60 type  3   force =  -0.11374806E-05  0.11374806E-05 -0.11374806E-05
     atom   61 type  1   force =  -0.19360781E-05  0.19360781E-05  0.87553386E-15
     atom   62 type  3   force =   0.12107733E-05  0.16254123E-14 -0.14915275E-05
     atom   63 type  1   force =   0.72993635E-06  0.27670792E-14 -0.11953366E-14
     atom   64 type  3   force =   0.15488577E-05 -0.15488577E-05 -0.15488577E-05
     atom   65 type  1   force =  -0.45506706E-14  0.14555832E-14  0.13993206E-14
     atom   66 type  3   force =  -0.15488577E-05  0.15488577E-05  0.15488577E-05
     atom   67 type  1   force =  -0.30640124E-05  0.30640124E-05  0.32388403E-05
     atom   68 type  3   force =  -0.12107733E-05  0.24828733E-14  0.14915275E-05
     atom   69 type  1   force =  -0.35928890E-16  0.18846519E-14 -0.32333795E-15
     atom   70 type  3   force =   0.11374806E-05 -0.11374806E-05  0.11374806E-05
     atom   71 type  1   force =   0.30640124E-05 -0.30640124E-05 -0.32388403E-05
     atom   72 type  3   force =  -0.18727810E-14  0.12107733E-05  0.14915275E-05
     atom   73 type  1   force =  -0.30640124E-05  0.32388403E-05  0.30640124E-05
     atom   74 type  3   force =  -0.12107733E-05  0.14915275E-05  0.22495126E-14
     atom   75 type  1   force =  -0.32388403E-05  0.30640124E-05  0.30640124E-05
     atom   76 type  3   force =   0.40670745E-06  0.11759577E-14  0.81295477E-15
     atom   77 type  1   force =   0.19360781E-05  0.12934349E-14  0.19360781E-05
     atom   78 type  3   force =   0.91350424E-15 -0.40670745E-06  0.47861120E-16
     atom   79 type  1   force =   0.20117276E-14 -0.19360781E-05  0.19360781E-05
     atom   80 type  3   force =  -0.14915275E-05  0.12107733E-05  0.19342800E-14
     atom   81 type  1   force =  -0.34648801E-14 -0.93538430E-15  0.59191637E-14
     atom   82 type  3   force =   0.11374806E-05  0.11374806E-05 -0.11374806E-05
     atom   83 type  1   force =   0.19360781E-05  0.19360781E-05  0.38265341E-14
     atom   84 type  3   force =   0.62494776E-15  0.88642363E-15 -0.40670745E-06
     atom   85 type  2   force =   0.24101582E-14  0.17547184E-14  0.10197293E-14
     atom   86 type  3   force =  -0.11374806E-05 -0.11374806E-05 -0.11374806E-05
     atom   87 type  1   force =  -0.19360781E-05 -0.19360781E-05 -0.12585493E-14
     atom   88 type  3   force =  -0.10056017E-14 -0.83221082E-15 -0.26261740E-05
     atom   89 type  1   force =   0.30640124E-05 -0.32388403E-05 -0.30640124E-05
     atom   90 type  3   force =  -0.15809106E-14  0.14915275E-05  0.12107733E-05
     atom   91 type  1   force =  -0.23290441E-15  0.19360781E-05 -0.19360781E-05
     atom   92 type  3   force =  -0.14915275E-05  0.17700346E-14  0.12107733E-05
     atom   93 type  1   force =  -0.19360781E-05  0.86317258E-15 -0.19360781E-05
     atom   94 type  3   force =  -0.57659703E-16 -0.26261740E-05 -0.54774608E-15
     atom   95 type  1   force =   0.32388403E-05 -0.30640124E-05 -0.30640124E-05
     atom   96 type  3   force =   0.26261740E-05 -0.69855350E-16  0.90072863E-15
     atom   97 type  1   force =  -0.22507572E-14  0.22383374E-05  0.22383374E-05
     atom   98 type  3   force =  -0.33759394E-06  0.35372402E-15  0.54638395E-15
     atom   99 type  1   force =  -0.22383374E-05  0.24350278E-14  0.22383374E-05
     atom  100 type  3   force =  -0.12107733E-05 -0.14915275E-05 -0.92758657E-15
     atom  101 type  1   force =  -0.32388403E-05 -0.30640124E-05  0.30640124E-05
     atom  102 type  3   force =   0.14915275E-05  0.12107733E-05 -0.17640873E-14
     atom  103 type  1   force =   0.30640124E-05  0.32388403E-05  0.30640124E-05
     atom  104 type  3   force =  -0.11055617E-14  0.33759394E-06  0.25370295E-15
     atom  105 type  1   force =  -0.22383374E-05  0.22383374E-05  0.67184492E-14
     atom  106 type  3   force =  -0.12107733E-05 -0.70652302E-15 -0.14915275E-05
     atom  107 type  1   force =  -0.72993636E-06 -0.18243043E-14  0.99210232E-15
     atom  108 type  3   force =   0.11374806E-05 -0.11374806E-05 -0.11374806E-05
     atom  109 type  1   force =   0.19360781E-05 -0.19360781E-05  0.60084070E-15
     atom  110 type  3   force =   0.17848530E-14  0.12107733E-05 -0.14915275E-05
     atom  111 type  1   force =   0.12905835E-14  0.72993635E-06 -0.76133889E-16
     atom  112 type  3   force =  -0.15488577E-05  0.15488577E-05 -0.15488577E-05
     atom  113 type  1   force =  -0.32388403E-05  0.30640124E-05 -0.30640124E-05
     atom  114 type  3   force =   0.14915275E-05 -0.13245545E-14  0.12107733E-05
     atom  115 type  1   force =   0.19360781E-05  0.72977444E-15 -0.19360781E-05
     atom  116 type  3   force =   0.16571298E-14 -0.14915275E-05  0.12107733E-05
     atom  117 type  1   force =   0.12976997E-14 -0.19360781E-05 -0.19360781E-05
     atom  118 type  3   force =  -0.26261740E-05  0.25559236E-15 -0.56236315E-15
     atom  119 type  1   force =  -0.30640124E-05  0.32388403E-05 -0.30640124E-05
     atom  120 type  3   force =  -0.48430599E-15  0.26261740E-05  0.11886658E-14
     atom  121 type  1   force =   0.30640124E-05  0.30640124E-05  0.32388403E-05
     atom  122 type  3   force =  -0.70174931E-15 -0.18514494E-15  0.33759394E-06
     atom  123 type  1   force =  -0.60165544E-15 -0.23393268E-14  0.72993635E-06
     atom  124 type  3   force =  -0.15488577E-05 -0.15488577E-05  0.15488577E-05
     atom  125 type  1   force =  -0.30640124E-05 -0.30640124E-05  0.32388403E-05
     atom  126 type  3   force =   0.35975411E-15  0.93889816E-15  0.26261740E-05
     atom  127 type  1   force =   0.20930397E-14  0.26070860E-14  0.15855723E-14
     atom  128 type  3   force =   0.15488577E-05  0.15488577E-05  0.15488577E-05

     Total force =     0.196251     Total SCF correction =     0.000034


     entering subroutine stress ...

          total   stress  (Ry/bohr**3)                   (kbar)     P=   11.76
   0.0000799382  -0.0000000000  -0.0000000000         11.76     -0.00     -0.00
  -0.0000000000   0.0000799382  -0.0000000000         -0.00     11.76     -0.00
  -0.0000000000  -0.0000000000   0.0000799382         -0.00     -0.00     11.76

     kinetic stress (kbar)  24123.16      0.00      0.00
                                0.00  24123.16      0.00
                                0.00      0.00  24123.16

     local   stress (kbar)  -3672.43      0.00     -0.00
                                0.00  -3672.43      0.00
                               -0.00      0.00  -3672.43

     nonloc. stress (kbar)   6543.94      0.00      0.00
                                0.00   6543.94      0.00
                                0.00      0.00   6543.94

     hartree stress (kbar)  18460.17     -0.00     -0.00
                               -0.00  18460.17      0.00
                               -0.00      0.00  18460.17

     exc-cor stress (kbar)  -8480.65      0.00     -0.00
                                0.00  -8480.65     -0.00
                               -0.00     -0.00  -8480.65

     corecor stress (kbar)   -345.07     -0.00     -0.00
                               -0.00   -345.07      0.00
                               -0.00      0.00   -345.07

     ewald   stress (kbar) -36617.36      0.00      0.00
                                0.00 -36617.36     -0.00
                                0.00     -0.00 -36617.36

     hubbard stress (kbar)      0.00      0.00      0.00
                                0.00      0.00      0.00
                                0.00      0.00      0.00

     london  stress (kbar)      0.00      0.00      0.00
                                0.00      0.00      0.00
                                0.00      0.00      0.00

     XDM     stress (kbar)      0.00      0.00      0.00
                                0.00      0.00      0.00
                                0.00      0.00      0.00

     dft-nl  stress (kbar)      0.00      0.00      0.00
                                0.00      0.00      0.00
                                0.00      0.00      0.00



     Writing output data file MgO_rocksalt.relax.in.up_1.00.super.444.singleCa.save

     init_run     :    188.46s CPU    151.36s WALL (       1 calls)
     electrons    :  15379.28s CPU  11575.92s WALL (       1 calls)
     forces       :    189.51s CPU    127.48s WALL (       1 calls)
     stress       :    714.11s CPU    703.42s WALL (       1 calls)

     Called by init_run:
     wfcinit      :    173.21s CPU    135.66s WALL (       1 calls)
     potinit      :      0.54s CPU      0.60s WALL (       1 calls)

     Called by electrons:
     c_bands      :  13412.08s CPU   9862.50s WALL (      23 calls)
     sum_band     :   1638.67s CPU   1373.81s WALL (      23 calls)
     v_of_rho     :      8.21s CPU      9.43s WALL (      24 calls)
     v_h          :      0.52s CPU      0.66s WALL (      24 calls)
     v_xc         :      8.32s CPU      9.49s WALL (      26 calls)
     newd         :    321.62s CPU    329.97s WALL (      24 calls)
     mix_rho      :     10.97s CPU     12.54s WALL (      23 calls)

     Called by c_bands:
     init_us_2    :     14.64s CPU     14.96s WALL (     147 calls)
     cegterg      :  13300.16s CPU   9680.01s WALL (      69 calls)

     Called by sum_band:
     sum_band:bec :      5.82s CPU      5.89s WALL (      69 calls)
     addusdens    :    280.63s CPU    283.48s WALL (      23 calls)

     Called by *egterg:
     h_psi        :   5573.81s CPU   4355.10s WALL (     258 calls)
     s_psi        :   1719.72s CPU    963.26s WALL (     258 calls)
     g_psi        :      3.09s CPU      3.18s WALL (     186 calls)
     cdiaghg      :   3025.16s CPU   2522.85s WALL (     255 calls)
     cegterg:over :   1359.39s CPU    836.04s WALL (     186 calls)
     cegterg:upda :    664.73s CPU    377.82s WALL (     186 calls)
     cegterg:last :    482.35s CPU    262.68s WALL (      69 calls)

     Called by h_psi:
     h_psi:vloc   :   1815.34s CPU   2181.12s WALL (     258 calls)
     h_psi:vnl    :   3752.03s CPU   2167.37s WALL (     258 calls)
     add_vuspsi   :   1721.72s CPU    969.69s WALL (     258 calls)

     General routines
     calbec       :   3113.06s CPU   1888.40s WALL (     333 calls)
     fft          :     80.80s CPU     82.88s WALL (     405 calls)
     ffts         :      6.92s CPU      7.93s WALL (     587 calls)
     fftw         :   2055.86s CPU   2495.42s WALL (  237126 calls)
     interpolate  :      1.52s CPU      2.01s WALL (      47 calls)

     Parallel routines
     fft_scatter  :    915.91s CPU   1162.29s WALL (  238118 calls)

     PWSCF        :     4h34m CPU        3h29m WALL


   This run was terminated on:  14: 4:32  21Aug2017            

=------------------------------------------------------------------------------=
   JOB DONE.
=------------------------------------------------------------------------------=
