
     Program PWSCF v.5.1 starts on  3Oct2017 at  9:59:23 

     This program is part of the open-source Quantum ESPRESSO suite
     for quantum simulation of materials; please cite
         "P. Giannozzi et al., J. Phys.:Condens. Matter 21 395502 (2009);
          URL http://www.quantum-espresso.org", 
     in publications or presentations arising from this work. More details at
     http://www.quantum-espresso.org/quote

     Parallel version (MPI), running on     2 processors
     R & G space division:  proc/nbgrp/npool/nimage =       2
     Reading input from /tmp/MgO_rocksalt.relax.in.up_1.00.sxy.11351/MgO_rocksalt.relax.in.up_1.00.sxy.t
Warning: card &IONS ignored
Warning: card   ION_DYNAMICS='BFGS', ignored
Warning: card / ignored
Warning: card &CELL ignored
Warning: card  CELL_DYNAMICS = 'BFGS' ignored
Warning: card / ignored
     Message from routine read_cards :
     DEPRECATED: no units specified in CELL_PARAMETERS card

     Current dimensions of program PWSCF are:
     Max number of different atomic species (ntypx) = 10
     Max number of k-points (npk) =  40000
     Max angular momentum in pseudopotentials (lmaxx) =  3
 kfg - two_fermi_energies  F

     Subspace diagonalization in iterative solution of the eigenvalue problem:
     a serial algorithm will be used


     Parallelization info
     --------------------
     sticks:   dense  smooth     PW     G-vecs:    dense   smooth      PW
     Min         217     174     60                 3026     2161     449
     Max         218     175     61                 3027     2168     452
     Sum         435     349    121                 6053     4329     901



     bravais-lattice index     =            0
     lattice parameter (alat)  =     5.637762138  a.u.
     unit-cell volume          =     126.6830 (a.u.)^3
     number of atoms/cell      =            2
     number of atomic types    =            2
     number of electrons       =        16.00
     number of Kohn-Sham states=           12
     kinetic-energy cutoff     =      40.0000  Ry
     charge density cutoff     =     200.0000  Ry
     convergence threshold     =      1.0E-10
     mixing beta               =       0.3000
     number of iterations used =            8  local-TF  mixing
     Exchange-correlation      = SLA  PW   PSX  PSC ( 1  4 10  8 0)
     A smooth kinetic-energy cutoff is imposed at      39.5000 Ry
     height of the smooth step-function =             800.0000 Ry
     width of the smooth step-function  =               1.0000 Ry


     celldm(1)=   5.637762  celldm(2)=   0.000000  celldm(3)=   0.000000
     celldm(4)=   0.000000  celldm(5)=   0.000000  celldm(6)=   0.000000

     crystal axes: (cart. coord. in units of alat)
               a(1) = (   0.007077276235   0.707089072240   0.707089072240 )  
               a(2) = (   0.707089072240   0.007077276235   0.707089072240 )  
               a(3) = (   0.714148610940   0.714148610940   0.000000000000 )  

     reciprocal axes: (cart. coord. in units 2 pi/alat)
               b(1) = ( -0.714274  0.714274  0.707124 )  
               b(2) = (  0.714274 -0.714274  0.707124 )  
               b(3) = (  0.700134  0.700134 -0.707142 )  


     PseudoPot. # 1 for Mg read from file:
     /users/kfg/psuedo/gbrv_1.5/mg.pbesol.UPF
     MD5 check sum: 4059f37963cf5867752dbf5ab2400678
     Pseudo is Ultrasoft, Zval = 10.0
     Generated by new atomic code, or converted to UPF format
     Using radial grid of  821 points,  7 beta functions with: 
                l(1) =   0
                l(2) =   0
                l(3) =   0
                l(4) =   1
                l(5) =   1
                l(6) =   2
                l(7) =   2
     Q(r) pseudized with  8 coefficients,  rinner =    1.200   1.200   1.200
                                                       1.200   1.200

     PseudoPot. # 2 for O  read from file:
     /users/kfg/psuedo/gbrv_1.5/o.pbesol.UPF
     MD5 check sum: 501638753501ef6325af9037351f7734
     Pseudo is Ultrasoft + core correction, Zval =  6.0
     Generated by new atomic code, or converted to UPF format
     Using radial grid of  737 points,  5 beta functions with: 
                l(1) =   0
                l(2) =   0
                l(3) =   1
                l(4) =   1
                l(5) =   2
     Q(r) pseudized with  8 coefficients,  rinner =    0.900   0.900   0.900
                                                       0.900   0.900

     atomic species   valence    mass     pseudopotential
        Mg            10.00    24.30500     Mg( 1.00)
        O              6.00    15.99940     O ( 1.00)

      4 Sym. Ops., with inversion, found


                                    s                        frac. trans.

      isym =  1     identity                                     

 cryst.   s( 1) = (     1          0          0      )
                  (     0          1          0      )
                  (     0          0          1      )

 cart.    s( 1) = (  1.0000000  0.0000000 -0.0000000 )
                  (  0.0000000  1.0000000 -0.0000000 )
                  (  0.0000000  0.0000000  1.0000000 )


      isym =  2     180 deg rotation - cart. axis [1,-1,0]       

 cryst.   s( 2) = (     0         -1          0      )
                  (    -1          0          0      )
                  (     0          0         -1      )

 cart.    s( 2) = (  0.0000000 -1.0000000  0.0000000 )
                  ( -1.0000000  0.0000000  0.0000000 )
                  (  0.0000000  0.0000000 -1.0000000 )


      isym =  3     inversion                                    

 cryst.   s( 3) = (    -1          0          0      )
                  (     0         -1          0      )
                  (     0          0         -1      )

 cart.    s( 3) = ( -1.0000000  0.0000000  0.0000000 )
                  (  0.0000000 -1.0000000  0.0000000 )
                  (  0.0000000  0.0000000 -1.0000000 )


      isym =  4     inv. 180 deg rotation - cart. axis [1,-1,0]  

 cryst.   s( 4) = (     0          1          0      )
                  (     1          0          0      )
                  (     0          0          1      )

 cart.    s( 4) = (  0.0000000  1.0000000 -0.0000000 )
                  (  1.0000000  0.0000000 -0.0000000 )
                  (  0.0000000  0.0000000  1.0000000 )


     point group C_2h (2/m) 
     there are  4 classes
     the character table:

       E     C2    i     s_h  
A_g    1.00  1.00  1.00  1.00
B_g    1.00 -1.00  1.00 -1.00
A_u    1.00  1.00 -1.00 -1.00
B_u    1.00 -1.00 -1.00  1.00

     the symmetry operations in each class:
     E        1
     C2       2
     i        3
     s_h      4

   Cartesian axes

     site n.     atom                  positions (alat units)
         1           Mg  tau(   1) = (    0.00000000000    0.00000000000    0.00000000000  )
         2           O   tau(   2) = (    0.71415747971    0.71415747971    0.70708907224  )

   Crystallographic axes

     site n.     atom                  positions (cryst. coord.)
         1           Mg  tau(   1) = (    0.00000000000    0.00000000000    0.00000000000  )
         2           O   tau(   2) = (    0.50000000000    0.50000000000    0.50000000000  )

     number of k points=   150  gaussian smearing, width (Ry)=  0.0050
                       cart. coord. in units 2pi/alat
        k(    1) = (   0.0000000   0.0000000   0.0000000), wk =   0.0039063
        k(    2) = (   0.0875168   0.0875168  -0.0883928), wk =   0.0078125
        k(    3) = (   0.1750336   0.1750336  -0.1767855), wk =   0.0078125
        k(    4) = (   0.2625504   0.2625504  -0.2651783), wk =   0.0078125
        k(    5) = (  -0.3500672  -0.3500672   0.3535710), wk =   0.0039063
        k(    6) = (   0.0892842  -0.0892842   0.0883906), wk =   0.0156250
        k(    7) = (   0.1768010  -0.0017674  -0.0000022), wk =   0.0156250
        k(    8) = (   0.2643178   0.0857494  -0.0883950), wk =   0.0156250
        k(    9) = (   0.3518346   0.1732662  -0.1767877), wk =   0.0156250
        k(   10) = (  -0.2607830  -0.4393514   0.4419616), wk =   0.0156250
        k(   11) = (  -0.1732662  -0.3518346   0.3535688), wk =   0.0156250
        k(   12) = (  -0.0857494  -0.2643178   0.2651761), wk =   0.0156250
        k(   13) = (   0.0017674  -0.1768010   0.1767833), wk =   0.0156250
        k(   14) = (   0.1785684  -0.1785684   0.1767811), wk =   0.0156250
        k(   15) = (   0.2660852  -0.0910516   0.0883884), wk =   0.0156250
        k(   16) = (   0.3536020  -0.0035348  -0.0000044), wk =   0.0156250
        k(   17) = (   0.4411188   0.0839820  -0.0883971), wk =   0.0156250
        k(   18) = (  -0.1714988  -0.5286356   0.5303521), wk =   0.0156250
        k(   19) = (  -0.0839820  -0.4411188   0.4419594), wk =   0.0156250
        k(   20) = (   0.0035348  -0.3536020   0.3535666), wk =   0.0156250
        k(   21) = (   0.0910516  -0.2660852   0.2651739), wk =   0.0156250
        k(   22) = (   0.2678526  -0.2678526   0.2651717), wk =   0.0156250
        k(   23) = (   0.3553694  -0.1803358   0.1767789), wk =   0.0156250
        k(   24) = (   0.4428862  -0.0928190   0.0883862), wk =   0.0156250
        k(   25) = (   0.5304030  -0.0053022  -0.0000066), wk =   0.0156250
        k(   26) = (  -0.0822146  -0.6179198   0.6187427), wk =   0.0156250
        k(   27) = (   0.0053022  -0.5304030   0.5303500), wk =   0.0156250
        k(   28) = (   0.0928190  -0.4428862   0.4419572), wk =   0.0156250
        k(   29) = (   0.1803358  -0.3553694   0.3535644), wk =   0.0156250
        k(   30) = (  -0.3571368   0.3571368  -0.3535622), wk =   0.0078125
        k(   31) = (  -0.2696200   0.4446536  -0.4419550), wk =   0.0156250
        k(   32) = (  -0.1821032   0.5321704  -0.5303478), wk =   0.0156250
        k(   33) = (  -0.0945864   0.6196872  -0.6187405), wk =   0.0156250
        k(   34) = (  -0.7072040   0.0070696   0.0000088), wk =   0.0078125
        k(   35) = (   0.0000000   0.0000000   0.1767811), wk =   0.0078125
        k(   36) = (   0.0875168   0.0875168   0.0883884), wk =   0.0078125
        k(   37) = (   0.1750336   0.1750336  -0.0000044), wk =   0.0078125
        k(   38) = (   0.2625504   0.2625504  -0.0883971), wk =   0.0078125
        k(   39) = (  -0.3500672  -0.3500672   0.5303521), wk =   0.0078125
        k(   40) = (  -0.2625504  -0.2625504   0.4419594), wk =   0.0078125
        k(   41) = (  -0.1750336  -0.1750336   0.3535666), wk =   0.0078125
        k(   42) = (  -0.0875168  -0.0875168   0.2651739), wk =   0.0078125
        k(   43) = (   0.0892842  -0.0892842   0.2651717), wk =   0.0156250
        k(   44) = (   0.1768010  -0.0017674   0.1767789), wk =   0.0156250
        k(   45) = (   0.2643178   0.0857494   0.0883862), wk =   0.0156250
        k(   46) = (   0.3518346   0.1732662  -0.0000066), wk =   0.0156250
        k(   47) = (  -0.2607830  -0.4393514   0.6187427), wk =   0.0156250
        k(   48) = (  -0.1732662  -0.3518346   0.5303500), wk =   0.0156250
        k(   49) = (  -0.0857494  -0.2643178   0.4419572), wk =   0.0156250
        k(   50) = (   0.0017674  -0.1768010   0.3535644), wk =   0.0156250
        k(   51) = (   0.1785684  -0.1785684   0.3535622), wk =   0.0156250
        k(   52) = (   0.2660852  -0.0910516   0.2651695), wk =   0.0156250
        k(   53) = (   0.3536020  -0.0035348   0.1767767), wk =   0.0156250
        k(   54) = (   0.4411188   0.0839820   0.0883840), wk =   0.0156250
        k(   55) = (  -0.1714988  -0.5286356   0.7071333), wk =   0.0156250
        k(   56) = (  -0.0839820  -0.4411188   0.6187405), wk =   0.0156250
        k(   57) = (   0.0035348  -0.3536020   0.5303478), wk =   0.0156250
        k(   58) = (   0.0910516  -0.2660852   0.4419550), wk =   0.0156250
        k(   59) = (  -0.4464210   0.4464210  -0.2651717), wk =   0.0156250
        k(   60) = (  -0.3589043   0.5339378  -0.3535644), wk =   0.0156250
        k(   61) = (  -0.2713875   0.6214546  -0.4419572), wk =   0.0156250
        k(   62) = (  -0.1838707   0.7089714  -0.5303500), wk =   0.0156250
        k(   63) = (  -0.7964882   0.0963539   0.0883993), wk =   0.0156250
        k(   64) = (  -0.7089714   0.1838707   0.0000066), wk =   0.0156250
        k(   65) = (  -0.6214546   0.2713875  -0.0883862), wk =   0.0156250
        k(   66) = (  -0.5339378   0.3589043  -0.1767789), wk =   0.0156250
        k(   67) = (  -0.3571368   0.3571368  -0.1767811), wk =   0.0156250
        k(   68) = (  -0.2696200   0.4446536  -0.2651739), wk =   0.0156250
        k(   69) = (  -0.1821032   0.5321704  -0.3535666), wk =   0.0156250
        k(   70) = (  -0.0945864   0.6196872  -0.4419594), wk =   0.0156250
        k(   71) = (  -0.7072040   0.0070696   0.1767899), wk =   0.0156250
        k(   72) = (  -0.6196872   0.0945864   0.0883971), wk =   0.0156250
        k(   73) = (  -0.5321704   0.1821032   0.0000044), wk =   0.0156250
        k(   74) = (  -0.4446536   0.2696200  -0.0883884), wk =   0.0156250
        k(   75) = (  -0.2678526   0.2678526  -0.0883906), wk =   0.0156250
        k(   76) = (  -0.1803358   0.3553694  -0.1767833), wk =   0.0156250
        k(   77) = (  -0.0928190   0.4428862  -0.2651761), wk =   0.0156250
        k(   78) = (  -0.0053022   0.5304030  -0.3535688), wk =   0.0156250
        k(   79) = (  -0.6179198  -0.0822146   0.2651805), wk =   0.0156250
        k(   80) = (  -0.5304030   0.0053022   0.1767877), wk =   0.0156250
        k(   81) = (  -0.4428862   0.0928190   0.0883950), wk =   0.0156250
        k(   82) = (  -0.3553694   0.1803358   0.0000022), wk =   0.0156250
        k(   83) = (  -0.1785684   0.1785684   0.0000000), wk =   0.0078125
        k(   84) = (  -0.0910516   0.2660852  -0.0883928), wk =   0.0156250
        k(   85) = (  -0.0035348   0.3536020  -0.1767855), wk =   0.0156250
        k(   86) = (   0.0839820   0.4411188  -0.2651783), wk =   0.0156250
        k(   87) = (  -0.5286356  -0.1714988   0.3535710), wk =   0.0078125
        k(   88) = (   0.0000000   0.0000000   0.3535622), wk =   0.0078125
        k(   89) = (   0.0875168   0.0875168   0.2651695), wk =   0.0078125
        k(   90) = (   0.1750336   0.1750336   0.1767767), wk =   0.0078125
        k(   91) = (   0.2625504   0.2625504   0.0883840), wk =   0.0078125
        k(   92) = (  -0.3500672  -0.3500672   0.7071333), wk =   0.0078125
        k(   93) = (  -0.2625504  -0.2625504   0.6187405), wk =   0.0078125
        k(   94) = (  -0.1750336  -0.1750336   0.5303478), wk =   0.0078125
        k(   95) = (  -0.0875168  -0.0875168   0.4419550), wk =   0.0078125
        k(   96) = (   0.0892842  -0.0892842   0.4419528), wk =   0.0156250
        k(   97) = (   0.1768010  -0.0017674   0.3535600), wk =   0.0156250
        k(   98) = (   0.2643178   0.0857494   0.2651673), wk =   0.0156250
        k(   99) = (   0.3518346   0.1732662   0.1767745), wk =   0.0156250
        k(  100) = (  -0.2607830  -0.4393514   0.7955238), wk =   0.0156250
        k(  101) = (  -0.1732662  -0.3518346   0.7071311), wk =   0.0156250
        k(  102) = (  -0.0857494  -0.2643178   0.6187383), wk =   0.0156250
        k(  103) = (   0.0017674  -0.1768010   0.5303456), wk =   0.0156250
        k(  104) = (  -0.5357053   0.5357053  -0.1767811), wk =   0.0156250
        k(  105) = (  -0.4481885   0.6232221  -0.2651739), wk =   0.0156250
        k(  106) = (  -0.3606717   0.7107389  -0.3535666), wk =   0.0156250
        k(  107) = (  -0.2731549   0.7982557  -0.4419594), wk =   0.0156250
        k(  108) = (  -0.8857725   0.1856381   0.1767899), wk =   0.0156250
        k(  109) = (  -0.7982557   0.2731549   0.0883971), wk =   0.0156250
        k(  110) = (  -0.7107389   0.3606717   0.0000044), wk =   0.0156250
        k(  111) = (  -0.6232221   0.4481885  -0.0883884), wk =   0.0156250
        k(  112) = (  -0.4464210   0.4464210  -0.0883906), wk =   0.0156250
        k(  113) = (  -0.3589043   0.5339378  -0.1767833), wk =   0.0156250
        k(  114) = (  -0.2713875   0.6214546  -0.2651761), wk =   0.0156250
        k(  115) = (  -0.1838707   0.7089714  -0.3535688), wk =   0.0156250
        k(  116) = (  -0.7964882   0.0963539   0.2651805), wk =   0.0156250
        k(  117) = (  -0.7089714   0.1838707   0.1767877), wk =   0.0156250
        k(  118) = (  -0.6214546   0.2713875   0.0883950), wk =   0.0156250
        k(  119) = (  -0.5339378   0.3589043   0.0000022), wk =   0.0156250
        k(  120) = (  -0.3571368   0.3571368   0.0000000), wk =   0.0078125
        k(  121) = (  -0.2696200   0.4446536  -0.0883928), wk =   0.0156250
        k(  122) = (  -0.1821032   0.5321704  -0.1767855), wk =   0.0156250
        k(  123) = (  -0.0945864   0.6196872  -0.2651783), wk =   0.0156250
        k(  124) = (  -0.7072040   0.0070696   0.3535710), wk =   0.0078125
        k(  125) = (   0.0000000   0.0000000   0.5303434), wk =   0.0078125
        k(  126) = (   0.0875168   0.0875168   0.4419506), wk =   0.0078125
        k(  127) = (   0.1750336   0.1750336   0.3535579), wk =   0.0078125
        k(  128) = (   0.2625504   0.2625504   0.2651651), wk =   0.0078125
        k(  129) = (  -0.3500672  -0.3500672   0.8839144), wk =   0.0078125
        k(  130) = (  -0.2625504  -0.2625504   0.7955216), wk =   0.0078125
        k(  131) = (  -0.1750336  -0.1750336   0.7071289), wk =   0.0078125
        k(  132) = (  -0.0875168  -0.0875168   0.6187361), wk =   0.0078125
        k(  133) = (  -0.6249895   0.6249895  -0.0883906), wk =   0.0156250
        k(  134) = (  -0.5374727   0.7125063  -0.1767833), wk =   0.0156250
        k(  135) = (  -0.4499559   0.8000231  -0.2651761), wk =   0.0156250
        k(  136) = (  -0.3624391   0.8875399  -0.3535688), wk =   0.0156250
        k(  137) = (  -0.9750567   0.2749223   0.2651805), wk =   0.0156250
        k(  138) = (  -0.8875399   0.3624391   0.1767877), wk =   0.0156250
        k(  139) = (  -0.8000231   0.4499559   0.0883950), wk =   0.0156250
        k(  140) = (  -0.7125063   0.5374727   0.0000022), wk =   0.0156250
        k(  141) = (  -0.5357053   0.5357053   0.0000000), wk =   0.0078125
        k(  142) = (  -0.4481885   0.6232221  -0.0883928), wk =   0.0156250
        k(  143) = (  -0.3606717   0.7107389  -0.1767855), wk =   0.0156250
        k(  144) = (  -0.2731549   0.7982557  -0.2651783), wk =   0.0156250
        k(  145) = (  -0.8857725   0.1856381   0.3535710), wk =   0.0078125
        k(  146) = (   0.0000000   0.0000000  -0.7071245), wk =   0.0039063
        k(  147) = (   0.0875168   0.0875168  -0.7955172), wk =   0.0078125
        k(  148) = (   0.1750336   0.1750336  -0.8839100), wk =   0.0078125
        k(  149) = (   0.2625504   0.2625504  -0.9723028), wk =   0.0078125
        k(  150) = (  -0.3500672  -0.3500672  -0.3535535), wk =   0.0039063

                       cryst. coord.
        k(    1) = (   0.0000000   0.0000000   0.0000000), wk =   0.0039063
        k(    2) = (  -0.0000000  -0.0000000   0.1250000), wk =   0.0078125
        k(    3) = (  -0.0000000  -0.0000000   0.2500000), wk =   0.0078125
        k(    4) = (   0.0000000   0.0000000   0.3750000), wk =   0.0078125
        k(    5) = (   0.0000000   0.0000000  -0.5000000), wk =   0.0039063
        k(    6) = (   0.0000000   0.1250000   0.0000000), wk =   0.0156250
        k(    7) = (  -0.0000000   0.1250000   0.1250000), wk =   0.0156250
        k(    8) = (  -0.0000000   0.1250000   0.2500000), wk =   0.0156250
        k(    9) = (  -0.0000000   0.1250000   0.3750000), wk =   0.0156250
        k(   10) = (   0.0000000   0.1250000  -0.5000000), wk =   0.0156250
        k(   11) = (  -0.0000000   0.1250000  -0.3750000), wk =   0.0156250
        k(   12) = (   0.0000000   0.1250000  -0.2500000), wk =   0.0156250
        k(   13) = (   0.0000000   0.1250000  -0.1250000), wk =   0.0156250
        k(   14) = (   0.0000000   0.2500000   0.0000000), wk =   0.0156250
        k(   15) = (  -0.0000000   0.2500000   0.1250000), wk =   0.0156250
        k(   16) = (  -0.0000000   0.2500000   0.2500000), wk =   0.0156250
        k(   17) = (  -0.0000000   0.2500000   0.3750000), wk =   0.0156250
        k(   18) = (   0.0000000   0.2500000  -0.5000000), wk =   0.0156250
        k(   19) = (  -0.0000000   0.2500000  -0.3750000), wk =   0.0156250
        k(   20) = (   0.0000000   0.2500000  -0.2500000), wk =   0.0156250
        k(   21) = (  -0.0000000   0.2500000  -0.1250000), wk =   0.0156250
        k(   22) = (   0.0000000   0.3750000   0.0000000), wk =   0.0156250
        k(   23) = (  -0.0000000   0.3750000   0.1250000), wk =   0.0156250
        k(   24) = (  -0.0000000   0.3750000   0.2500000), wk =   0.0156250
        k(   25) = (  -0.0000000   0.3750000   0.3750000), wk =   0.0156250
        k(   26) = (   0.0000000   0.3750000  -0.5000000), wk =   0.0156250
        k(   27) = (   0.0000000   0.3750000  -0.3750000), wk =   0.0156250
        k(   28) = (   0.0000000   0.3750000  -0.2500000), wk =   0.0156250
        k(   29) = (   0.0000000   0.3750000  -0.1250000), wk =   0.0156250
        k(   30) = (   0.0000000  -0.5000000   0.0000000), wk =   0.0078125
        k(   31) = (   0.0000000  -0.5000000   0.1250000), wk =   0.0156250
        k(   32) = (   0.0000000  -0.5000000   0.2500000), wk =   0.0156250
        k(   33) = (   0.0000000  -0.5000000   0.3750000), wk =   0.0156250
        k(   34) = (   0.0000000  -0.5000000  -0.5000000), wk =   0.0078125
        k(   35) = (   0.1250000   0.1250000   0.0000000), wk =   0.0078125
        k(   36) = (   0.1250000   0.1250000   0.1250000), wk =   0.0078125
        k(   37) = (   0.1250000   0.1250000   0.2500000), wk =   0.0078125
        k(   38) = (   0.1250000   0.1250000   0.3750000), wk =   0.0078125
        k(   39) = (   0.1250000   0.1250000  -0.5000000), wk =   0.0078125
        k(   40) = (   0.1250000   0.1250000  -0.3750000), wk =   0.0078125
        k(   41) = (   0.1250000   0.1250000  -0.2500000), wk =   0.0078125
        k(   42) = (   0.1250000   0.1250000  -0.1250000), wk =   0.0078125
        k(   43) = (   0.1250000   0.2500000   0.0000000), wk =   0.0156250
        k(   44) = (   0.1250000   0.2500000   0.1250000), wk =   0.0156250
        k(   45) = (   0.1250000   0.2500000   0.2500000), wk =   0.0156250
        k(   46) = (   0.1250000   0.2500000   0.3750000), wk =   0.0156250
        k(   47) = (   0.1250000   0.2500000  -0.5000000), wk =   0.0156250
        k(   48) = (   0.1250000   0.2500000  -0.3750000), wk =   0.0156250
        k(   49) = (   0.1250000   0.2500000  -0.2500000), wk =   0.0156250
        k(   50) = (   0.1250000   0.2500000  -0.1250000), wk =   0.0156250
        k(   51) = (   0.1250000   0.3750000   0.0000000), wk =   0.0156250
        k(   52) = (   0.1250000   0.3750000   0.1250000), wk =   0.0156250
        k(   53) = (   0.1250000   0.3750000   0.2500000), wk =   0.0156250
        k(   54) = (   0.1250000   0.3750000   0.3750000), wk =   0.0156250
        k(   55) = (   0.1250000   0.3750000  -0.5000000), wk =   0.0156250
        k(   56) = (   0.1250000   0.3750000  -0.3750000), wk =   0.0156250
        k(   57) = (   0.1250000   0.3750000  -0.2500000), wk =   0.0156250
        k(   58) = (   0.1250000   0.3750000  -0.1250000), wk =   0.0156250
        k(   59) = (   0.1250000  -0.5000000   0.0000000), wk =   0.0156250
        k(   60) = (   0.1250000  -0.5000000   0.1250000), wk =   0.0156250
        k(   61) = (   0.1250000  -0.5000000   0.2500000), wk =   0.0156250
        k(   62) = (   0.1250000  -0.5000000   0.3750000), wk =   0.0156250
        k(   63) = (   0.1250000  -0.5000000  -0.5000000), wk =   0.0156250
        k(   64) = (   0.1250000  -0.5000000  -0.3750000), wk =   0.0156250
        k(   65) = (   0.1250000  -0.5000000  -0.2500000), wk =   0.0156250
        k(   66) = (   0.1250000  -0.5000000  -0.1250000), wk =   0.0156250
        k(   67) = (   0.1250000  -0.3750000   0.0000000), wk =   0.0156250
        k(   68) = (   0.1250000  -0.3750000   0.1250000), wk =   0.0156250
        k(   69) = (   0.1250000  -0.3750000   0.2500000), wk =   0.0156250
        k(   70) = (   0.1250000  -0.3750000   0.3750000), wk =   0.0156250
        k(   71) = (   0.1250000  -0.3750000  -0.5000000), wk =   0.0156250
        k(   72) = (   0.1250000  -0.3750000  -0.3750000), wk =   0.0156250
        k(   73) = (   0.1250000  -0.3750000  -0.2500000), wk =   0.0156250
        k(   74) = (   0.1250000  -0.3750000  -0.1250000), wk =   0.0156250
        k(   75) = (   0.1250000  -0.2500000   0.0000000), wk =   0.0156250
        k(   76) = (   0.1250000  -0.2500000   0.1250000), wk =   0.0156250
        k(   77) = (   0.1250000  -0.2500000   0.2500000), wk =   0.0156250
        k(   78) = (   0.1250000  -0.2500000   0.3750000), wk =   0.0156250
        k(   79) = (   0.1250000  -0.2500000  -0.5000000), wk =   0.0156250
        k(   80) = (   0.1250000  -0.2500000  -0.3750000), wk =   0.0156250
        k(   81) = (   0.1250000  -0.2500000  -0.2500000), wk =   0.0156250
        k(   82) = (   0.1250000  -0.2500000  -0.1250000), wk =   0.0156250
        k(   83) = (   0.1250000  -0.1250000   0.0000000), wk =   0.0078125
        k(   84) = (   0.1250000  -0.1250000   0.1250000), wk =   0.0156250
        k(   85) = (   0.1250000  -0.1250000   0.2500000), wk =   0.0156250
        k(   86) = (   0.1250000  -0.1250000   0.3750000), wk =   0.0156250
        k(   87) = (   0.1250000  -0.1250000  -0.5000000), wk =   0.0078125
        k(   88) = (   0.2500000   0.2500000   0.0000000), wk =   0.0078125
        k(   89) = (   0.2500000   0.2500000   0.1250000), wk =   0.0078125
        k(   90) = (   0.2500000   0.2500000   0.2500000), wk =   0.0078125
        k(   91) = (   0.2500000   0.2500000   0.3750000), wk =   0.0078125
        k(   92) = (   0.2500000   0.2500000  -0.5000000), wk =   0.0078125
        k(   93) = (   0.2500000   0.2500000  -0.3750000), wk =   0.0078125
        k(   94) = (   0.2500000   0.2500000  -0.2500000), wk =   0.0078125
        k(   95) = (   0.2500000   0.2500000  -0.1250000), wk =   0.0078125
        k(   96) = (   0.2500000   0.3750000   0.0000000), wk =   0.0156250
        k(   97) = (   0.2500000   0.3750000   0.1250000), wk =   0.0156250
        k(   98) = (   0.2500000   0.3750000   0.2500000), wk =   0.0156250
        k(   99) = (   0.2500000   0.3750000   0.3750000), wk =   0.0156250
        k(  100) = (   0.2500000   0.3750000  -0.5000000), wk =   0.0156250
        k(  101) = (   0.2500000   0.3750000  -0.3750000), wk =   0.0156250
        k(  102) = (   0.2500000   0.3750000  -0.2500000), wk =   0.0156250
        k(  103) = (   0.2500000   0.3750000  -0.1250000), wk =   0.0156250
        k(  104) = (   0.2500000  -0.5000000   0.0000000), wk =   0.0156250
        k(  105) = (   0.2500000  -0.5000000   0.1250000), wk =   0.0156250
        k(  106) = (   0.2500000  -0.5000000   0.2500000), wk =   0.0156250
        k(  107) = (   0.2500000  -0.5000000   0.3750000), wk =   0.0156250
        k(  108) = (   0.2500000  -0.5000000  -0.5000000), wk =   0.0156250
        k(  109) = (   0.2500000  -0.5000000  -0.3750000), wk =   0.0156250
        k(  110) = (   0.2500000  -0.5000000  -0.2500000), wk =   0.0156250
        k(  111) = (   0.2500000  -0.5000000  -0.1250000), wk =   0.0156250
        k(  112) = (   0.2500000  -0.3750000   0.0000000), wk =   0.0156250
        k(  113) = (   0.2500000  -0.3750000   0.1250000), wk =   0.0156250
        k(  114) = (   0.2500000  -0.3750000   0.2500000), wk =   0.0156250
        k(  115) = (   0.2500000  -0.3750000   0.3750000), wk =   0.0156250
        k(  116) = (   0.2500000  -0.3750000  -0.5000000), wk =   0.0156250
        k(  117) = (   0.2500000  -0.3750000  -0.3750000), wk =   0.0156250
        k(  118) = (   0.2500000  -0.3750000  -0.2500000), wk =   0.0156250
        k(  119) = (   0.2500000  -0.3750000  -0.1250000), wk =   0.0156250
        k(  120) = (   0.2500000  -0.2500000   0.0000000), wk =   0.0078125
        k(  121) = (   0.2500000  -0.2500000   0.1250000), wk =   0.0156250
        k(  122) = (   0.2500000  -0.2500000   0.2500000), wk =   0.0156250
        k(  123) = (   0.2500000  -0.2500000   0.3750000), wk =   0.0156250
        k(  124) = (   0.2500000  -0.2500000  -0.5000000), wk =   0.0078125
        k(  125) = (   0.3750000   0.3750000   0.0000000), wk =   0.0078125
        k(  126) = (   0.3750000   0.3750000   0.1250000), wk =   0.0078125
        k(  127) = (   0.3750000   0.3750000   0.2500000), wk =   0.0078125
        k(  128) = (   0.3750000   0.3750000   0.3750000), wk =   0.0078125
        k(  129) = (   0.3750000   0.3750000  -0.5000000), wk =   0.0078125
        k(  130) = (   0.3750000   0.3750000  -0.3750000), wk =   0.0078125
        k(  131) = (   0.3750000   0.3750000  -0.2500000), wk =   0.0078125
        k(  132) = (   0.3750000   0.3750000  -0.1250000), wk =   0.0078125
        k(  133) = (   0.3750000  -0.5000000   0.0000000), wk =   0.0156250
        k(  134) = (   0.3750000  -0.5000000   0.1250000), wk =   0.0156250
        k(  135) = (   0.3750000  -0.5000000   0.2500000), wk =   0.0156250
        k(  136) = (   0.3750000  -0.5000000   0.3750000), wk =   0.0156250
        k(  137) = (   0.3750000  -0.5000000  -0.5000000), wk =   0.0156250
        k(  138) = (   0.3750000  -0.5000000  -0.3750000), wk =   0.0156250
        k(  139) = (   0.3750000  -0.5000000  -0.2500000), wk =   0.0156250
        k(  140) = (   0.3750000  -0.5000000  -0.1250000), wk =   0.0156250
        k(  141) = (   0.3750000  -0.3750000   0.0000000), wk =   0.0078125
        k(  142) = (   0.3750000  -0.3750000   0.1250000), wk =   0.0156250
        k(  143) = (   0.3750000  -0.3750000   0.2500000), wk =   0.0156250
        k(  144) = (   0.3750000  -0.3750000   0.3750000), wk =   0.0156250
        k(  145) = (   0.3750000  -0.3750000  -0.5000000), wk =   0.0078125
        k(  146) = (  -0.5000000  -0.5000000   0.0000000), wk =   0.0039063
        k(  147) = (  -0.5000000  -0.5000000   0.1250000), wk =   0.0078125
        k(  148) = (  -0.5000000  -0.5000000   0.2500000), wk =   0.0078125
        k(  149) = (  -0.5000000  -0.5000000   0.3750000), wk =   0.0078125
        k(  150) = (  -0.5000000  -0.5000000  -0.5000000), wk =   0.0039063

     Dense  grid:     6053 G-vectors     FFT dimensions: (  25,  25,  25)

     Smooth grid:     4329 G-vectors     FFT dimensions: (  24,  24,  24)

     Largest allocated arrays     est. size (Mb)     dimensions
        Kohn-Sham Wavefunctions         0.05 Mb     (     277,   12)
        NL pseudopotentials             0.14 Mb     (     277,   32)
        Each V/rho on FFT grid          0.12 Mb     (    8125)
        Each G-vector array             0.02 Mb     (    3026)
        G-vector shells                 0.01 Mb     (    1516)
     Largest temporary arrays     est. size (Mb)     dimensions
        Auxiliary wavefunctions         0.20 Mb     (     277,   48)
        Each subspace H/S matrix        0.04 Mb     (      48,   48)
        Each <psi_i|beta_j> matrix      0.01 Mb     (      32,   12)
        Arrays for rho mixing           0.99 Mb     (    8125,    8)

     Check: negative/imaginary core charge=   -0.000003    0.000000

     Initial potential from superposition of free atoms

     starting charge   15.69977, renormalised to   16.00000
     Starting wfc are    9 randomized atomic wfcs +    3 random wfc

     total cpu time spent up to now is        4.2 secs

     per-process dynamical memory:    15.4 Mb

     Self-consistent Calculation

     iteration #  1     ecut=    40.00 Ry     beta=0.30
     Davidson diagonalization with overlap
     ethr =  1.00E-02,  avg # of iterations =  4.6

     total cpu time spent up to now is       17.3 secs

     total energy              =    -157.65903779 Ry
     Harris-Foulkes estimate   =    -157.72797325 Ry
     estimated scf accuracy    <       0.34535808 Ry

     iteration #  2     ecut=    40.00 Ry     beta=0.30
     Davidson diagonalization with overlap
     ethr =  2.16E-03,  avg # of iterations =  1.0

     total cpu time spent up to now is       24.4 secs

     total energy              =    -157.59265750 Ry
     Harris-Foulkes estimate   =    -157.66719430 Ry
     estimated scf accuracy    <       0.16072053 Ry

     iteration #  3     ecut=    40.00 Ry     beta=0.30
     Davidson diagonalization with overlap
     ethr =  1.00E-03,  avg # of iterations =  2.0

     total cpu time spent up to now is       32.9 secs

     total energy              =    -157.60416776 Ry
     Harris-Foulkes estimate   =    -157.61567317 Ry
     estimated scf accuracy    <       0.02002198 Ry

     iteration #  4     ecut=    40.00 Ry     beta=0.30
     Davidson diagonalization with overlap
     ethr =  1.25E-04,  avg # of iterations =  1.5

     total cpu time spent up to now is       40.8 secs

     total energy              =    -157.60466942 Ry
     Harris-Foulkes estimate   =    -157.60574163 Ry
     estimated scf accuracy    <       0.00184855 Ry

     iteration #  5     ecut=    40.00 Ry     beta=0.30
     Davidson diagonalization with overlap
     ethr =  1.16E-05,  avg # of iterations =  2.0

     total cpu time spent up to now is       48.8 secs

     total energy              =    -157.60482967 Ry
     Harris-Foulkes estimate   =    -157.60489075 Ry
     estimated scf accuracy    <       0.00041086 Ry

     iteration #  6     ecut=    40.00 Ry     beta=0.30
     Davidson diagonalization with overlap
     ethr =  2.57E-06,  avg # of iterations =  1.1

     total cpu time spent up to now is       55.5 secs

     total energy              =    -157.60484359 Ry
     Harris-Foulkes estimate   =    -157.60485045 Ry
     estimated scf accuracy    <       0.00003913 Ry

     iteration #  7     ecut=    40.00 Ry     beta=0.30
     Davidson diagonalization with overlap
     ethr =  2.45E-07,  avg # of iterations =  2.0

     total cpu time spent up to now is       63.5 secs

     total energy              =    -157.60484550 Ry
     Harris-Foulkes estimate   =    -157.60485283 Ry
     estimated scf accuracy    <       0.00001769 Ry

     iteration #  8     ecut=    40.00 Ry     beta=0.30
     Davidson diagonalization with overlap
     ethr =  1.11E-07,  avg # of iterations =  2.0

     total cpu time spent up to now is       72.1 secs

     total energy              =    -157.60484751 Ry
     Harris-Foulkes estimate   =    -157.60484750 Ry
     estimated scf accuracy    <       0.00000006 Ry

     iteration #  9     ecut=    40.00 Ry     beta=0.30
     Davidson diagonalization with overlap
     ethr =  3.49E-10,  avg # of iterations =  2.0

     total cpu time spent up to now is       80.4 secs

     total energy              =    -157.60484754 Ry
     Harris-Foulkes estimate   =    -157.60484753 Ry
     estimated scf accuracy    <       0.00000003 Ry

     iteration # 10     ecut=    40.00 Ry     beta=0.30
     Davidson diagonalization with overlap
     ethr =  2.18E-10,  avg # of iterations =  1.0

     total cpu time spent up to now is       87.6 secs

     total energy              =    -157.60484755 Ry
     Harris-Foulkes estimate   =    -157.60484754 Ry
     estimated scf accuracy    <          1.7E-09 Ry

     iteration # 11     ecut=    40.00 Ry     beta=0.30
     Davidson diagonalization with overlap
     ethr =  1.06E-11,  avg # of iterations =  2.0

     total cpu time spent up to now is       95.6 secs

     total energy              =    -157.60484755 Ry
     Harris-Foulkes estimate   =    -157.60484755 Ry
     estimated scf accuracy    <          3.1E-10 Ry

     iteration # 12     ecut=    40.00 Ry     beta=0.30
     Davidson diagonalization with overlap
     ethr =  1.92E-12,  avg # of iterations =  2.0

     total cpu time spent up to now is      103.8 secs

     End of self-consistent calculation

          k = 0.0000 0.0000 0.0000 (   537 PWs)   bands (ev):

   -64.2615 -31.2045 -31.2011 -31.1977  -9.4907   7.5741   7.6467   7.7243
    12.2609  22.9890  23.2834  23.5725

     occupation numbers 
     1.0000   1.0000   1.0000   1.0000   1.0000   1.0000   1.0000   1.0000
     0.0000   0.0000   0.0000   0.0000

          k = 0.0875 0.0875-0.0884 (   540 PWs)   bands (ev):

   -64.2603 -31.2117 -31.2058 -31.2007  -9.3233   6.6352   7.5243   7.6226
    13.1784  21.4736  23.5547  23.9191

     occupation numbers 
     1.0000   1.0000   1.0000   1.0000   1.0000   1.0000   1.0000   1.0000
     0.0000   0.0000   0.0000   0.0000

          k = 0.1750 0.1750-0.1768 (   547 PWs)   bands (ev):

   -64.2573 -31.2419 -31.2089 -31.2035  -8.8891   4.9225   7.2959   7.3877
    14.6286  19.9734  24.1168  24.3881

     occupation numbers 
     1.0000   1.0000   1.0000   1.0000   1.0000   1.0000   1.0000   1.0000
     0.0000   0.0000   0.0000   0.0000

          k = 0.2626 0.2626-0.2652 (   544 PWs)   bands (ev):

   -64.2543 -31.2719 -31.2120 -31.2061  -8.4003   3.5094   7.0813   7.1663
    15.3523  19.7748  24.0131  24.2188

     occupation numbers 
     1.0000   1.0000   1.0000   1.0000   1.0000   1.0000   1.0000   1.0000
     0.0000   0.0000   0.0000   0.0000

          k =-0.3501-0.3501 0.3536 (   552 PWs)   bands (ev):

   -64.2531 -31.2842 -31.2133 -31.2072  -8.1768   2.9577   6.9958   7.0781
    15.4523  19.9955  23.8577  24.0575

     occupation numbers 
     1.0000   1.0000   1.0000   1.0000   1.0000   1.0000   1.0000   1.0000
     0.0000   0.0000   0.0000   0.0000

          k = 0.0893-0.0893 0.0884 (   535 PWs)   bands (ev):

   -64.2601 -31.2168 -31.2034 -31.1989  -9.3173   6.7297   7.4693   7.5652
    13.1793  21.6885  23.3572  23.7296

     occupation numbers 
     1.0000   1.0000   1.0000   1.0000   1.0000   1.0000   1.0000   1.0000
     0.0000   0.0000   0.0000   0.0000

          k = 0.1768-0.0018-0.0000 (   545 PWs)   bands (ev):

   -64.2598 -31.2148 -31.2053 -31.2036  -9.2668   6.5986   7.4137   7.4199
    13.4768  21.0649  23.7988  23.8040

     occupation numbers 
     1.0000   1.0000   1.0000   1.0000   1.0000   1.0000   1.0000   1.0000
     0.0000   0.0000   0.0000   0.0000

          k = 0.2643 0.0857-0.0884 (   548 PWs)   bands (ev):

   -64.2574 -31.2326 -31.2115 -31.2080  -8.9310   5.3405   7.1515   7.2104
    14.7751  19.7118  23.9747  24.3348

     occupation numbers 
     1.0000   1.0000   1.0000   1.0000   1.0000   1.0000   1.0000   1.0000
     0.0000   0.0000   0.0000   0.0000

          k = 0.3518 0.1733-0.1768 (   543 PWs)   bands (ev):

   -64.2544 -31.2606 -31.2163 -31.2107  -8.4652   4.0022   6.8191   6.9734
    15.8439  19.3653  23.0205  24.4582

     occupation numbers 
     1.0000   1.0000   1.0000   1.0000   1.0000   1.0000   1.0000   1.0000
     0.0000   0.0000   0.0000   0.0000

          k =-0.2608-0.4394 0.4420 (   547 PWs)   bands (ev):

   -64.2526 -31.2778 -31.2205 -31.2110  -8.1455   3.2347   6.5394   6.9029
    16.1392  19.7984  22.5054  24.2943

     occupation numbers 
     1.0000   1.0000   1.0000   1.0000   1.0000   1.0000   1.0000   1.0000
     0.0000   0.0000   0.0000   0.0000

          k =-0.1733-0.3518 0.3536 (   545 PWs)   bands (ev):

   -64.2529 -31.2746 -31.2219 -31.2083  -8.2128   3.4004   6.4834   7.0106
    16.1348  19.7012  22.5945  24.3711

     occupation numbers 
     1.0000   1.0000   1.0000   1.0000   1.0000   1.0000   1.0000   1.0000
     0.0000   0.0000   0.0000   0.0000

          k =-0.0857-0.2643 0.2652 (   543 PWs)   bands (ev):

   -64.2553 -31.2534 -31.2188 -31.2044  -8.6123   4.4095   6.6972   7.2412
    15.5943  19.4958  23.1735  24.8323

     occupation numbers 
     1.0000   1.0000   1.0000   1.0000   1.0000   1.0000   1.0000   1.0000
     0.0000   0.0000   0.0000   0.0000

          k = 0.0018-0.1768 0.1768 (   549 PWs)   bands (ev):

   -64.2583 -31.2292 -31.2105 -31.2014  -9.0620   5.7579   7.1188   7.4690
    14.2554  20.3631  23.6377  24.3529

     occupation numbers 
     1.0000   1.0000   1.0000   1.0000   1.0000   1.0000   1.0000   1.0000
     0.0000   0.0000   0.0000   0.0000

          k = 0.1786-0.1786 0.1768 (   541 PWs)   bands (ev):

   -64.2569 -31.2483 -31.2070 -31.2019  -8.8672   5.0116   7.2280   7.3154
    14.5968  20.1216  23.8915  24.1602

     occupation numbers 
     1.0000   1.0000   1.0000   1.0000   1.0000   1.0000   1.0000   1.0000
     0.0000   0.0000   0.0000   0.0000

          k = 0.2661-0.0911 0.0884 (   542 PWs)   bands (ev):

   -64.2571 -31.2396 -31.2101 -31.2044  -8.9152   5.3881   7.1162   7.1745
    14.7585  19.7677  23.7421  24.2936

     occupation numbers 
     1.0000   1.0000   1.0000   1.0000   1.0000   1.0000   1.0000   1.0000
     0.0000   0.0000   0.0000   0.0000

          k = 0.3536-0.0035-0.0000 (   545 PWs)   bands (ev):

   -64.2556 -31.2415 -31.2155 -31.2145  -8.7174   4.9960   6.9077   6.9088
    15.6016  18.6308  22.9906  24.9410

     occupation numbers 
     1.0000   1.0000   1.0000   1.0000   1.0000   1.0000   1.0000   1.0000
     0.0000   0.0000   0.0000   0.0000

          k = 0.4411 0.0840-0.0884 (   544 PWs)   bands (ev):

   -64.2532 -31.2552 -31.2248 -31.2189  -8.3681   4.2531   6.4461   6.6991
    16.7051  18.1334  21.7075  25.3203

     occupation numbers 
     1.0000   1.0000   1.0000   1.0000   1.0000   1.0000   1.0000   1.0000
     0.0000   0.0000   0.0000   0.0000

          k =-0.1715-0.5286 0.5304 (   545 PWs)   bands (ev):

   -64.2514 -31.2654 -31.2359 -31.2189  -8.0626   3.8002   5.7328   6.6372
    17.2367  19.0177  20.8829  25.1990

     occupation numbers 
     1.0000   1.0000   1.0000   1.0000   1.0000   1.0000   1.0000   1.0000
     0.0000   0.0000   0.0000   0.0000

          k =-0.0840-0.4411 0.4420 (   540 PWs)   bands (ev):

   -64.2511 -31.2650 -31.2433 -31.2149  -8.0057   3.8438   5.2878   6.7538
    17.4868  19.5545  20.7033  25.0169

     occupation numbers 
     1.0000   1.0000   1.0000   1.0000   1.0000   1.0000   1.0000   1.0000
     0.0000   0.0000   0.0000   0.0000

          k = 0.0035-0.3536 0.3536 (   543 PWs)   bands (ev):

   -64.2527 -31.2627 -31.2342 -31.2092  -8.2381   4.1227   5.6392   6.9930
    16.9838  19.2672  21.5349  25.0254

     occupation numbers 
     1.0000   1.0000   1.0000   1.0000   1.0000   1.0000   1.0000   1.0000
     0.0000   0.0000   0.0000   0.0000

          k = 0.0911-0.2661 0.2652 (   542 PWs)   bands (ev):

   -64.2550 -31.2580 -31.2159 -31.2049  -8.5963   4.4802   6.6063   7.2234
    15.5392  19.6201  23.0095  24.6537

     occupation numbers 
     1.0000   1.0000   1.0000   1.0000   1.0000   1.0000   1.0000   1.0000
     0.0000   0.0000   0.0000   0.0000

          k = 0.2679-0.2679 0.2652 (   545 PWs)   bands (ev):

   -64.2536 -31.2796 -31.2105 -31.2049  -8.3594   3.5885   7.0014   7.0816
    15.2492  19.9642  23.7421  23.9449

     occupation numbers 
     1.0000   1.0000   1.0000   1.0000   1.0000   1.0000   1.0000   1.0000
     0.0000   0.0000   0.0000   0.0000

          k = 0.3554-0.1803 0.1768 (   538 PWs)   bands (ev):

   -64.2539 -31.2694 -31.2141 -31.2083  -8.4308   4.0540   6.7494   6.9385
    15.7680  19.4579  22.7647  24.3346

     occupation numbers 
     1.0000   1.0000   1.0000   1.0000   1.0000   1.0000   1.0000   1.0000
     0.0000   0.0000   0.0000   0.0000

          k = 0.4429-0.0928 0.0884 (   541 PWs)   bands (ev):

   -64.2529 -31.2624 -31.2209 -31.2176  -8.3501   4.2525   6.4477   6.6836
    16.6752  18.1350  21.5735  25.2556

     occupation numbers 
     1.0000   1.0000   1.0000   1.0000   1.0000   1.0000   1.0000   1.0000
     0.0000   0.0000   0.0000   0.0000

          k = 0.5304-0.0053-0.0000 (   542 PWs)   bands (ev):

   -64.2514 -31.2666 -31.2258 -31.2249  -8.1586   3.9085   6.4641   6.4647
    17.1077  17.2081  20.8829  26.0109

     occupation numbers 
     1.0000   1.0000   1.0000   1.0000   1.0000   1.0000   1.0000   1.0000
     0.0000   0.0000   0.0000   0.0000

          k =-0.0822-0.6179 0.6187 (   543 PWs)   bands (ev):

   -64.2502 -31.2698 -31.2348 -31.2265  -7.9683   3.7582   5.9105   6.3921
    17.0878  17.9558  20.4874  26.0379

     occupation numbers 
     1.0000   1.0000   1.0000   1.0000   1.0000   1.0000   1.0000   1.0000
     0.0000   0.0000   0.0000   0.0000

          k = 0.0053-0.5304 0.5303 (   539 PWs)   bands (ev):

   -64.2500 -31.2644 -31.2477 -31.2224  -7.8976   4.1389   4.9197   6.5003
    17.5734  19.2850  20.0144  25.6159

     occupation numbers 
     1.0000   1.0000   1.0000   1.0000   1.0000   1.0000   1.0000   1.0000
     0.0000   0.0000   0.0000   0.0000

          k = 0.0928-0.4429 0.4420 (   535 PWs)   bands (ev):

   -64.2509 -31.2729 -31.2369 -31.2154  -7.9871   3.8949   5.2242   6.7381
    17.3722  19.7359  20.5592  24.9128

     occupation numbers 
     1.0000   1.0000   1.0000   1.0000   1.0000   1.0000   1.0000   1.0000
     0.0000   0.0000   0.0000   0.0000

          k = 0.1803-0.3554 0.3536 (   544 PWs)   bands (ev):

   -64.2524 -31.2819 -31.2179 -31.2092  -8.1779   3.4750   6.3732   6.9771
    16.0005  19.9206  22.3569  24.1880

     occupation numbers 
     1.0000   1.0000   1.0000   1.0000   1.0000   1.0000   1.0000   1.0000
     0.0000   0.0000   0.0000   0.0000

          k =-0.3571 0.3571-0.3536 (   552 PWs)   bands (ev):

   -64.2523 -31.2925 -31.2119 -31.2061  -8.1268   3.0306   6.9113   6.9887
    15.3195  20.2128  23.5726  23.7695

     occupation numbers 
     1.0000   1.0000   1.0000   1.0000   1.0000   1.0000   1.0000   1.0000
     0.0000   0.0000   0.0000   0.0000

          k =-0.2696 0.4447-0.4420 (   546 PWs)   bands (ev):

   -64.2519 -31.2867 -31.2164 -31.2112  -8.1020   3.2947   6.4444   6.8633
    16.0044  19.9843  22.2424  24.1233

     occupation numbers 
     1.0000   1.0000   1.0000   1.0000   1.0000   1.0000   1.0000   1.0000
     0.0000   0.0000   0.0000   0.0000

          k =-0.1821 0.5322-0.5303 (   540 PWs)   bands (ev):

   -64.2510 -31.2752 -31.2285 -31.2194  -8.0358   3.8158   5.7084   6.6155
    17.1391  19.1230  20.6989  25.0865

     occupation numbers 
     1.0000   1.0000   1.0000   1.0000   1.0000   1.0000   1.0000   1.0000
     0.0000   0.0000   0.0000   0.0000

          k =-0.0946 0.6197-0.6187 (   538 PWs)   bands (ev):

   -64.2501 -31.2732 -31.2322 -31.2266  -7.9601   3.7487   5.9213   6.3861
    17.0656  17.9732  20.4159  26.0441

     occupation numbers 
     1.0000   1.0000   1.0000   1.0000   1.0000   1.0000   1.0000   1.0000
     0.0000   0.0000   0.0000   0.0000

          k =-0.7072 0.0071 0.0000 (   530 PWs)   bands (ev):

   -64.2497 -31.2764 -31.2300 -31.2291  -7.9257   3.5501   6.2951   6.2960
    16.5952  17.4915  20.5719  26.4517

     occupation numbers 
     1.0000   1.0000   1.0000   1.0000   1.0000   1.0000   1.0000   1.0000
     0.0000   0.0000   0.0000   0.0000

          k = 0.0000 0.0000 0.1768 (   544 PWs)   bands (ev):

   -64.2598 -31.2130 -31.2086 -31.2020  -9.2670   6.6004   7.3318   7.5000
    13.4770  21.0794  23.5230  24.0705

     occupation numbers 
     1.0000   1.0000   1.0000   1.0000   1.0000   1.0000   1.0000   1.0000
     0.0000   0.0000   0.0000   0.0000

          k = 0.0875 0.0875 0.0884 (   540 PWs)   bands (ev):

   -64.2603 -31.2117 -31.2058 -31.2007  -9.3233   6.6351   7.5245   7.6226
    13.1784  21.4733  23.5551  23.9191

     occupation numbers 
     1.0000   1.0000   1.0000   1.0000   1.0000   1.0000   1.0000   1.0000
     0.0000   0.0000   0.0000   0.0000

          k = 0.1750 0.1750-0.0000 (   553 PWs)   bands (ev):

   -64.2585 -31.2236 -31.2100 -31.2060  -9.0727   5.7256   7.0980   7.5403
    14.2623  20.2926  23.6760  24.5909

     occupation numbers 
     1.0000   1.0000   1.0000   1.0000   1.0000   1.0000   1.0000   1.0000
     0.0000   0.0000   0.0000   0.0000

          k = 0.2626 0.2626-0.0884 (   543 PWs)   bands (ev):

   -64.2555 -31.2503 -31.2158 -31.2091  -8.6244   4.4218   6.6284   7.3101
    15.5904  19.5309  23.1315  24.9760

     occupation numbers 
     1.0000   1.0000   1.0000   1.0000   1.0000   1.0000   1.0000   1.0000
     0.0000   0.0000   0.0000   0.0000

          k =-0.3501-0.3501 0.5304 (   541 PWs)   bands (ev):

   -64.2530 -31.2736 -31.2171 -31.2133  -8.2207   3.4081   6.4191   7.0785
    16.1246  19.7441  22.5389  24.5203

     occupation numbers 
     1.0000   1.0000   1.0000   1.0000   1.0000   1.0000   1.0000   1.0000
     0.0000   0.0000   0.0000   0.0000

          k =-0.2626-0.2626 0.4420 (   542 PWs)   bands (ev):

   -64.2526 -31.2787 -31.2161 -31.2144  -8.1453   3.2229   6.4919   6.9728
    16.1490  19.7638  22.4436  24.4461

     occupation numbers 
     1.0000   1.0000   1.0000   1.0000   1.0000   1.0000   1.0000   1.0000
     0.0000   0.0000   0.0000   0.0000

          k =-0.1750-0.1750 0.3536 (   541 PWs)   bands (ev):

   -64.2543 -31.2627 -31.2159 -31.2095  -8.4598   3.9799   6.7775   7.0443
    15.8627  19.2956  22.9342  24.6285

     occupation numbers 
     1.0000   1.0000   1.0000   1.0000   1.0000   1.0000   1.0000   1.0000
     0.0000   0.0000   0.0000   0.0000

          k =-0.0875-0.0875 0.2652 (   545 PWs)   bands (ev):

   -64.2573 -31.2346 -31.2128 -31.2052  -8.9265   5.3316   7.1128   7.2577
    14.7749  19.7027  23.7830  24.5628

     occupation numbers 
     1.0000   1.0000   1.0000   1.0000   1.0000   1.0000   1.0000   1.0000
     0.0000   0.0000   0.0000   0.0000

          k = 0.0893-0.0893 0.2652 (   546 PWs)   bands (ev):

   -64.2572 -31.2369 -31.2103 -31.2064  -8.9204   5.3945   7.0761   7.2079
    14.7582  19.7833  23.9303  24.0654

     occupation numbers 
     1.0000   1.0000   1.0000   1.0000   1.0000   1.0000   1.0000   1.0000
     0.0000   0.0000   0.0000   0.0000

          k = 0.1768-0.0018 0.1768 (   549 PWs)   bands (ev):

   -64.2583 -31.2292 -31.2105 -31.2014  -9.0620   5.7579   7.1187   7.4691
    14.2555  20.3630  23.6378  24.3531

     occupation numbers 
     1.0000   1.0000   1.0000   1.0000   1.0000   1.0000   1.0000   1.0000
     0.0000   0.0000   0.0000   0.0000

          k = 0.2643 0.0857 0.0884 (   548 PWs)   bands (ev):

   -64.2574 -31.2326 -31.2115 -31.2080  -8.9310   5.3405   7.1516   7.2104
    14.7751  19.7118  23.9747  24.3351

     occupation numbers 
     1.0000   1.0000   1.0000   1.0000   1.0000   1.0000   1.0000   1.0000
     0.0000   0.0000   0.0000   0.0000

          k = 0.3518 0.1733-0.0000 (   543 PWs)   bands (ev):

   -64.2550 -31.2451 -31.2211 -31.2136  -8.5862   4.6015   6.4622   7.0862
    16.0319  18.9625  22.6750  25.0735

     occupation numbers 
     1.0000   1.0000   1.0000   1.0000   1.0000   1.0000   1.0000   1.0000
     0.0000   0.0000   0.0000   0.0000

          k =-0.2608-0.4394 0.6187 (   545 PWs)   bands (ev):

   -64.2526 -31.2618 -31.2286 -31.2177  -8.2050   3.9016   5.8959   6.8367
    17.0348  19.1259  21.5308  24.7121

     occupation numbers 
     1.0000   1.0000   1.0000   1.0000   1.0000   1.0000   1.0000   1.0000
     0.0000   0.0000   0.0000   0.0000

          k =-0.1733-0.3518 0.5303 (   544 PWs)   bands (ev):

   -64.2515 -31.2707 -31.2310 -31.2186  -8.0298   3.5845   5.7175   6.7114
    17.2416  19.5885  21.0915  24.4812

     occupation numbers 
     1.0000   1.0000   1.0000   1.0000   1.0000   1.0000   1.0000   1.0000
     0.0000   0.0000   0.0000   0.0000

          k =-0.0857-0.2643 0.4420 (   543 PWs)   bands (ev):

   -64.2524 -31.2656 -31.2298 -31.2142  -8.1918   3.8779   5.9333   6.8137
    17.0775  19.0190  21.4758  24.7311

     occupation numbers 
     1.0000   1.0000   1.0000   1.0000   1.0000   1.0000   1.0000   1.0000
     0.0000   0.0000   0.0000   0.0000

          k = 0.0018-0.1768 0.3536 (   541 PWs)   bands (ev):

   -64.2548 -31.2510 -31.2217 -31.2092  -8.5696   4.6074   6.4843   7.0382
    16.0146  18.9602  22.5848  24.9753

     occupation numbers 
     1.0000   1.0000   1.0000   1.0000   1.0000   1.0000   1.0000   1.0000
     0.0000   0.0000   0.0000   0.0000

          k = 0.1786-0.1786 0.3536 (   537 PWs)   bands (ev):

   -64.2540 -31.2670 -31.2147 -31.2094  -8.4370   4.0761   6.7996   6.8586
    15.7495  19.5281  22.8573  24.1692

     occupation numbers 
     1.0000   1.0000   1.0000   1.0000   1.0000   1.0000   1.0000   1.0000
     0.0000   0.0000   0.0000   0.0000

          k = 0.2661-0.0911 0.2652 (   542 PWs)   bands (ev):

   -64.2550 -31.2580 -31.2159 -31.2049  -8.5963   4.4802   6.6063   7.2234
    15.5392  19.6201  23.0095  24.6539

     occupation numbers 
     1.0000   1.0000   1.0000   1.0000   1.0000   1.0000   1.0000   1.0000
     0.0000   0.0000   0.0000   0.0000

          k = 0.3536-0.0035 0.1768 (   543 PWs)   bands (ev):

   -64.2547 -31.2516 -31.2212 -31.2092  -8.5691   4.6092   6.4904   7.0305
    16.0168  18.9577  22.5786  25.0395

     occupation numbers 
     1.0000   1.0000   1.0000   1.0000   1.0000   1.0000   1.0000   1.0000
     0.0000   0.0000   0.0000   0.0000

          k = 0.4411 0.0840 0.0884 (   544 PWs)   bands (ev):

   -64.2532 -31.2552 -31.2248 -31.2189  -8.3681   4.2531   6.4460   6.6993
    16.7052  18.1333  21.7076  25.3206

     occupation numbers 
     1.0000   1.0000   1.0000   1.0000   1.0000   1.0000   1.0000   1.0000
     0.0000   0.0000   0.0000   0.0000

          k =-0.1715-0.5286 0.7071 (   535 PWs)   bands (ev):

   -64.2514 -31.2609 -31.2322 -31.2263  -8.1006   3.9840   5.9279   6.4195
    17.7894  17.8901  20.7878  24.9288

     occupation numbers 
     1.0000   1.0000   1.0000   1.0000   1.0000   1.0000   1.0000   1.0000
     0.0000   0.0000   0.0000   0.0000

          k =-0.0840-0.4411 0.6187 (   542 PWs)   bands (ev):

   -64.2503 -31.2597 -31.2455 -31.2264  -7.9261   4.1126   5.1536   6.2793
    18.1017  19.1563  20.1438  24.0592

     occupation numbers 
     1.0000   1.0000   1.0000   1.0000   1.0000   1.0000   1.0000   1.0000
     0.0000   0.0000   0.0000   0.0000

          k = 0.0035-0.3536 0.5303 (   537 PWs)   bands (ev):

   -64.2506 -31.2610 -31.2473 -31.2200  -7.9586   4.2388   4.9388   6.4581
    18.2305  19.1939  20.2644  24.1438

     occupation numbers 
     1.0000   1.0000   1.0000   1.0000   1.0000   1.0000   1.0000   1.0000
     0.0000   0.0000   0.0000   0.0000

          k = 0.0911-0.2661 0.4420 (   541 PWs)   bands (ev):

   -64.2521 -31.2690 -31.2295 -31.2131  -8.1746   3.9509   5.8843   6.7457
    16.9159  19.2531  21.3854  24.5318

     occupation numbers 
     1.0000   1.0000   1.0000   1.0000   1.0000   1.0000   1.0000   1.0000
     0.0000   0.0000   0.0000   0.0000

          k =-0.4464 0.4464-0.2652 (   547 PWs)   bands (ev):

   -64.2519 -31.2857 -31.2193 -31.2093  -8.1027   3.3069   6.4919   6.7930
    15.9955  20.0171  22.3097  23.9753

     occupation numbers 
     1.0000   1.0000   1.0000   1.0000   1.0000   1.0000   1.0000   1.0000
     0.0000   0.0000   0.0000   0.0000

          k =-0.3589 0.5339-0.3536 (   544 PWs)   bands (ev):

   -64.2524 -31.2819 -31.2179 -31.2092  -8.1779   3.4750   6.3731   6.9772
    16.0005  19.9206  22.3568  24.1882

     occupation numbers 
     1.0000   1.0000   1.0000   1.0000   1.0000   1.0000   1.0000   1.0000
     0.0000   0.0000   0.0000   0.0000

          k =-0.2714 0.6215-0.4420 (   537 PWs)   bands (ev):

   -64.2521 -31.2711 -31.2259 -31.2147  -8.1736   3.9311   5.8873   6.7720
    16.9483  19.1965  21.3700  24.5922

     occupation numbers 
     1.0000   1.0000   1.0000   1.0000   1.0000   1.0000   1.0000   1.0000
     0.0000   0.0000   0.0000   0.0000

          k =-0.1839 0.7090-0.5303 (   536 PWs)   bands (ev):

   -64.2512 -31.2663 -31.2317 -31.2229  -8.0868   3.9770   5.9447   6.3983
    17.7799  17.8852  20.6715  24.9659

     occupation numbers 
     1.0000   1.0000   1.0000   1.0000   1.0000   1.0000   1.0000   1.0000
     0.0000   0.0000   0.0000   0.0000

          k =-0.7965 0.0964 0.0884 (   543 PWs)   bands (ev):

   -64.2502 -31.2698 -31.2348 -31.2265  -7.9683   3.7582   5.9104   6.3922
    17.0880  17.9556  20.4874  26.0377

     occupation numbers 
     1.0000   1.0000   1.0000   1.0000   1.0000   1.0000   1.0000   1.0000
     0.0000   0.0000   0.0000   0.0000

          k =-0.7090 0.1839 0.0000 (   533 PWs)   bands (ev):

   -64.2497 -31.2697 -31.2366 -31.2301  -7.8937   3.8494   5.7397   6.0740
    17.4817  18.3753  20.2301  24.8275

     occupation numbers 
     1.0000   1.0000   1.0000   1.0000   1.0000   1.0000   1.0000   1.0000
     0.0000   0.0000   0.0000   0.0000

          k =-0.6215 0.2714-0.0884 (   537 PWs)   bands (ev):

   -64.2500 -31.2679 -31.2424 -31.2233  -7.9066   4.1312   5.1415   6.2481
    18.0525  19.2933  19.8743  24.1412

     occupation numbers 
     1.0000   1.0000   1.0000   1.0000   1.0000   1.0000   1.0000   1.0000
     0.0000   0.0000   0.0000   0.0000

          k =-0.5339 0.3589-0.1768 (   544 PWs)   bands (ev):

   -64.2509 -31.2782 -31.2320 -31.2142  -7.9929   3.6540   5.6834   6.6068
    17.0835  19.7875  20.9073  24.2996

     occupation numbers 
     1.0000   1.0000   1.0000   1.0000   1.0000   1.0000   1.0000   1.0000
     0.0000   0.0000   0.0000   0.0000

          k =-0.3571 0.3571-0.1768 (   545 PWs)   bands (ev):

   -64.2523 -31.2830 -31.2206 -31.2062  -8.1699   3.4666   6.4368   6.9112
    16.0103  19.8771  22.4172  24.0414

     occupation numbers 
     1.0000   1.0000   1.0000   1.0000   1.0000   1.0000   1.0000   1.0000
     0.0000   0.0000   0.0000   0.0000

          k =-0.2696 0.4447-0.2652 (   546 PWs)   bands (ev):

   -64.2519 -31.2867 -31.2164 -31.2112  -8.1020   3.2947   6.4443   6.8634
    16.0044  19.9842  22.2423  24.1235

     occupation numbers 
     1.0000   1.0000   1.0000   1.0000   1.0000   1.0000   1.0000   1.0000
     0.0000   0.0000   0.0000   0.0000

          k =-0.1821 0.5322-0.3536 (   540 PWs)   bands (ev):

   -64.2510 -31.2793 -31.2256 -31.2190  -7.9977   3.6385   5.6755   6.6462
    17.0905  19.7864  20.9271  24.3328

     occupation numbers 
     1.0000   1.0000   1.0000   1.0000   1.0000   1.0000   1.0000   1.0000
     0.0000   0.0000   0.0000   0.0000

          k =-0.0946 0.6197-0.4420 (   540 PWs)   bands (ev):

   -64.2501 -31.2684 -31.2382 -31.2266  -7.9118   4.1209   5.1529   6.2553
    18.0321  19.2849  19.9805  24.0799

     occupation numbers 
     1.0000   1.0000   1.0000   1.0000   1.0000   1.0000   1.0000   1.0000
     0.0000   0.0000   0.0000   0.0000

          k =-0.7072 0.0071 0.1768 (   536 PWs)   bands (ev):

   -64.2497 -31.2703 -31.2352 -31.2310  -7.8934   3.8492   5.7394   6.0749
    17.4802  18.3758  20.2339  24.8219

     occupation numbers 
     1.0000   1.0000   1.0000   1.0000   1.0000   1.0000   1.0000   1.0000
     0.0000   0.0000   0.0000   0.0000

          k =-0.6197 0.0946 0.0884 (   538 PWs)   bands (ev):

   -64.2501 -31.2732 -31.2322 -31.2266  -7.9600   3.7487   5.9212   6.3862
    17.0657  17.9730  20.4159  26.0439

     occupation numbers 
     1.0000   1.0000   1.0000   1.0000   1.0000   1.0000   1.0000   1.0000
     0.0000   0.0000   0.0000   0.0000

          k =-0.5322 0.1821 0.0000 (   538 PWs)   bands (ev):

   -64.2510 -31.2705 -31.2318 -31.2201  -8.0733   3.9692   5.9629   6.3763
    17.7997  17.8511  20.5585  25.0031

     occupation numbers 
     1.0000   1.0000   1.0000   1.0000   1.0000   1.0000   1.0000   1.0000
     0.0000   0.0000   0.0000   0.0000

          k =-0.4447 0.2696-0.0884 (   541 PWs)   bands (ev):

   -64.2519 -31.2732 -31.2293 -31.2107  -8.1605   3.9274   5.9241   6.7206
    16.9596  19.1495  21.3223  24.5593

     occupation numbers 
     1.0000   1.0000   1.0000   1.0000   1.0000   1.0000   1.0000   1.0000
     0.0000   0.0000   0.0000   0.0000

          k =-0.2679 0.2679-0.0884 (   539 PWs)   bands (ev):

   -64.2548 -31.2613 -31.2171 -31.2019  -8.5838   4.4680   6.6744   7.1561
    15.5441  19.5839  23.0595  24.5074

     occupation numbers 
     1.0000   1.0000   1.0000   1.0000   1.0000   1.0000   1.0000   1.0000
     0.0000   0.0000   0.0000   0.0000

          k =-0.1803 0.3554-0.1768 (   538 PWs)   bands (ev):

   -64.2539 -31.2694 -31.2141 -31.2083  -8.4308   4.0539   6.7494   6.9386
    15.7681  19.4578  22.7646  24.3348

     occupation numbers 
     1.0000   1.0000   1.0000   1.0000   1.0000   1.0000   1.0000   1.0000
     0.0000   0.0000   0.0000   0.0000

          k =-0.0928 0.4429-0.2652 (   537 PWs)   bands (ev):

   -64.2521 -31.2711 -31.2259 -31.2147  -8.1736   3.9311   5.8873   6.7720
    16.9483  19.1963  21.3699  24.5922

     occupation numbers 
     1.0000   1.0000   1.0000   1.0000   1.0000   1.0000   1.0000   1.0000
     0.0000   0.0000   0.0000   0.0000

          k =-0.0053 0.5304-0.3536 (   536 PWs)   bands (ev):

   -64.2506 -31.2627 -31.2457 -31.2201  -7.9579   4.2409   4.9370   6.4580
    18.2313  19.2112  20.2431  24.1499

     occupation numbers 
     1.0000   1.0000   1.0000   1.0000   1.0000   1.0000   1.0000   1.0000
     0.0000   0.0000   0.0000   0.0000

          k =-0.6179-0.0822 0.2652 (   537 PWs)   bands (ev):

   -64.2502 -31.2610 -31.2475 -31.2239  -7.9199   4.1235   5.1422   6.2723
    18.1191  19.1683  20.0370  24.1217

     occupation numbers 
     1.0000   1.0000   1.0000   1.0000   1.0000   1.0000   1.0000   1.0000
     0.0000   0.0000   0.0000   0.0000

          k =-0.5304 0.0053 0.1768 (   536 PWs)   bands (ev):

   -64.2512 -31.2663 -31.2317 -31.2229  -8.0868   3.9770   5.9448   6.3983
    17.7801  17.8850  20.6714  24.9660

     occupation numbers 
     1.0000   1.0000   1.0000   1.0000   1.0000   1.0000   1.0000   1.0000
     0.0000   0.0000   0.0000   0.0000

          k =-0.4429 0.0928 0.0884 (   541 PWs)   bands (ev):

   -64.2529 -31.2624 -31.2209 -31.2176  -8.3500   4.2525   6.4476   6.6837
    16.6753  18.1349  21.5734  25.2558

     occupation numbers 
     1.0000   1.0000   1.0000   1.0000   1.0000   1.0000   1.0000   1.0000
     0.0000   0.0000   0.0000   0.0000

          k =-0.3554 0.1803 0.0000 (   542 PWs)   bands (ev):

   -64.2545 -31.2573 -31.2205 -31.2062  -8.5518   4.6168   6.5161   6.9779
    16.0029  18.9519  22.4909  24.9981

     occupation numbers 
     1.0000   1.0000   1.0000   1.0000   1.0000   1.0000   1.0000   1.0000
     0.0000   0.0000   0.0000   0.0000

          k =-0.1786 0.1786 0.0000 (   547 PWs)   bands (ev):

   -64.2581 -31.2342 -31.2096 -31.1989  -9.0509   5.7951   7.1404   7.3928
    14.2487  20.4359  23.6675  24.0498

     occupation numbers 
     1.0000   1.0000   1.0000   1.0000   1.0000   1.0000   1.0000   1.0000
     0.0000   0.0000   0.0000   0.0000

          k =-0.0911 0.2661-0.0884 (   542 PWs)   bands (ev):

   -64.2571 -31.2397 -31.2101 -31.2044  -8.9152   5.3881   7.1162   7.1745
    14.7585  19.7677  23.7419  24.2939

     occupation numbers 
     1.0000   1.0000   1.0000   1.0000   1.0000   1.0000   1.0000   1.0000
     0.0000   0.0000   0.0000   0.0000

          k =-0.0035 0.3536-0.1768 (   543 PWs)   bands (ev):

   -64.2547 -31.2516 -31.2212 -31.2092  -8.5690   4.6092   6.4904   7.0305
    16.0168  18.9577  22.5785  25.0394

     occupation numbers 
     1.0000   1.0000   1.0000   1.0000   1.0000   1.0000   1.0000   1.0000
     0.0000   0.0000   0.0000   0.0000

          k = 0.0840 0.4411-0.2652 (   546 PWs)   bands (ev):

   -64.2524 -31.2641 -31.2328 -31.2127  -8.1916   3.8990   5.9347   6.7821
    17.0462  19.0805  21.4746  24.6935

     occupation numbers 
     1.0000   1.0000   1.0000   1.0000   1.0000   1.0000   1.0000   1.0000
     0.0000   0.0000   0.0000   0.0000

          k =-0.5286-0.1715 0.3536 (   544 PWs)   bands (ev):

   -64.2514 -31.2697 -31.2368 -31.2145  -8.0241   3.6000   5.7296   6.6679
    17.2353  19.5966  21.0578  24.4642

     occupation numbers 
     1.0000   1.0000   1.0000   1.0000   1.0000   1.0000   1.0000   1.0000
     0.0000   0.0000   0.0000   0.0000

          k = 0.0000 0.0000 0.3536 (   546 PWs)   bands (ev):

   -64.2556 -31.2402 -31.2185 -31.2126  -8.7182   4.9942   6.8072   7.0111
    15.5987  18.6359  22.9968  24.7076

     occupation numbers 
     1.0000   1.0000   1.0000   1.0000   1.0000   1.0000   1.0000   1.0000
     0.0000   0.0000   0.0000   0.0000

          k = 0.0875 0.0875 0.2652 (   545 PWs)   bands (ev):

   -64.2573 -31.2346 -31.2128 -31.2052  -8.9265   5.3316   7.1129   7.2578
    14.7749  19.7026  23.7833  24.5629

     occupation numbers 
     1.0000   1.0000   1.0000   1.0000   1.0000   1.0000   1.0000   1.0000
     0.0000   0.0000   0.0000   0.0000

          k = 0.1750 0.1750 0.1768 (   547 PWs)   bands (ev):

   -64.2573 -31.2419 -31.2089 -31.2035  -8.8892   4.9224   7.2961   7.3878
    14.6287  19.9733  24.1172  24.3882

     occupation numbers 
     1.0000   1.0000   1.0000   1.0000   1.0000   1.0000   1.0000   1.0000
     0.0000   0.0000   0.0000   0.0000

          k = 0.2626 0.2626 0.0884 (   543 PWs)   bands (ev):

   -64.2555 -31.2503 -31.2159 -31.2091  -8.6245   4.4217   6.6285   7.3101
    15.5905  19.5307  23.1317  24.9762

     occupation numbers 
     1.0000   1.0000   1.0000   1.0000   1.0000   1.0000   1.0000   1.0000
     0.0000   0.0000   0.0000   0.0000

          k =-0.3501-0.3501 0.7071 (   542 PWs)   bands (ev):

   -64.2530 -31.2555 -31.2343 -31.2133  -8.2638   4.1114   5.6060   7.0789
    17.0126  19.2844  21.5769  25.2694

     occupation numbers 
     1.0000   1.0000   1.0000   1.0000   1.0000   1.0000   1.0000   1.0000
     0.0000   0.0000   0.0000   0.0000

          k =-0.2626-0.2626 0.6187 (   539 PWs)   bands (ev):

   -64.2513 -31.2648 -31.2377 -31.2191  -8.0193   3.8356   5.2391   6.8427
    17.5088  19.6005  20.6565  25.2030

     occupation numbers 
     1.0000   1.0000   1.0000   1.0000   1.0000   1.0000   1.0000   1.0000
     0.0000   0.0000   0.0000   0.0000

          k =-0.1750-0.1750 0.5303 (   542 PWs)   bands (ev):

   -64.2514 -31.2685 -31.2286 -31.2230  -8.0625   3.7689   5.6896   6.7317
    17.3228  18.8942  20.8317  25.3682

     occupation numbers 
     1.0000   1.0000   1.0000   1.0000   1.0000   1.0000   1.0000   1.0000
     0.0000   0.0000   0.0000   0.0000

          k =-0.0875-0.0875 0.4420 (   539 PWs)   bands (ev):

   -64.2532 -31.2576 -31.2228 -31.2189  -8.3634   4.2329   6.3725   6.7987
    16.7456  18.0576  21.6553  25.5134

     occupation numbers 
     1.0000   1.0000   1.0000   1.0000   1.0000   1.0000   1.0000   1.0000
     0.0000   0.0000   0.0000   0.0000

          k = 0.0893-0.0893 0.4420 (   545 PWs)   bands (ev):

   -64.2531 -31.2584 -31.2248 -31.2170  -8.3567   4.2695   6.5239   6.5848
    16.6158  18.2306  21.6393  25.0719

     occupation numbers 
     1.0000   1.0000   1.0000   1.0000   1.0000   1.0000   1.0000   1.0000
     0.0000   0.0000   0.0000   0.0000

          k = 0.1768-0.0018 0.3536 (   541 PWs)   bands (ev):

   -64.2548 -31.2510 -31.2217 -31.2092  -8.5696   4.6074   6.4843   7.0382
    16.0146  18.9602  22.5849  24.9753

     occupation numbers 
     1.0000   1.0000   1.0000   1.0000   1.0000   1.0000   1.0000   1.0000
     0.0000   0.0000   0.0000   0.0000

          k = 0.2643 0.0857 0.2652 (   543 PWs)   bands (ev):

   -64.2553 -31.2534 -31.2188 -31.2045  -8.6124   4.4094   6.6972   7.2413
    15.5944  19.4957  23.1736  24.8327

     occupation numbers 
     1.0000   1.0000   1.0000   1.0000   1.0000   1.0000   1.0000   1.0000
     0.0000   0.0000   0.0000   0.0000

          k = 0.3518 0.1733 0.1768 (   543 PWs)   bands (ev):

   -64.2544 -31.2606 -31.2163 -31.2107  -8.4652   4.0021   6.8191   6.9735
    15.8440  19.3651  23.0207  24.4585

     occupation numbers 
     1.0000   1.0000   1.0000   1.0000   1.0000   1.0000   1.0000   1.0000
     0.0000   0.0000   0.0000   0.0000

          k =-0.2608-0.4394 0.7955 (   545 PWs)   bands (ev):

   -64.2526 -31.2618 -31.2286 -31.2177  -8.2050   3.9016   5.8960   6.8368
    17.0349  19.1256  21.5309  24.7122

     occupation numbers 
     1.0000   1.0000   1.0000   1.0000   1.0000   1.0000   1.0000   1.0000
     0.0000   0.0000   0.0000   0.0000

          k =-0.1733-0.3518 0.7071 (   541 PWs)   bands (ev):

   -64.2509 -31.2549 -31.2473 -31.2241  -7.9776   4.2202   4.9174   6.5312
    18.2754  19.2273  20.2932  24.1431

     occupation numbers 
     1.0000   1.0000   1.0000   1.0000   1.0000   1.0000   1.0000   1.0000
     0.0000   0.0000   0.0000   0.0000

          k =-0.0857-0.2643 0.6187 (   537 PWs)   bands (ev):

   -64.2503 -31.2624 -31.2413 -31.2278  -7.9263   4.0991   5.1187   6.3374
    18.1940  19.1011  20.0387  24.1001

     occupation numbers 
     1.0000   1.0000   1.0000   1.0000   1.0000   1.0000   1.0000   1.0000
     0.0000   0.0000   0.0000   0.0000

          k = 0.0018-0.1768 0.5303 (   540 PWs)   bands (ev):

   -64.2512 -31.2649 -31.2332 -31.2226  -8.0880   3.9753   5.9307   6.4141
    17.6465  18.0182  20.6802  24.9455

     occupation numbers 
     1.0000   1.0000   1.0000   1.0000   1.0000   1.0000   1.0000   1.0000
     0.0000   0.0000   0.0000   0.0000

          k =-0.5357 0.5357-0.1768 (   544 PWs)   bands (ev):

   -64.2510 -31.2715 -31.2346 -31.2169  -8.0377   3.8463   5.7503   6.5235
    17.0535  19.2408  20.7657  24.9252

     occupation numbers 
     1.0000   1.0000   1.0000   1.0000   1.0000   1.0000   1.0000   1.0000
     0.0000   0.0000   0.0000   0.0000

          k =-0.4482 0.6232-0.2652 (   541 PWs)   bands (ev):

   -64.2521 -31.2690 -31.2295 -31.2131  -8.1747   3.9509   5.8842   6.7457
    16.9159  19.2531  21.3855  24.5318

     occupation numbers 
     1.0000   1.0000   1.0000   1.0000   1.0000   1.0000   1.0000   1.0000
     0.0000   0.0000   0.0000   0.0000

          k =-0.3607 0.7107-0.3536 (   543 PWs)   bands (ev):

   -64.2527 -31.2627 -31.2342 -31.2092  -8.2382   4.1227   5.6392   6.9931
    16.9838  19.2672  21.5349  25.0256

     occupation numbers 
     1.0000   1.0000   1.0000   1.0000   1.0000   1.0000   1.0000   1.0000
     0.0000   0.0000   0.0000   0.0000

          k =-0.2732 0.7983-0.4420 (   546 PWs)   bands (ev):

   -64.2524 -31.2641 -31.2328 -31.2127  -8.1916   3.8989   5.9347   6.7822
    17.0464  19.0804  21.4747  24.6937

     occupation numbers 
     1.0000   1.0000   1.0000   1.0000   1.0000   1.0000   1.0000   1.0000
     0.0000   0.0000   0.0000   0.0000

          k =-0.8858 0.1856 0.1768 (   545 PWs)   bands (ev):

   -64.2514 -31.2654 -31.2359 -31.2189  -8.0626   3.8002   5.7328   6.6373
    17.2370  19.0174  20.8831  25.1993

     occupation numbers 
     1.0000   1.0000   1.0000   1.0000   1.0000   1.0000   1.0000   1.0000
     0.0000   0.0000   0.0000   0.0000

          k =-0.7983 0.2732 0.0884 (   542 PWs)   bands (ev):

   -64.2503 -31.2597 -31.2455 -31.2264  -7.9261   4.1126   5.1535   6.2794
    18.1019  19.1561  20.1438  24.0592

     occupation numbers 
     1.0000   1.0000   1.0000   1.0000   1.0000   1.0000   1.0000   1.0000
     0.0000   0.0000   0.0000   0.0000

          k =-0.7107 0.3607 0.0000 (   529 PWs)   bands (ev):

   -64.2497 -31.2538 -31.2524 -31.2310  -7.8617   4.6766   4.6778   5.8667
    19.0766  19.1300  19.7394  23.0125

     occupation numbers 
     1.0000   1.0000   1.0000   1.0000   1.0000   1.0000   1.0000   1.0000
     0.0000   0.0000   0.0000   0.0000

          k =-0.6232 0.4482-0.0884 (   538 PWs)   bands (ev):

   -64.2500 -31.2642 -31.2466 -31.2227  -7.9077   4.1434   5.1740   6.1942
    17.9328  19.3635  20.0031  24.0838

     occupation numbers 
     1.0000   1.0000   1.0000   1.0000   1.0000   1.0000   1.0000   1.0000
     0.0000   0.0000   0.0000   0.0000

          k =-0.4464 0.4464-0.0884 (   544 PWs)   bands (ev):

   -64.2507 -31.2732 -31.2410 -31.2125  -7.9743   3.9023   5.2708   6.6527
    17.3456  19.6857  20.6196  24.7356

     occupation numbers 
     1.0000   1.0000   1.0000   1.0000   1.0000   1.0000   1.0000   1.0000
     0.0000   0.0000   0.0000   0.0000

          k =-0.3589 0.5339-0.1768 (   544 PWs)   bands (ev):

   -64.2509 -31.2782 -31.2320 -31.2142  -7.9929   3.6540   5.6834   6.6068
    17.0835  19.7875  20.9073  24.2996

     occupation numbers 
     1.0000   1.0000   1.0000   1.0000   1.0000   1.0000   1.0000   1.0000
     0.0000   0.0000   0.0000   0.0000

          k =-0.2714 0.6215-0.2652 (   535 PWs)   bands (ev):

   -64.2509 -31.2729 -31.2369 -31.2154  -7.9871   3.8948   5.2241   6.7382
    17.3723  19.7360  20.5591  24.9130

     occupation numbers 
     1.0000   1.0000   1.0000   1.0000   1.0000   1.0000   1.0000   1.0000
     0.0000   0.0000   0.0000   0.0000

          k =-0.1839 0.7090-0.3536 (   536 PWs)   bands (ev):

   -64.2506 -31.2627 -31.2457 -31.2201  -7.9579   4.2409   4.9370   6.4581
    18.2313  19.2112  20.2432  24.1499

     occupation numbers 
     1.0000   1.0000   1.0000   1.0000   1.0000   1.0000   1.0000   1.0000
     0.0000   0.0000   0.0000   0.0000

          k =-0.7965 0.0964 0.2652 (   538 PWs)   bands (ev):

   -64.2502 -31.2610 -31.2475 -31.2239  -7.9199   4.1234   5.1421   6.2724
    18.1193  19.1681  20.0371  24.1217

     occupation numbers 
     1.0000   1.0000   1.0000   1.0000   1.0000   1.0000   1.0000   1.0000
     0.0000   0.0000   0.0000   0.0000

          k =-0.7090 0.1839 0.1768 (   539 PWs)   bands (ev):

   -64.2500 -31.2644 -31.2477 -31.2224  -7.8976   4.1389   4.9196   6.5004
    17.5736  19.2848  20.0144  25.6161

     occupation numbers 
     1.0000   1.0000   1.0000   1.0000   1.0000   1.0000   1.0000   1.0000
     0.0000   0.0000   0.0000   0.0000

          k =-0.6215 0.2714 0.0884 (   537 PWs)   bands (ev):

   -64.2500 -31.2679 -31.2424 -31.2233  -7.9066   4.1312   5.1414   6.2482
    18.0527  19.2932  19.8743  24.1411

     occupation numbers 
     1.0000   1.0000   1.0000   1.0000   1.0000   1.0000   1.0000   1.0000
     0.0000   0.0000   0.0000   0.0000

          k =-0.5339 0.3589 0.0000 (   538 PWs)   bands (ev):

   -64.2503 -31.2667 -31.2467 -31.2171  -7.9395   4.2603   4.9558   6.3868
    18.1796  19.1871  20.2152  24.1368

     occupation numbers 
     1.0000   1.0000   1.0000   1.0000   1.0000   1.0000   1.0000   1.0000
     0.0000   0.0000   0.0000   0.0000

          k =-0.3571 0.3571 0.0000 (   536 PWs)   bands (ev):

   -64.2523 -31.2694 -31.2334 -31.2062  -8.2123   4.1344   5.6690   6.9111
    16.9583  19.2493  21.4930  24.7968

     occupation numbers 
     1.0000   1.0000   1.0000   1.0000   1.0000   1.0000   1.0000   1.0000
     0.0000   0.0000   0.0000   0.0000

          k =-0.2696 0.4447-0.0884 (   541 PWs)   bands (ev):

   -64.2519 -31.2732 -31.2293 -31.2107  -8.1605   3.9273   5.9241   6.7206
    16.9597  19.1494  21.3223  24.5593

     occupation numbers 
     1.0000   1.0000   1.0000   1.0000   1.0000   1.0000   1.0000   1.0000
     0.0000   0.0000   0.0000   0.0000

          k =-0.1821 0.5322-0.1768 (   540 PWs)   bands (ev):

   -64.2510 -31.2752 -31.2285 -31.2194  -8.0358   3.8158   5.7083   6.6157
    17.1392  19.1229  20.6989  25.0867

     occupation numbers 
     1.0000   1.0000   1.0000   1.0000   1.0000   1.0000   1.0000   1.0000
     0.0000   0.0000   0.0000   0.0000

          k =-0.0946 0.6197-0.2652 (   540 PWs)   bands (ev):

   -64.2501 -31.2684 -31.2382 -31.2266  -7.9118   4.1208   5.1528   6.2553
    18.0322  19.2848  19.9803  24.0799

     occupation numbers 
     1.0000   1.0000   1.0000   1.0000   1.0000   1.0000   1.0000   1.0000
     0.0000   0.0000   0.0000   0.0000

          k =-0.7072 0.0071 0.3536 (   524 PWs)   bands (ev):

   -64.2497 -31.2603 -31.2451 -31.2319  -7.8607   4.6621   4.6941   5.8653
    19.0419  19.2152  19.6882  23.0114

     occupation numbers 
     1.0000   1.0000   1.0000   1.0000   1.0000   1.0000   1.0000   1.0000
     0.0000   0.0000   0.0000   0.0000

          k = 0.0000 0.0000 0.5303 (   542 PWs)   bands (ev):

   -64.2515 -31.2652 -31.2286 -31.2232  -8.1600   3.9071   6.3493   6.5814
    16.9536  17.3646  20.8905  25.8003

     occupation numbers 
     1.0000   1.0000   1.0000   1.0000   1.0000   1.0000   1.0000   1.0000
     0.0000   0.0000   0.0000   0.0000

          k = 0.0875 0.0875 0.4420 (   539 PWs)   bands (ev):

   -64.2532 -31.2576 -31.2228 -31.2189  -8.3634   4.2329   6.3725   6.7987
    16.7456  18.0577  21.6555  25.5309

     occupation numbers 
     1.0000   1.0000   1.0000   1.0000   1.0000   1.0000   1.0000   1.0000
     0.0000   0.0000   0.0000   0.0000

          k = 0.1750 0.1750 0.3536 (   541 PWs)   bands (ev):

   -64.2543 -31.2627 -31.2159 -31.2096  -8.4599   3.9798   6.7776   7.0443
    15.8628  19.2955  22.9345  24.6287

     occupation numbers 
     1.0000   1.0000   1.0000   1.0000   1.0000   1.0000   1.0000   1.0000
     0.0000   0.0000   0.0000   0.0000

          k = 0.2626 0.2626 0.2652 (   544 PWs)   bands (ev):

   -64.2543 -31.2719 -31.2120 -31.2061  -8.4003   3.5093   7.0814   7.1664
    15.3525  19.7746  24.0136  24.2190

     occupation numbers 
     1.0000   1.0000   1.0000   1.0000   1.0000   1.0000   1.0000   1.0000
     0.0000   0.0000   0.0000   0.0000

          k =-0.3501-0.3501 0.8839 (   541 PWs)   bands (ev):

   -64.2531 -31.2736 -31.2171 -31.2133  -8.2207   3.4080   6.4193   7.0785
    16.1247  19.7438  22.5392  24.5205

     occupation numbers 
     1.0000   1.0000   1.0000   1.0000   1.0000   1.0000   1.0000   1.0000
     0.0000   0.0000   0.0000   0.0000

          k =-0.2626-0.2626 0.7955 (   539 PWs)   bands (ev):

   -64.2513 -31.2648 -31.2377 -31.2191  -8.0193   3.8355   5.2391   6.8427
    17.5089  19.6002  20.6567  25.2031

     occupation numbers 
     1.0000   1.0000   1.0000   1.0000   1.0000   1.0000   1.0000   1.0000
     0.0000   0.0000   0.0000   0.0000

          k =-0.1750-0.1750 0.7071 (   538 PWs)   bands (ev):

   -64.2502 -31.2623 -31.2446 -31.2259  -7.9118   4.1269   4.8568   6.6100
    17.7035  19.1564  20.0239  25.5667

     occupation numbers 
     1.0000   1.0000   1.0000   1.0000   1.0000   1.0000   1.0000   1.0000
     0.0000   0.0000   0.0000   0.0000

          k =-0.0875-0.0875 0.6187 (   543 PWs)   bands (ev):

   -64.2502 -31.2700 -31.2309 -31.2299  -7.9694   3.7469   5.8184   6.5066
    17.1471  17.8831  20.4629  25.8629

     occupation numbers 
     1.0000   1.0000   1.0000   1.0000   1.0000   1.0000   1.0000   1.0000
     0.0000   0.0000   0.0000   0.0000

          k =-0.6250 0.6250-0.0884 (   540 PWs)   bands (ev):

   -64.2501 -31.2700 -31.2371 -31.2245  -7.9621   3.7578   6.0145   6.2737
    16.9277  18.1320  20.4532  25.8573

     occupation numbers 
     1.0000   1.0000   1.0000   1.0000   1.0000   1.0000   1.0000   1.0000
     0.0000   0.0000   0.0000   0.0000

          k =-0.5375 0.7125-0.1768 (   540 PWs)   bands (ev):

   -64.2512 -31.2648 -31.2332 -31.2227  -8.0880   3.9753   5.9307   6.4142
    17.6465  18.0183  20.6803  24.9455

     occupation numbers 
     1.0000   1.0000   1.0000   1.0000   1.0000   1.0000   1.0000   1.0000
     0.0000   0.0000   0.0000   0.0000

          k =-0.4500 0.8000-0.2652 (   543 PWs)   bands (ev):

   -64.2524 -31.2656 -31.2298 -31.2142  -8.1918   3.8779   5.9333   6.8138
    17.0777  19.0189  21.4760  24.7313

     occupation numbers 
     1.0000   1.0000   1.0000   1.0000   1.0000   1.0000   1.0000   1.0000
     0.0000   0.0000   0.0000   0.0000

          k =-0.3624 0.8875-0.3536 (   545 PWs)   bands (ev):

   -64.2529 -31.2746 -31.2219 -31.2084  -8.2129   3.4003   6.4835   7.0108
    16.1350  19.7010  22.5948  24.3715

     occupation numbers 
     1.0000   1.0000   1.0000   1.0000   1.0000   1.0000   1.0000   1.0000
     0.0000   0.0000   0.0000   0.0000

          k =-0.9751 0.2749 0.2652 (   547 PWs)   bands (ev):

   -64.2526 -31.2778 -31.2205 -31.2110  -8.1456   3.2347   6.5395   6.9031
    16.1394  19.7982  22.5057  24.2947

     occupation numbers 
     1.0000   1.0000   1.0000   1.0000   1.0000   1.0000   1.0000   1.0000
     0.0000   0.0000   0.0000   0.0000

          k =-0.8875 0.3624 0.1768 (   544 PWs)   bands (ev):

   -64.2515 -31.2707 -31.2310 -31.2186  -8.0298   3.5845   5.7176   6.7115
    17.2418  19.5883  21.0917  24.4813

     occupation numbers 
     1.0000   1.0000   1.0000   1.0000   1.0000   1.0000   1.0000   1.0000
     0.0000   0.0000   0.0000   0.0000

          k =-0.8000 0.4500 0.0884 (   537 PWs)   bands (ev):

   -64.2503 -31.2624 -31.2413 -31.2278  -7.9263   4.0991   5.1187   6.3375
    18.1941  19.1009  20.0389  24.1001

     occupation numbers 
     1.0000   1.0000   1.0000   1.0000   1.0000   1.0000   1.0000   1.0000
     0.0000   0.0000   0.0000   0.0000

          k =-0.7125 0.5375 0.0000 (   530 PWs)   bands (ev):

   -64.2497 -31.2683 -31.2382 -31.2297  -7.8950   3.8485   5.7136   6.1017
    17.4234  18.4383  20.2374  24.8090

     occupation numbers 
     1.0000   1.0000   1.0000   1.0000   1.0000   1.0000   1.0000   1.0000
     0.0000   0.0000   0.0000   0.0000

          k =-0.5357 0.5357 0.0000 (   538 PWs)   bands (ev):

   -64.2498 -31.2618 -31.2538 -31.2201  -7.8856   4.1495   4.9819   6.3934
    17.4194  19.4578  19.9983  25.3983

     occupation numbers 
     1.0000   1.0000   1.0000   1.0000   1.0000   1.0000   1.0000   1.0000
     0.0000   0.0000   0.0000   0.0000

          k =-0.4482 0.6232-0.0884 (   538 PWs)   bands (ev):

   -64.2500 -31.2642 -31.2466 -31.2227  -7.9078   4.1433   5.1740   6.1942
    17.9328  19.3635  20.0032  24.0838

     occupation numbers 
     1.0000   1.0000   1.0000   1.0000   1.0000   1.0000   1.0000   1.0000
     0.0000   0.0000   0.0000   0.0000

          k =-0.3607 0.7107-0.1768 (   537 PWs)   bands (ev):

   -64.2506 -31.2610 -31.2473 -31.2200  -7.9586   4.2388   4.9387   6.4582
    18.2306  19.1940  20.2644  24.1438

     occupation numbers 
     1.0000   1.0000   1.0000   1.0000   1.0000   1.0000   1.0000   1.0000
     0.0000   0.0000   0.0000   0.0000

          k =-0.2732 0.7983-0.2652 (   540 PWs)   bands (ev):

   -64.2511 -31.2650 -31.2433 -31.2149  -8.0057   3.8437   5.2878   6.7540
    17.4870  19.5543  20.7034  25.0173

     occupation numbers 
     1.0000   1.0000   1.0000   1.0000   1.0000   1.0000   1.0000   1.0000
     0.0000   0.0000   0.0000   0.0000

          k =-0.8858 0.1856 0.3536 (   544 PWs)   bands (ev):

   -64.2514 -31.2697 -31.2368 -31.2145  -8.0241   3.5999   5.7297   6.6681
    17.2355  19.5964  21.0581  24.4644

     occupation numbers 
     1.0000   1.0000   1.0000   1.0000   1.0000   1.0000   1.0000   1.0000
     0.0000   0.0000   0.0000   0.0000

          k = 0.0000 0.0000-0.7071 (   524 PWs)   bands (ev):

   -64.2497 -31.2749 -31.2327 -31.2277  -7.9276   3.5492   6.1752   6.4176
    16.5372  17.5539  20.5789  26.2479

     occupation numbers 
     1.0000   1.0000   1.0000   1.0000   1.0000   1.0000   1.0000   1.0000
     0.0000   0.0000   0.0000   0.0000

          k = 0.0875 0.0875-0.7955 (   543 PWs)   bands (ev):

   -64.2502 -31.2700 -31.2309 -31.2299  -7.9694   3.7470   5.8184   6.5066
    17.1471  17.8831  20.4630  25.8628

     occupation numbers 
     1.0000   1.0000   1.0000   1.0000   1.0000   1.0000   1.0000   1.0000
     0.0000   0.0000   0.0000   0.0000

          k = 0.1750 0.1750-0.8839 (   542 PWs)   bands (ev):

   -64.2514 -31.2685 -31.2286 -31.2230  -8.0626   3.7689   5.6897   6.7317
    17.3229  18.8941  20.8320  25.3683

     occupation numbers 
     1.0000   1.0000   1.0000   1.0000   1.0000   1.0000   1.0000   1.0000
     0.0000   0.0000   0.0000   0.0000

          k = 0.2626 0.2626-0.9723 (   542 PWs)   bands (ev):

   -64.2526 -31.2787 -31.2161 -31.2144  -8.1454   3.2228   6.4920   6.9729
    16.1492  19.7636  22.4440  24.4463

     occupation numbers 
     1.0000   1.0000   1.0000   1.0000   1.0000   1.0000   1.0000   1.0000
     0.0000   0.0000   0.0000   0.0000

          k =-0.3501-0.3501-0.3536 (   552 PWs)   bands (ev):

   -64.2531 -31.2842 -31.2133 -31.2072  -8.1768   2.9576   6.9959   7.0782
    15.4525  19.9952  23.8582  24.0577

     occupation numbers 
     1.0000   1.0000   1.0000   1.0000   1.0000   1.0000   1.0000   1.0000
     0.0000   0.0000   0.0000   0.0000

     the Fermi energy is     9.5280 ev

!    total energy              =    -157.60484756 Ry
     Harris-Foulkes estimate   =    -157.60484755 Ry
     estimated scf accuracy    <          1.5E-12 Ry

     The total energy is the sum of the following terms:

     one-electron contribution =     -87.10123231 Ry
     hartree contribution      =      48.19488804 Ry
     xc contribution           =     -24.08263518 Ry
     ewald contribution        =     -94.61586810 Ry
     smearing contrib. (-TS)   =      -0.00000000 Ry

     convergence has been achieved in  12 iterations

     Forces acting on atoms (Ry/au):

     atom    1 type  1   force =   0.00000000E+00  0.00000000E+00  0.00000000E+00
     atom    2 type  2   force =   0.00000000E+00  0.00000000E+00  0.00000000E+00
     The non-local contrib.  to forces
     atom    1 type  1   force =  -0.69238282E-26  0.69238282E-26 -0.22848425E-26
     atom    2 type  2   force =   0.00000000E+00  0.00000000E+00  0.00000000E+00
     The ionic contribution  to forces
     atom    1 type  1   force =  -0.40814929E-14 -0.40814936E-14  0.24348653E-14
     atom    2 type  2   force =   0.40814931E-14  0.40814936E-14 -0.24348653E-14
     The local contribution  to forces
     atom    1 type  1   force =  -0.93734318E-15 -0.58360506E-15  0.70925635E-15
     atom    2 type  2   force =   0.11512595E-13  0.11681720E-13  0.10327998E-14
     The core correction contribution to forces
     atom    1 type  1   force =   0.00000000E+00  0.00000000E+00  0.00000000E+00
     atom    2 type  2   force =  -0.24721673E-17  0.14838916E-16 -0.45486838E-16
     The Hubbard contrib.    to forces
     atom    1 type  1   force =   0.00000000E+00  0.00000000E+00  0.00000000E+00
     atom    2 type  2   force =   0.00000000E+00  0.00000000E+00  0.00000000E+00
     The SCF correction term to forces
     atom    1 type  1   force =  -0.26447074E-15 -0.13334212E-16 -0.63709492E-15
     atom    2 type  2   force =   0.21199022E-16 -0.33091327E-17 -0.69089251E-16

     Total force =     0.000000     Total SCF correction =     0.000000


     entering subroutine stress ...

          total   stress  (Ry/bohr**3)                   (kbar)     P=   -2.47
  -0.0000148497  -0.0001958178  -0.0000001268         -2.18    -28.81     -0.02
  -0.0001958178  -0.0000148497  -0.0000001268        -28.81     -2.18     -0.02
  -0.0000001268  -0.0000001268  -0.0000205868         -0.02     -0.02     -3.03

     kinetic stress (kbar)  24054.01    -34.60     -0.02
                              -34.60  24054.01     -0.02
                               -0.02     -0.02  24053.27

     local   stress (kbar)  -3782.55   -306.64     -0.19
                             -306.64  -3782.55     -0.19
                               -0.19     -0.19  -3768.70

     nonloc. stress (kbar)   6544.99      2.92      0.00
                                2.92   6544.99      0.00
                                0.00      0.00   6545.09

     hartree stress (kbar)  18656.49    123.26      0.08
                              123.26  18656.49      0.08
                                0.08      0.08  18651.21

     exc-cor stress (kbar)  -8540.99      0.30      0.00
                                0.30  -8540.99      0.00
                                0.00      0.00  -8540.98

     corecor stress (kbar)   -314.22      0.09      0.00
                                0.09   -314.22      0.00
                                0.00      0.00   -314.22

     ewald   stress (kbar) -36619.91    185.85      0.11
                              185.85 -36619.91      0.11
                                0.11      0.11 -36628.69

     hubbard stress (kbar)      0.00      0.00      0.00
                                0.00      0.00      0.00
                                0.00      0.00      0.00

     london  stress (kbar)      0.00      0.00      0.00
                                0.00      0.00      0.00
                                0.00      0.00      0.00

     XDM     stress (kbar)      0.00      0.00      0.00
                                0.00      0.00      0.00
                                0.00      0.00      0.00

     dft-nl  stress (kbar)      0.00      0.00      0.00
                                0.00      0.00      0.00
                                0.00      0.00      0.00



     Writing output data file MgO_rocksalt.relax.in.up_1.00.sxy.save

     init_run     :      3.61s CPU      3.70s WALL (       1 calls)
     electrons    :    101.31s CPU     99.62s WALL (       1 calls)
     forces       :      1.37s CPU      1.28s WALL (       1 calls)
     stress       :      2.20s CPU      2.17s WALL (       1 calls)

     Called by init_run:
     wfcinit      :      2.76s CPU      2.74s WALL (       1 calls)
     potinit      :      0.10s CPU      0.11s WALL (       1 calls)

     Called by electrons:
     c_bands      :     82.39s CPU     80.70s WALL (      12 calls)
     sum_band     :     17.99s CPU     17.97s WALL (      12 calls)
     v_of_rho     :      0.17s CPU      0.18s WALL (      13 calls)
     v_h          :      0.00s CPU      0.01s WALL (      13 calls)
     v_xc         :      0.20s CPU      0.19s WALL (      15 calls)
     newd         :      0.55s CPU      0.55s WALL (      13 calls)
     mix_rho      :      0.22s CPU      0.22s WALL (      12 calls)

     Called by c_bands:
     init_us_2    :      3.34s CPU      3.66s WALL (    4050 calls)
     cegterg      :     77.53s CPU     75.03s WALL (    1800 calls)

     Called by sum_band:
     sum_band:bec :      0.11s CPU      0.12s WALL (    1800 calls)
     addusdens    :      0.62s CPU      0.63s WALL (      12 calls)

     Called by *egterg:
     h_psi        :     53.71s CPU     52.91s WALL (    5411 calls)
     s_psi        :      4.92s CPU      3.86s WALL (    5411 calls)
     g_psi        :      0.20s CPU      0.26s WALL (    3461 calls)
     cdiaghg      :      4.94s CPU      5.97s WALL (    5261 calls)
     cegterg:over :      5.90s CPU      5.32s WALL (    3461 calls)
     cegterg:upda :      3.77s CPU      3.03s WALL (    3461 calls)
     cegterg:last :      1.78s CPU      1.48s WALL (    1800 calls)

     Called by h_psi:
     h_psi:vloc   :     40.04s CPU     42.03s WALL (    5411 calls)
     h_psi:vnl    :     13.48s CPU     10.66s WALL (    5411 calls)
     add_vuspsi   :      5.25s CPU      4.40s WALL (    5411 calls)

     General routines
     calbec       :     11.79s CPU      9.08s WALL (    7511 calls)
     fft          :      0.11s CPU      0.13s WALL (     229 calls)
     ffts         :      0.10s CPU      0.10s WALL (     278 calls)
     fftw         :     45.53s CPU     47.82s WALL (  121802 calls)
     interpolate  :      0.05s CPU      0.04s WALL (      25 calls)

     Parallel routines
     fft_scatter  :     16.11s CPU     16.63s WALL (  122309 calls)

     PWSCF        :  1m49.75s CPU     1m48.51s WALL


   This run was terminated on:  10: 1:12   3Oct2017            

=------------------------------------------------------------------------------=
   JOB DONE.
=------------------------------------------------------------------------------=
