
     Program PWSCF v.5.1 starts on 18Aug2017 at 20: 0:51 

     This program is part of the open-source Quantum ESPRESSO suite
     for quantum simulation of materials; please cite
         "P. Giannozzi et al., J. Phys.:Condens. Matter 21 395502 (2009);
          URL http://www.quantum-espresso.org", 
     in publications or presentations arising from this work. More details at
     http://www.quantum-espresso.org/quote

     Parallel version (MPI), running on     8 processors
     R & G space division:  proc/nbgrp/npool/nimage =       8
     Reading input from /tmp/MgO_rocksalt.relax.in.up_1.00.super.444.a.04.31087/MgO_rocksalt.relax.in.up_1.00.super.444.a.04.t
Warning: card &IONS ignored
Warning: card   ION_DYNAMICS='BFGS', ignored
Warning: card / ignored
Warning: card &CELL ignored
Warning: card  CELL_DYNAMICS = 'BFGS' ignored
Warning: card / ignored
     Message from routine read_cards :
     DEPRECATED: no units specified in CELL_PARAMETERS card

     Current dimensions of program PWSCF are:
     Max number of different atomic species (ntypx) = 10
     Max number of k-points (npk) =  40000
     Max angular momentum in pseudopotentials (lmaxx) =  3
 kfg - two_fermi_energies  F

     Subspace diagonalization in iterative solution of the eigenvalue problem:
     a serial algorithm will be used


     Parallelization info
     --------------------
     sticks:   dense  smooth     PW     G-vecs:    dense   smooth      PW
     Min         872     698    186                48802    34926    4794
     Max         873     699    187                48803    34944    4796
     Sum        6979    5591   1495               390419   279467   38365



     bravais-lattice index     =            0
     lattice parameter (alat)  =    22.555640294  a.u.
     unit-cell volume          =    8175.1973 (a.u.)^3
     number of atoms/cell      =          128
     number of atomic types    =            2
     number of electrons       =      1024.00
     number of Kohn-Sham states=          614
     kinetic-energy cutoff     =      40.0000  Ry
     charge density cutoff     =     200.0000  Ry
     convergence threshold     =      1.0E-10
     mixing beta               =       0.3000
     number of iterations used =            8  local-TF  mixing
     Exchange-correlation      = SLA  PW   PSX  PSC ( 1  4 10  8 0)
     A smooth kinetic-energy cutoff is imposed at      39.5000 Ry
     height of the smooth step-function =             800.0000 Ry
     width of the smooth step-function  =               1.0000 Ry


     celldm(1)=  22.555640  celldm(2)=   0.000000  celldm(3)=   0.000000
     celldm(4)=   0.000000  celldm(5)=   0.000000  celldm(6)=   0.000000

     crystal axes: (cart. coord. in units of alat)
               a(1) = (   0.001374392798   0.701883414330   0.712290519193 )  
               a(2) = (   0.707187923413   0.002417281774   0.706778978418 )  
               a(3) = (   0.713208306866   0.715215240347  -0.000525618314 )  

     reciprocal axes: (cart. coord. in units 2 pi/alat)
               b(1) = ( -0.709559  0.708088  0.707548 )  
               b(2) = (  0.715609 -0.713085  0.701286 )  
               b(3) = (  0.693914  0.705701 -0.696729 )  


     PseudoPot. # 1 for Mg read from file:
     /users/kfg/psuedo/gbrv_1.5/mg.pbesol.UPF
     MD5 check sum: 4059f37963cf5867752dbf5ab2400678
     Pseudo is Ultrasoft, Zval = 10.0
     Generated by new atomic code, or converted to UPF format
     Using radial grid of  821 points,  7 beta functions with: 
                l(1) =   0
                l(2) =   0
                l(3) =   0
                l(4) =   1
                l(5) =   1
                l(6) =   2
                l(7) =   2
     Q(r) pseudized with  8 coefficients,  rinner =    1.200   1.200   1.200
                                                       1.200   1.200

     PseudoPot. # 2 for O  read from file:
     /users/kfg/psuedo/gbrv_1.5/o.pbesol.UPF
     MD5 check sum: 501638753501ef6325af9037351f7734
     Pseudo is Ultrasoft + core correction, Zval =  6.0
     Generated by new atomic code, or converted to UPF format
     Using radial grid of  737 points,  5 beta functions with: 
                l(1) =   0
                l(2) =   0
                l(3) =   1
                l(4) =   1
                l(5) =   2
     Q(r) pseudized with  8 coefficients,  rinner =    0.900   0.900   0.900
                                                       0.900   0.900

     atomic species   valence    mass     pseudopotential
        Mg            10.00    24.30500     Mg( 1.00)
        O              6.00    15.99940     O ( 1.00)

     No symmetry found


                                    s                        frac. trans.

      isym =  1     identity                                     

 cryst.   s( 1) = (     1          0          0      )
                  (     0          1          0      )
                  (     0          0          1      )

 cart.    s( 1) = (  1.0000000 -0.0000000 -0.0000000 )
                  ( -0.0000000  1.0000000 -0.0000000 )
                  ( -0.0000000 -0.0000000  1.0000000 )


     point group C_1 (1)    
     there are  1 classes
     the character table:

       E    
A      1.00

     the symmetry operations in each class:
     E        1

   Cartesian axes

     site n.     atom                  positions (alat units)
         1           Mg  tau(   1) = (   -0.00479627981    0.00656866506    0.00509134916  )
         2           O   tau(   2) = (    0.18403670010    0.17905252346    0.18427251044  )
         3           Mg  tau(   3) = (    0.17018741378    0.17697236211    0.00107359173  )
         4           O   tau(   4) = (    0.35160998393    0.35773690034    0.18284651540  )
         5           Mg  tau(   5) = (    0.36025709926    0.35079076723   -0.00678364164  )
         6           O   tau(   6) = (    0.52673412241    0.53982130083    0.17863670871  )
         7           Mg  tau(   7) = (    0.52839599844    0.54005356573   -0.00239477119  )
         8           O   tau(   8) = (    0.71621912672    0.70695481393    0.17746412370  )
         9           Mg  tau(   9) = (    0.17302950968    0.00207387626    0.18369363266  )
        10           O   tau(  10) = (    0.34791795399    0.17875207886    0.35375017843  )
        11           Mg  tau(  11) = (    0.35886173230    0.17993573296    0.17950895730  )
        12           O   tau(  12) = (    0.53179232703    0.35489262628    0.34599375800  )
        13           Mg  tau(  13) = (    0.52781701522    0.35296046871    0.17974106543  )
        14           O   tau(  14) = (    0.71762357218    0.52907600488    0.35585667643  )
        15           Mg  tau(  15) = (    0.71682840383    0.54583359901    0.18119136630  )
        16           O   tau(  16) = (    0.89737491810    0.70952760366    0.34656071063  )
        17           Mg  tau(  17) = (    0.36085690049   -0.00267650524    0.35526148105  )
        18           O   tau(  18) = (    0.53039065545    0.17572657384    0.52247398457  )
        19           Mg  tau(  19) = (    0.53042558230    0.18516501880    0.35300505236  )
        20           O   tau(  20) = (    0.71751221931    0.36099701782    0.53037076158  )
        21           Mg  tau(  21) = (    0.70387552361    0.36083460932    0.35572067426  )
        22           O   tau(  22) = (    0.88564110466    0.53003722088    0.52665431340  )
        23           Mg  tau(  23) = (    0.88442419533    0.53013977049    0.36077043499  )
        24           O   tau(  24) = (    1.06753966233    0.71705905857    0.53558265227  )
        25           Mg  tau(  25) = (    0.53742569074    0.00893254657    0.53225056534  )
        26           O   tau(  26) = (    0.71029703994    0.18589469076    0.70588846418  )
        27           Mg  tau(  27) = (    0.70088448888    0.18507642305    0.53398953940  )
        28           O   tau(  28) = (    0.87771898880    0.35061640248    0.71421915024  )
        29           Mg  tau(  29) = (    0.88479709589    0.35734033264    0.53148707517  )
        30           O   tau(  30) = (    1.05935897614    0.53427560060    0.71352966715  )
        31           Mg  tau(  31) = (    1.06870915923    0.54221719420    0.52803584829  )
        32           O   tau(  32) = (    1.25171451659    0.71311722257    0.70488201107  )
        33           Mg  tau(  33) = (   -0.00316160310    0.18363376646    0.18250554212  )
        34           O   tau(  34) = (    0.17047563989    0.36060669014    0.35961523696  )
        35           Mg  tau(  35) = (    0.18359514508    0.35524060238    0.16970326448  )
        36           O   tau(  36) = (    0.35542028172    0.53950677133    0.35604365670  )
        37           Mg  tau(  37) = (    0.36294963780    0.54055553456    0.18222083848  )
        38           O   tau(  38) = (    0.53114443771    0.71293510429    0.35412165072  )
        39           Mg  tau(  39) = (    0.54262293886    0.71770346838    0.17213491364  )
        40           O   tau(  40) = (    0.71214173814    0.88365374909    0.35557225934  )
        41           Mg  tau(  41) = (    0.17035783911    0.16980133505    0.36037364454  )
        42           O   tau(  42) = (    0.34942542852    0.34862626206    0.53424524308  )
        43           Mg  tau(  43) = (    0.35349388922    0.34712137847    0.35213828359  )
        44           O   tau(  44) = (    0.52580195975    0.52582765461    0.52552671482  )
        45           Mg  tau(  45) = (    0.53784348924    0.53903526164    0.36070069220  )
        46           O   tau(  46) = (    0.70827256385    0.71547322684    0.52388008332  )
        47           Mg  tau(  47) = (    0.71561105969    0.71329929994    0.35136506410  )
        48           O   tau(  48) = (    0.89474607829    0.89405749125    0.52586058807  )
        49           Mg  tau(  49) = (    0.34574137596    0.18224694214    0.52621228159  )
        50           O   tau(  50) = (    0.52381791320    0.35519734417    0.70209424508  )
        51           Mg  tau(  51) = (    0.53729526109    0.36063473527    0.52761042536  )
        52           O   tau(  52) = (    0.70916742194    0.53780125086    0.70792788671  )
        53           Mg  tau(  53) = (    0.71197032249    0.52575147882    0.53659729581  )
        54           O   tau(  54) = (    0.89083727170    0.71147247132    0.70758008463  )
        55           Mg  tau(  55) = (    0.88122622818    0.71882025978    0.52234990197  )
        56           O   tau(  56) = (    1.07380699274    0.89543416533    0.70315208265  )
        57           Mg  tau(  57) = (    0.52234267146    0.18271965495    0.70022653469  )
        58           O   tau(  58) = (    0.70401866673    0.35208776138    0.88444237781  )
        59           Mg  tau(  59) = (    0.70546119555    0.36434784657    0.71172377614  )
        60           O   tau(  60) = (    0.88680421432    0.54127938378    0.89374626874  )
        61           Mg  tau(  61) = (    0.88071259488    0.53599587099    0.70381835988  )
        62           O   tau(  62) = (    1.06737847697    0.71977520396    0.88384909608  )
        63           Mg  tau(  63) = (    1.07130356197    0.70759623991    0.70297293829  )
        64           O   tau(  64) = (    1.23970993713    0.89813642024    0.88483703668  )
        65           Mg  tau(  65) = (   -0.00788786134    0.35864648323    0.35259164877  )
        66           O   tau(  66) = (    0.18300102830    0.52382569499    0.53083034874  )
        67           Mg  tau(  67) = (    0.18531946908    0.52925853911    0.35689783270  )
        68           O   tau(  68) = (    0.34875716924    0.71096323651    0.53503995476  )
        69           Mg  tau(  69) = (    0.35531201077    0.71496334646    0.36431278511  )
        70           O   tau(  70) = (    0.53034362063    0.89309197285    0.53408103776  )
        71           Mg  tau(  71) = (    0.52685843268    0.88135655558    0.34929667951  )
        72           O   tau(  72) = (    0.71691839605    1.06174958625    0.53343671081  )
        73           Mg  tau(  73) = (    0.17577649382    0.34584475817    0.52736790437  )
        74           O   tau(  74) = (    0.36141907012    0.52024040235    0.70863568236  )
        75           Mg  tau(  75) = (    0.34800431331    0.53818228327    0.53028041435  )
        76           O   tau(  76) = (    0.53385516979    0.70144399198    0.70720231146  )
        77           Mg  tau(  77) = (    0.52714769839    0.71460082537    0.53148641021  )
        78           O   tau(  78) = (    0.70438827916    0.88032253571    0.70616269942  )
        79           Mg  tau(  79) = (    0.71684383017    0.88757169263    0.54075605512  )
        80           O   tau(  80) = (    0.88774645406    1.06404209831    0.71755406162  )
        81           Mg  tau(  81) = (    0.35941310711    0.35138528073    0.70774017330  )
        82           O   tau(  82) = (    0.52740819044    0.52611933632    0.88522021614  )
        83           Mg  tau(  83) = (    0.52536949080    0.52481288512    0.70256499878  )
        84           O   tau(  84) = (    0.70866117292    0.70227522395    0.88488964673  )
        85           Mg  tau(  85) = (    0.70311530156    0.70442501081    0.70388490447  )
        86           O   tau(  86) = (    0.89632121356    0.88155050991    0.88355412803  )
        87           Mg  tau(  87) = (    0.88861145573    0.89701300634    0.70875847755  )
        88           O   tau(  88) = (    1.07133473498    1.06731459166    0.88110531601  )
        89           Mg  tau(  89) = (    0.52849221277    0.34861733555    0.89182630856  )
        90           O   tau(  90) = (    0.71196836454    0.53783973155    1.05909465000  )
        91           Mg  tau(  91) = (    0.71782663287    0.52350961492    0.88687690785  )
        92           O   tau(  92) = (    0.88732124912    0.70172441519    1.06425798432  )
        93           Mg  tau(  93) = (    0.88193707516    0.71847255476    0.88147307897  )
        94           O   tau(  94) = (    1.05978060794    0.88507538708    1.06179000738  )
        95           Mg  tau(  95) = (    1.07374156085    0.89597852034    0.89108710295  )
        96           O   tau(  96) = (    1.24778923749    1.05918221806    1.05687285523  )
        97           Mg  tau(  97) = (    0.00934403563    0.51758385390    0.54082433183  )
        98           O   tau(  98) = (    0.18243735446    0.70749782570    0.71164649280  )
        99           Mg  tau(  99) = (    0.17067306353    0.70466194421    0.54121399544  )
       100           O   tau( 100) = (    0.34843478621    0.87605136408    0.72014278861  )
       101           Mg  tau( 101) = (    0.36016209642    0.88435328075    0.53579106236  )
       102           O   tau( 102) = (    0.52698929036    1.06949605967    0.70294435095  )
       103           Mg  tau( 103) = (    0.53802885875    1.07152015389    0.52687653297  )
       104           O   tau( 104) = (    0.71563306133    1.23378937888    0.71999340824  )
       105           Mg  tau( 105) = (    0.17868377066    0.53424033805    0.71347336696  )
       106           O   tau( 106) = (    0.36392695253    0.70385542814    0.89079239291  )
       107           Mg  tau( 107) = (    0.35192889077    0.70179820331    0.70543406484  )
       108           O   tau( 108) = (    0.53113808997    0.88976020336    0.88833052107  )
       109           Mg  tau( 109) = (    0.54091309686    0.89022836799    0.71952557071  )
       110           O   tau( 110) = (    0.71098839185    1.06528409924    0.88692755193  )
       111           Mg  tau( 111) = (    0.70890945388    1.06597466852    0.71304659454  )
       112           O   tau( 112) = (    0.88229325628    1.23569326897    0.89093927514  )
       113           Mg  tau( 113) = (    0.35424985551    0.52827543068    0.88006421700  )
       114           O   tau( 114) = (    0.54004250857    0.70510060583    1.06292217308  )
       115           Mg  tau( 115) = (    0.53945264608    0.70599785761    0.89634646158  )
       116           O   tau( 116) = (    0.70632200979    0.88835738341    1.07174787873  )
       117           Mg  tau( 117) = (    0.70447215631    0.89097939182    0.89106139679  )
       118           O   tau( 118) = (    0.88245928311    1.06414450878    1.06178866766  )
       119           Mg  tau( 119) = (    0.88979309202    1.06912607684    0.87843499376  )
       120           O   tau( 120) = (    1.06890940290    1.23890567971    1.06094379498  )
       121           Mg  tau( 121) = (    0.53503723458    0.53284857174    1.07241530423  )
       122           O   tau( 122) = (    0.70786727174    0.71366429891    1.24683620391  )
       123           Mg  tau( 123) = (    0.70604768943    0.70015212153    1.06327699789  )
       124           O   tau( 124) = (    0.89287495832    0.88619295630    1.24148297892  )
       125           Mg  tau( 125) = (    0.88599069912    0.89182110481    1.05915474039  )
       126           O   tau( 126) = (    1.06059184008    1.06817800178    1.24248750273  )
       127           Mg  tau( 127) = (    1.06045123693    1.05711182976    1.06868275504  )
       128           O   tau( 128) = (    1.25017521079    1.24004380322    1.24183378826  )

   Crystallographic axes

     site n.     atom                  positions (cryst. coord.)
         1           Mg  tau(   1) = (    0.01165681411   -0.00454578658   -0.00223998440  )
         2           O   tau(   2) = (    0.12658169879    0.13324621496    0.12567522308  )
         3           Mg  tau(   3) = (    0.00531360084   -0.00365589752    0.24223710762  )
         4           O   tau(   4) = (    0.13319385953    0.12474588684    0.36904805518  )
         5           Mg  tau(   5) = (   -0.01203271798    0.00290210988    0.50226742515  )
         6           O   tau(   6) = (    0.13488607701    0.11727226155    0.62199949800  )
         7           Mg  tau(   7) = (    0.00578285828   -0.00865889289    0.74944656401  )
         8           O   tau(   8) = (    0.11795084106    0.13286661161    0.87224916871  )
         9           Mg  tau(   9) = (    0.00866586958    0.25116426665   -0.00645356589  )
        10           O   tau(  10) = (    0.12999909082    0.36958755183    0.12110267090  )
        11           Mg  tau(  11) = (   -0.00021208590    0.25438209610    0.25093100540  )
        12           O   tau(  12) = (    0.11876432537    0.37012695379    0.37840247197  )
        13           Mg  tau(  13) = (    0.00258512692    0.25206934861    0.49011356105  )
        14           O   tau(  14) = (    0.11722172493    0.38581852818    0.62340308637  )
        15           Mg  tau(  15) = (    0.00606768779    0.25080962791    0.75637162287  )
        16           O   tau(  16) = (    0.11087579420    0.37925364853    0.88195682102  )
        17           Mg  tau(  17) = (   -0.00657998794    0.50928066262    0.00099383271  )
        18           O   tau(  18) = (    0.11776177107    0.62064761613    0.12803314939  )
        19           Mg  tau(  19) = (    0.00451281606    0.49509606129    0.25279209834  )
        20           O   tau(  20) = (    0.12176309396    0.62797770487    0.38312315953  )
        21           Mg  tau(  21) = (    0.00775079818    0.49585537587    0.49522970217  )
        22           O   tau(  22) = (    0.11953149053    0.62514582542    0.62167145147  )
        23           Mg  tau(  23) = (    0.00309674786    0.50786988133    0.73647556735  )
        24           O   tau(  24) = (    0.12920886712    0.62821281267    0.87365438420  )
        25           Mg  tau(  25) = (    0.00158250726    0.75147647282    0.00839646620  )
        26           O   tau(  26) = (    0.12708201245    0.87076538444    0.13225815576  )
        27           Mg  tau(  27) = (    0.01155460915    0.74406292401    0.24491623626  )
        28           O   tau(  28) = (    0.13081807662    0.87895554993    0.35887473657  )
        29           Mg  tau(  29) = (    0.00126513958    0.75107858370    0.49584623421  )
        30           O   tau(  30) = (    0.13149280680    0.87749050977    0.61500624395  )
        31           Mg  tau(  31) = (   -0.00076415639    0.74843439156    0.75633786246  )
        32           O   tau(  32) = (    0.11552215698    0.88154800103    0.88071835043  )
        33           Mg  tau(  33) = (    0.26140370971   -0.00522046651    0.00023972854  )
        34           O   tau(  34) = (    0.38882386340    0.11704355938    0.12222158748  )
        35           Mg  tau(  35) = (    0.24134327351   -0.00292407699    0.25985580197  )
        36           O   tau(  36) = (    0.38174464798    0.11931584069    0.37929576873  )
        37           Mg  tau(  37) = (    0.25415673195    0.00205660370    0.50636808047  )
        38           O   tau(  38) = (    0.37850058685    0.12004850843    0.62496099605  )
        39           Mg  tau(  39) = (    0.24496795832   -0.00276231796    0.76308664568  )
        40           O   tau(  40) = (    0.37198250569    0.12885208841    0.87002330351  )
        41           Mg  tau(  41) = (    0.25433703063    0.25355159147   -0.01304015003  )
        42           O   tau(  42) = (    0.37692430422    0.37611015330    0.11627294213  )
        43           Mg  tau(  43) = (    0.24412246290    0.25238568795    0.24491338200  )
        44           O   tau(  44) = (    0.37108013675    0.36985284980    0.36978885204  )
        45           Mg  tau(  45) = (    0.25526576618    0.25346159541    0.50230440538  )
        46           O   tau(  46) = (    0.37472714765    0.36404217701    0.63138820178  )
        47           Mg  tau(  47) = (    0.24591804000    0.24986155205    0.75514263419  )
        48           O   tau(  48) = (    0.37026784758    0.37152733462    0.88543211637  )
        49           Mg  tau(  49) = (    0.25604341041    0.48648304012    0.00189922189  )
        50           O   tau(  50) = (    0.37659664216    0.61393127332    0.12497826839  )
        51           Mg  tau(  51) = (    0.24742811852    0.49733545403    0.25973557642  )
        52           O   tau(  52) = (    0.37850743202    0.62044788513    0.37839429236  )
        53           Mg  tau(  53) = (    0.24676166847    0.51089449059    0.49120678737  )
        54           O   tau(  54) = (    0.37233035922    0.62636610960    0.62725993357  )
        55           Mg  tau(  55) = (    0.25329358003    0.48434949253    0.75483135334  )
        56           O   tau(  56) = (    0.36963057623    0.62301516324    0.88713237002  )
        57           Mg  tau(  57) = (    0.25419249425    0.73455706317    0.00353813461  )
        58           O   tau(  58) = (    0.37555173643    0.87298001174    0.12078040680  )
        59           Mg  tau(  59) = (    0.26100267708    0.74414473253    0.25077148641  )
        60           O   tau(  60) = (    0.38640186126    0.87539786456    0.37464839628  )
        61           Mg  tau(  61) = (    0.25259989860    0.74161252329    0.49902111298  )
        62           O   tau(  62) = (    0.37766177567    0.87039489019    0.63281184761  )
        63           Mg  tau(  63) = (    0.23827432842    0.75504249615    0.75296254873  )
        64           O   tau(  64) = (    0.38237687742    0.86722285346    0.87757653158  )
        65           Mg  tau(  65) = (    0.50902582290   -0.01412264302    0.00196282042  )
        66           O   tau(  66) = (    0.61665274650    0.12968848585    0.12680639491  )
        67           Mg  tau(  67) = (    0.49578898367    0.00549712044    0.25343305923  )
        68           O   tau(  68) = (    0.63452732338    0.11781213447    0.37095720588  )
        69           Mg  tau(  69) = (    0.51191101748   -0.00007810114    0.49727922785  )
        70           O   tau(  70) = (    0.63396570104    0.11721118300    0.62615923754  )
        71           Mg  tau(  71) = (    0.49738511246   -0.00650111771    0.74420381392  )
        72           O   tau(  72) = (    0.62054841065    0.13000659470    0.87509696542  )
        73           Mg  tau(  73) = (    0.49330292688    0.24900595261   -0.00139580638  )
        74           O   tau(  74) = (    0.61332168696    0.38461492217    0.12420087685  )
        75           Mg  tau(  75) = (    0.50934975329    0.23714312396    0.25181915517  )
        76           O   tau(  76) = (    0.61826199754    0.37779288101    0.37273103719  )
        77           Mg  tau(  77) = (    0.50801009004    0.24038397046    0.49978785812  )
        78           O   tau(  78) = (    0.62318485830    0.37154313684    0.61802555401  )
        79           Mg  tau(  79) = (    0.50244678864    0.25928986061    0.74702805296  )
        80           O   tau(  80) = (    0.63123095522    0.37973672512    0.86697485537  )
        81           Mg  tau(  81) = (    0.49454709402    0.50295951492    0.00427155741  )
        82           O   tau(  82) = (    0.62464741756    0.62304218624    0.12050023649  )
        83           Mg  tau(  83) = (    0.49593155764    0.49442139986    0.24542485175  )
        84           O   tau(  84) = (    0.62053769340    0.62690240259    0.37081803390  )
        85           Mg  tau(  85) = (    0.49792549197    0.49446471637    0.49459810967  )
        86           O   tau(  86) = (    0.61337954067    0.63241841160    0.62848332190  )
        87           Mg  tau(  87) = (    0.50612254945    0.49329348081    0.75583058558  )
        88           O   tau(  88) = (    0.61900177503    0.62347666196    0.88272782505  )
        89           Mg  tau(  89) = (    0.50286528724    0.75502472605   -0.00861359821  )
        90           O   tau(  90) = (    0.62501462775    0.86869304238    0.13569684941  )
        91           Mg  tau(  91) = (    0.48885851209    0.76233002878    0.24963837007  )
        92           O   tau(  92) = (    0.62028947900    0.88093430760    0.36943291537  )
        93           Mg  tau(  93) = (    0.50663991458    0.73695406161    0.50486756389  )
        94           O   tau(  94) = (    0.62600178841    0.87187209003    0.62021546651  )
        95           Mg  tau(  95) = (    0.50303552559    0.75437630464    0.75653126149  )
        96           O   tau(  96) = (    0.61240239093    0.87881135271    0.87697068927  )
        97           Mg  tau(  97) = (    0.74252413468    0.01687765018   -0.00506465579  )
        98           O   tau(  98) = (    0.87504490612    0.12511501223    0.13005299078  )
        99           Mg  tau(  99) = (    0.76079512113   -0.00080325845    0.23863362951  )
       100           O   tau( 100) = (    0.88262219798    0.12966950198    0.35826981868  )
       101           Mg  tau( 101) = (    0.74974174806    0.00285846852    0.50070951068  )
       102           O   tau( 102) = (    0.88073437752    0.10744107703    0.63066817772  )
       103           Mg  tau( 103) = (    0.74975793266   -0.00957610210    0.76242872575  )
       104           O   tau( 104) = (    0.87527762737    0.13723731006    0.86563422186  )
       105           Mg  tau( 105) = (    0.75631930732    0.24725742282    0.00390745232  )
       106           O   tau( 106) = (    0.87044247519    0.38322032137    0.12860455845  )
       107           Mg  tau( 107) = (    0.74634917865    0.24611224257    0.24797174456  )
       108           O   tau( 108) = (    0.88169134680    0.36858563355    0.37754326239  )
       109           Mg  tau( 109) = (    0.75564927621    0.25686637868    0.50226803804  )
       110           O   tau( 110) = (    0.87737062738    0.37114068500    0.62718889467  )
       111           Mg  tau( 111) = (    0.75630559680    0.24722032080    0.74738160294  )
       112           O   tau( 112) = (    0.87932288072    0.37502502950    0.86352268121  )
       113           Mg  tau( 113) = (    0.74539211645    0.49397528560    0.00545708382  )
       114           O   tau( 114) = (    0.86814983800    0.62907435797    0.13176450681  )
       115           Mg  tau( 115) = (    0.75134338246    0.51119527101    0.24804658230  )
       116           O   tau( 116) = (    0.88617124900    0.62357704748    0.37032365239  )
       117           Mg  tau( 117) = (    0.76149606264    0.49367072065    0.49677995392  )
       118           O   tau( 118) = (    0.87861758044    0.61728694886    0.62353990782  )
       119           Mg  tau( 119) = (    0.74720965059    0.49039949929    0.75989233958  )
       120           O   tau( 120) = (    0.86946870221    0.62550015966    0.87683815002  )
       121           Mg  tau( 121) = (    0.75644858319    0.75498031042    0.00011864577  )
       122           O   tau( 122) = (    0.88526008933    0.87204083314    0.12612560714  )
       123           Mg  tau( 123) = (    0.74710640594    0.75164661717    0.24321850959  )
       124           O   tau( 124) = (    0.87236401024    0.87765215578    0.37998853822  )
       125           Mg  tau( 125) = (    0.75222802408    0.74084819061    0.50621669066  )
       126           O   tau( 126) = (    0.88293115341    0.86860541775    0.62409688718  )
       127           Mg  tau( 127) = (    0.75221987099    0.75450914537    0.73728478845  )
       128           O   tau( 128) = (    0.86964412431    0.88125951144    0.87739288545  )

     number of k points=     8  gaussian smearing, width (Ry)=  0.0050
                       cart. coord. in units 2pi/alat
        k(    1) = (   0.0000000   0.0000000   0.0000000), wk =   0.2500000
        k(    2) = (  -0.3469572  -0.3528507   0.3483647), wk =   0.2500000
        k(    3) = (  -0.3578043   0.3565426  -0.3506428), wk =   0.2500000
        k(    4) = (  -0.7047615   0.0036919  -0.0022781), wk =   0.2500000
        k(    5) = (   0.3547797  -0.3540441  -0.3537741), wk =   0.2500000
        k(    6) = (   0.0078225  -0.7068948  -0.0054094), wk =   0.2500000
        k(    7) = (  -0.0030246   0.0024985  -0.7044169), wk =   0.2500000
        k(    8) = (  -0.3499818  -0.3503522  -0.3560522), wk =   0.2500000

                       cryst. coord.
        k(    1) = (   0.0000000   0.0000000   0.0000000), wk =   0.2500000
        k(    2) = (   0.0000000   0.0000000  -0.5000000), wk =   0.2500000
        k(    3) = (   0.0000000  -0.5000000   0.0000000), wk =   0.2500000
        k(    4) = (   0.0000000  -0.5000000  -0.5000000), wk =   0.2500000
        k(    5) = (  -0.5000000   0.0000000   0.0000000), wk =   0.2500000
        k(    6) = (  -0.5000000   0.0000000  -0.5000000), wk =   0.2500000
        k(    7) = (  -0.5000000  -0.5000000   0.0000000), wk =   0.2500000
        k(    8) = (  -0.5000000  -0.5000000  -0.5000000), wk =   0.2500000

     Dense  grid:   390419 G-vectors     FFT dimensions: ( 108, 108, 108)

     Smooth grid:   279467 G-vectors     FFT dimensions: (  96,  96,  96)

     Largest allocated arrays     est. size (Mb)     dimensions
        Kohn-Sham Wavefunctions        41.06 Mb     (    4383,  614)
        NL pseudopotentials           136.97 Mb     (    4383, 2048)
        Each V/rho on FFT grid          2.49 Mb     (  163296)
        Each G-vector array             0.37 Mb     (   48802)
        G-vector shells                 0.37 Mb     (   48234)
     Largest temporary arrays     est. size (Mb)     dimensions
        Auxiliary wavefunctions       164.26 Mb     (    4383, 2456)
        Each subspace H/S matrix       92.04 Mb     (    2456, 2456)
        Each <psi_i|beta_j> matrix     19.19 Mb     (    2048,  614)
        Arrays for rho mixing          19.93 Mb     (  163296,    8)

     Check: negative/imaginary core charge=   -0.000003    0.000000

     Initial potential from superposition of free atoms

     starting charge 1004.78535, renormalised to 1024.00000
     Starting wfc are  576 randomized atomic wfcs +   38 random wfc

     total cpu time spent up to now is      673.1 secs

     Self-consistent Calculation

     iteration #  1     ecut=    40.00 Ry     beta=0.30
     Davidson diagonalization with overlap
     ethr =  1.00E-02,  avg # of iterations =  5.3

     total cpu time spent up to now is     4000.6 secs

     total energy              =  -10089.63105913 Ry
     Harris-Foulkes estimate   =  -10094.13886697 Ry
     estimated scf accuracy    <      22.69601029 Ry

     iteration #  2     ecut=    40.00 Ry     beta=0.30
     Davidson diagonalization with overlap
     ethr =  2.22E-03,  avg # of iterations =  1.0

     total cpu time spent up to now is     5803.7 secs

     total energy              =  -10085.22280761 Ry
     Harris-Foulkes estimate   =  -10090.16409419 Ry
     estimated scf accuracy    <      10.68499789 Ry

     iteration #  3     ecut=    40.00 Ry     beta=0.30
     Davidson diagonalization with overlap
     ethr =  1.04E-03,  avg # of iterations =  2.0

     total cpu time spent up to now is     7959.5 secs

     total energy              =  -10086.13934583 Ry
     Harris-Foulkes estimate   =  -10086.81068613 Ry
     estimated scf accuracy    <       1.31652856 Ry

     iteration #  4     ecut=    40.00 Ry     beta=0.30
     Davidson diagonalization with overlap
     ethr =  1.29E-04,  avg # of iterations =  6.8

     total cpu time spent up to now is    10449.8 secs

     total energy              =  -10086.08456987 Ry
     Harris-Foulkes estimate   =  -10086.22287550 Ry
     estimated scf accuracy    <       0.23261774 Ry

     iteration #  5     ecut=    40.00 Ry     beta=0.30
     Davidson diagonalization with overlap
     ethr =  2.27E-05,  avg # of iterations =  6.5

     total cpu time spent up to now is    13386.7 secs

     total energy              =  -10086.10193499 Ry
     Harris-Foulkes estimate   =  -10086.11028387 Ry
     estimated scf accuracy    <       0.03562264 Ry

     iteration #  6     ecut=    40.00 Ry     beta=0.30
     Davidson diagonalization with overlap
     ethr =  3.48E-06,  avg # of iterations =  5.3

     total cpu time spent up to now is    16143.3 secs

     total energy              =  -10086.10216580 Ry
     Harris-Foulkes estimate   =  -10086.10710093 Ry
     estimated scf accuracy    <       0.01603919 Ry

     iteration #  7     ecut=    40.00 Ry     beta=0.30
     Davidson diagonalization with overlap
     ethr =  1.57E-06,  avg # of iterations =  2.0

     total cpu time spent up to now is    18228.5 secs

     total energy              =  -10086.10315615 Ry
     Harris-Foulkes estimate   =  -10086.10419745 Ry
     estimated scf accuracy    <       0.00354543 Ry

     iteration #  8     ecut=    40.00 Ry     beta=0.30
     Davidson diagonalization with overlap
     ethr =  3.46E-07,  avg # of iterations =  1.1

     total cpu time spent up to now is    19754.3 secs

     total energy              =  -10086.10293210 Ry
     Harris-Foulkes estimate   =  -10086.10336715 Ry
     estimated scf accuracy    <       0.00139346 Ry

     iteration #  9     ecut=    40.00 Ry     beta=0.30
     Davidson diagonalization with overlap
     ethr =  1.36E-07,  avg # of iterations =  5.8

     total cpu time spent up to now is    22480.8 secs

     total energy              =  -10086.10284968 Ry
     Harris-Foulkes estimate   =  -10086.10313313 Ry
     estimated scf accuracy    <       0.00076573 Ry

     iteration # 10     ecut=    40.00 Ry     beta=0.30
     Davidson diagonalization with overlap
     ethr =  7.48E-08,  avg # of iterations =  2.1

     total cpu time spent up to now is    24549.1 secs

     total energy              =  -10086.10289674 Ry
     Harris-Foulkes estimate   =  -10086.10313219 Ry
     estimated scf accuracy    <       0.00067318 Ry

     iteration # 11     ecut=    40.00 Ry     beta=0.30
     Davidson diagonalization with overlap
     ethr =  6.57E-08,  avg # of iterations =  2.0

     total cpu time spent up to now is    26563.4 secs

     total energy              =  -10086.10294336 Ry
     Harris-Foulkes estimate   =  -10086.10297275 Ry
     estimated scf accuracy    <       0.00008112 Ry

     iteration # 12     ecut=    40.00 Ry     beta=0.30
     Davidson diagonalization with overlap
     ethr =  7.92E-09,  avg # of iterations =  2.0

     total cpu time spent up to now is    28700.3 secs

     total energy              =  -10086.10294051 Ry
     Harris-Foulkes estimate   =  -10086.10295877 Ry
     estimated scf accuracy    <       0.00003470 Ry

     iteration # 13     ecut=    40.00 Ry     beta=0.30
     Davidson diagonalization with overlap
     ethr =  3.39E-09,  avg # of iterations =  2.0

     total cpu time spent up to now is    30699.9 secs

     total energy              =  -10086.10294515 Ry
     Harris-Foulkes estimate   =  -10086.10294564 Ry
     estimated scf accuracy    <       0.00000416 Ry

     iteration # 14     ecut=    40.00 Ry     beta=0.30
     Davidson diagonalization with overlap
     ethr =  4.06E-10,  avg # of iterations =  1.0

     total cpu time spent up to now is    32292.5 secs

     total energy              =  -10086.10294514 Ry
     Harris-Foulkes estimate   =  -10086.10294531 Ry
     estimated scf accuracy    <       0.00000255 Ry

     iteration # 15     ecut=    40.00 Ry     beta=0.30
     Davidson diagonalization with overlap
     ethr =  2.49E-10,  avg # of iterations =  2.0

     total cpu time spent up to now is    34086.1 secs

     total energy              =  -10086.10294484 Ry
     Harris-Foulkes estimate   =  -10086.10294526 Ry
     estimated scf accuracy    <       0.00000147 Ry

     iteration # 16     ecut=    40.00 Ry     beta=0.30
     Davidson diagonalization with overlap
     ethr =  1.43E-10,  avg # of iterations =  1.0

     total cpu time spent up to now is    35828.1 secs

     total energy              =  -10086.10294477 Ry
     Harris-Foulkes estimate   =  -10086.10294491 Ry
     estimated scf accuracy    <       0.00000054 Ry

     iteration # 17     ecut=    40.00 Ry     beta=0.30
     Davidson diagonalization with overlap
     ethr =  5.29E-11,  avg # of iterations =  1.0

     total cpu time spent up to now is    37528.6 secs

     total energy              =  -10086.10294478 Ry
     Harris-Foulkes estimate   =  -10086.10294479 Ry
     estimated scf accuracy    <       0.00000030 Ry

     iteration # 18     ecut=    40.00 Ry     beta=0.30
     Davidson diagonalization with overlap
     ethr =  2.95E-11,  avg # of iterations =  1.0

     total cpu time spent up to now is    39267.7 secs

     total energy              =  -10086.10294471 Ry
     Harris-Foulkes estimate   =  -10086.10294478 Ry
     estimated scf accuracy    <       0.00000020 Ry

     iteration # 19     ecut=    40.00 Ry     beta=0.30
     Davidson diagonalization with overlap
     ethr =  1.94E-11,  avg # of iterations =  2.0

     total cpu time spent up to now is    41367.5 secs

     total energy              =  -10086.10294473 Ry
     Harris-Foulkes estimate   =  -10086.10294473 Ry
     estimated scf accuracy    <       0.00000002 Ry

     iteration # 20     ecut=    40.00 Ry     beta=0.30
     Davidson diagonalization with overlap
     ethr =  1.71E-12,  avg # of iterations =  2.0

     total cpu time spent up to now is    43284.5 secs

     total energy              =  -10086.10294473 Ry
     Harris-Foulkes estimate   =  -10086.10294473 Ry
     estimated scf accuracy    <          8.0E-09 Ry

     iteration # 21     ecut=    40.00 Ry     beta=0.30
     Davidson diagonalization with overlap
     ethr =  7.83E-13,  avg # of iterations =  1.0

     total cpu time spent up to now is    45094.4 secs

     total energy              =  -10086.10294473 Ry
     Harris-Foulkes estimate   =  -10086.10294473 Ry
     estimated scf accuracy    <          3.6E-09 Ry

     iteration # 22     ecut=    40.00 Ry     beta=0.30
     Davidson diagonalization with overlap
     ethr =  3.53E-13,  avg # of iterations =  2.0

     total cpu time spent up to now is    46979.0 secs

     total energy              =  -10086.10294473 Ry
     Harris-Foulkes estimate   =  -10086.10294473 Ry
     estimated scf accuracy    <          1.8E-09 Ry

     iteration # 23     ecut=    40.00 Ry     beta=0.30
     Davidson diagonalization with overlap
     ethr =  1.73E-13,  avg # of iterations =  1.0

     total cpu time spent up to now is    48760.4 secs

     total energy              =  -10086.10294473 Ry
     Harris-Foulkes estimate   =  -10086.10294473 Ry
     estimated scf accuracy    <          1.0E-09 Ry

     iteration # 24     ecut=    40.00 Ry     beta=0.30
     Davidson diagonalization with overlap
     ethr =  1.02E-13,  avg # of iterations =  2.0

     total cpu time spent up to now is    50646.8 secs

     total energy              =  -10086.10294473 Ry
     Harris-Foulkes estimate   =  -10086.10294473 Ry
     estimated scf accuracy    <          2.3E-10 Ry

     iteration # 25     ecut=    40.00 Ry     beta=0.30
     Davidson diagonalization with overlap
     ethr =  1.00E-13,  avg # of iterations =  1.0

     total cpu time spent up to now is    52523.5 secs

     total energy              =  -10086.10294473 Ry
     Harris-Foulkes estimate   =  -10086.10294473 Ry
     estimated scf accuracy    <          1.1E-10 Ry

     iteration # 26     ecut=    40.00 Ry     beta=0.30
     Davidson diagonalization with overlap
     ethr =  1.00E-13,  avg # of iterations =  1.0

     total cpu time spent up to now is    54195.0 secs

     End of self-consistent calculation

          k = 0.0000 0.0000 0.0000 ( 34907 PWs)   bands (ev):

   -64.9416 -64.9414 -64.9036 -64.8276 -64.8204 -64.7847 -64.7783 -64.7701
   -64.7570 -64.7564 -64.7367 -64.7324 -64.7108 -64.6680 -64.6551 -64.6407
   -64.6338 -64.6249 -64.6177 -64.6063 -64.5614 -64.5589 -64.5527 -64.5157
   -64.5130 -64.5115 -64.4904 -64.4899 -64.4572 -64.4278 -64.4187 -64.4161
   -64.4082 -64.3947 -64.3522 -64.3516 -64.3361 -64.3114 -64.3086 -64.3076
   -64.3036 -64.2815 -64.2573 -64.2395 -64.2378 -64.2335 -64.2263 -64.1404
   -64.1260 -64.1152 -64.1065 -64.0999 -64.0966 -64.0840 -64.0795 -64.0784
   -64.0683 -64.0495 -64.0019 -64.0008 -63.8406 -63.6495 -63.6395 -63.4259
   -31.9396 -31.9358 -31.9194 -31.9129 -31.9084 -31.9009 -31.8928 -31.8867
   -31.8686 -31.8272 -31.8113 -31.8062 -31.8047 -31.8008 -31.7955 -31.7808
   -31.7710 -31.7705 -31.7634 -31.7589 -31.7570 -31.7522 -31.7518 -31.7498
   -31.7492 -31.7427 -31.7407 -31.7387 -31.7360 -31.7261 -31.7220 -31.7206
   -31.7097 -31.7090 -31.7064 -31.7018 -31.6998 -31.6967 -31.6797 -31.6701
   -31.6630 -31.6502 -31.6486 -31.6416 -31.6333 -31.6310 -31.6215 -31.6211
   -31.6182 -31.6178 -31.6107 -31.6075 -31.6031 -31.6025 -31.6001 -31.5972
   -31.5938 -31.5809 -31.5805 -31.5764 -31.5584 -31.5553 -31.5460 -31.5441
   -31.5436 -31.5426 -31.5418 -31.5303 -31.5203 -31.5129 -31.5096 -31.5033
   -31.4945 -31.4941 -31.4915 -31.4893 -31.4805 -31.4802 -31.4797 -31.4781
   -31.4736 -31.4717 -31.4619 -31.4570 -31.4439 -31.4358 -31.4298 -31.4245
   -31.4151 -31.4144 -31.4102 -31.4089 -31.4044 -31.3992 -31.3978 -31.3965
   -31.3902 -31.3891 -31.3876 -31.3827 -31.3655 -31.3510 -31.3483 -31.3460
   -31.3407 -31.3399 -31.3327 -31.3250 -31.3226 -31.3145 -31.3067 -31.3063
   -31.3035 -31.2994 -31.2960 -31.2929 -31.2907 -31.2896 -31.2868 -31.2815
   -31.2793 -31.2790 -31.2762 -31.2745 -31.2626 -31.2560 -31.2553 -31.2448
   -31.2372 -31.2336 -31.2327 -31.2273 -31.2257 -31.2228 -31.2200 -31.2191
   -31.2151 -31.2075 -31.2066 -31.1906 -31.1882 -31.1552 -31.1239 -31.1237
   -31.1188 -31.1122 -31.1062 -31.1010 -31.0996 -31.0988 -31.0965 -31.0949
   -31.0948 -31.0894 -31.0891 -31.0876 -31.0837 -31.0827 -31.0812 -31.0800
   -31.0786 -31.0749 -31.0711 -31.0706 -31.0639 -31.0617 -31.0607 -31.0574
   -31.0532 -31.0459 -31.0440 -31.0340 -31.0237 -31.0223 -30.9964 -30.9946
   -30.9862 -30.9855 -30.9770 -30.9728 -30.8465 -30.8273 -30.8197 -30.6494
   -30.6373 -30.6283 -30.6228 -30.6171 -30.6142 -30.4293 -30.4254 -30.3944
    -9.7208  -9.3814  -9.3211  -9.2908  -9.2587  -9.1987  -9.1314  -9.1130
    -9.0520  -8.9889  -8.9597  -8.9379  -8.8714  -8.8680  -8.7853  -8.7471
    -8.7168  -8.6638  -8.6303  -8.6179  -8.5870  -8.5646  -8.5541  -8.5083
    -8.4851  -8.4638  -8.4244  -8.4100  -8.3905  -8.3842  -8.3583  -8.3389
    -8.3316  -8.2810  -8.2762  -8.2384  -8.2200  -8.1908  -8.1644  -8.1363
    -8.1066  -8.0591  -8.0301  -8.0215  -8.0063  -7.9547  -7.9371  -7.9341
    -7.9090  -7.8947  -7.8817  -7.8121  -7.7987  -7.7628  -7.7463  -7.7012
    -7.6720  -7.6397  -7.6179  -7.5746  -7.4706  -7.3414  -7.2677  -7.1720
     2.7577   2.7978   2.8509   2.8603   3.2794   3.3250   3.3490   3.3635
     3.3902   3.4200   3.4448   3.4697   3.5000   3.5188   3.5645   3.5852
     3.5949   3.6078   3.6291   3.6476   3.6720   3.6933   3.7270   3.7518
     3.7774   3.7808   3.8042   3.8395   3.8479   3.8995   3.9172   3.9341
     3.9461   3.9741   3.9958   4.0062   4.0341   4.0589   4.0746   4.0844
     4.1347   4.1570   4.2046   4.4051   4.4522   4.4670   4.4886   4.5049
     4.5354   4.5769   4.5866   4.6286   4.6452   4.6670   4.6793   4.7142
     4.7414   4.7651   4.7986   4.8036   4.8347   4.8655   4.8917   4.9092
     4.9274   4.9623   4.9820   5.0485   5.1577   5.2006   5.2456   5.2537
     5.3069   5.3286   5.3605   5.3746   5.3955   5.4092   5.4193   5.4358
     5.4412   5.4639   5.4706   5.4963   5.5143   5.5218   5.5423   5.5552
     5.5677   5.5826   5.6221   5.6391   5.6449   5.6501   5.6737   5.6976
     5.7172   5.7417   5.7605   5.7709   5.7864   5.7894   5.7979   5.8513
     5.8600   5.8875   5.8920   5.9107   5.9317   5.9787   5.9903   6.0785
     6.0920   6.1072   6.1494   6.1563   6.1847   6.2356   6.2631   6.2904
     6.3229   6.3428   6.3559   6.3822   6.3990   6.4296   6.4492   6.4614
     6.4729   6.4965   6.5138   6.5245   6.5667   6.5835   6.6012   6.6191
     6.6439   6.6598   6.6702   6.6831   6.6872   6.7083   6.7185   6.7303
     6.7687   6.7749   6.7792   6.8097   6.8192   6.8285   6.8336   6.8627
     6.8723   6.8927   6.8977   6.9225   6.9299   6.9388   6.9665   6.9772
     6.9889   7.0209   7.0646   7.0696   7.0788   7.0962   7.1193   7.1295
     7.1356   7.1588   7.1815   7.1881   7.2150   7.2281   7.2407   7.2925
     7.3002   7.3191   7.3445   7.3783   7.4137   7.4407   7.4511   7.4818
     7.5213   7.5612   7.5997   7.6218   7.7205   7.7263   7.8480   7.9387
    11.9547  13.9849  14.0170  14.1429  14.1733  14.3058  14.4176  14.4416
    14.5328  14.9148  14.9370  15.0144  15.0377  15.0919  15.2104  15.2550
    15.2636  15.3478  15.4407  16.1141  16.1247  16.2303  16.2783  16.3019
    16.3193  16.3402  16.3609  16.4286  16.4521  16.5079  16.5162  16.5649
    16.6026  16.6206  16.6473  16.6979  16.7126  16.7385  16.7860  16.8267
    16.8496  16.8556  16.8760  16.8924  16.9238  16.9774  17.0086  17.0275
    17.0586  17.0684  17.0993  17.1618  17.1906  17.2236  17.2775  17.3064
    17.3141  17.3459  17.3941  17.4229  17.5094  18.0497  18.1016  18.1409
    18.1719  18.1849  18.2168  18.2657  18.2762  18.3365  18.3632  18.3931
    18.4097  18.4542  18.5040  18.5119  18.5382  18.5860  18.5955  18.6153
    18.6296  18.6585  18.6865  18.7199  18.7455  18.7652  18.7865  18.8188
    18.8233  18.8494  18.8886  18.9142  18.9325  18.9600  18.9823  19.0063
    19.0427  19.0683  19.1100  19.1281  19.1624  19.1849

     occupation numbers 
     1.0000   1.0000   1.0000   1.0000   1.0000   1.0000   1.0000   1.0000
     1.0000   1.0000   1.0000   1.0000   1.0000   1.0000   1.0000   1.0000
     1.0000   1.0000   1.0000   1.0000   1.0000   1.0000   1.0000   1.0000
     1.0000   1.0000   1.0000   1.0000   1.0000   1.0000   1.0000   1.0000
     1.0000   1.0000   1.0000   1.0000   1.0000   1.0000   1.0000   1.0000
     1.0000   1.0000   1.0000   1.0000   1.0000   1.0000   1.0000   1.0000
     1.0000   1.0000   1.0000   1.0000   1.0000   1.0000   1.0000   1.0000
     1.0000   1.0000   1.0000   1.0000   1.0000   1.0000   1.0000   1.0000
     1.0000   1.0000   1.0000   1.0000   1.0000   1.0000   1.0000   1.0000
     1.0000   1.0000   1.0000   1.0000   1.0000   1.0000   1.0000   1.0000
     1.0000   1.0000   1.0000   1.0000   1.0000   1.0000   1.0000   1.0000
     1.0000   1.0000   1.0000   1.0000   1.0000   1.0000   1.0000   1.0000
     1.0000   1.0000   1.0000   1.0000   1.0000   1.0000   1.0000   1.0000
     1.0000   1.0000   1.0000   1.0000   1.0000   1.0000   1.0000   1.0000
     1.0000   1.0000   1.0000   1.0000   1.0000   1.0000   1.0000   1.0000
     1.0000   1.0000   1.0000   1.0000   1.0000   1.0000   1.0000   1.0000
     1.0000   1.0000   1.0000   1.0000   1.0000   1.0000   1.0000   1.0000
     1.0000   1.0000   1.0000   1.0000   1.0000   1.0000   1.0000   1.0000
     1.0000   1.0000   1.0000   1.0000   1.0000   1.0000   1.0000   1.0000
     1.0000   1.0000   1.0000   1.0000   1.0000   1.0000   1.0000   1.0000
     1.0000   1.0000   1.0000   1.0000   1.0000   1.0000   1.0000   1.0000
     1.0000   1.0000   1.0000   1.0000   1.0000   1.0000   1.0000   1.0000
     1.0000   1.0000   1.0000   1.0000   1.0000   1.0000   1.0000   1.0000
     1.0000   1.0000   1.0000   1.0000   1.0000   1.0000   1.0000   1.0000
     1.0000   1.0000   1.0000   1.0000   1.0000   1.0000   1.0000   1.0000
     1.0000   1.0000   1.0000   1.0000   1.0000   1.0000   1.0000   1.0000
     1.0000   1.0000   1.0000   1.0000   1.0000   1.0000   1.0000   1.0000
     1.0000   1.0000   1.0000   1.0000   1.0000   1.0000   1.0000   1.0000
     1.0000   1.0000   1.0000   1.0000   1.0000   1.0000   1.0000   1.0000
     1.0000   1.0000   1.0000   1.0000   1.0000   1.0000   1.0000   1.0000
     1.0000   1.0000   1.0000   1.0000   1.0000   1.0000   1.0000   1.0000
     1.0000   1.0000   1.0000   1.0000   1.0000   1.0000   1.0000   1.0000
     1.0000   1.0000   1.0000   1.0000   1.0000   1.0000   1.0000   1.0000
     1.0000   1.0000   1.0000   1.0000   1.0000   1.0000   1.0000   1.0000
     1.0000   1.0000   1.0000   1.0000   1.0000   1.0000   1.0000   1.0000
     1.0000   1.0000   1.0000   1.0000   1.0000   1.0000   1.0000   1.0000
     1.0000   1.0000   1.0000   1.0000   1.0000   1.0000   1.0000   1.0000
     1.0000   1.0000   1.0000   1.0000   1.0000   1.0000   1.0000   1.0000
     1.0000   1.0000   1.0000   1.0000   1.0000   1.0000   1.0000   1.0000
     1.0000   1.0000   1.0000   1.0000   1.0000   1.0000   1.0000   1.0000
     1.0000   1.0000   1.0000   1.0000   1.0000   1.0000   1.0000   1.0000
     1.0000   1.0000   1.0000   1.0000   1.0000   1.0000   1.0000   1.0000
     1.0000   1.0000   1.0000   1.0000   1.0000   1.0000   1.0000   1.0000
     1.0000   1.0000   1.0000   1.0000   1.0000   1.0000   1.0000   1.0000
     1.0000   1.0000   1.0000   1.0000   1.0000   1.0000   1.0000   1.0000
     1.0000   1.0000   1.0000   1.0000   1.0000   1.0000   1.0000   1.0000
     1.0000   1.0000   1.0000   1.0000   1.0000   1.0000   1.0000   1.0000
     1.0000   1.0000   1.0000   1.0000   1.0000   1.0000   1.0000   1.0000
     1.0000   1.0000   1.0000   1.0000   1.0000   1.0000   1.0000   1.0000
     1.0000   1.0000   1.0000   1.0000   1.0000   1.0000   1.0000   1.0000
     1.0000   1.0000   1.0000   1.0000   1.0000   1.0000   1.0000   1.0000
     1.0000   1.0000   1.0000   1.0000   1.0000   1.0000   1.0000   1.0000
     1.0000   1.0000   1.0000   1.0000   1.0000   1.0000   1.0000   1.0000
     1.0000   1.0000   1.0000   1.0000   1.0000   1.0000   1.0000   1.0000
     1.0000   1.0000   1.0000   1.0000   1.0000   1.0000   1.0000   1.0000
     1.0000   1.0000   1.0000   1.0000   1.0000   1.0000   1.0000   1.0000
     1.0000   1.0000   1.0000   1.0000   1.0000   1.0000   1.0000   1.0000
     1.0000   1.0000   1.0000   1.0000   1.0000   1.0000   1.0000   1.0000
     1.0000   1.0000   1.0000   1.0000   1.0000   1.0000   1.0000   1.0000
     1.0000   1.0000   1.0000   1.0000   1.0000   1.0000   1.0000   1.0000
     1.0000   1.0000   1.0000   1.0000   1.0000   1.0000   1.0000   1.0000
     1.0000   1.0000   1.0000   1.0000   1.0000   1.0000   1.0000   1.0000
     1.0000   1.0000   1.0000   1.0000   1.0000   1.0000   1.0000   1.0000
     1.0000   1.0000   1.0000   1.0000   1.0000   1.0000   1.0000   1.0000
     0.0000   0.0000   0.0000   0.0000   0.0000   0.0000   0.0000   0.0000
     0.0000   0.0000   0.0000   0.0000   0.0000   0.0000   0.0000   0.0000
     0.0000   0.0000   0.0000   0.0000   0.0000   0.0000   0.0000   0.0000
     0.0000   0.0000   0.0000   0.0000   0.0000   0.0000   0.0000   0.0000
     0.0000   0.0000   0.0000   0.0000   0.0000   0.0000   0.0000   0.0000
     0.0000   0.0000   0.0000   0.0000   0.0000   0.0000   0.0000   0.0000
     0.0000   0.0000   0.0000   0.0000   0.0000   0.0000   0.0000   0.0000
     0.0000   0.0000   0.0000   0.0000   0.0000   0.0000   0.0000   0.0000
     0.0000   0.0000   0.0000   0.0000   0.0000   0.0000   0.0000   0.0000
     0.0000   0.0000   0.0000   0.0000   0.0000   0.0000   0.0000   0.0000
     0.0000   0.0000   0.0000   0.0000   0.0000   0.0000   0.0000   0.0000
     0.0000   0.0000   0.0000   0.0000   0.0000   0.0000   0.0000   0.0000
     0.0000   0.0000   0.0000   0.0000   0.0000   0.0000

          k =-0.3470-0.3529 0.3484 ( 34948 PWs)   bands (ev):

   -64.9416 -64.9414 -64.9036 -64.8276 -64.8204 -64.7847 -64.7783 -64.7701
   -64.7570 -64.7564 -64.7367 -64.7324 -64.7108 -64.6680 -64.6551 -64.6407
   -64.6338 -64.6249 -64.6177 -64.6063 -64.5614 -64.5589 -64.5527 -64.5157
   -64.5130 -64.5115 -64.4904 -64.4899 -64.4572 -64.4278 -64.4187 -64.4161
   -64.4082 -64.3947 -64.3522 -64.3516 -64.3361 -64.3114 -64.3086 -64.3076
   -64.3036 -64.2815 -64.2573 -64.2395 -64.2378 -64.2335 -64.2263 -64.1404
   -64.1260 -64.1152 -64.1065 -64.0999 -64.0966 -64.0840 -64.0795 -64.0784
   -64.0683 -64.0495 -64.0019 -64.0008 -63.8406 -63.6495 -63.6395 -63.4259
   -31.9396 -31.9358 -31.9194 -31.9129 -31.9084 -31.9009 -31.8928 -31.8867
   -31.8686 -31.8272 -31.8113 -31.8062 -31.8047 -31.8008 -31.7955 -31.7808
   -31.7711 -31.7706 -31.7635 -31.7589 -31.7570 -31.7522 -31.7518 -31.7498
   -31.7492 -31.7427 -31.7407 -31.7387 -31.7360 -31.7261 -31.7220 -31.7206
   -31.7096 -31.7090 -31.7063 -31.7018 -31.6998 -31.6967 -31.6796 -31.6702
   -31.6630 -31.6502 -31.6486 -31.6416 -31.6334 -31.6310 -31.6215 -31.6211
   -31.6182 -31.6178 -31.6107 -31.6075 -31.6031 -31.6025 -31.6001 -31.5972
   -31.5938 -31.5809 -31.5806 -31.5764 -31.5584 -31.5553 -31.5461 -31.5441
   -31.5436 -31.5426 -31.5418 -31.5303 -31.5203 -31.5129 -31.5096 -31.5033
   -31.4945 -31.4941 -31.4915 -31.4894 -31.4804 -31.4802 -31.4797 -31.4781
   -31.4736 -31.4717 -31.4619 -31.4570 -31.4439 -31.4357 -31.4298 -31.4245
   -31.4152 -31.4144 -31.4103 -31.4089 -31.4044 -31.3992 -31.3978 -31.3965
   -31.3902 -31.3891 -31.3876 -31.3827 -31.3655 -31.3510 -31.3482 -31.3460
   -31.3407 -31.3398 -31.3327 -31.3250 -31.3226 -31.3146 -31.3067 -31.3063
   -31.3035 -31.2994 -31.2960 -31.2929 -31.2907 -31.2896 -31.2868 -31.2815
   -31.2793 -31.2790 -31.2762 -31.2745 -31.2626 -31.2560 -31.2553 -31.2448
   -31.2372 -31.2336 -31.2327 -31.2273 -31.2257 -31.2228 -31.2200 -31.2191
   -31.2151 -31.2075 -31.2066 -31.1906 -31.1882 -31.1552 -31.1239 -31.1237
   -31.1188 -31.1122 -31.1062 -31.1010 -31.0996 -31.0988 -31.0965 -31.0949
   -31.0948 -31.0893 -31.0891 -31.0876 -31.0837 -31.0827 -31.0812 -31.0801
   -31.0786 -31.0749 -31.0711 -31.0706 -31.0639 -31.0617 -31.0607 -31.0573
   -31.0532 -31.0459 -31.0440 -31.0340 -31.0237 -31.0223 -30.9964 -30.9946
   -30.9862 -30.9855 -30.9770 -30.9728 -30.8465 -30.8273 -30.8197 -30.6494
   -30.6373 -30.6283 -30.6228 -30.6171 -30.6142 -30.4294 -30.4254 -30.3944
    -9.6204  -9.5412  -9.3498  -9.3175  -9.2705  -9.2383  -9.1383  -9.0465
    -8.9916  -8.9760  -8.9415  -8.8797  -8.8348  -8.8304  -8.7696  -8.7314
    -8.6904  -8.6824  -8.6574  -8.6541  -8.6175  -8.5628  -8.5445  -8.5297
    -8.4960  -8.4692  -8.4498  -8.4391  -8.4009  -8.3891  -8.3559  -8.3354
    -8.3036  -8.2849  -8.2568  -8.2540  -8.2146  -8.2018  -8.1613  -8.1421
    -8.1144  -8.0638  -8.0384  -8.0082  -8.0039  -7.9608  -7.9437  -7.9243
    -7.9087  -7.9084  -7.8632  -7.8115  -7.7934  -7.7645  -7.7509  -7.6922
    -7.6759  -7.6340  -7.6224  -7.5738  -7.4681  -7.3417  -7.2670  -7.1715
     2.9234   3.0586   3.0677   3.1213   3.1255   3.1491   3.2329   3.2734
     3.4347   3.4629   3.4701   3.5068   3.5221   3.5376   3.5610   3.5706
     3.5857   3.5967   3.6221   3.6432   3.6569   3.6825   3.6984   3.7245
     3.7657   3.7729   3.8004   3.8468   3.8592   3.8651   3.9015   3.9045
     3.9194   3.9687   3.9805   3.9890   4.0197   4.0254   4.0812   4.0976
     4.1080   4.1203   4.1531   4.1676   4.2251   4.2330   4.2605   4.3006
     4.3056   4.3427   4.4039   4.4049   4.4470   4.4683   4.4888   4.5141
     4.8407   4.8784   4.8829   4.9185   4.9258   4.9641   4.9926   5.0044
     5.0436   5.0511   5.0760   5.1206   5.1343   5.1649   5.1927   5.2127
     5.2373   5.2571   5.2726   5.3015   5.3227   5.3542   5.3683   5.3977
     5.5313   5.5584   5.5879   5.5916   5.6391   5.6521   5.6775   5.6858
     5.7138   5.7435   5.7522   5.7759   5.7854   5.8139   5.8322   5.8406
     5.8772   5.9047   5.9333   5.9714   5.9949   5.9989   6.0155   6.0249
     6.0386   6.0530   6.0835   6.0961   6.1133   6.1333   6.1474   6.1735
     6.1782   6.2066   6.2119   6.2537   6.2597   6.2694   6.2854   6.2956
     6.3230   6.3328   6.3567   6.3675   6.3859   6.3943   6.4217   6.4317
     6.4509   6.4706   6.4775   6.4892   6.4982   6.5161   6.5307   6.5546
     6.5662   6.5862   6.6088   6.6225   6.6347   6.6549   6.6744   6.6967
     6.7058   6.7114   6.7309   6.7387   6.7476   6.7652   6.7887   6.8129
     6.8319   6.8368   6.8566   6.8639   6.8823   6.8853   6.9154   6.9334
     6.9414   6.9455   6.9652   6.9847   7.0087   7.0319   7.0517   7.0638
     7.0803   7.0970   7.1078   7.1254   7.1698   7.1938   7.2058   7.2495
     7.2735   7.2773   7.2877   7.3148   7.3295   7.3852   7.4182   7.4303
     7.4572   7.4967   7.5129   7.5992   7.6259   7.7310   7.8127   7.9077
    12.7872  12.9089  14.2004  14.2524  14.3197  14.3886  14.4646  14.5039
    14.9045  14.9741  15.0626  15.0851  15.2024  15.2575  15.3149  15.4098
    15.5288  15.6371  15.6776  15.7236  15.7940  15.8509  15.9820  16.0396
    16.1695  16.2418  16.2653  16.3713  16.3934  16.4240  16.4881  16.5026
    16.5788  16.6167  16.6387  16.6710  16.6786  16.6967  16.8287  16.8515
    16.8734  16.9014  16.9343  16.9954  17.0453  17.0816  17.1089  17.1396
    17.1749  17.2451  17.3223  17.3739  17.3954  17.3997  17.4522  17.4610
    17.4962  17.5059  17.5575  17.6141  17.6668  17.7115  17.7389  17.7828
    17.8237  17.8484  17.8687  17.8952  17.9526  18.0076  18.0309  18.0825
    18.1423  18.1635  18.1820  18.2465  18.4170  18.4636  18.4956  18.5772
    18.6242  18.6644  18.7207  18.7389  18.7601  18.8046  18.8327  18.8543
    18.8901  18.9199  18.9442  18.9946  19.0246  19.0388  19.0522  19.0819
    19.1086  19.1493  19.1588  19.1878  19.2015  19.2458

     occupation numbers 
     1.0000   1.0000   1.0000   1.0000   1.0000   1.0000   1.0000   1.0000
     1.0000   1.0000   1.0000   1.0000   1.0000   1.0000   1.0000   1.0000
     1.0000   1.0000   1.0000   1.0000   1.0000   1.0000   1.0000   1.0000
     1.0000   1.0000   1.0000   1.0000   1.0000   1.0000   1.0000   1.0000
     1.0000   1.0000   1.0000   1.0000   1.0000   1.0000   1.0000   1.0000
     1.0000   1.0000   1.0000   1.0000   1.0000   1.0000   1.0000   1.0000
     1.0000   1.0000   1.0000   1.0000   1.0000   1.0000   1.0000   1.0000
     1.0000   1.0000   1.0000   1.0000   1.0000   1.0000   1.0000   1.0000
     1.0000   1.0000   1.0000   1.0000   1.0000   1.0000   1.0000   1.0000
     1.0000   1.0000   1.0000   1.0000   1.0000   1.0000   1.0000   1.0000
     1.0000   1.0000   1.0000   1.0000   1.0000   1.0000   1.0000   1.0000
     1.0000   1.0000   1.0000   1.0000   1.0000   1.0000   1.0000   1.0000
     1.0000   1.0000   1.0000   1.0000   1.0000   1.0000   1.0000   1.0000
     1.0000   1.0000   1.0000   1.0000   1.0000   1.0000   1.0000   1.0000
     1.0000   1.0000   1.0000   1.0000   1.0000   1.0000   1.0000   1.0000
     1.0000   1.0000   1.0000   1.0000   1.0000   1.0000   1.0000   1.0000
     1.0000   1.0000   1.0000   1.0000   1.0000   1.0000   1.0000   1.0000
     1.0000   1.0000   1.0000   1.0000   1.0000   1.0000   1.0000   1.0000
     1.0000   1.0000   1.0000   1.0000   1.0000   1.0000   1.0000   1.0000
     1.0000   1.0000   1.0000   1.0000   1.0000   1.0000   1.0000   1.0000
     1.0000   1.0000   1.0000   1.0000   1.0000   1.0000   1.0000   1.0000
     1.0000   1.0000   1.0000   1.0000   1.0000   1.0000   1.0000   1.0000
     1.0000   1.0000   1.0000   1.0000   1.0000   1.0000   1.0000   1.0000
     1.0000   1.0000   1.0000   1.0000   1.0000   1.0000   1.0000   1.0000
     1.0000   1.0000   1.0000   1.0000   1.0000   1.0000   1.0000   1.0000
     1.0000   1.0000   1.0000   1.0000   1.0000   1.0000   1.0000   1.0000
     1.0000   1.0000   1.0000   1.0000   1.0000   1.0000   1.0000   1.0000
     1.0000   1.0000   1.0000   1.0000   1.0000   1.0000   1.0000   1.0000
     1.0000   1.0000   1.0000   1.0000   1.0000   1.0000   1.0000   1.0000
     1.0000   1.0000   1.0000   1.0000   1.0000   1.0000   1.0000   1.0000
     1.0000   1.0000   1.0000   1.0000   1.0000   1.0000   1.0000   1.0000
     1.0000   1.0000   1.0000   1.0000   1.0000   1.0000   1.0000   1.0000
     1.0000   1.0000   1.0000   1.0000   1.0000   1.0000   1.0000   1.0000
     1.0000   1.0000   1.0000   1.0000   1.0000   1.0000   1.0000   1.0000
     1.0000   1.0000   1.0000   1.0000   1.0000   1.0000   1.0000   1.0000
     1.0000   1.0000   1.0000   1.0000   1.0000   1.0000   1.0000   1.0000
     1.0000   1.0000   1.0000   1.0000   1.0000   1.0000   1.0000   1.0000
     1.0000   1.0000   1.0000   1.0000   1.0000   1.0000   1.0000   1.0000
     1.0000   1.0000   1.0000   1.0000   1.0000   1.0000   1.0000   1.0000
     1.0000   1.0000   1.0000   1.0000   1.0000   1.0000   1.0000   1.0000
     1.0000   1.0000   1.0000   1.0000   1.0000   1.0000   1.0000   1.0000
     1.0000   1.0000   1.0000   1.0000   1.0000   1.0000   1.0000   1.0000
     1.0000   1.0000   1.0000   1.0000   1.0000   1.0000   1.0000   1.0000
     1.0000   1.0000   1.0000   1.0000   1.0000   1.0000   1.0000   1.0000
     1.0000   1.0000   1.0000   1.0000   1.0000   1.0000   1.0000   1.0000
     1.0000   1.0000   1.0000   1.0000   1.0000   1.0000   1.0000   1.0000
     1.0000   1.0000   1.0000   1.0000   1.0000   1.0000   1.0000   1.0000
     1.0000   1.0000   1.0000   1.0000   1.0000   1.0000   1.0000   1.0000
     1.0000   1.0000   1.0000   1.0000   1.0000   1.0000   1.0000   1.0000
     1.0000   1.0000   1.0000   1.0000   1.0000   1.0000   1.0000   1.0000
     1.0000   1.0000   1.0000   1.0000   1.0000   1.0000   1.0000   1.0000
     1.0000   1.0000   1.0000   1.0000   1.0000   1.0000   1.0000   1.0000
     1.0000   1.0000   1.0000   1.0000   1.0000   1.0000   1.0000   1.0000
     1.0000   1.0000   1.0000   1.0000   1.0000   1.0000   1.0000   1.0000
     1.0000   1.0000   1.0000   1.0000   1.0000   1.0000   1.0000   1.0000
     1.0000   1.0000   1.0000   1.0000   1.0000   1.0000   1.0000   1.0000
     1.0000   1.0000   1.0000   1.0000   1.0000   1.0000   1.0000   1.0000
     1.0000   1.0000   1.0000   1.0000   1.0000   1.0000   1.0000   1.0000
     1.0000   1.0000   1.0000   1.0000   1.0000   1.0000   1.0000   1.0000
     1.0000   1.0000   1.0000   1.0000   1.0000   1.0000   1.0000   1.0000
     1.0000   1.0000   1.0000   1.0000   1.0000   1.0000   1.0000   1.0000
     1.0000   1.0000   1.0000   1.0000   1.0000   1.0000   1.0000   1.0000
     1.0000   1.0000   1.0000   1.0000   1.0000   1.0000   1.0000   1.0000
     1.0000   1.0000   1.0000   1.0000   1.0000   1.0000   1.0000   1.0000
     0.0000   0.0000   0.0000   0.0000   0.0000   0.0000   0.0000   0.0000
     0.0000   0.0000   0.0000   0.0000   0.0000   0.0000   0.0000   0.0000
     0.0000   0.0000   0.0000   0.0000   0.0000   0.0000   0.0000   0.0000
     0.0000   0.0000   0.0000   0.0000   0.0000   0.0000   0.0000   0.0000
     0.0000   0.0000   0.0000   0.0000   0.0000   0.0000   0.0000   0.0000
     0.0000   0.0000   0.0000   0.0000   0.0000   0.0000   0.0000   0.0000
     0.0000   0.0000   0.0000   0.0000   0.0000   0.0000   0.0000   0.0000
     0.0000   0.0000   0.0000   0.0000   0.0000   0.0000   0.0000   0.0000
     0.0000   0.0000   0.0000   0.0000   0.0000   0.0000   0.0000   0.0000
     0.0000   0.0000   0.0000   0.0000   0.0000   0.0000   0.0000   0.0000
     0.0000   0.0000   0.0000   0.0000   0.0000   0.0000   0.0000   0.0000
     0.0000   0.0000   0.0000   0.0000   0.0000   0.0000   0.0000   0.0000
     0.0000   0.0000   0.0000   0.0000   0.0000   0.0000

          k =-0.3578 0.3565-0.3506 ( 34916 PWs)   bands (ev):

   -64.9416 -64.9414 -64.9036 -64.8276 -64.8204 -64.7847 -64.7783 -64.7701
   -64.7570 -64.7564 -64.7367 -64.7324 -64.7108 -64.6680 -64.6551 -64.6407
   -64.6338 -64.6249 -64.6177 -64.6063 -64.5614 -64.5589 -64.5527 -64.5157
   -64.5130 -64.5115 -64.4904 -64.4899 -64.4572 -64.4278 -64.4187 -64.4161
   -64.4082 -64.3947 -64.3522 -64.3516 -64.3361 -64.3114 -64.3086 -64.3076
   -64.3036 -64.2815 -64.2573 -64.2395 -64.2378 -64.2335 -64.2263 -64.1404
   -64.1260 -64.1152 -64.1065 -64.0999 -64.0966 -64.0840 -64.0795 -64.0784
   -64.0683 -64.0495 -64.0019 -64.0008 -63.8406 -63.6495 -63.6395 -63.4259
   -31.9396 -31.9358 -31.9194 -31.9129 -31.9084 -31.9009 -31.8928 -31.8867
   -31.8686 -31.8272 -31.8113 -31.8062 -31.8047 -31.8008 -31.7954 -31.7808
   -31.7711 -31.7706 -31.7635 -31.7589 -31.7570 -31.7522 -31.7518 -31.7498
   -31.7492 -31.7427 -31.7407 -31.7387 -31.7360 -31.7261 -31.7220 -31.7206
   -31.7097 -31.7089 -31.7063 -31.7018 -31.6998 -31.6967 -31.6796 -31.6702
   -31.6630 -31.6503 -31.6486 -31.6416 -31.6333 -31.6310 -31.6216 -31.6210
   -31.6182 -31.6178 -31.6107 -31.6075 -31.6031 -31.6025 -31.6001 -31.5972
   -31.5938 -31.5809 -31.5806 -31.5764 -31.5585 -31.5554 -31.5461 -31.5440
   -31.5436 -31.5426 -31.5418 -31.5303 -31.5203 -31.5129 -31.5096 -31.5033
   -31.4945 -31.4941 -31.4915 -31.4893 -31.4804 -31.4803 -31.4796 -31.4781
   -31.4736 -31.4717 -31.4619 -31.4569 -31.4439 -31.4357 -31.4297 -31.4245
   -31.4152 -31.4144 -31.4103 -31.4089 -31.4044 -31.3993 -31.3978 -31.3965
   -31.3902 -31.3891 -31.3876 -31.3827 -31.3655 -31.3510 -31.3482 -31.3460
   -31.3407 -31.3398 -31.3327 -31.3250 -31.3226 -31.3145 -31.3068 -31.3064
   -31.3036 -31.2994 -31.2960 -31.2929 -31.2908 -31.2896 -31.2868 -31.2815
   -31.2792 -31.2791 -31.2762 -31.2745 -31.2625 -31.2560 -31.2553 -31.2448
   -31.2372 -31.2336 -31.2327 -31.2272 -31.2257 -31.2228 -31.2200 -31.2191
   -31.2151 -31.2075 -31.2066 -31.1906 -31.1882 -31.1552 -31.1239 -31.1237
   -31.1188 -31.1122 -31.1062 -31.1011 -31.0996 -31.0988 -31.0964 -31.0949
   -31.0948 -31.0894 -31.0890 -31.0876 -31.0836 -31.0827 -31.0812 -31.0800
   -31.0786 -31.0749 -31.0711 -31.0706 -31.0637 -31.0617 -31.0607 -31.0574
   -31.0532 -31.0460 -31.0440 -31.0340 -31.0237 -31.0223 -30.9964 -30.9947
   -30.9862 -30.9855 -30.9770 -30.9728 -30.8465 -30.8273 -30.8197 -30.6494
   -30.6373 -30.6283 -30.6228 -30.6171 -30.6142 -30.4294 -30.4254 -30.3944
    -9.5891  -9.5761  -9.3432  -9.3052  -9.2798  -9.2220  -9.1786  -9.0677
    -8.9972  -8.9619  -8.9058  -8.8656  -8.8527  -8.8361  -8.7767  -8.7088
    -8.7074  -8.7011  -8.6620  -8.6269  -8.5942  -8.5742  -8.5338  -8.5187
    -8.4871  -8.4703  -8.4471  -8.4414  -8.4242  -8.3870  -8.3505  -8.3398
    -8.3248  -8.2929  -8.2679  -8.2454  -8.2297  -8.1772  -8.1734  -8.1353
    -8.1078  -8.0580  -8.0245  -8.0182  -7.9968  -7.9766  -7.9400  -7.9218
    -7.9090  -7.9025  -7.8748  -7.8191  -7.7892  -7.7628  -7.7533  -7.7023
    -7.6659  -7.6281  -7.6228  -7.5779  -7.4656  -7.3418  -7.2672  -7.1714
     2.9784   3.0331   3.0392   3.0629   3.0947   3.1417   3.2921   3.3153
     3.4478   3.4815   3.4915   3.5283   3.5370   3.5592   3.5710   3.5929
     3.6125   3.6367   3.6457   3.6601   3.6788   3.6961   3.7068   3.7366
     3.7527   3.7606   3.7700   3.8042   3.8391   3.8608   3.8992   3.9069
     3.9103   3.9626   3.9820   3.9912   4.0226   4.0323   4.0598   4.0723
     4.0907   4.1132   4.1189   4.1786   4.1864   4.2188   4.2454   4.2634
     4.3115   4.3499   4.3694   4.4088   4.4230   4.4435   4.4691   4.5770
     4.8162   4.8307   4.8540   4.8877   4.9310   4.9523   4.9893   5.0110
     5.0344   5.0583   5.0678   5.0694   5.1225   5.1401   5.1782   5.2050
     5.2118   5.2274   5.2383   5.2726   5.3009   5.3428   5.3775   5.3918
     5.5095   5.5640   5.5960   5.6049   5.6245   5.6713   5.6775   5.7004
     5.7157   5.7415   5.7524   5.7762   5.7861   5.8201   5.8454   5.8522
     5.8687   5.8920   5.9594   5.9744   6.0088   6.0378   6.0452   6.0793
     6.0875   6.1041   6.1143   6.1441   6.1585   6.1771   6.1896   6.2014
     6.2198   6.2230   6.2455   6.2518   6.2565   6.2738   6.2878   6.3187
     6.3329   6.3476   6.3552   6.3794   6.4040   6.4116   6.4175   6.4476
     6.4712   6.4812   6.4893   6.4978   6.5174   6.5335   6.5478   6.5625
     6.5663   6.5924   6.6027   6.6220   6.6315   6.6480   6.6653   6.6768
     6.6937   6.6969   6.7365   6.7472   6.7614   6.7754   6.7850   6.8053
     6.8244   6.8308   6.8449   6.8667   6.8784   6.9021   6.9080   6.9138
     6.9344   6.9466   6.9625   6.9968   7.0115   7.0244   7.0566   7.0614
     7.0720   7.1127   7.1276   7.1303   7.1440   7.1784   7.1930   7.2079
     7.2309   7.2585   7.2840   7.3063   7.3330   7.3935   7.4216   7.4450
     7.4863   7.5073   7.5332   7.5540   7.6085   7.6385   7.6937   7.8584
    12.8325  12.8604  14.1625  14.3001  14.3486  14.4088  14.4299  14.5402
    14.8381  14.9181  15.0913  15.1687  15.1892  15.2618  15.2704  15.3015
    15.5895  15.6197  15.7157  15.7324  15.8514  15.8908  15.9962  16.1028
    16.1157  16.2053  16.2311  16.3417  16.3946  16.4824  16.5057  16.5178
    16.5502  16.5991  16.6425  16.6565  16.6909  16.7382  16.7585  16.8283
    16.8323  16.8564  16.9044  16.9833  17.0019  17.0500  17.0826  17.1036
    17.1270  17.1810  17.2708  17.2985  17.4413  17.4616  17.4806  17.5511
    17.6035  17.6348  17.6448  17.7012  17.7450  17.7599  17.8297  17.8682
    17.9080  17.9110  17.9266  17.9808  18.0048  18.0522  18.0658  18.1194
    18.1326  18.1543  18.1795  18.2942  18.3754  18.4711  18.4902  18.5227
    18.5690  18.6042  18.6319  18.6658  18.7194  18.7488  18.7798  18.8117
    18.8419  18.8531  18.9305  18.9358  18.9478  18.9979  19.0448  19.0544
    19.1172  19.1450  19.1798  19.2154  19.2388  19.2669

     occupation numbers 
     1.0000   1.0000   1.0000   1.0000   1.0000   1.0000   1.0000   1.0000
     1.0000   1.0000   1.0000   1.0000   1.0000   1.0000   1.0000   1.0000
     1.0000   1.0000   1.0000   1.0000   1.0000   1.0000   1.0000   1.0000
     1.0000   1.0000   1.0000   1.0000   1.0000   1.0000   1.0000   1.0000
     1.0000   1.0000   1.0000   1.0000   1.0000   1.0000   1.0000   1.0000
     1.0000   1.0000   1.0000   1.0000   1.0000   1.0000   1.0000   1.0000
     1.0000   1.0000   1.0000   1.0000   1.0000   1.0000   1.0000   1.0000
     1.0000   1.0000   1.0000   1.0000   1.0000   1.0000   1.0000   1.0000
     1.0000   1.0000   1.0000   1.0000   1.0000   1.0000   1.0000   1.0000
     1.0000   1.0000   1.0000   1.0000   1.0000   1.0000   1.0000   1.0000
     1.0000   1.0000   1.0000   1.0000   1.0000   1.0000   1.0000   1.0000
     1.0000   1.0000   1.0000   1.0000   1.0000   1.0000   1.0000   1.0000
     1.0000   1.0000   1.0000   1.0000   1.0000   1.0000   1.0000   1.0000
     1.0000   1.0000   1.0000   1.0000   1.0000   1.0000   1.0000   1.0000
     1.0000   1.0000   1.0000   1.0000   1.0000   1.0000   1.0000   1.0000
     1.0000   1.0000   1.0000   1.0000   1.0000   1.0000   1.0000   1.0000
     1.0000   1.0000   1.0000   1.0000   1.0000   1.0000   1.0000   1.0000
     1.0000   1.0000   1.0000   1.0000   1.0000   1.0000   1.0000   1.0000
     1.0000   1.0000   1.0000   1.0000   1.0000   1.0000   1.0000   1.0000
     1.0000   1.0000   1.0000   1.0000   1.0000   1.0000   1.0000   1.0000
     1.0000   1.0000   1.0000   1.0000   1.0000   1.0000   1.0000   1.0000
     1.0000   1.0000   1.0000   1.0000   1.0000   1.0000   1.0000   1.0000
     1.0000   1.0000   1.0000   1.0000   1.0000   1.0000   1.0000   1.0000
     1.0000   1.0000   1.0000   1.0000   1.0000   1.0000   1.0000   1.0000
     1.0000   1.0000   1.0000   1.0000   1.0000   1.0000   1.0000   1.0000
     1.0000   1.0000   1.0000   1.0000   1.0000   1.0000   1.0000   1.0000
     1.0000   1.0000   1.0000   1.0000   1.0000   1.0000   1.0000   1.0000
     1.0000   1.0000   1.0000   1.0000   1.0000   1.0000   1.0000   1.0000
     1.0000   1.0000   1.0000   1.0000   1.0000   1.0000   1.0000   1.0000
     1.0000   1.0000   1.0000   1.0000   1.0000   1.0000   1.0000   1.0000
     1.0000   1.0000   1.0000   1.0000   1.0000   1.0000   1.0000   1.0000
     1.0000   1.0000   1.0000   1.0000   1.0000   1.0000   1.0000   1.0000
     1.0000   1.0000   1.0000   1.0000   1.0000   1.0000   1.0000   1.0000
     1.0000   1.0000   1.0000   1.0000   1.0000   1.0000   1.0000   1.0000
     1.0000   1.0000   1.0000   1.0000   1.0000   1.0000   1.0000   1.0000
     1.0000   1.0000   1.0000   1.0000   1.0000   1.0000   1.0000   1.0000
     1.0000   1.0000   1.0000   1.0000   1.0000   1.0000   1.0000   1.0000
     1.0000   1.0000   1.0000   1.0000   1.0000   1.0000   1.0000   1.0000
     1.0000   1.0000   1.0000   1.0000   1.0000   1.0000   1.0000   1.0000
     1.0000   1.0000   1.0000   1.0000   1.0000   1.0000   1.0000   1.0000
     1.0000   1.0000   1.0000   1.0000   1.0000   1.0000   1.0000   1.0000
     1.0000   1.0000   1.0000   1.0000   1.0000   1.0000   1.0000   1.0000
     1.0000   1.0000   1.0000   1.0000   1.0000   1.0000   1.0000   1.0000
     1.0000   1.0000   1.0000   1.0000   1.0000   1.0000   1.0000   1.0000
     1.0000   1.0000   1.0000   1.0000   1.0000   1.0000   1.0000   1.0000
     1.0000   1.0000   1.0000   1.0000   1.0000   1.0000   1.0000   1.0000
     1.0000   1.0000   1.0000   1.0000   1.0000   1.0000   1.0000   1.0000
     1.0000   1.0000   1.0000   1.0000   1.0000   1.0000   1.0000   1.0000
     1.0000   1.0000   1.0000   1.0000   1.0000   1.0000   1.0000   1.0000
     1.0000   1.0000   1.0000   1.0000   1.0000   1.0000   1.0000   1.0000
     1.0000   1.0000   1.0000   1.0000   1.0000   1.0000   1.0000   1.0000
     1.0000   1.0000   1.0000   1.0000   1.0000   1.0000   1.0000   1.0000
     1.0000   1.0000   1.0000   1.0000   1.0000   1.0000   1.0000   1.0000
     1.0000   1.0000   1.0000   1.0000   1.0000   1.0000   1.0000   1.0000
     1.0000   1.0000   1.0000   1.0000   1.0000   1.0000   1.0000   1.0000
     1.0000   1.0000   1.0000   1.0000   1.0000   1.0000   1.0000   1.0000
     1.0000   1.0000   1.0000   1.0000   1.0000   1.0000   1.0000   1.0000
     1.0000   1.0000   1.0000   1.0000   1.0000   1.0000   1.0000   1.0000
     1.0000   1.0000   1.0000   1.0000   1.0000   1.0000   1.0000   1.0000
     1.0000   1.0000   1.0000   1.0000   1.0000   1.0000   1.0000   1.0000
     1.0000   1.0000   1.0000   1.0000   1.0000   1.0000   1.0000   1.0000
     1.0000   1.0000   1.0000   1.0000   1.0000   1.0000   1.0000   1.0000
     1.0000   1.0000   1.0000   1.0000   1.0000   1.0000   1.0000   1.0000
     1.0000   1.0000   1.0000   1.0000   1.0000   1.0000   1.0000   1.0000
     0.0000   0.0000   0.0000   0.0000   0.0000   0.0000   0.0000   0.0000
     0.0000   0.0000   0.0000   0.0000   0.0000   0.0000   0.0000   0.0000
     0.0000   0.0000   0.0000   0.0000   0.0000   0.0000   0.0000   0.0000
     0.0000   0.0000   0.0000   0.0000   0.0000   0.0000   0.0000   0.0000
     0.0000   0.0000   0.0000   0.0000   0.0000   0.0000   0.0000   0.0000
     0.0000   0.0000   0.0000   0.0000   0.0000   0.0000   0.0000   0.0000
     0.0000   0.0000   0.0000   0.0000   0.0000   0.0000   0.0000   0.0000
     0.0000   0.0000   0.0000   0.0000   0.0000   0.0000   0.0000   0.0000
     0.0000   0.0000   0.0000   0.0000   0.0000   0.0000   0.0000   0.0000
     0.0000   0.0000   0.0000   0.0000   0.0000   0.0000   0.0000   0.0000
     0.0000   0.0000   0.0000   0.0000   0.0000   0.0000   0.0000   0.0000
     0.0000   0.0000   0.0000   0.0000   0.0000   0.0000   0.0000   0.0000
     0.0000   0.0000   0.0000   0.0000   0.0000   0.0000

          k =-0.7048 0.0037-0.0023 ( 34940 PWs)   bands (ev):

   -64.9416 -64.9414 -64.9036 -64.8276 -64.8204 -64.7847 -64.7783 -64.7701
   -64.7570 -64.7564 -64.7367 -64.7324 -64.7108 -64.6680 -64.6551 -64.6407
   -64.6338 -64.6249 -64.6177 -64.6063 -64.5614 -64.5589 -64.5527 -64.5157
   -64.5130 -64.5115 -64.4904 -64.4899 -64.4572 -64.4278 -64.4187 -64.4161
   -64.4082 -64.3947 -64.3522 -64.3516 -64.3361 -64.3114 -64.3086 -64.3076
   -64.3036 -64.2815 -64.2573 -64.2395 -64.2378 -64.2335 -64.2263 -64.1404
   -64.1260 -64.1152 -64.1065 -64.0999 -64.0966 -64.0840 -64.0795 -64.0784
   -64.0683 -64.0495 -64.0019 -64.0008 -63.8406 -63.6495 -63.6395 -63.4259
   -31.9396 -31.9358 -31.9194 -31.9129 -31.9084 -31.9009 -31.8928 -31.8867
   -31.8686 -31.8272 -31.8113 -31.8062 -31.8047 -31.8008 -31.7955 -31.7808
   -31.7709 -31.7705 -31.7634 -31.7589 -31.7570 -31.7522 -31.7518 -31.7498
   -31.7492 -31.7427 -31.7407 -31.7387 -31.7360 -31.7261 -31.7220 -31.7206
   -31.7097 -31.7090 -31.7064 -31.7018 -31.6998 -31.6967 -31.6797 -31.6701
   -31.6630 -31.6502 -31.6486 -31.6416 -31.6333 -31.6310 -31.6216 -31.6210
   -31.6182 -31.6178 -31.6107 -31.6075 -31.6032 -31.6024 -31.6001 -31.5972
   -31.5938 -31.5809 -31.5806 -31.5764 -31.5584 -31.5553 -31.5460 -31.5440
   -31.5436 -31.5426 -31.5417 -31.5303 -31.5203 -31.5129 -31.5096 -31.5033
   -31.4945 -31.4941 -31.4915 -31.4893 -31.4804 -31.4803 -31.4796 -31.4781
   -31.4736 -31.4717 -31.4619 -31.4570 -31.4439 -31.4357 -31.4298 -31.4245
   -31.4152 -31.4143 -31.4103 -31.4089 -31.4043 -31.3994 -31.3978 -31.3965
   -31.3902 -31.3891 -31.3876 -31.3827 -31.3655 -31.3510 -31.3482 -31.3460
   -31.3407 -31.3399 -31.3327 -31.3250 -31.3226 -31.3145 -31.3068 -31.3064
   -31.3036 -31.2994 -31.2960 -31.2929 -31.2908 -31.2896 -31.2868 -31.2815
   -31.2792 -31.2790 -31.2762 -31.2745 -31.2625 -31.2560 -31.2553 -31.2448
   -31.2372 -31.2336 -31.2327 -31.2272 -31.2257 -31.2228 -31.2200 -31.2191
   -31.2151 -31.2075 -31.2066 -31.1906 -31.1882 -31.1552 -31.1239 -31.1237
   -31.1188 -31.1122 -31.1062 -31.1011 -31.0996 -31.0988 -31.0964 -31.0949
   -31.0949 -31.0893 -31.0890 -31.0876 -31.0836 -31.0827 -31.0812 -31.0800
   -31.0786 -31.0749 -31.0711 -31.0706 -31.0637 -31.0617 -31.0607 -31.0574
   -31.0532 -31.0460 -31.0440 -31.0340 -31.0237 -31.0223 -30.9964 -30.9947
   -30.9862 -30.9855 -30.9770 -30.9728 -30.8465 -30.8273 -30.8197 -30.6494
   -30.6373 -30.6283 -30.6228 -30.6171 -30.6142 -30.4294 -30.4254 -30.3944
    -9.6050  -9.4743  -9.3937  -9.3728  -9.3444  -9.2529  -9.1094  -9.0265
    -8.9912  -8.9352  -8.8918  -8.8590  -8.8464  -8.8084  -8.7771  -8.7532
    -8.7030  -8.6859  -8.6584  -8.6291  -8.6084  -8.5612  -8.5530  -8.5290
    -8.5045  -8.4732  -8.4580  -8.4279  -8.4044  -8.3885  -8.3667  -8.3487
    -8.3278  -8.2984  -8.2621  -8.2415  -8.2253  -8.1918  -8.1646  -8.1292
    -8.1089  -8.0475  -8.0397  -8.0196  -7.9963  -7.9776  -7.9329  -7.9260
    -7.9196  -7.8952  -7.8642  -7.8216  -7.7863  -7.7582  -7.7450  -7.7248
    -7.6587  -7.6334  -7.6165  -7.5751  -7.4675  -7.3422  -7.2659  -7.1716
     3.0356   3.0986   3.1231   3.1579   3.2301   3.2719   3.2762   3.3120
     3.3343   3.3678   3.4149   3.4457   3.4535   3.4757   3.5058   3.5243
     3.5890   3.6143   3.6308   3.6378   3.6901   3.7231   3.7364   3.7555
     3.7754   3.7942   3.7978   3.8152   3.8600   3.8689   3.8784   3.9106
     3.9231   3.9429   3.9649   3.9999   4.0091   4.0506   4.0734   4.0833
     4.0853   4.1095   4.1221   4.1755   4.2029   4.2167   4.2447   4.2662
     4.2750   4.3805   4.4084   4.4525   4.4598   4.5189   4.5324   4.5656
     4.6330   4.6481   4.6947   4.7020   4.7365   4.7885   4.8069   4.8285
     4.8680   4.8921   4.9834   5.0043   5.0266   5.0399   5.2745   5.3709
     5.3959   5.4088   5.4618   5.4811   5.5046   5.5303   5.5457   5.5688
     5.5891   5.5967   5.6363   5.6440   5.6692   5.6880   5.6927   5.7118
[...]
     atom   77 type  1   force =   0.00000000E+00  0.00000000E+00  0.00000000E+00
     atom   78 type  2   force =   0.00000000E+00  0.00000000E+00  0.00000000E+00
     atom   79 type  1   force =   0.00000000E+00  0.00000000E+00  0.00000000E+00
     atom   80 type  2   force =   0.00000000E+00  0.00000000E+00  0.00000000E+00
     atom   81 type  1   force =   0.00000000E+00  0.00000000E+00  0.00000000E+00
     atom   82 type  2   force =   0.00000000E+00  0.00000000E+00  0.00000000E+00
     atom   83 type  1   force =   0.00000000E+00  0.00000000E+00  0.00000000E+00
     atom   84 type  2   force =   0.00000000E+00  0.00000000E+00  0.00000000E+00
     atom   85 type  1   force =   0.00000000E+00  0.00000000E+00  0.00000000E+00
     atom   86 type  2   force =   0.00000000E+00  0.00000000E+00  0.00000000E+00
     atom   87 type  1   force =   0.00000000E+00  0.00000000E+00  0.00000000E+00
     atom   88 type  2   force =   0.00000000E+00  0.00000000E+00  0.00000000E+00
     atom   89 type  1   force =   0.00000000E+00  0.00000000E+00  0.00000000E+00
     atom   90 type  2   force =   0.00000000E+00  0.00000000E+00  0.00000000E+00
     atom   91 type  1   force =   0.00000000E+00  0.00000000E+00  0.00000000E+00
     atom   92 type  2   force =   0.00000000E+00  0.00000000E+00  0.00000000E+00
     atom   93 type  1   force =   0.00000000E+00  0.00000000E+00  0.00000000E+00
     atom   94 type  2   force =   0.00000000E+00  0.00000000E+00  0.00000000E+00
     atom   95 type  1   force =   0.00000000E+00  0.00000000E+00  0.00000000E+00
     atom   96 type  2   force =   0.00000000E+00  0.00000000E+00  0.00000000E+00
     atom   97 type  1   force =   0.00000000E+00  0.00000000E+00  0.00000000E+00
     atom   98 type  2   force =   0.00000000E+00  0.00000000E+00  0.00000000E+00
     atom   99 type  1   force =   0.00000000E+00  0.00000000E+00  0.00000000E+00
     atom  100 type  2   force =   0.00000000E+00  0.00000000E+00  0.00000000E+00
     atom  101 type  1   force =   0.00000000E+00  0.00000000E+00  0.00000000E+00
     atom  102 type  2   force =   0.00000000E+00  0.00000000E+00  0.00000000E+00
     atom  103 type  1   force =   0.00000000E+00  0.00000000E+00  0.00000000E+00
     atom  104 type  2   force =   0.00000000E+00  0.00000000E+00  0.00000000E+00
     atom  105 type  1   force =   0.00000000E+00  0.00000000E+00  0.00000000E+00
     atom  106 type  2   force =   0.00000000E+00  0.00000000E+00  0.00000000E+00
     atom  107 type  1   force =   0.00000000E+00  0.00000000E+00  0.00000000E+00
     atom  108 type  2   force =   0.00000000E+00  0.00000000E+00  0.00000000E+00
     atom  109 type  1   force =   0.00000000E+00  0.00000000E+00  0.00000000E+00
     atom  110 type  2   force =   0.00000000E+00  0.00000000E+00  0.00000000E+00
     atom  111 type  1   force =   0.00000000E+00  0.00000000E+00  0.00000000E+00
     atom  112 type  2   force =   0.00000000E+00  0.00000000E+00  0.00000000E+00
     atom  113 type  1   force =   0.00000000E+00  0.00000000E+00  0.00000000E+00
     atom  114 type  2   force =   0.00000000E+00  0.00000000E+00  0.00000000E+00
     atom  115 type  1   force =   0.00000000E+00  0.00000000E+00  0.00000000E+00
     atom  116 type  2   force =   0.00000000E+00  0.00000000E+00  0.00000000E+00
     atom  117 type  1   force =   0.00000000E+00  0.00000000E+00  0.00000000E+00
     atom  118 type  2   force =   0.00000000E+00  0.00000000E+00  0.00000000E+00
     atom  119 type  1   force =   0.00000000E+00  0.00000000E+00  0.00000000E+00
     atom  120 type  2   force =   0.00000000E+00  0.00000000E+00  0.00000000E+00
     atom  121 type  1   force =   0.00000000E+00  0.00000000E+00  0.00000000E+00
     atom  122 type  2   force =   0.00000000E+00  0.00000000E+00  0.00000000E+00
     atom  123 type  1   force =   0.00000000E+00  0.00000000E+00  0.00000000E+00
     atom  124 type  2   force =   0.00000000E+00  0.00000000E+00  0.00000000E+00
     atom  125 type  1   force =   0.00000000E+00  0.00000000E+00  0.00000000E+00
     atom  126 type  2   force =   0.00000000E+00  0.00000000E+00  0.00000000E+00
     atom  127 type  1   force =   0.00000000E+00  0.00000000E+00  0.00000000E+00
     atom  128 type  2   force =   0.00000000E+00  0.00000000E+00  0.00000000E+00
     The SCF correction term to forces
     atom    1 type  1   force =   0.80845639E-06 -0.11872466E-05 -0.66556469E-07
     atom    2 type  2   force =  -0.22323889E-05  0.65136859E-06  0.41529191E-06
     atom    3 type  1   force =  -0.25584824E-05 -0.20657092E-06  0.16655445E-05
     atom    4 type  2   force =   0.22405114E-06  0.13350248E-07  0.13947210E-06
     atom    5 type  1   force =  -0.10689774E-05  0.22232494E-05 -0.43290968E-07
     atom    6 type  2   force =   0.33497898E-06  0.36926867E-06 -0.28206617E-06
     atom    7 type  1   force =   0.94831536E-06  0.68048699E-06 -0.29658807E-05
     atom    8 type  2   force =  -0.16282901E-05  0.23654619E-05 -0.45019204E-06
     atom    9 type  1   force =  -0.15898992E-05  0.20348945E-05 -0.21012128E-05
     atom   10 type  2   force =   0.68296070E-06 -0.58770441E-07  0.36812695E-06
     atom   11 type  1   force =   0.14236970E-05  0.16622028E-05  0.19243161E-05
     atom   12 type  2   force =  -0.32428525E-06 -0.33426463E-06 -0.18159427E-06
     atom   13 type  1   force =   0.17397469E-05 -0.56374915E-06 -0.15617661E-05
     atom   14 type  2   force =  -0.11154136E-05  0.95291533E-06  0.94237365E-06
     atom   15 type  1   force =  -0.30019170E-05 -0.30281601E-06 -0.21713167E-05
     atom   16 type  2   force =  -0.41173657E-06  0.51558579E-06  0.17681116E-05
     atom   17 type  1   force =   0.13658188E-05  0.20124856E-06  0.44216123E-05
     atom   18 type  2   force =  -0.67630341E-06 -0.77769980E-06 -0.43629686E-06
     atom   19 type  1   force =  -0.11362044E-05 -0.86684297E-06 -0.22205089E-05
     atom   20 type  2   force =  -0.35947970E-06  0.77954803E-06  0.98947124E-06
     atom   21 type  1   force =  -0.16416669E-05 -0.17583611E-05 -0.17946250E-05
     atom   22 type  2   force =   0.11983877E-05  0.16607909E-05  0.18273597E-05
     atom   23 type  1   force =   0.33472057E-05  0.14297453E-05  0.24121785E-05
     atom   24 type  2   force =  -0.22469659E-06 -0.16030589E-05  0.75413480E-06
     atom   25 type  1   force =  -0.23660283E-05 -0.42727107E-05 -0.51873757E-06
     atom   26 type  2   force =  -0.73361763E-06 -0.33803097E-06  0.22377201E-05
     atom   27 type  1   force =   0.80040500E-06 -0.65552313E-06  0.71241672E-06
     atom   28 type  2   force =  -0.81099069E-06  0.12859718E-05  0.36001131E-06
     atom   29 type  1   force =   0.21788392E-05  0.21039378E-05  0.11207409E-05
     atom   30 type  2   force =  -0.77462406E-06  0.12773147E-05 -0.20201673E-05
     atom   31 type  1   force =   0.57509181E-06  0.10538672E-05  0.12096428E-05
     atom   32 type  2   force =  -0.27460718E-07 -0.15284676E-06  0.57317136E-08
     atom   33 type  1   force =  -0.25321302E-05 -0.48748971E-06  0.12529940E-05
     atom   34 type  2   force =  -0.13863300E-05 -0.11483882E-06  0.27996889E-06
     atom   35 type  1   force =  -0.34052921E-05  0.60935253E-06  0.13358565E-05
     atom   36 type  2   force =   0.33334474E-06  0.78516517E-06  0.15358307E-05
     atom   37 type  1   force =  -0.19576299E-05  0.10372482E-05 -0.71869173E-06
     atom   38 type  2   force =  -0.40013204E-06  0.25158588E-05  0.14456235E-06
     atom   39 type  1   force =  -0.62237380E-06  0.54197602E-05  0.17886248E-05
     atom   40 type  2   force =  -0.25363561E-05  0.92064634E-06 -0.57409396E-06
     atom   41 type  1   force =  -0.28135123E-05  0.13091467E-05 -0.30427007E-06
     atom   42 type  2   force =  -0.33727716E-06  0.11081603E-05 -0.33470873E-06
     atom   43 type  1   force =   0.56153413E-06  0.18246087E-05  0.15662900E-05
     atom   44 type  2   force =  -0.34108150E-06  0.11820126E-05 -0.24874498E-06
     atom   45 type  1   force =  -0.15294648E-05  0.11788764E-05  0.11239100E-05
     atom   46 type  2   force =  -0.11965122E-06  0.49576726E-06  0.95430536E-06
     atom   47 type  1   force =  -0.32665507E-05  0.25938866E-05  0.91390739E-06
     atom   48 type  2   force =  -0.12272057E-05 -0.75500224E-06  0.10418146E-05
     atom   49 type  1   force =   0.55335768E-06 -0.29228796E-05  0.43744381E-06
     atom   50 type  2   force =   0.11673005E-05 -0.32087019E-06  0.13250432E-05
     atom   51 type  1   force =  -0.13361962E-05  0.17991923E-06 -0.12161590E-05
     atom   52 type  2   force =   0.89149006E-06  0.10762275E-05 -0.24488938E-06
     atom   53 type  1   force =  -0.10309543E-05  0.45332542E-05  0.21708487E-05
     atom   54 type  2   force =  -0.74502233E-06  0.76335207E-07 -0.51749503E-06
     atom   55 type  1   force =   0.85684230E-06 -0.21440296E-05  0.46825184E-05
     atom   56 type  2   force =  -0.76788970E-06 -0.14276201E-05  0.14958409E-05
     atom   57 type  1   force =   0.19881022E-05 -0.19441341E-05  0.44676180E-05
     atom   58 type  2   force =  -0.11958967E-05 -0.15257815E-05  0.71072841E-06
     atom   59 type  1   force =  -0.11312456E-05  0.48377954E-06  0.22093074E-05
     atom   60 type  2   force =  -0.67134162E-06  0.69945788E-06 -0.11473671E-05
     atom   61 type  1   force =   0.45407883E-06  0.20910588E-05 -0.38364322E-06
     atom   62 type  2   force =   0.12779267E-06  0.20976629E-05  0.16231012E-06
     atom   63 type  1   force =  -0.14806148E-05  0.94851008E-07 -0.37588104E-06
     atom   64 type  2   force =   0.43041551E-06  0.77574855E-07  0.22127782E-05
     atom   65 type  1   force =  -0.23475631E-05 -0.25976214E-05  0.55648577E-06
     atom   66 type  2   force =  -0.29710999E-06 -0.55917413E-07  0.37192646E-06
     atom   67 type  1   force =  -0.71205651E-06 -0.22724903E-06  0.21618088E-05
     atom   68 type  2   force =   0.93730302E-06 -0.92614505E-06 -0.18040981E-05
     atom   69 type  1   force =   0.27135420E-05  0.23451171E-05 -0.27168616E-06
     atom   70 type  2   force =   0.11636685E-05  0.40008945E-06 -0.23234451E-05
     atom   71 type  1   force =   0.70596086E-06  0.16484138E-05 -0.10546340E-05
     atom   72 type  2   force =  -0.11530403E-05 -0.13897451E-06 -0.34193922E-06
     atom   73 type  1   force =  -0.19263990E-05  0.17475695E-05  0.22952750E-05
     atom   74 type  2   force =  -0.47512641E-06 -0.27731004E-06 -0.21393407E-05
     atom   75 type  1   force =   0.53691628E-06  0.14655459E-06 -0.10232060E-05
     atom   76 type  2   force =   0.21225096E-05  0.39970387E-06 -0.12571633E-05
     atom   77 type  1   force =   0.22832776E-06  0.45487919E-08 -0.21637711E-05
     atom   78 type  2   force =   0.93981421E-06 -0.61949327E-06  0.20603853E-06
     atom   79 type  1   force =  -0.17042910E-05  0.39338915E-06 -0.14430454E-05
     atom   80 type  2   force =  -0.10211410E-05 -0.69398766E-06 -0.69840978E-06
     atom   81 type  1   force =  -0.22946493E-05 -0.79771102E-06  0.66207819E-06
     atom   82 type  2   force =   0.17499717E-05 -0.16728312E-05  0.79439245E-06
     atom   83 type  1   force =   0.37249482E-05  0.81223314E-06 -0.14096406E-05
     atom   84 type  2   force =   0.98905895E-06  0.12478056E-05 -0.14764396E-05
     atom   85 type  1   force =   0.43541149E-05  0.17108527E-05  0.14670680E-06
     atom   86 type  2   force =   0.46262853E-08 -0.78336797E-06 -0.83633108E-06
     atom   87 type  1   force =  -0.16014398E-05 -0.34870822E-05  0.82421938E-06
     atom   88 type  2   force =   0.11886751E-05 -0.27078417E-05  0.14472436E-05
     atom   89 type  1   force =   0.19908244E-05 -0.42162849E-05  0.21842376E-05
     atom   90 type  2   force =  -0.73342277E-06 -0.10699327E-05  0.10037442E-05
     atom   91 type  1   force =  -0.47567308E-06 -0.63328748E-06 -0.12486797E-05
     atom   92 type  2   force =   0.67645642E-06  0.28439146E-06 -0.24919780E-06
     atom   93 type  1   force =  -0.18639846E-06  0.12944028E-05 -0.24663708E-05
     atom   94 type  2   force =   0.26003169E-05 -0.13984904E-06 -0.13158834E-05
     atom   95 type  1   force =   0.19971034E-05 -0.66814581E-06  0.19864818E-05
     atom   96 type  2   force =   0.20238598E-06 -0.17102358E-05  0.23461017E-06
     atom   97 type  1   force =  -0.89531980E-06  0.74365669E-06 -0.57458551E-07
     atom   98 type  2   force =  -0.17076341E-05 -0.65614837E-06 -0.66722806E-06
     atom   99 type  1   force =   0.34699283E-06 -0.28504722E-05 -0.12650212E-05
     atom  100 type  2   force =   0.64741944E-06  0.39398216E-06 -0.35984143E-06
     atom  101 type  1   force =   0.26324206E-05  0.18757435E-06 -0.36454656E-05
     atom  102 type  2   force =   0.14704447E-05  0.27584716E-06 -0.98167611E-06
     atom  103 type  1   force =   0.49732487E-06 -0.26936897E-06 -0.35455840E-05
     atom  104 type  2   force =  -0.39940618E-06  0.15462306E-07 -0.17886337E-05
     atom  105 type  1   force =  -0.13621844E-05 -0.15194067E-05 -0.36751303E-05
     atom  106 type  2   force =   0.41706655E-06  0.85031171E-06  0.52646280E-06
     atom  107 type  1   force =   0.10595983E-05 -0.18074748E-05 -0.24474426E-05
     atom  108 type  2   force =   0.16563937E-05  0.38433325E-06  0.24683171E-06
     atom  109 type  1   force =   0.18614778E-05 -0.13843177E-06 -0.86736665E-06
     atom  110 type  2   force =  -0.53385099E-06 -0.17497951E-05 -0.12788154E-05
     atom  111 type  1   force =  -0.24395468E-06 -0.21275061E-05 -0.13701858E-05
     atom  112 type  2   force =  -0.36622733E-06 -0.60253890E-06 -0.90949277E-06
     atom  113 type  1   force =  -0.53987119E-06 -0.25773180E-05  0.12434800E-05
     atom  114 type  2   force =   0.11139136E-06 -0.54921761E-07  0.11995189E-05
     atom  115 type  1   force =   0.34905689E-05  0.24461667E-05 -0.95561509E-06
     atom  116 type  2   force =  -0.40489271E-06 -0.66301415E-06 -0.17869812E-05
     atom  117 type  1   force =   0.22522494E-05 -0.18650308E-05 -0.19684835E-05
     atom  118 type  2   force =   0.13806483E-05 -0.84831264E-06 -0.44006607E-06
     atom  119 type  1   force =   0.43627498E-06 -0.46775272E-05  0.33059516E-06
     atom  120 type  2   force =   0.13519622E-05 -0.11279292E-05  0.27526691E-05
     atom  121 type  1   force =  -0.77255921E-08 -0.40534502E-05  0.24569784E-05
     atom  122 type  2   force =  -0.36663799E-06 -0.18373440E-05  0.56203112E-06
     atom  123 type  1   force =   0.70784167E-06  0.12948563E-05  0.58515308E-07
     atom  124 type  2   force =   0.46817416E-06 -0.51159606E-06 -0.54508604E-06
     atom  125 type  1   force =   0.17915619E-05 -0.26124499E-05 -0.25297947E-05
     atom  126 type  2   force =   0.15362719E-05  0.13323610E-05 -0.12629911E-05
     atom  127 type  1   force =   0.45895376E-05 -0.16882804E-05 -0.13848028E-05
     atom  128 type  2   force =  -0.31902222E-06 -0.41481077E-06 -0.31473746E-06

     Total force =     0.608451     Total SCF correction =     0.000031


     entering subroutine stress ...

          total   stress  (Ry/bohr**3)                   (kbar)     P=    9.33
   0.0000602242  -0.0001550326   0.0000718811          8.86    -22.81     10.57
  -0.0001550326   0.0001061683   0.0000388699        -22.81     15.62      5.72
   0.0000718811   0.0000388699   0.0000239075         10.57      5.72      3.52

     kinetic stress (kbar)  23856.44    -28.05     13.01
                              -28.05  23860.32      6.63
                               13.01      6.63  23854.71

     local   stress (kbar)  -4051.04   -288.94    117.63
                             -288.94  -4499.18     85.04
                              117.63     85.04  -3881.09

     nonloc. stress (kbar)   6495.66      2.64     -0.92
                                2.64   6498.92     -0.73
                               -0.92     -0.73   6494.16

     hartree stress (kbar)  18637.69    113.79    -47.89
                              113.79  18803.44    -35.40
                              -47.89    -35.40  18582.08

     exc-cor stress (kbar)  -8470.03      0.27     -0.10
                                0.27  -8469.72     -0.07
                               -0.10     -0.07  -8470.18

     corecor stress (kbar)   -311.63      0.07     -0.04
                                0.07   -311.66     -0.02
                               -0.04     -0.02   -311.62

     ewald   stress (kbar) -36148.23    177.41    -71.12
                              177.41 -35866.50    -49.74
                              -71.12    -49.74 -36264.54

     hubbard stress (kbar)      0.00      0.00      0.00
                                0.00      0.00      0.00
                                0.00      0.00      0.00

     london  stress (kbar)      0.00      0.00      0.00
                                0.00      0.00      0.00
                                0.00      0.00      0.00

     XDM     stress (kbar)      0.00      0.00      0.00
                                0.00      0.00      0.00
                                0.00      0.00      0.00

     dft-nl  stress (kbar)      0.00      0.00      0.00
                                0.00      0.00      0.00
                                0.00      0.00      0.00



     Writing output data file MgO_rocksalt.relax.in.up_1.00.super.444.a.044.save

     init_run     :    685.14s CPU    672.44s WALL (       1 calls)
     electrons    :  53645.05s CPU  53521.97s WALL (       1 calls)
     forces       :    488.17s CPU    341.57s WALL (       1 calls)
     stress       :   2002.98s CPU   2083.89s WALL (       1 calls)

     Called by init_run:
     wfcinit      :    659.72s CPU    646.59s WALL (       1 calls)
     potinit      :      3.44s CPU      3.52s WALL (       1 calls)

     Called by electrons:
     c_bands      :  46849.88s CPU  46493.13s WALL (      26 calls)
     sum_band     :   6324.69s CPU   6476.67s WALL (      26 calls)
     v_of_rho     :     16.46s CPU     19.99s WALL (      27 calls)
     v_h          :      0.82s CPU      1.12s WALL (      27 calls)
     v_xc         :     17.01s CPU     20.32s WALL (      29 calls)
     newd         :    436.88s CPU    504.83s WALL (      27 calls)
     mix_rho      :     31.69s CPU     41.19s WALL (      26 calls)

     Called by c_bands:
     init_us_2    :     49.78s CPU     61.66s WALL (     440 calls)
     cegterg      :  46509.40s CPU  46070.88s WALL (     208 calls)

     Called by sum_band:
     sum_band:bec :     19.51s CPU     22.31s WALL (     208 calls)
     addusdens    :    380.55s CPU    432.27s WALL (      26 calls)

     Called by *egterg:
     h_psi        :  23794.82s CPU  24004.09s WALL (     710 calls)
     s_psi        :   5016.75s CPU   3522.96s WALL (     710 calls)
     g_psi        :      8.64s CPU     11.41s WALL (     494 calls)
     cdiaghg      :   8955.96s CPU  11668.47s WALL (     702 calls)
     cegterg:over :   3969.92s CPU   3123.37s WALL (     494 calls)
     cegterg:upda :   1838.52s CPU   1352.38s WALL (     494 calls)
     cegterg:last :   1446.90s CPU   1018.69s WALL (     208 calls)

     Called by h_psi:
     h_psi:vloc   :  12835.98s CPU  16192.04s WALL (     710 calls)
     h_psi:vnl    :  10943.44s CPU   7793.99s WALL (     710 calls)
     add_vuspsi   :   4967.92s CPU   3474.50s WALL (     710 calls)

     General routines
     calbec       :   9085.42s CPU   6603.97s WALL (     934 calls)
     fft          :     70.93s CPU     84.38s WALL (     453 calls)
     ffts         :     21.71s CPU     28.52s WALL (     670 calls)
     fftw         :  15255.37s CPU  19340.41s WALL (  692516 calls)
     interpolate  :      4.41s CPU      5.66s WALL (      53 calls)

     Parallel routines
     fft_scatter  :  11432.98s CPU  14407.01s WALL (  693639 calls)

     PWSCF        :    15h47m CPU       15h44m WALL


   This run was terminated on:  11:45: 1  19Aug2017            

=------------------------------------------------------------------------------=
   JOB DONE.
=------------------------------------------------------------------------------=
