
     Program PWSCF v.5.1 starts on 18Aug2017 at 20: 0:51 

     This program is part of the open-source Quantum ESPRESSO suite
     for quantum simulation of materials; please cite
         "P. Giannozzi et al., J. Phys.:Condens. Matter 21 395502 (2009);
          URL http://www.quantum-espresso.org", 
     in publications or presentations arising from this work. More details at
     http://www.quantum-espresso.org/quote

     Parallel version (MPI), running on     8 processors
     R & G space division:  proc/nbgrp/npool/nimage =       8
     Reading input from /tmp/MgO_rocksalt.relax.in.up_1.00.super.444.a.02.1107/MgO_rocksalt.relax.in.up_1.00.super.444.a.02.t
Warning: card &IONS ignored
Warning: card   ION_DYNAMICS='BFGS', ignored
Warning: card / ignored
Warning: card &CELL ignored
Warning: card  CELL_DYNAMICS = 'BFGS' ignored
Warning: card / ignored
     Message from routine read_cards :
     DEPRECATED: no units specified in CELL_PARAMETERS card

     Current dimensions of program PWSCF are:
     Max number of different atomic species (ntypx) = 10
     Max number of k-points (npk) =  40000
     Max angular momentum in pseudopotentials (lmaxx) =  3
 kfg - two_fermi_energies  F

     Subspace diagonalization in iterative solution of the eigenvalue problem:
     a serial algorithm will be used


     Parallelization info
     --------------------
     sticks:   dense  smooth     PW     G-vecs:    dense   smooth      PW
     Min         897     716    190                49918    35701    4893
     Max         898     717    191                49919    35727    4895
     Sum        7179    5731   1523               399349   285723   39149



     bravais-lattice index     =            0
     lattice parameter (alat)  =    22.766832542  a.u.
     unit-cell volume          =    8361.0384 (a.u.)^3
     number of atoms/cell      =          128
     number of atomic types    =            2
     number of electrons       =      1024.00
     number of Kohn-Sham states=          614
     kinetic-energy cutoff     =      40.0000  Ry
     charge density cutoff     =     200.0000  Ry
     convergence threshold     =      1.0E-10
     mixing beta               =       0.3000
     number of iterations used =            8  local-TF  mixing
     Exchange-correlation      = SLA  PW   PSX  PSC ( 1  4 10  8 0)
     A smooth kinetic-energy cutoff is imposed at      39.5000 Ry
     height of the smooth step-function =             800.0000 Ry
     width of the smooth step-function  =               1.0000 Ry


     celldm(1)=  22.766833  celldm(2)=   0.000000  celldm(3)=   0.000000
     celldm(4)=   0.000000  celldm(5)=   0.000000  celldm(6)=   0.000000

     crystal axes: (cart. coord. in units of alat)
               a(1) = (  -0.006432689227   0.706903233583   0.707281018309 )  
               a(2) = (   0.705383804881  -0.006800900097   0.705332616961 )  
               a(3) = (   0.705480787964   0.699562201175  -0.002374822669 )  

     reciprocal axes: (cart. coord. in units 2 pi/alat)
               b(1) = ( -0.696392  0.704671  0.703237 )  
               b(2) = (  0.700708 -0.704225  0.710222 )  
               b(3) = (  0.710512  0.710554 -0.703712 )  


     PseudoPot. # 1 for Mg read from file:
     /users/kfg/psuedo/gbrv_1.5/mg.pbesol.UPF
     MD5 check sum: 4059f37963cf5867752dbf5ab2400678
     Pseudo is Ultrasoft, Zval = 10.0
     Generated by new atomic code, or converted to UPF format
     Using radial grid of  821 points,  7 beta functions with: 
                l(1) =   0
                l(2) =   0
                l(3) =   0
                l(4) =   1
                l(5) =   1
                l(6) =   2
                l(7) =   2
     Q(r) pseudized with  8 coefficients,  rinner =    1.200   1.200   1.200
                                                       1.200   1.200

     PseudoPot. # 2 for O  read from file:
     /users/kfg/psuedo/gbrv_1.5/o.pbesol.UPF
     MD5 check sum: 501638753501ef6325af9037351f7734
     Pseudo is Ultrasoft + core correction, Zval =  6.0
     Generated by new atomic code, or converted to UPF format
     Using radial grid of  737 points,  5 beta functions with: 
                l(1) =   0
                l(2) =   0
                l(3) =   1
                l(4) =   1
                l(5) =   2
     Q(r) pseudized with  8 coefficients,  rinner =    0.900   0.900   0.900
                                                       0.900   0.900

     atomic species   valence    mass     pseudopotential
        Mg            10.00    24.30500     Mg( 1.00)
        O              6.00    15.99940     O ( 1.00)

     No symmetry found


                                    s                        frac. trans.

      isym =  1     identity                                     

 cryst.   s( 1) = (     1          0          0      )
                  (     0          1          0      )
                  (     0          0          1      )

 cart.    s( 1) = (  1.0000000  0.0000000  0.0000000 )
                  (  0.0000000  1.0000000  0.0000000 )
                  (  0.0000000 -0.0000000  1.0000000 )


     point group C_1 (1)    
     there are  1 classes
     the character table:

       E    
A      1.00

     the symmetry operations in each class:
     E        1

   Cartesian axes

     site n.     atom                  positions (alat units)
         1           Mg  tau(   1) = (    0.00044706808   -0.00855559143   -0.00486898219  )
         2           O   tau(   2) = (    0.17608836935    0.17234971295    0.17750878660  )
         3           Mg  tau(   3) = (    0.16778228512    0.17143925261    0.00219587677  )
         4           O   tau(   4) = (    0.34722141218    0.35660017652    0.17214733022  )
         5           Mg  tau(   5) = (    0.35910895576    0.35331558962   -0.00253239332  )
         6           O   tau(   6) = (    0.52050581871    0.52571930707    0.16906452062  )
         7           Mg  tau(   7) = (    0.52422111257    0.52661630065   -0.00400618967  )
         8           O   tau(   8) = (    0.69878030738    0.69495382889    0.16666798072  )
         9           Mg  tau(   9) = (    0.18353351513    0.00348780711    0.17505064056  )
        10           O   tau(  10) = (    0.35781652993    0.17324388053    0.35741453773  )
        11           Mg  tau(  11) = (    0.35183168288    0.17966705456    0.16805699560  )
        12           O   tau(  12) = (    0.52167359611    0.35361685519    0.36078981475  )
        13           Mg  tau(  13) = (    0.53150312396    0.33934367558    0.18381858772  )
        14           O   tau(  14) = (    0.70576560266    0.52749422060    0.34580474620  )
        15           Mg  tau(  15) = (    0.70983888665    0.51821936032    0.17979525510  )
        16           O   tau(  16) = (    0.88537774969    0.70326877589    0.35143413603  )
        17           Mg  tau(  17) = (    0.35634479334   -0.00632674825    0.35064324390  )
        18           O   tau(  18) = (    0.52797924890    0.16660343194    0.52872048638  )
        19           Mg  tau(  19) = (    0.52196831079    0.16511085389    0.35048890100  )
        20           O   tau(  20) = (    0.70624986652    0.33955944517    0.52737009908  )
        21           Mg  tau(  21) = (    0.70932533865    0.34417034722    0.34361635915  )
        22           O   tau(  22) = (    0.87276927415    0.52601286625    0.52430557783  )
        23           Mg  tau(  23) = (    0.88932136954    0.52004679734    0.34459773816  )
        24           O   tau(  24) = (    1.06353092442    0.70227863755    0.53089479273  )
        25           Mg  tau(  25) = (    0.53159743899    0.00000868784    0.52263708979  )
        26           O   tau(  26) = (    0.70292522569    0.16889759273    0.71141242087  )
        27           Mg  tau(  27) = (    0.70346897621    0.17468280785    0.52278124048  )
        28           O   tau(  28) = (    0.87865961727    0.34316290406    0.70078111799  )
        29           Mg  tau(  29) = (    0.88171200163    0.33699179504    0.52756781481  )
        30           O   tau(  30) = (    1.05079022533    0.51393502265    0.71187972358  )
        31           Mg  tau(  31) = (    1.06543389276    0.51081535869    0.51986781868  )
        32           O   tau(  32) = (    1.24000197708    0.69348044542    0.71203272947  )
        33           Mg  tau(  33) = (   -0.00951905065    0.17858394455    0.18067632683  )
        34           O   tau(  34) = (    0.17708677837    0.34863502878    0.35696734285  )
        35           Mg  tau(  35) = (    0.18259302728    0.34883110368    0.17652874799  )
        36           O   tau(  36) = (    0.34858319280    0.53463043743    0.34924479878  )
        37           Mg  tau(  37) = (    0.35085046160    0.52116462602    0.18426680176  )
        38           O   tau(  38) = (    0.53456546607    0.70099176021    0.34828948828  )
        39           Mg  tau(  39) = (    0.53224643369    0.70013029951    0.17328664524  )
        40           O   tau(  40) = (    0.70212971444    0.87924161048    0.35834046164  )
        41           Mg  tau(  41) = (    0.16622030712    0.18351798038    0.35988374661  )
        42           O   tau(  42) = (    0.35809231740    0.35413001310    0.53779527309  )
        43           Mg  tau(  43) = (    0.34405677422    0.35570167231    0.35937654880  )
        44           O   tau(  44) = (    0.52489480671    0.51902121884    0.53703562986  )
        45           Mg  tau(  45) = (    0.52007642392    0.52235616798    0.34978307359  )
        46           O   tau(  46) = (    0.70548804561    0.69523750085    0.52270252307  )
        47           Mg  tau(  47) = (    0.69773881658    0.69223165354    0.35791589678  )
        48           O   tau(  48) = (    0.88053961965    0.87379319478    0.53561068646  )
        49           Mg  tau(  49) = (    0.34805403680    0.17692854287    0.53454014297  )
        50           O   tau(  50) = (    0.52456446821    0.35265089990    0.70005202060  )
        51           Mg  tau(  51) = (    0.53340558733    0.34788818985    0.52465812449  )
        52           O   tau(  52) = (    0.69651404359    0.52949209222    0.70634949662  )
        53           Mg  tau(  53) = (    0.70289334051    0.52771401525    0.53121371409  )
        54           O   tau(  54) = (    0.88188911170    0.70261505826    0.69619309160  )
        55           Mg  tau(  55) = (    0.88601022944    0.70344433551    0.53566291016  )
        56           O   tau(  56) = (    1.05596983021    0.86854521617    0.70022366887  )
        57           Mg  tau(  57) = (    0.53250315054    0.16485660884    0.70707213463  )
        58           O   tau(  58) = (    0.71133101032    0.34140061225    0.87929969419  )
        59           Mg  tau(  59) = (    0.70816726822    0.34981712759    0.70757231057  )
        60           O   tau(  60) = (    0.88817661168    0.51805902485    0.88833719058  )
        61           Mg  tau(  61) = (    0.87400246981    0.52626644491    0.70886029175  )
        62           O   tau(  62) = (    1.06281790829    0.68975282966    0.88328898436  )
        63           Mg  tau(  63) = (    1.05109668007    0.69130510664    0.70676207489  )
        64           O   tau(  64) = (    1.23895291802    0.87360257024    0.87400273132  )
        65           Mg  tau(  65) = (   -0.00265140037    0.35268375591    0.35294681281  )
        66           O   tau(  66) = (    0.17613674895    0.52207214699    0.53409148118  )
        67           Mg  tau(  67) = (    0.17729970172    0.52349267935    0.35395680886  )
        68           O   tau(  68) = (    0.34279603956    0.69477706584    0.52648074736  )
        69           Mg  tau(  69) = (    0.34971726741    0.70782673052    0.35188212699  )
        70           O   tau(  70) = (    0.52287997368    0.87758282554    0.52012569503  )
        71           Mg  tau(  71) = (    0.53459911876    0.87068038665    0.35615872482  )
        72           O   tau(  72) = (    0.70322901511    1.05940947569    0.52952169364  )
        73           Mg  tau(  73) = (    0.17544104855    0.35875640283    0.52262347590  )
        74           O   tau(  74) = (    0.34681839544    0.52776094121    0.71387566160  )
        75           Mg  tau(  75) = (    0.34169086413    0.53388539395    0.52802241410  )
        76           O   tau(  76) = (    0.51639227912    0.69509279835    0.70839965002  )
        77           Mg  tau(  77) = (    0.53100204989    0.70204900095    0.53719286038  )
        78           O   tau(  78) = (    0.70716076011    0.87542100735    0.70616681801  )
        79           Mg  tau(  79) = (    0.70762991987    0.88330993352    0.53610699449  )
        80           O   tau(  80) = (    0.87678375569    1.04540288588    0.70591196684  )
        81           Mg  tau(  81) = (    0.35378040933    0.35875599459    0.70537295877  )
        82           O   tau(  82) = (    0.53249676006    0.53049060362    0.88693496666  )
        83           Mg  tau(  83) = (    0.52225002413    0.52533998613    0.70966106477  )
        84           O   tau(  84) = (    0.70975597734    0.69651119167    0.88608640407  )
        85           Mg  tau(  85) = (    0.70200281916    0.69784508210    0.69862305527  )
        86           O   tau(  86) = (    0.87426439681    0.86668611859    0.88058944797  )
        87           Mg  tau(  87) = (    0.88001956559    0.87950606199    0.69583588588  )
        88           O   tau(  88) = (    1.06230825400    1.05098955154    0.88104426483  )
        89           Mg  tau(  89) = (    0.51882440784    0.35226840812    0.88663741081  )
        90           O   tau(  90) = (    0.69448049010    0.52323997258    1.05881556114  )
        91           Mg  tau(  91) = (    0.69935829745    0.52896686083    0.88990010264  )
        92           O   tau(  92) = (    0.87578471829    0.69223466752    1.05477427363  )
        93           Mg  tau(  93) = (    0.87955744592    0.68933957039    0.88584429130  )
        94           O   tau(  94) = (    1.06115130304    0.87078209168    1.05015982049  )
        95           Mg  tau(  95) = (    1.04874661958    0.88179287279    0.87991727402  )
        96           O   tau(  96) = (    1.22819022926    1.05235298275    1.05471184110  )
        97           Mg  tau(  97) = (   -0.00167124395    0.52133949253    0.53636487176  )
        98           O   tau(  98) = (    0.17233589490    0.70534361491    0.70310901127  )
        99           Mg  tau(  99) = (    0.16413719063    0.70149524173    0.53175825089  )
       100           O   tau( 100) = (    0.35523402307    0.88424257657    0.70946757486  )
       101           Mg  tau( 101) = (    0.34581564938    0.87411378897    0.53164783081  )
       102           O   tau( 102) = (    0.52163222419    1.05620741898    0.70225470927  )
       103           Mg  tau( 103) = (    0.51744352814    1.04883641651    0.52927903666  )
       104           O   tau( 104) = (    0.70394312954    1.22758271284    0.70163665820  )
       105           Mg  tau( 105) = (    0.17548998831    0.52074775693    0.71487055244  )
       106           O   tau( 106) = (    0.34521437193    0.69908555312    0.88578880680  )
       107           Mg  tau( 107) = (    0.35503730459    0.69833682969    0.69744167264  )
       108           O   tau( 108) = (    0.52126652144    0.87989984228    0.89034048241  )
       109           Mg  tau( 109) = (    0.51670476802    0.87731764660    0.70299860147  )
       110           O   tau( 110) = (    0.69737680014    1.06152725125    0.87689299969  )
       111           Mg  tau( 111) = (    0.70071035900    1.05442224694    0.70840399893  )
       112           O   tau( 112) = (    0.87940738151    1.23465626025    0.88020975713  )
       113           Mg  tau( 113) = (    0.34948570432    0.51832064204    0.87912019640  )
       114           O   tau( 114) = (    0.51694041515    0.70183958048    1.05614797759  )
       115           Mg  tau( 115) = (    0.53000712660    0.69361402440    0.87398625296  )
       116           O   tau( 116) = (    0.69783543821    0.87546107235    1.06650037311  )
       117           Mg  tau( 117) = (    0.70317869758    0.87104846873    0.87539063170  )
       118           O   tau( 118) = (    0.87494237746    1.04987286185    1.05198397032  )
       119           Mg  tau( 119) = (    0.88532341052    1.04547931444    0.88277517050  )
       120           O   tau( 120) = (    1.04830885655    1.23288527905    1.05318550557  )
       121           Mg  tau( 121) = (    0.53034524118    0.53027767361    1.06585066713  )
       122           O   tau( 122) = (    0.69310872508    0.69926114633    1.23662664536  )
       123           Mg  tau( 123) = (    0.69839440172    0.70477834313    1.05209343546  )
       124           O   tau( 124) = (    0.87056936388    0.87589636568    1.23349752216  )
       125           Mg  tau( 125) = (    0.87573497251    0.88157221214    1.05449375244  )
       126           O   tau( 126) = (    1.04664086432    1.05769500986    1.23535582515  )
       127           Mg  tau( 127) = (    1.05688678080    1.04433302302    1.05303646469  )
       128           O   tau( 128) = (    1.23033559459    1.23258603123    1.23094875383  )

   Crystallographic axes

     site n.     atom                  positions (cryst. coord.)
         1           Mg  tau(   1) = (   -0.00976425960    0.00288026890   -0.00233519810  )
         2           O   tau(   2) = (    0.12365406242    0.12808413014    0.12266149258  )
         3           Mg  tau(   3) = (    0.00551026044   -0.00160590429    0.23948279340  )
         4           O   tau(   4) = (    0.13054397469    0.11443676804    0.37894627707  )
         5           Mg  tau(   5) = (   -0.00289020407    0.00101818966    0.50798286161  )
         6           O   tau(   6) = (    0.12687551241    0.11457109315    0.62440449600  )
         7           Mg  tau(   7) = (    0.00321057802   -0.00637586248    0.74947355673  )
         8           O   tau(   8) = (    0.12029592047    0.11860815035    0.87300728209  )
         9           Mg  tau(   9) = (   -0.00225141670    0.25047197063    0.00969574355  )
        10           O   tau(  10) = (    0.12424651072    0.38256578657    0.12581499099  )
        11           Mg  tau(  11) = (   -0.00022268731    0.23936292646    0.25937987499  )
        12           O   tau(  12) = (    0.13961499412    0.37275573482    0.36802680086  )
        13           Mg  tau(  13) = (   -0.00174081124    0.26400605583    0.48940571534  )
        14           O   tau(  14) = (    0.12340308837    0.36865891687    0.63292068971  )
        15           Mg  tau(  15) = (   -0.00271324717    0.26014111523    0.74604739418  )
        16           O   tau(  16) = (    0.12614466400    0.37472781681    0.88147299899  )
        17           Mg  tau(  17) = (   -0.00602861475    0.50318355736    0.00193978478  )
        18           O   tau(  18) = (    0.12153591473    0.62814174529    0.12144914339  )
        19           Mg  tau(  19) = (   -0.00066893036    0.49839697246    0.24154145357  )
        20           O   tau(  20) = (    0.11831713863    0.63029832272    0.37195730811  )
        21           Mg  tau(  21) = (   -0.00979784688    0.49870028989    0.50672847549  )
        22           O   tau(  22) = (    0.13158759891    0.61349810573    0.62491298940  )
        23           Mg  tau(  23) = (   -0.01052045550    0.50166530436    0.75889680157  )
        24           O   tau(  24) = (    0.12758588096    0.62771531233    0.88106074603  )
        25           Mg  tau(  25) = (   -0.00265631059    0.74367668331    0.00992636995  )
        26           O   tau(  26) = (    0.12979730251    0.87886397023    0.11881792040  )
        27           Mg  tau(  27) = (    0.00084289534    0.74120089443    0.25605699585  )
        28           O   tau(  28) = (    0.12274067521    0.87172984417    0.37498548521  )
        29           Mg  tau(  29) = (   -0.00554357760    0.75519464552    0.49466161940  )
        30           O   tau(  30) = (    0.13101341673    0.87996356930    0.61081882116  )
        31           Mg  tau(  31) = (   -0.01641251838    0.75605039120    0.75412771487  )
        32           O   tau(  32) = (    0.12587593068    0.88621400037    0.87272496262  )
        33           Mg  tau(  33) = (    0.25953017865   -0.00411309390   -0.00701403060  )
        34           O   tau(  34) = (    0.37338380923    0.13209456768    0.12234390091  )
        35           Mg  tau(  35) = (    0.24279638251    0.00766332003    0.25337228477  )
        36           O   tau(  36) = (    0.37958988046    0.11579609259    0.38178826801  )
        37           Mg  tau(  37) = (    0.25250338248    0.00969676469    0.48992800727  )
        38           O   tau(  38) = (    0.36663151565    0.12828102666    0.63281175279  )
        39           Mg  tau(  39) = (    0.24457095832    0.00297187595    0.75370354312  )
        40           O   tau(  40) = (    0.38261683969    0.12730500978    0.87145119750  )
        41           Mg  tau(  41) = (    0.26664886610    0.24283121437   -0.00475367946  )
        42           O   tau(  42) = (    0.37837005768    0.38348481853    0.12760414674  )
        43           Mg  tau(  43) = (    0.26378115853    0.24582631883    0.24430387796  )
        44           O   tau(  44) = (    0.37786999064    0.38370458778    0.36381788027  )
        45           Mg  tau(  45) = (    0.25189259781    0.24498889094    0.49453589755  )
        46           O   tau(  46) = (    0.36620124852    0.37597206950    0.62742898612  )
        47           Mg  tau(  47) = (    0.25359557033    0.25562384896    0.73574958203  )
        48           O   tau(  48) = (    0.37919726041    0.38205633666    0.86959494265  )
        49           Mg  tau(  49) = (    0.25820277751    0.49892878003   -0.00314864166  )
        50           O   tau(  50) = (    0.37550285395    0.61641308438    0.13065154446  )
        51           Mg  tau(  51) = (    0.24264635749    0.50139356292    0.25697589485  )
        52           O   tau(  52) = (    0.38480203341    0.61683609698    0.37404726949  )
        53           Mg  tau(  53) = (    0.25594462924    0.49817302165    0.50056157062  )
        54           O   tau(  54) = (    0.37056070529    0.61759901984    0.63591875881  )
        55           Mg  tau(  55) = (    0.25538440402    0.50589067376    0.75240312520  )
        56           O   tau(  56) = (    0.36909291792    0.62558916470    0.87467105481  )
        57           Mg  tau(  57) = (    0.24257804070    0.75921107896   -0.00208598153  )
        58           O   tau(  58) = (    0.36356598485    0.88251022382    0.12921868228  )
        59           Mg  tau(  59) = (    0.25093502089    0.75240169745    0.25379781580  )
        60           O   tau(  60) = (    0.37125369552    0.88843866080    0.37403503096  )
        61           Mg  tau(  61) = (    0.26069319589    0.74525843564    0.49609600025  )
        62           O   tau(  62) = (    0.36707246463    0.88631475144    0.62366985351  )
        63           Mg  tau(  63) = (    0.25218863130    0.75163516816    0.74066886765  )
        64           O   tau(  64) = (    0.36743660779    0.87366702958    0.88598578539  )
        65           Mg  tau(  65) = (    0.49857765524    0.00044392948    0.00034395561  )
        66           O   tau(  66) = (    0.62082174168    0.13508753674    0.12026088176  )
        67           Mg  tau(  67) = (    0.49433552036    0.00696646607    0.24885947165  )
        68           O   tau(  68) = (    0.62110955367    0.12483855795    0.36674612790  )
        69           Mg  tau(  69) = (    0.50270118437   -0.00350534608    0.50380337540  )
        70           O   tau(  70) = (    0.62004936354    0.11777487890    0.62906329118  )
        71           Mg  tau(  71) = (    0.49171666493    0.01439451649    0.74787085550  )
        72           O   tau(  72) = (    0.62919132586    0.12277321723    0.87978890262  )
        73           Mg  tau(  73) = (    0.49815763495    0.24146627671    0.01179215781  )
        74           O   tau(  74) = (    0.63240003399    0.37836597518    0.11905809279  )
        75           Mg  tau(  75) = (    0.50958765749    0.23846303671    0.25055383792  )
        76           O   tau(  76) = (    0.62837312201    0.37545924618    0.36229411323  )
        77           Mg  tau(  77) = (    0.50270188870    0.25920288614    0.49809755680  )
        78           O   tau(  78) = (    0.62102533969    0.38055475764    0.62754148343  )
        79           Mg  tau(  79) = (    0.50666536544    0.25454771339    0.75315347374  )
        80           O   tau(  80) = (    0.62250333263    0.37952441247    0.86902118742  )
        81           Mg  tau(  81) = (    0.50247945161    0.49622303776    0.00990106202  )
        82           O   tau(  82) = (    0.62672033823    0.62946047320    0.13114040126  )
        83           Mg  tau(  83) = (    0.50556103268    0.50000389462    0.24494996099  )
        84           O   tau(  84) = (    0.61967160212    0.63614886205    0.37564882264  )
        85           Mg  tau(  85) = (    0.49417963801    0.49663623139    0.50300812539  )
        86           O   tau(  86) = (    0.62116093810    0.62767568605    0.61732066395  )
        87           Mg  tau(  87) = (    0.49626139469    0.49146422892    0.76053233810  )
        88           O   tau(  88) = (    0.62040184058    0.62997140663    0.88156543604  )
        89           Mg  tau(  89) = (    0.51044439615    0.74517736652   -0.00500099813  )
        90           O   tau(  90) = (    0.62967965817    0.87014318196    0.12012533383  )
        91           Mg  tau(  91) = (    0.51153077191    0.74956062624    0.24652817253  )
        92           O   tau(  92) = (    0.61966453384    0.87530395784    0.37186780410  )
        93           Mg  tau(  93) = (    0.49619933976    0.76000856769    0.49136930837  )
        94           O   tau(  94) = (    0.61314887692    0.87617691213    0.63368769614  )
        95           Mg  tau(  95) = (    0.50982552573    0.73882080221    0.75249949993  )
        96           O   tau(  96) = (    0.62797320526    0.86858856093    0.87818335002  )
        97           Mg  tau(  97) = (    0.74572823874    0.01262664414   -0.00819417953  )
        98           O   tau(  98) = (    0.87147407943    0.12339982380    0.12884486884  )
        99           Mg  tau(  99) = (    0.75397156697   -0.00133201136    0.24086670757  )
       100           O   tau( 100) = (    0.87464178480    0.13008882623    0.38143883607  )
       101           Mg  tau( 101) = (    0.74901378622    0.00433077102    0.49268381575  )
       102           O   tau( 102) = (    0.87486970266    0.12046065514    0.62693272642  )
       103           Mg  tau( 103) = (    0.75094966010   -0.00013465990    0.74044417616  )
       104           O   tau( 104) = (    0.86823842181    0.12708159745    0.87867302315  )
       105           Mg  tau( 105) = (    0.74746940482    0.26396026769   -0.00835610460  )
       106           O   tau( 106) = (    0.87514021785    0.37868740411    0.11867639267  )
       107           Mg  tau( 107) = (    0.73531933852    0.25232942374    0.25766583511  )
       108           O   tau( 108) = (    0.88315441254    0.37794726234    0.36903868369  )
       109           Mg  tau( 109) = (    0.75276584857    0.24351494946    0.49579744929  )
       110           O   tau( 110) = (    0.87904343515    0.36389183663    0.63268626545  )
       111           Mg  tau( 111) = (    0.75322758986    0.25156663467    0.74857404634  )
       112           O   tau( 112) = (    0.87661026452    0.37187593057    0.88270452533  )
       113           Mg  tau( 113) = (    0.74009630042    0.50424336008   -0.00203915702  )
       114           O   tau( 114) = (    0.87729514070    0.61807054802    0.12276284314  )
       115           Mg  tau( 115) = (    0.73429642186    0.50364389558    0.25439159077  )
       116           O   tau( 116) = (    0.88094752274    0.62990899264    0.36737314795  )
       117           Mg  tau( 117) = (    0.73972165412    0.50103020236    0.50252042669  )
       118           O   tau( 118) = (    0.87030613747    0.62087418494    0.62735399602  )
       119           Mg  tau( 119) = (    0.74098698388    0.51106651040    0.75068225654  )
       120           O   tau( 120) = (    0.87938362574    0.61432485281    0.87972750868  )
       121           Mg  tau( 121) = (    0.75388872523    0.75517268342    0.00355529495  )
       122           O   tau( 122) = (    0.87971527850    0.87150876473    0.11909536455  )
       123           Mg  tau( 123) = (    0.75015161197    0.74026760740    0.25662940149  )
       124           O   tau( 124) = (    0.87840232197    0.86924349707    0.37289402092  )
       125           Mg  tau( 125) = (    0.75292257231    0.74173361148    0.50656434372  )
       126           O   tau( 126) = (    0.88520260807    0.86591081494    0.62586485670  )
       127           Mg  tau( 127) = (    0.74043791905    0.75301285650    0.75195061727  )
       128           O   tau( 128) = (    0.87742049475    0.86833450550    0.88375286923  )

     number of k points=     8  gaussian smearing, width (Ry)=  0.0050
                       cart. coord. in units 2pi/alat
        k(    1) = (   0.0000000   0.0000000   0.0000000), wk =   0.2500000
        k(    2) = (  -0.3552558  -0.3552768   0.3518560), wk =   0.2500000
        k(    3) = (  -0.3503539   0.3521126  -0.3551109), wk =   0.2500000
        k(    4) = (  -0.7056098  -0.0031642  -0.0032549), wk =   0.2500000
        k(    5) = (   0.3481959  -0.3523355  -0.3516185), wk =   0.2500000
        k(    6) = (  -0.0070599  -0.7076123   0.0002375), wk =   0.2500000
        k(    7) = (  -0.0021580  -0.0002229  -0.7067294), wk =   0.2500000
        k(    8) = (  -0.3574138  -0.3554997  -0.3548734), wk =   0.2500000

                       cryst. coord.
        k(    1) = (   0.0000000   0.0000000   0.0000000), wk =   0.2500000
        k(    2) = (  -0.0000000  -0.0000000  -0.5000000), wk =   0.2500000
        k(    3) = (   0.0000000  -0.5000000   0.0000000), wk =   0.2500000
        k(    4) = (  -0.0000000  -0.5000000  -0.5000000), wk =   0.2500000
        k(    5) = (  -0.5000000   0.0000000   0.0000000), wk =   0.2500000
        k(    6) = (  -0.5000000  -0.0000000  -0.5000000), wk =   0.2500000
        k(    7) = (  -0.5000000  -0.5000000   0.0000000), wk =   0.2500000
        k(    8) = (  -0.5000000  -0.5000000  -0.5000000), wk =   0.2500000

     Dense  grid:   399349 G-vectors     FFT dimensions: ( 108, 108, 108)

     Smooth grid:   285723 G-vectors     FFT dimensions: (  96,  96,  96)

     Largest allocated arrays     est. size (Mb)     dimensions
        Kohn-Sham Wavefunctions        42.06 Mb     (    4489,  614)
        NL pseudopotentials           140.28 Mb     (    4489, 2048)
        Each V/rho on FFT grid          2.49 Mb     (  163296)
        Each G-vector array             0.38 Mb     (   49919)
        G-vector shells                 0.38 Mb     (   49345)
     Largest temporary arrays     est. size (Mb)     dimensions
        Auxiliary wavefunctions       168.23 Mb     (    4489, 2456)
        Each subspace H/S matrix       92.04 Mb     (    2456, 2456)
        Each <psi_i|beta_j> matrix     19.19 Mb     (    2048,  614)
        Arrays for rho mixing          19.93 Mb     (  163296,    8)

     Check: negative/imaginary core charge=   -0.000003    0.000000

     Initial potential from superposition of free atoms

     starting charge 1004.78535, renormalised to 1024.00000
     Starting wfc are  576 randomized atomic wfcs +   38 random wfc

     total cpu time spent up to now is      713.2 secs

     Self-consistent Calculation

     iteration #  1     ecut=    40.00 Ry     beta=0.30
     Davidson diagonalization with overlap
     ethr =  1.00E-02,  avg # of iterations =  5.3

     total cpu time spent up to now is     4079.9 secs

     total energy              =  -10089.61434721 Ry
     Harris-Foulkes estimate   =  -10094.11127813 Ry
     estimated scf accuracy    <      22.81551343 Ry

     iteration #  2     ecut=    40.00 Ry     beta=0.30
     Davidson diagonalization with overlap
     ethr =  2.23E-03,  avg # of iterations =  1.0

     total cpu time spent up to now is     5883.6 secs

     total energy              =  -10085.22898520 Ry
     Harris-Foulkes estimate   =  -10090.14798236 Ry
     estimated scf accuracy    <      10.76681769 Ry

     iteration #  3     ecut=    40.00 Ry     beta=0.30
     Davidson diagonalization with overlap
     ethr =  1.05E-03,  avg # of iterations =  2.1

     total cpu time spent up to now is     8092.1 secs

     total energy              =  -10086.11606637 Ry
     Harris-Foulkes estimate   =  -10086.80751931 Ry
     estimated scf accuracy    <       1.38389960 Ry

     iteration #  4     ecut=    40.00 Ry     beta=0.30
     Davidson diagonalization with overlap
     ethr =  1.35E-04,  avg # of iterations =  6.6

     total cpu time spent up to now is    10624.1 secs

     total energy              =  -10086.05759992 Ry
     Harris-Foulkes estimate   =  -10086.20279574 Ry
     estimated scf accuracy    <       0.26995476 Ry

     iteration #  5     ecut=    40.00 Ry     beta=0.30
     Davidson diagonalization with overlap
     ethr =  2.64E-05,  avg # of iterations =  6.0

     total cpu time spent up to now is    13266.0 secs

     total energy              =  -10086.07201105 Ry
     Harris-Foulkes estimate   =  -10086.08445201 Ry
     estimated scf accuracy    <       0.05884014 Ry

     iteration #  6     ecut=    40.00 Ry     beta=0.30
     Davidson diagonalization with overlap
     ethr =  5.75E-06,  avg # of iterations =  5.4

     total cpu time spent up to now is    16129.8 secs

     total energy              =  -10086.07295978 Ry
     Harris-Foulkes estimate   =  -10086.07961985 Ry
     estimated scf accuracy    <       0.03181534 Ry

     iteration #  7     ecut=    40.00 Ry     beta=0.30
     Davidson diagonalization with overlap
     ethr =  3.11E-06,  avg # of iterations =  2.0

     total cpu time spent up to now is    18052.4 secs

     total energy              =  -10086.06946980 Ry
     Harris-Foulkes estimate   =  -10086.07484931 Ry
     estimated scf accuracy    <       0.01455135 Ry

     iteration #  8     ecut=    40.00 Ry     beta=0.30
     Davidson diagonalization with overlap
     ethr =  1.42E-06,  avg # of iterations =  6.8

     total cpu time spent up to now is    21082.1 secs

     total energy              =  -10086.06938556 Ry
     Harris-Foulkes estimate   =  -10086.07073730 Ry
     estimated scf accuracy    <       0.00526603 Ry

     iteration #  9     ecut=    40.00 Ry     beta=0.30
     Davidson diagonalization with overlap
     ethr =  5.14E-07,  avg # of iterations =  2.8

     total cpu time spent up to now is    23229.6 secs

     total energy              =  -10086.06914828 Ry
     Harris-Foulkes estimate   =  -10086.07019148 Ry
     estimated scf accuracy    <       0.00258809 Ry

     iteration # 10     ecut=    40.00 Ry     beta=0.30
     Davidson diagonalization with overlap
     ethr =  2.53E-07,  avg # of iterations =  4.5

     total cpu time spent up to now is    25918.0 secs

     total energy              =  -10086.06941405 Ry
     Harris-Foulkes estimate   =  -10086.06973612 Ry
     estimated scf accuracy    <       0.00086378 Ry

     iteration # 11     ecut=    40.00 Ry     beta=0.30
     Davidson diagonalization with overlap
     ethr =  8.44E-08,  avg # of iterations =  2.0

     total cpu time spent up to now is    28032.0 secs

     total energy              =  -10086.06953112 Ry
     Harris-Foulkes estimate   =  -10086.06954880 Ry
     estimated scf accuracy    <       0.00007773 Ry

     iteration # 12     ecut=    40.00 Ry     beta=0.30
     Davidson diagonalization with overlap
     ethr =  7.59E-09,  avg # of iterations =  2.0

     total cpu time spent up to now is    29906.9 secs

     total energy              =  -10086.06951293 Ry
     Harris-Foulkes estimate   =  -10086.06953599 Ry
     estimated scf accuracy    <       0.00004515 Ry

     iteration # 13     ecut=    40.00 Ry     beta=0.30
     Davidson diagonalization with overlap
     ethr =  4.41E-09,  avg # of iterations =  2.0

     total cpu time spent up to now is    32010.5 secs

     total energy              =  -10086.06951837 Ry
     Harris-Foulkes estimate   =  -10086.06951893 Ry
     estimated scf accuracy    <       0.00000632 Ry

     iteration # 14     ecut=    40.00 Ry     beta=0.30
     Davidson diagonalization with overlap
     ethr =  6.17E-10,  avg # of iterations =  2.0

     total cpu time spent up to now is    33838.2 secs

     total energy              =  -10086.06951804 Ry
     Harris-Foulkes estimate   =  -10086.06951869 Ry
     estimated scf accuracy    <       0.00000349 Ry

     iteration # 15     ecut=    40.00 Ry     beta=0.30
     Davidson diagonalization with overlap
     ethr =  3.41E-10,  avg # of iterations =  2.0

     total cpu time spent up to now is    35791.0 secs

     total energy              =  -10086.06951810 Ry
     Harris-Foulkes estimate   =  -10086.06951831 Ry
     estimated scf accuracy    <       0.00000121 Ry

     iteration # 16     ecut=    40.00 Ry     beta=0.30
     Davidson diagonalization with overlap
     ethr =  1.18E-10,  avg # of iterations =  1.0

     total cpu time spent up to now is    37538.0 secs

     total energy              =  -10086.06951785 Ry
     Harris-Foulkes estimate   =  -10086.06951813 Ry
     estimated scf accuracy    <       0.00000077 Ry

     iteration # 17     ecut=    40.00 Ry     beta=0.30
     Davidson diagonalization with overlap
     ethr =  7.52E-11,  avg # of iterations =  2.0

     total cpu time spent up to now is    39541.5 secs

     total energy              =  -10086.06951786 Ry
     Harris-Foulkes estimate   =  -10086.06951792 Ry
     estimated scf accuracy    <       0.00000024 Ry

     iteration # 18     ecut=    40.00 Ry     beta=0.30
     Davidson diagonalization with overlap
     ethr =  2.35E-11,  avg # of iterations =  2.0

     total cpu time spent up to now is    41441.0 secs

     total energy              =  -10086.06951786 Ry
     Harris-Foulkes estimate   =  -10086.06951788 Ry
     estimated scf accuracy    <       0.00000007 Ry

     iteration # 19     ecut=    40.00 Ry     beta=0.30
     Davidson diagonalization with overlap
     ethr =  7.22E-12,  avg # of iterations =  2.0

     total cpu time spent up to now is    43611.0 secs

     total energy              =  -10086.06951787 Ry
     Harris-Foulkes estimate   =  -10086.06951787 Ry
     estimated scf accuracy    <       0.00000001 Ry

     iteration # 20     ecut=    40.00 Ry     beta=0.30
     Davidson diagonalization with overlap
     ethr =  1.44E-12,  avg # of iterations =  1.0

     total cpu time spent up to now is    45370.0 secs

     total energy              =  -10086.06951787 Ry
     Harris-Foulkes estimate   =  -10086.06951787 Ry
     estimated scf accuracy    <          9.1E-09 Ry

     iteration # 21     ecut=    40.00 Ry     beta=0.30
     Davidson diagonalization with overlap
     ethr =  8.88E-13,  avg # of iterations =  2.0

     total cpu time spent up to now is    47521.5 secs

     total energy              =  -10086.06951787 Ry
     Harris-Foulkes estimate   =  -10086.06951787 Ry
     estimated scf accuracy    <          1.7E-09 Ry

     iteration # 22     ecut=    40.00 Ry     beta=0.30
     Davidson diagonalization with overlap
     ethr =  1.71E-13,  avg # of iterations =  2.0

     total cpu time spent up to now is    49484.0 secs

     total energy              =  -10086.06951787 Ry
     Harris-Foulkes estimate   =  -10086.06951787 Ry
     estimated scf accuracy    <          8.1E-10 Ry

     iteration # 23     ecut=    40.00 Ry     beta=0.30
     Davidson diagonalization with overlap
     ethr =  1.00E-13,  avg # of iterations =  1.0

     total cpu time spent up to now is    51291.2 secs

     total energy              =  -10086.06951787 Ry
     Harris-Foulkes estimate   =  -10086.06951787 Ry
     estimated scf accuracy    <          4.9E-10 Ry

     iteration # 24     ecut=    40.00 Ry     beta=0.30
     Davidson diagonalization with overlap
     ethr =  1.00E-13,  avg # of iterations =  1.0

     total cpu time spent up to now is    53180.8 secs

     total energy              =  -10086.06951787 Ry
     Harris-Foulkes estimate   =  -10086.06951787 Ry
     estimated scf accuracy    <          2.5E-10 Ry

     iteration # 25     ecut=    40.00 Ry     beta=0.30
     Davidson diagonalization with overlap
     ethr =  1.00E-13,  avg # of iterations =  1.0

     total cpu time spent up to now is    54737.2 secs

     total energy              =  -10086.06951787 Ry
     Harris-Foulkes estimate   =  -10086.06951787 Ry
     estimated scf accuracy    <          1.3E-10 Ry

     iteration # 26     ecut=    40.00 Ry     beta=0.30
     Davidson diagonalization with overlap
     ethr =  1.00E-13,  avg # of iterations =  1.0

     total cpu time spent up to now is    56161.8 secs

     End of self-consistent calculation

          k = 0.0000 0.0000 0.0000 ( 35711 PWs)   bands (ev):

   -65.8210 -65.7226 -65.6131 -65.6015 -65.5102 -65.4831 -65.3995 -65.3977
   -65.3891 -65.2973 -65.1542 -65.1445 -65.1259 -65.0955 -65.0904 -65.0865
   -65.0847 -65.0395 -65.0335 -64.9579 -64.9365 -64.9189 -64.8961 -64.8937
   -64.8578 -64.8330 -64.8204 -64.7986 -64.7984 -64.7929 -64.7813 -64.7709
   -64.7532 -64.7247 -64.7173 -64.7116 -64.6954 -64.6430 -64.6338 -64.6297
   -64.5925 -64.5687 -64.5403 -64.5379 -64.5241 -64.4399 -64.4269 -64.4186
   -64.3276 -64.2777 -64.2532 -64.2242 -64.2052 -64.1946 -64.1637 -64.1355
   -64.0714 -64.0238 -63.9790 -63.9506 -63.9482 -63.8452 -63.8170 -63.6365
   -32.8056 -32.7969 -32.7784 -32.7113 -32.6985 -32.6905 -32.6094 -32.5958
   -32.5937 -32.5784 -32.5705 -32.5619 -32.5000 -32.4956 -32.4776 -32.4673
   -32.4590 -32.4391 -32.3975 -32.3911 -32.3808 -32.3758 -32.3726 -32.3678
   -32.3648 -32.3623 -32.3472 -32.2841 -32.2759 -32.2647 -32.1542 -32.1428
   -32.1361 -32.1353 -32.1174 -32.1161 -32.1086 -32.0972 -32.0929 -32.0848
   -32.0835 -32.0817 -32.0804 -32.0746 -32.0705 -32.0679 -32.0671 -32.0663
   -32.0605 -32.0524 -32.0511 -32.0287 -32.0274 -32.0150 -32.0090 -32.0052
   -31.9935 -31.9526 -31.9347 -31.9248 -31.9184 -31.9176 -31.9129 -31.9085
   -31.9039 -31.9031 -31.8967 -31.8930 -31.8775 -31.8721 -31.8587 -31.8559
   -31.8425 -31.8401 -31.8291 -31.8245 -31.8101 -31.8090 -31.8044 -31.8026
   -31.7974 -31.7938 -31.7931 -31.7887 -31.7823 -31.7776 -31.7744 -31.7722
   -31.7664 -31.7659 -31.7580 -31.7574 -31.7550 -31.7548 -31.7510 -31.7392
   -31.7361 -31.7359 -31.7183 -31.7101 -31.7090 -31.7066 -31.7008 -31.6961
   -31.6951 -31.6893 -31.6873 -31.6854 -31.6780 -31.6757 -31.6662 -31.6321
   -31.6304 -31.6269 -31.6174 -31.6152 -31.6091 -31.6074 -31.6041 -31.6008
   -31.5909 -31.5706 -31.5670 -31.5551 -31.5517 -31.5429 -31.5355 -31.5337
   -31.5336 -31.5254 -31.5195 -31.5144 -31.5073 -31.4975 -31.4907 -31.4288
   -31.4193 -31.4132 -31.4068 -31.4053 -31.4038 -31.4000 -31.3886 -31.3838
   -31.3306 -31.3093 -31.2972 -31.2662 -31.2636 -31.2547 -31.2524 -31.2297
   -31.2262 -31.2210 -31.2028 -31.1990 -31.1912 -31.1863 -31.1849 -31.1802
   -31.1768 -31.1725 -31.1545 -31.1475 -31.1347 -31.1311 -31.1134 -31.1027
   -31.0641 -31.0484 -31.0385 -31.0176 -31.0079 -30.9969 -30.9858 -30.9654
   -30.9465 -30.9414 -30.9365 -30.9328 -30.9252 -30.9179 -30.9164 -30.8398
   -30.8297 -30.8274 -30.8150 -30.8038 -30.7988 -30.6324 -30.6272 -30.6055
   -10.1354  -9.9366  -9.8113  -9.6686  -9.6283  -9.5236  -9.4552  -9.4284
    -9.3325  -9.2887  -9.2049  -9.1738  -9.1273  -9.0796  -9.0688  -9.0384
    -9.0004  -8.9785  -8.9542  -8.9092  -8.9015  -8.8530  -8.8428  -8.8001
    -8.7757  -8.7306  -8.7008  -8.6905  -8.6607  -8.6147  -8.5977  -8.5875
    -8.5690  -8.5115  -8.4858  -8.4526  -8.4317  -8.3861  -8.3249  -8.3183
    -8.3026  -8.2561  -8.2270  -8.1948  -8.1428  -8.1053  -8.0981  -8.0688
    -8.0576  -8.0102  -7.9377  -7.8928  -7.8280  -7.7877  -7.7473  -7.7053
    -7.6537  -7.6110  -7.5682  -7.5623  -7.4857  -7.4362  -7.3063  -7.2108
     2.4465   2.4523   2.5168   2.5481   2.8459   2.8894   2.9368   3.0108
     3.0749   3.0849   3.1519   3.1525   3.1802   3.2210   3.2268   3.2404
     3.3214   3.3521   3.3706   3.4265   3.4346   3.4526   3.4567   3.5070
     3.5289   3.5528   3.6183   3.6201   3.6495   3.6817   3.7075   3.7405
     3.7738   3.8157   3.8319   3.8649   3.8732   3.9249   3.9685   3.9805
     4.0001   4.0487   4.0705   4.2088   4.2378   4.2649   4.2856   4.2981
     4.2991   4.3379   4.3835   4.4096   4.4510   4.4745   4.4937   4.5207
     4.5280   4.5546   4.5585   4.5773   4.6155   4.6433   4.6897   4.7313
     4.7842   4.7924   4.8341   4.8560   4.9000   4.9159   4.9253   4.9596
     4.9947   5.0009   5.0147   5.0309   5.0701   5.0957   5.1136   5.1441
     5.1606   5.1697   5.1757   5.1875   5.2086   5.2326   5.2597   5.2760
     5.2983   5.3382   5.3683   5.3764   5.4030   5.4194   5.4457   5.4485
     5.4969   5.5290   5.5369   5.5473   5.5788   5.5965   5.6166   5.6373
     5.6580   5.6679   5.6859   5.6954   5.7185   5.7426   5.7606   5.8267
     5.8443   5.8580   5.8681   5.8936   5.9093   5.9383   5.9724   5.9842
     6.0509   6.0653   6.0962   6.1291   6.1499   6.1762   6.1892   6.2143
     6.2389   6.2572   6.2772   6.3172   6.3286   6.3438   6.3546   6.3683
     6.3869   6.4038   6.4102   6.4314   6.4372   6.4632   6.4923   6.4973
     6.5122   6.5299   6.5436   6.5619   6.5825   6.6035   6.6128   6.6390
     6.6814   6.6942   6.6971   6.7053   6.7180   6.7488   6.7653   6.7838
     6.7997   6.8120   6.8460   6.8545   6.8811   6.9200   6.9271   6.9541
     6.9674   6.9949   7.0192   7.0407   7.0888   7.1172   7.1525   7.1792
     7.1849   7.2074   7.2245   7.2746   7.3060   7.3272   7.3686   7.4166
     7.4526   7.4691   7.5032   7.5178   7.5673   7.6766   7.8380   7.9778
    11.4115  13.3342  13.4564  13.4947  13.6482  13.7484  13.8258  13.9114
    14.0101  14.4489  14.5221  14.5958  14.6660  14.7425  14.7744  14.8376
    14.8825  14.9231  15.0315  15.3914  15.4938  15.5770  15.6379  15.7679
    15.8159  15.8386  15.8539  15.9382  15.9786  16.0232  16.0582  16.0850
    16.1187  16.1718  16.2063  16.2402  16.2778  16.3003  16.3328  16.4068
    16.4219  16.4496  16.4788  16.5194  16.5470  16.5654  16.5900  16.6091
    16.6638  16.6929  16.7137  16.7480  16.7663  16.7872  16.8266  16.9206
    16.9584  16.9970  17.0102  17.0844  17.1090  17.4700  17.5489  17.5794
    17.6430  17.7263  17.7514  17.7731  17.8083  17.8609  17.9089  17.9412
    17.9594  17.9892  18.0326  18.0712  18.0854  18.1082  18.1600  18.1756
    18.1911  18.2214  18.2357  18.2479  18.3113  18.3397  18.3568  18.3775
    18.3898  18.4059  18.4700  18.4854  18.5135  18.5299  18.5367  18.5610
    18.5993  18.6357  18.6550  18.6816  18.7260  18.7346

     occupation numbers 
     1.0000   1.0000   1.0000   1.0000   1.0000   1.0000   1.0000   1.0000
     1.0000   1.0000   1.0000   1.0000   1.0000   1.0000   1.0000   1.0000
     1.0000   1.0000   1.0000   1.0000   1.0000   1.0000   1.0000   1.0000
     1.0000   1.0000   1.0000   1.0000   1.0000   1.0000   1.0000   1.0000
     1.0000   1.0000   1.0000   1.0000   1.0000   1.0000   1.0000   1.0000
     1.0000   1.0000   1.0000   1.0000   1.0000   1.0000   1.0000   1.0000
     1.0000   1.0000   1.0000   1.0000   1.0000   1.0000   1.0000   1.0000
     1.0000   1.0000   1.0000   1.0000   1.0000   1.0000   1.0000   1.0000
     1.0000   1.0000   1.0000   1.0000   1.0000   1.0000   1.0000   1.0000
     1.0000   1.0000   1.0000   1.0000   1.0000   1.0000   1.0000   1.0000
     1.0000   1.0000   1.0000   1.0000   1.0000   1.0000   1.0000   1.0000
     1.0000   1.0000   1.0000   1.0000   1.0000   1.0000   1.0000   1.0000
     1.0000   1.0000   1.0000   1.0000   1.0000   1.0000   1.0000   1.0000
     1.0000   1.0000   1.0000   1.0000   1.0000   1.0000   1.0000   1.0000
     1.0000   1.0000   1.0000   1.0000   1.0000   1.0000   1.0000   1.0000
     1.0000   1.0000   1.0000   1.0000   1.0000   1.0000   1.0000   1.0000
     1.0000   1.0000   1.0000   1.0000   1.0000   1.0000   1.0000   1.0000
     1.0000   1.0000   1.0000   1.0000   1.0000   1.0000   1.0000   1.0000
     1.0000   1.0000   1.0000   1.0000   1.0000   1.0000   1.0000   1.0000
     1.0000   1.0000   1.0000   1.0000   1.0000   1.0000   1.0000   1.0000
     1.0000   1.0000   1.0000   1.0000   1.0000   1.0000   1.0000   1.0000
     1.0000   1.0000   1.0000   1.0000   1.0000   1.0000   1.0000   1.0000
     1.0000   1.0000   1.0000   1.0000   1.0000   1.0000   1.0000   1.0000
     1.0000   1.0000   1.0000   1.0000   1.0000   1.0000   1.0000   1.0000
     1.0000   1.0000   1.0000   1.0000   1.0000   1.0000   1.0000   1.0000
     1.0000   1.0000   1.0000   1.0000   1.0000   1.0000   1.0000   1.0000
     1.0000   1.0000   1.0000   1.0000   1.0000   1.0000   1.0000   1.0000
     1.0000   1.0000   1.0000   1.0000   1.0000   1.0000   1.0000   1.0000
     1.0000   1.0000   1.0000   1.0000   1.0000   1.0000   1.0000   1.0000
     1.0000   1.0000   1.0000   1.0000   1.0000   1.0000   1.0000   1.0000
     1.0000   1.0000   1.0000   1.0000   1.0000   1.0000   1.0000   1.0000
     1.0000   1.0000   1.0000   1.0000   1.0000   1.0000   1.0000   1.0000
     1.0000   1.0000   1.0000   1.0000   1.0000   1.0000   1.0000   1.0000
     1.0000   1.0000   1.0000   1.0000   1.0000   1.0000   1.0000   1.0000
     1.0000   1.0000   1.0000   1.0000   1.0000   1.0000   1.0000   1.0000
     1.0000   1.0000   1.0000   1.0000   1.0000   1.0000   1.0000   1.0000
     1.0000   1.0000   1.0000   1.0000   1.0000   1.0000   1.0000   1.0000
     1.0000   1.0000   1.0000   1.0000   1.0000   1.0000   1.0000   1.0000
     1.0000   1.0000   1.0000   1.0000   1.0000   1.0000   1.0000   1.0000
     1.0000   1.0000   1.0000   1.0000   1.0000   1.0000   1.0000   1.0000
     1.0000   1.0000   1.0000   1.0000   1.0000   1.0000   1.0000   1.0000
     1.0000   1.0000   1.0000   1.0000   1.0000   1.0000   1.0000   1.0000
     1.0000   1.0000   1.0000   1.0000   1.0000   1.0000   1.0000   1.0000
     1.0000   1.0000   1.0000   1.0000   1.0000   1.0000   1.0000   1.0000
     1.0000   1.0000   1.0000   1.0000   1.0000   1.0000   1.0000   1.0000
     1.0000   1.0000   1.0000   1.0000   1.0000   1.0000   1.0000   1.0000
     1.0000   1.0000   1.0000   1.0000   1.0000   1.0000   1.0000   1.0000
     1.0000   1.0000   1.0000   1.0000   1.0000   1.0000   1.0000   1.0000
     1.0000   1.0000   1.0000   1.0000   1.0000   1.0000   1.0000   1.0000
     1.0000   1.0000   1.0000   1.0000   1.0000   1.0000   1.0000   1.0000
     1.0000   1.0000   1.0000   1.0000   1.0000   1.0000   1.0000   1.0000
     1.0000   1.0000   1.0000   1.0000   1.0000   1.0000   1.0000   1.0000
     1.0000   1.0000   1.0000   1.0000   1.0000   1.0000   1.0000   1.0000
     1.0000   1.0000   1.0000   1.0000   1.0000   1.0000   1.0000   1.0000
     1.0000   1.0000   1.0000   1.0000   1.0000   1.0000   1.0000   1.0000
     1.0000   1.0000   1.0000   1.0000   1.0000   1.0000   1.0000   1.0000
     1.0000   1.0000   1.0000   1.0000   1.0000   1.0000   1.0000   1.0000
     1.0000   1.0000   1.0000   1.0000   1.0000   1.0000   1.0000   1.0000
     1.0000   1.0000   1.0000   1.0000   1.0000   1.0000   1.0000   1.0000
     1.0000   1.0000   1.0000   1.0000   1.0000   1.0000   1.0000   1.0000
     1.0000   1.0000   1.0000   1.0000   1.0000   1.0000   1.0000   1.0000
     1.0000   1.0000   1.0000   1.0000   1.0000   1.0000   1.0000   1.0000
     1.0000   1.0000   1.0000   1.0000   1.0000   1.0000   1.0000   1.0000
     1.0000   1.0000   1.0000   1.0000   1.0000   1.0000   1.0000   1.0000
     0.0000   0.0000   0.0000   0.0000   0.0000   0.0000   0.0000   0.0000
     0.0000   0.0000   0.0000   0.0000   0.0000   0.0000   0.0000   0.0000
     0.0000   0.0000   0.0000   0.0000   0.0000   0.0000   0.0000   0.0000
     0.0000   0.0000   0.0000   0.0000   0.0000   0.0000   0.0000   0.0000
     0.0000   0.0000   0.0000   0.0000   0.0000   0.0000   0.0000   0.0000
     0.0000   0.0000   0.0000   0.0000   0.0000   0.0000   0.0000   0.0000
     0.0000   0.0000   0.0000   0.0000   0.0000   0.0000   0.0000   0.0000
     0.0000   0.0000   0.0000   0.0000   0.0000   0.0000   0.0000   0.0000
     0.0000   0.0000   0.0000   0.0000   0.0000   0.0000   0.0000   0.0000
     0.0000   0.0000   0.0000   0.0000   0.0000   0.0000   0.0000   0.0000
     0.0000   0.0000   0.0000   0.0000   0.0000   0.0000   0.0000   0.0000
     0.0000   0.0000   0.0000   0.0000   0.0000   0.0000   0.0000   0.0000
     0.0000   0.0000   0.0000   0.0000   0.0000   0.0000

          k =-0.3553-0.3553 0.3519 ( 35690 PWs)   bands (ev):

   -65.8210 -65.7226 -65.6131 -65.6015 -65.5102 -65.4831 -65.3995 -65.3977
   -65.3891 -65.2973 -65.1542 -65.1445 -65.1259 -65.0955 -65.0904 -65.0865
   -65.0847 -65.0395 -65.0335 -64.9579 -64.9365 -64.9189 -64.8961 -64.8937
   -64.8578 -64.8330 -64.8204 -64.7986 -64.7984 -64.7929 -64.7813 -64.7709
   -64.7532 -64.7247 -64.7173 -64.7116 -64.6954 -64.6430 -64.6338 -64.6297
   -64.5925 -64.5687 -64.5403 -64.5379 -64.5241 -64.4399 -64.4269 -64.4186
   -64.3276 -64.2777 -64.2532 -64.2242 -64.2052 -64.1946 -64.1637 -64.1355
   -64.0714 -64.0238 -63.9790 -63.9506 -63.9482 -63.8452 -63.8170 -63.6365
   -32.8056 -32.7969 -32.7784 -32.7113 -32.6985 -32.6905 -32.6094 -32.5958
   -32.5937 -32.5784 -32.5705 -32.5619 -32.5000 -32.4956 -32.4776 -32.4673
   -32.4590 -32.4391 -32.3975 -32.3911 -32.3808 -32.3758 -32.3726 -32.3678
   -32.3648 -32.3623 -32.3472 -32.2841 -32.2759 -32.2647 -32.1542 -32.1428
   -32.1361 -32.1353 -32.1174 -32.1161 -32.1086 -32.0972 -32.0929 -32.0848
   -32.0835 -32.0817 -32.0804 -32.0746 -32.0705 -32.0679 -32.0671 -32.0663
   -32.0605 -32.0524 -32.0511 -32.0288 -32.0274 -32.0150 -32.0090 -32.0052
   -31.9935 -31.9526 -31.9347 -31.9248 -31.9184 -31.9176 -31.9130 -31.9085
   -31.9039 -31.9031 -31.8966 -31.8930 -31.8775 -31.8721 -31.8587 -31.8559
   -31.8425 -31.8401 -31.8291 -31.8245 -31.8101 -31.8090 -31.8044 -31.8026
   -31.7974 -31.7937 -31.7931 -31.7887 -31.7823 -31.7776 -31.7744 -31.7722
   -31.7664 -31.7659 -31.7580 -31.7574 -31.7550 -31.7547 -31.7510 -31.7392
   -31.7361 -31.7359 -31.7183 -31.7101 -31.7090 -31.7066 -31.7008 -31.6961
   -31.6951 -31.6893 -31.6873 -31.6854 -31.6780 -31.6757 -31.6662 -31.6321
   -31.6304 -31.6269 -31.6174 -31.6152 -31.6091 -31.6074 -31.6041 -31.6008
   -31.5909 -31.5706 -31.5670 -31.5551 -31.5517 -31.5429 -31.5355 -31.5337
   -31.5336 -31.5254 -31.5195 -31.5144 -31.5073 -31.4975 -31.4906 -31.4288
   -31.4193 -31.4132 -31.4068 -31.4053 -31.4038 -31.4000 -31.3886 -31.3838
   -31.3306 -31.3093 -31.2972 -31.2662 -31.2636 -31.2547 -31.2523 -31.2297
   -31.2262 -31.2210 -31.2028 -31.1991 -31.1912 -31.1863 -31.1849 -31.1802
   -31.1768 -31.1725 -31.1545 -31.1475 -31.1347 -31.1311 -31.1134 -31.1027
   -31.0641 -31.0484 -31.0385 -31.0176 -31.0079 -30.9969 -30.9858 -30.9654
   -30.9465 -30.9414 -30.9365 -30.9328 -30.9252 -30.9179 -30.9164 -30.8398
   -30.8297 -30.8274 -30.8150 -30.8038 -30.7988 -30.6324 -30.6272 -30.6055
   -10.0710 -10.0143  -9.8193  -9.6862  -9.6561  -9.5088  -9.4536  -9.3733
    -9.3234  -9.2342  -9.2172  -9.1706  -9.1480  -9.1038  -9.0649  -9.0281
    -9.0157  -8.9956  -8.9835  -8.9318  -8.8956  -8.8489  -8.8425  -8.7648
    -8.7404  -8.7185  -8.6891  -8.6642  -8.6492  -8.6362  -8.6158  -8.6046
    -8.5585  -8.5097  -8.4934  -8.4796  -8.4322  -8.3934  -8.3300  -8.3207
    -8.3057  -8.2466  -8.2276  -8.1971  -8.1416  -8.1143  -8.0932  -8.0823
    -8.0490  -7.9759  -7.9455  -7.9284  -7.8227  -7.7828  -7.7265  -7.7130
    -7.6491  -7.6058  -7.5892  -7.5561  -7.4979  -7.4241  -7.3061  -7.2096
     2.6049   2.6685   2.7098   2.7356   2.7638   2.8245   2.8800   2.9366
     3.0183   3.0543   3.1013   3.1124   3.1518   3.2036   3.2158   3.2589
     3.2807   3.3509   3.4199   3.4233   3.4580   3.4667   3.4756   3.5106
     3.5246   3.5653   3.5796   3.5984   3.6182   3.6623   3.6966   3.6981
     3.7364   3.7637   3.7963   3.8037   3.8331   3.8364   3.8934   3.9060
     3.9596   3.9931   4.0257   4.0516   4.1084   4.1220   4.1446   4.1680
     4.1957   4.2246   4.2697   4.2868   4.3778   4.3858   4.3969   4.4497
     4.5280   4.6200   4.6354   4.6638   4.6913   4.6986   4.7395   4.7508
     4.7712   4.7845   4.8308   4.8435   4.8651   4.8737   4.9202   4.9345
     4.9622   4.9989   5.0184   5.0430   5.0785   5.0944   5.1574   5.1913
     5.1987   5.2204   5.2426   5.2792   5.2971   5.3104   5.3631   5.3848
     5.3965   5.4358   5.4407   5.4788   5.4909   5.5058   5.5367   5.5579
     5.5844   5.5956   5.6414   5.6579   5.7046   5.7417   5.7560   5.7751
     5.7927   5.7937   5.8321   5.8449   5.8589   5.8754   5.8905   5.9119
     5.9279   5.9640   5.9714   6.0021   6.0059   6.0240   6.0577   6.0753
     6.0899   6.1017   6.1169   6.1252   6.1390   6.1592   6.1696   6.1835
     6.1937   6.2007   6.2177   6.2428   6.2491   6.2540   6.2952   6.3031
     6.3288   6.3346   6.3465   6.3880   6.4121   6.4373   6.4397   6.4485
     6.4571   6.4833   6.5150   6.5364   6.5575   6.5653   6.5885   6.6180
     6.6275   6.6560   6.6687   6.7088   6.7296   6.7397   6.7561   6.7889
     6.7958   6.8104   6.8322   6.8483   6.8698   6.8789   6.8994   6.9094
     6.9424   6.9528   7.0072   7.0230   7.0495   7.0612   7.0784   7.1054
     7.1279   7.1445   7.1804   7.1856   7.2349   7.2558   7.2788   7.3419
     7.3742   7.3803   7.4264   7.4779   7.5153   7.5945   7.6434   7.9651
    12.1253  12.4839  13.4056  13.5314  13.8878  13.9343  14.0770  14.1671
    14.2575  14.4301  14.5450  14.5849  14.7391  14.7963  14.8191  14.8830
    14.9392  15.0347  15.2398  15.3110  15.4454  15.5986  15.6302  15.6634
    15.7128  15.7407  15.7872  15.8143  15.8980  15.9120  15.9376  15.9698
    16.0611  16.1087  16.1306  16.1757  16.2450  16.2852  16.3212  16.3792
    16.4316  16.4574  16.4743  16.5047  16.5513  16.5921  16.6407  16.7014
    16.7471  16.8232  16.8669  16.9211  16.9309  16.9483  16.9707  17.0714
    17.0898  17.1284  17.1784  17.2351  17.2865  17.3065  17.3422  17.3725
    17.4508  17.4906  17.5933  17.6033  17.6420  17.6543  17.7232  17.8006
    17.8363  17.8461  17.8608  17.9220  17.9564  18.0284  18.0371  18.0560
    18.1317  18.1599  18.1878  18.2245  18.2663  18.2737  18.3372  18.3763
    18.3972  18.4211  18.4264  18.4436  18.4809  18.5161  18.5352  18.5839
    18.6159  18.6302  18.6605  18.6934  18.7193  18.7555

     occupation numbers 
     1.0000   1.0000   1.0000   1.0000   1.0000   1.0000   1.0000   1.0000
     1.0000   1.0000   1.0000   1.0000   1.0000   1.0000   1.0000   1.0000
     1.0000   1.0000   1.0000   1.0000   1.0000   1.0000   1.0000   1.0000
     1.0000   1.0000   1.0000   1.0000   1.0000   1.0000   1.0000   1.0000
     1.0000   1.0000   1.0000   1.0000   1.0000   1.0000   1.0000   1.0000
     1.0000   1.0000   1.0000   1.0000   1.0000   1.0000   1.0000   1.0000
     1.0000   1.0000   1.0000   1.0000   1.0000   1.0000   1.0000   1.0000
     1.0000   1.0000   1.0000   1.0000   1.0000   1.0000   1.0000   1.0000
     1.0000   1.0000   1.0000   1.0000   1.0000   1.0000   1.0000   1.0000
     1.0000   1.0000   1.0000   1.0000   1.0000   1.0000   1.0000   1.0000
     1.0000   1.0000   1.0000   1.0000   1.0000   1.0000   1.0000   1.0000
     1.0000   1.0000   1.0000   1.0000   1.0000   1.0000   1.0000   1.0000
     1.0000   1.0000   1.0000   1.0000   1.0000   1.0000   1.0000   1.0000
     1.0000   1.0000   1.0000   1.0000   1.0000   1.0000   1.0000   1.0000
     1.0000   1.0000   1.0000   1.0000   1.0000   1.0000   1.0000   1.0000
     1.0000   1.0000   1.0000   1.0000   1.0000   1.0000   1.0000   1.0000
     1.0000   1.0000   1.0000   1.0000   1.0000   1.0000   1.0000   1.0000
     1.0000   1.0000   1.0000   1.0000   1.0000   1.0000   1.0000   1.0000
     1.0000   1.0000   1.0000   1.0000   1.0000   1.0000   1.0000   1.0000
     1.0000   1.0000   1.0000   1.0000   1.0000   1.0000   1.0000   1.0000
     1.0000   1.0000   1.0000   1.0000   1.0000   1.0000   1.0000   1.0000
     1.0000   1.0000   1.0000   1.0000   1.0000   1.0000   1.0000   1.0000
     1.0000   1.0000   1.0000   1.0000   1.0000   1.0000   1.0000   1.0000
     1.0000   1.0000   1.0000   1.0000   1.0000   1.0000   1.0000   1.0000
     1.0000   1.0000   1.0000   1.0000   1.0000   1.0000   1.0000   1.0000
     1.0000   1.0000   1.0000   1.0000   1.0000   1.0000   1.0000   1.0000
     1.0000   1.0000   1.0000   1.0000   1.0000   1.0000   1.0000   1.0000
     1.0000   1.0000   1.0000   1.0000   1.0000   1.0000   1.0000   1.0000
     1.0000   1.0000   1.0000   1.0000   1.0000   1.0000   1.0000   1.0000
     1.0000   1.0000   1.0000   1.0000   1.0000   1.0000   1.0000   1.0000
     1.0000   1.0000   1.0000   1.0000   1.0000   1.0000   1.0000   1.0000
     1.0000   1.0000   1.0000   1.0000   1.0000   1.0000   1.0000   1.0000
     1.0000   1.0000   1.0000   1.0000   1.0000   1.0000   1.0000   1.0000
     1.0000   1.0000   1.0000   1.0000   1.0000   1.0000   1.0000   1.0000
     1.0000   1.0000   1.0000   1.0000   1.0000   1.0000   1.0000   1.0000
     1.0000   1.0000   1.0000   1.0000   1.0000   1.0000   1.0000   1.0000
     1.0000   1.0000   1.0000   1.0000   1.0000   1.0000   1.0000   1.0000
     1.0000   1.0000   1.0000   1.0000   1.0000   1.0000   1.0000   1.0000
     1.0000   1.0000   1.0000   1.0000   1.0000   1.0000   1.0000   1.0000
     1.0000   1.0000   1.0000   1.0000   1.0000   1.0000   1.0000   1.0000
     1.0000   1.0000   1.0000   1.0000   1.0000   1.0000   1.0000   1.0000
     1.0000   1.0000   1.0000   1.0000   1.0000   1.0000   1.0000   1.0000
     1.0000   1.0000   1.0000   1.0000   1.0000   1.0000   1.0000   1.0000
     1.0000   1.0000   1.0000   1.0000   1.0000   1.0000   1.0000   1.0000
     1.0000   1.0000   1.0000   1.0000   1.0000   1.0000   1.0000   1.0000
     1.0000   1.0000   1.0000   1.0000   1.0000   1.0000   1.0000   1.0000
     1.0000   1.0000   1.0000   1.0000   1.0000   1.0000   1.0000   1.0000
     1.0000   1.0000   1.0000   1.0000   1.0000   1.0000   1.0000   1.0000
     1.0000   1.0000   1.0000   1.0000   1.0000   1.0000   1.0000   1.0000
     1.0000   1.0000   1.0000   1.0000   1.0000   1.0000   1.0000   1.0000
     1.0000   1.0000   1.0000   1.0000   1.0000   1.0000   1.0000   1.0000
     1.0000   1.0000   1.0000   1.0000   1.0000   1.0000   1.0000   1.0000
     1.0000   1.0000   1.0000   1.0000   1.0000   1.0000   1.0000   1.0000
     1.0000   1.0000   1.0000   1.0000   1.0000   1.0000   1.0000   1.0000
     1.0000   1.0000   1.0000   1.0000   1.0000   1.0000   1.0000   1.0000
     1.0000   1.0000   1.0000   1.0000   1.0000   1.0000   1.0000   1.0000
     1.0000   1.0000   1.0000   1.0000   1.0000   1.0000   1.0000   1.0000
     1.0000   1.0000   1.0000   1.0000   1.0000   1.0000   1.0000   1.0000
     1.0000   1.0000   1.0000   1.0000   1.0000   1.0000   1.0000   1.0000
     1.0000   1.0000   1.0000   1.0000   1.0000   1.0000   1.0000   1.0000
     1.0000   1.0000   1.0000   1.0000   1.0000   1.0000   1.0000   1.0000
     1.0000   1.0000   1.0000   1.0000   1.0000   1.0000   1.0000   1.0000
     1.0000   1.0000   1.0000   1.0000   1.0000   1.0000   1.0000   1.0000
     1.0000   1.0000   1.0000   1.0000   1.0000   1.0000   1.0000   1.0000
     0.0000   0.0000   0.0000   0.0000   0.0000   0.0000   0.0000   0.0000
     0.0000   0.0000   0.0000   0.0000   0.0000   0.0000   0.0000   0.0000
     0.0000   0.0000   0.0000   0.0000   0.0000   0.0000   0.0000   0.0000
     0.0000   0.0000   0.0000   0.0000   0.0000   0.0000   0.0000   0.0000
     0.0000   0.0000   0.0000   0.0000   0.0000   0.0000   0.0000   0.0000
     0.0000   0.0000   0.0000   0.0000   0.0000   0.0000   0.0000   0.0000
     0.0000   0.0000   0.0000   0.0000   0.0000   0.0000   0.0000   0.0000
     0.0000   0.0000   0.0000   0.0000   0.0000   0.0000   0.0000   0.0000
     0.0000   0.0000   0.0000   0.0000   0.0000   0.0000   0.0000   0.0000
     0.0000   0.0000   0.0000   0.0000   0.0000   0.0000   0.0000   0.0000
     0.0000   0.0000   0.0000   0.0000   0.0000   0.0000   0.0000   0.0000
     0.0000   0.0000   0.0000   0.0000   0.0000   0.0000   0.0000   0.0000
     0.0000   0.0000   0.0000   0.0000   0.0000   0.0000

          k =-0.3504 0.3521-0.3551 ( 35696 PWs)   bands (ev):

   -65.8210 -65.7226 -65.6131 -65.6015 -65.5102 -65.4831 -65.3995 -65.3977
   -65.3891 -65.2973 -65.1542 -65.1445 -65.1259 -65.0955 -65.0904 -65.0865
   -65.0847 -65.0395 -65.0335 -64.9579 -64.9365 -64.9189 -64.8961 -64.8937
   -64.8578 -64.8330 -64.8204 -64.7986 -64.7984 -64.7929 -64.7813 -64.7709
   -64.7532 -64.7247 -64.7173 -64.7116 -64.6954 -64.6430 -64.6338 -64.6297
   -64.5925 -64.5687 -64.5403 -64.5379 -64.5241 -64.4399 -64.4269 -64.4186
   -64.3276 -64.2777 -64.2532 -64.2242 -64.2052 -64.1946 -64.1637 -64.1355
   -64.0714 -64.0238 -63.9790 -63.9506 -63.9482 -63.8452 -63.8170 -63.6365
   -32.8056 -32.7969 -32.7784 -32.7113 -32.6985 -32.6905 -32.6094 -32.5958
   -32.5937 -32.5784 -32.5705 -32.5619 -32.5000 -32.4956 -32.4776 -32.4673
   -32.4590 -32.4391 -32.3975 -32.3911 -32.3808 -32.3758 -32.3726 -32.3678
   -32.3648 -32.3623 -32.3472 -32.2841 -32.2759 -32.2647 -32.1542 -32.1428
   -32.1361 -32.1353 -32.1174 -32.1161 -32.1086 -32.0972 -32.0929 -32.0849
   -32.0835 -32.0817 -32.0804 -32.0746 -32.0705 -32.0679 -32.0671 -32.0663
   -32.0605 -32.0525 -32.0511 -32.0287 -32.0274 -32.0150 -32.0090 -32.0052
   -31.9935 -31.9526 -31.9347 -31.9248 -31.9184 -31.9176 -31.9129 -31.9085
   -31.9039 -31.9031 -31.8967 -31.8930 -31.8775 -31.8721 -31.8587 -31.8559
   -31.8425 -31.8401 -31.8291 -31.8245 -31.8100 -31.8090 -31.8044 -31.8026
   -31.7974 -31.7937 -31.7931 -31.7887 -31.7823 -31.7776 -31.7744 -31.7722
   -31.7664 -31.7659 -31.7579 -31.7575 -31.7550 -31.7547 -31.7510 -31.7392
   -31.7361 -31.7359 -31.7183 -31.7101 -31.7090 -31.7066 -31.7008 -31.6961
   -31.6951 -31.6893 -31.6873 -31.6854 -31.6780 -31.6757 -31.6662 -31.6321
   -31.6304 -31.6269 -31.6174 -31.6152 -31.6091 -31.6074 -31.6041 -31.6008
   -31.5909 -31.5706 -31.5670 -31.5551 -31.5517 -31.5429 -31.5355 -31.5337
   -31.5336 -31.5254 -31.5195 -31.5144 -31.5073 -31.4975 -31.4907 -31.4288
   -31.4194 -31.4132 -31.4068 -31.4053 -31.4038 -31.4000 -31.3886 -31.3838
   -31.3306 -31.3093 -31.2972 -31.2662 -31.2636 -31.2547 -31.2523 -31.2297
   -31.2261 -31.2211 -31.2028 -31.1990 -31.1912 -31.1863 -31.1849 -31.1802
   -31.1768 -31.1724 -31.1546 -31.1475 -31.1347 -31.1311 -31.1134 -31.1027
   -31.0641 -31.0484 -31.0385 -31.0176 -31.0079 -30.9969 -30.9858 -30.9654
   -30.9466 -30.9413 -30.9364 -30.9328 -30.9252 -30.9178 -30.9164 -30.8398
   -30.8297 -30.8274 -30.8150 -30.8038 -30.7988 -30.6324 -30.6272 -30.6055
   -10.0872  -9.9863  -9.8352  -9.6972  -9.6422  -9.4703  -9.4368  -9.4069
    -9.3881  -9.2477  -9.1886  -9.1575  -9.1284  -9.0870  -9.0606  -9.0380
    -9.0065  -8.9943  -8.9743  -8.9469  -8.9015  -8.8621  -8.8314  -8.7558
    -8.7438  -8.7190  -8.7067  -8.6748  -8.6661  -8.6414  -8.5969  -8.5864
    -8.5794  -8.5568  -8.4701  -8.4448  -8.4000  -8.3672  -8.3544  -8.3374
    -8.2896  -8.2703  -8.2401  -8.1880  -8.1448  -8.1147  -8.0969  -8.0675
    -8.0513  -8.0110  -7.9333  -7.8993  -7.8318  -7.7922  -7.7205  -7.7072
    -7.6555  -7.6168  -7.5682  -7.5600  -7.4942  -7.4345  -7.3025  -7.2104
     2.6063   2.6393   2.6619   2.7388   2.7922   2.8288   2.8596   2.9948
     3.0177   3.0549   3.1005   3.1449   3.1955   3.2178   3.2616   3.2750
     3.3189   3.3346   3.3580   3.3877   3.4273   3.4526   3.4647   3.5002
     3.5207   3.5420   3.5574   3.5985   3.6277   3.6569   3.6885   3.6996
     3.7115   3.7442   3.7871   3.7988   3.8626   3.8672   3.9240   3.9428
     3.9722   3.9941   4.0231   4.0461   4.0616   4.1122   4.1456   4.1573
     4.1739   4.2083   4.2350   4.2616   4.3558   4.4048   4.4162   4.4782
     4.5374   4.5683   4.6256   4.6321   4.6883   4.7136   4.7455   4.7617
     4.8002   4.8072   4.8265   4.8533   4.8862   4.8998   4.9313   4.9658
     4.9761   5.0028   5.0100   5.0331   5.0854   5.1442   5.1768   5.2204
     5.2490   5.2846   5.2929   5.3030   5.3250   5.3503   5.3714   5.3869
     5.3944   5.4244   5.4440   5.4725   5.4885   5.5322   5.5360   5.5674
     5.5841   5.6000   5.6444   5.6733   5.6832   5.6966   5.7259   5.7382
     5.7558   5.7904   5.8108   5.8280   5.8402   5.8570   5.8658   5.9019
     5.9080   5.9198   5.9442   5.9618   5.9853   5.9994   6.0138   6.0149
     6.0536   6.0719   6.0941   6.1112   6.1350   6.1379   6.1651   6.1797
     6.2009   6.2156   6.2316   6.2623   6.2729   6.2842   6.3027   6.3330
     6.3456   6.3556   6.3768   6.3907   6.4055   6.4126   6.4278   6.4366
     6.4648   6.4962   6.5109   6.5298   6.5623   6.5813   6.5964   6.6171
     6.6478   6.6595   6.6691   6.6839   6.6950   6.7217   6.7380   6.7450
     6.7697   6.8028   6.8293   6.8369   6.8522   6.8858   6.9127   6.9237
     6.9463   6.9913   7.0182   7.0317   7.0452   7.0625   7.0882   7.1155
     7.1493   7.1545   7.2047   7.2298   7.2351   7.2585   7.2863   7.3239
     7.3659   7.3976   7.4311   7.4580   7.5548   7.6763   7.7794   7.7847
    12.2059  12.3530  13.4005  13.6749  13.8562  13.9406  14.1430  14.1943
    14.2810  14.3616  14.4870  14.5879  14.6114  14.7044  14.7899  14.8854
    14.9826  15.1804  15.2450  15.2924  15.3913  15.4648  15.5954  15.6686
    15.7322  15.7953  15.8213  15.8314  15.9098  15.9561  15.9683  16.0624
    16.1047  16.1718  16.1897  16.2038  16.2777  16.2962  16.3274  16.3587
    16.3861  16.4106  16.4372  16.4776  16.5533  16.6005  16.6167  16.6238
    16.7417  16.8263  16.8736  16.9012  16.9329  16.9933  17.0315  17.0324
    17.0696  17.1120  17.1620  17.1967  17.2330  17.2964  17.3559  17.4111
    17.4544  17.4975  17.5412  17.5569  17.6046  17.6279  17.6679  17.7086
    17.7494  17.8300  17.8529  17.8922  17.9250  17.9935  18.0862  18.1003
    18.1386  18.1482  18.2115  18.2458  18.2685  18.3159  18.3520  18.3691
    18.4131  18.4210  18.4752  18.4929  18.5247  18.5450  18.5577  18.6194
    18.6553  18.6723  18.6870  18.7167  18.7445  18.7780

     occupation numbers 
     1.0000   1.0000   1.0000   1.0000   1.0000   1.0000   1.0000   1.0000
     1.0000   1.0000   1.0000   1.0000   1.0000   1.0000   1.0000   1.0000
     1.0000   1.0000   1.0000   1.0000   1.0000   1.0000   1.0000   1.0000
     1.0000   1.0000   1.0000   1.0000   1.0000   1.0000   1.0000   1.0000
     1.0000   1.0000   1.0000   1.0000   1.0000   1.0000   1.0000   1.0000
     1.0000   1.0000   1.0000   1.0000   1.0000   1.0000   1.0000   1.0000
     1.0000   1.0000   1.0000   1.0000   1.0000   1.0000   1.0000   1.0000
     1.0000   1.0000   1.0000   1.0000   1.0000   1.0000   1.0000   1.0000
     1.0000   1.0000   1.0000   1.0000   1.0000   1.0000   1.0000   1.0000
     1.0000   1.0000   1.0000   1.0000   1.0000   1.0000   1.0000   1.0000
     1.0000   1.0000   1.0000   1.0000   1.0000   1.0000   1.0000   1.0000
     1.0000   1.0000   1.0000   1.0000   1.0000   1.0000   1.0000   1.0000
     1.0000   1.0000   1.0000   1.0000   1.0000   1.0000   1.0000   1.0000
     1.0000   1.0000   1.0000   1.0000   1.0000   1.0000   1.0000   1.0000
     1.0000   1.0000   1.0000   1.0000   1.0000   1.0000   1.0000   1.0000
     1.0000   1.0000   1.0000   1.0000   1.0000   1.0000   1.0000   1.0000
     1.0000   1.0000   1.0000   1.0000   1.0000   1.0000   1.0000   1.0000
     1.0000   1.0000   1.0000   1.0000   1.0000   1.0000   1.0000   1.0000
     1.0000   1.0000   1.0000   1.0000   1.0000   1.0000   1.0000   1.0000
     1.0000   1.0000   1.0000   1.0000   1.0000   1.0000   1.0000   1.0000
     1.0000   1.0000   1.0000   1.0000   1.0000   1.0000   1.0000   1.0000
     1.0000   1.0000   1.0000   1.0000   1.0000   1.0000   1.0000   1.0000
     1.0000   1.0000   1.0000   1.0000   1.0000   1.0000   1.0000   1.0000
     1.0000   1.0000   1.0000   1.0000   1.0000   1.0000   1.0000   1.0000
     1.0000   1.0000   1.0000   1.0000   1.0000   1.0000   1.0000   1.0000
     1.0000   1.0000   1.0000   1.0000   1.0000   1.0000   1.0000   1.0000
     1.0000   1.0000   1.0000   1.0000   1.0000   1.0000   1.0000   1.0000
     1.0000   1.0000   1.0000   1.0000   1.0000   1.0000   1.0000   1.0000
     1.0000   1.0000   1.0000   1.0000   1.0000   1.0000   1.0000   1.0000
     1.0000   1.0000   1.0000   1.0000   1.0000   1.0000   1.0000   1.0000
     1.0000   1.0000   1.0000   1.0000   1.0000   1.0000   1.0000   1.0000
     1.0000   1.0000   1.0000   1.0000   1.0000   1.0000   1.0000   1.0000
     1.0000   1.0000   1.0000   1.0000   1.0000   1.0000   1.0000   1.0000
     1.0000   1.0000   1.0000   1.0000   1.0000   1.0000   1.0000   1.0000
     1.0000   1.0000   1.0000   1.0000   1.0000   1.0000   1.0000   1.0000
     1.0000   1.0000   1.0000   1.0000   1.0000   1.0000   1.0000   1.0000
     1.0000   1.0000   1.0000   1.0000   1.0000   1.0000   1.0000   1.0000
     1.0000   1.0000   1.0000   1.0000   1.0000   1.0000   1.0000   1.0000
     1.0000   1.0000   1.0000   1.0000   1.0000   1.0000   1.0000   1.0000
     1.0000   1.0000   1.0000   1.0000   1.0000   1.0000   1.0000   1.0000
     1.0000   1.0000   1.0000   1.0000   1.0000   1.0000   1.0000   1.0000
     1.0000   1.0000   1.0000   1.0000   1.0000   1.0000   1.0000   1.0000
     1.0000   1.0000   1.0000   1.0000   1.0000   1.0000   1.0000   1.0000
     1.0000   1.0000   1.0000   1.0000   1.0000   1.0000   1.0000   1.0000
     1.0000   1.0000   1.0000   1.0000   1.0000   1.0000   1.0000   1.0000
     1.0000   1.0000   1.0000   1.0000   1.0000   1.0000   1.0000   1.0000
     1.0000   1.0000   1.0000   1.0000   1.0000   1.0000   1.0000   1.0000
     1.0000   1.0000   1.0000   1.0000   1.0000   1.0000   1.0000   1.0000
     1.0000   1.0000   1.0000   1.0000   1.0000   1.0000   1.0000   1.0000
     1.0000   1.0000   1.0000   1.0000   1.0000   1.0000   1.0000   1.0000
     1.0000   1.0000   1.0000   1.0000   1.0000   1.0000   1.0000   1.0000
     1.0000   1.0000   1.0000   1.0000   1.0000   1.0000   1.0000   1.0000
     1.0000   1.0000   1.0000   1.0000   1.0000   1.0000   1.0000   1.0000
     1.0000   1.0000   1.0000   1.0000   1.0000   1.0000   1.0000   1.0000
     1.0000   1.0000   1.0000   1.0000   1.0000   1.0000   1.0000   1.0000
     1.0000   1.0000   1.0000   1.0000   1.0000   1.0000   1.0000   1.0000
     1.0000   1.0000   1.0000   1.0000   1.0000   1.0000   1.0000   1.0000
     1.0000   1.0000   1.0000   1.0000   1.0000   1.0000   1.0000   1.0000
     1.0000   1.0000   1.0000   1.0000   1.0000   1.0000   1.0000   1.0000
     1.0000   1.0000   1.0000   1.0000   1.0000   1.0000   1.0000   1.0000
     1.0000   1.0000   1.0000   1.0000   1.0000   1.0000   1.0000   1.0000
     1.0000   1.0000   1.0000   1.0000   1.0000   1.0000   1.0000   1.0000
     1.0000   1.0000   1.0000   1.0000   1.0000   1.0000   1.0000   1.0000
     1.0000   1.0000   1.0000   1.0000   1.0000   1.0000   1.0000   1.0000
     0.0000   0.0000   0.0000   0.0000   0.0000   0.0000   0.0000   0.0000
     0.0000   0.0000   0.0000   0.0000   0.0000   0.0000   0.0000   0.0000
     0.0000   0.0000   0.0000   0.0000   0.0000   0.0000   0.0000   0.0000
     0.0000   0.0000   0.0000   0.0000   0.0000   0.0000   0.0000   0.0000
     0.0000   0.0000   0.0000   0.0000   0.0000   0.0000   0.0000   0.0000
     0.0000   0.0000   0.0000   0.0000   0.0000   0.0000   0.0000   0.0000
     0.0000   0.0000   0.0000   0.0000   0.0000   0.0000   0.0000   0.0000
     0.0000   0.0000   0.0000   0.0000   0.0000   0.0000   0.0000   0.0000
     0.0000   0.0000   0.0000   0.0000   0.0000   0.0000   0.0000   0.0000
     0.0000   0.0000   0.0000   0.0000   0.0000   0.0000   0.0000   0.0000
     0.0000   0.0000   0.0000   0.0000   0.0000   0.0000   0.0000   0.0000
     0.0000   0.0000   0.0000   0.0000   0.0000   0.0000   0.0000   0.0000
     0.0000   0.0000   0.0000   0.0000   0.0000   0.0000

          k =-0.7056-0.0032-0.0033 ( 35742 PWs)   bands (ev):

   -65.8210 -65.7226 -65.6131 -65.6015 -65.5102 -65.4831 -65.3995 -65.3977
   -65.3891 -65.2973 -65.1542 -65.1445 -65.1259 -65.0955 -65.0904 -65.0865
   -65.0847 -65.0395 -65.0335 -64.9579 -64.9365 -64.9189 -64.8961 -64.8937
   -64.8578 -64.8330 -64.8204 -64.7986 -64.7984 -64.7929 -64.7813 -64.7709
   -64.7532 -64.7247 -64.7173 -64.7116 -64.6954 -64.6430 -64.6338 -64.6297
   -64.5925 -64.5687 -64.5403 -64.5379 -64.5241 -64.4399 -64.4269 -64.4186
   -64.3276 -64.2777 -64.2532 -64.2242 -64.2052 -64.1946 -64.1637 -64.1355
   -64.0714 -64.0238 -63.9790 -63.9506 -63.9482 -63.8452 -63.8170 -63.6365
   -32.8056 -32.7969 -32.7784 -32.7113 -32.6985 -32.6905 -32.6094 -32.5958
   -32.5937 -32.5784 -32.5705 -32.5619 -32.5000 -32.4956 -32.4776 -32.4673
   -32.4590 -32.4391 -32.3975 -32.3911 -32.3808 -32.3758 -32.3726 -32.3678
   -32.3648 -32.3623 -32.3472 -32.2841 -32.2759 -32.2647 -32.1542 -32.1428
   -32.1361 -32.1353 -32.1174 -32.1161 -32.1086 -32.0972 -32.0929 -32.0849
   -32.0835 -32.0817 -32.0804 -32.0746 -32.0705 -32.0679 -32.0671 -32.0663
   -32.0605 -32.0525 -32.0511 -32.0288 -32.0274 -32.0150 -32.0090 -32.0052
   -31.9935 -31.9526 -31.9347 -31.9248 -31.9184 -31.9176 -31.9130 -31.9085
   -31.9039 -31.9031 -31.8966 -31.8930 -31.8775 -31.8721 -31.8587 -31.8559
   -31.8425 -31.8401 -31.8291 -31.8245 -31.8101 -31.8090 -31.8044 -31.8026
   -31.7974 -31.7938 -31.7931 -31.7887 -31.7823 -31.7776 -31.7744 -31.7723
   -31.7664 -31.7659 -31.7580 -31.7575 -31.7550 -31.7548 -31.7510 -31.7392
   -31.7361 -31.7359 -31.7183 -31.7101 -31.7090 -31.7066 -31.7008 -31.6961
   -31.6951 -31.6893 -31.6873 -31.6854 -31.6780 -31.6757 -31.6662 -31.6321
   -31.6304 -31.6269 -31.6174 -31.6152 -31.6091 -31.6074 -31.6041 -31.6008
   -31.5909 -31.5706 -31.5670 -31.5551 -31.5517 -31.5429 -31.5355 -31.5337
   -31.5336 -31.5254 -31.5195 -31.5144 -31.5073 -31.4975 -31.4906 -31.4288
   -31.4194 -31.4132 -31.4068 -31.4053 -31.4038 -31.4000 -31.3886 -31.3838
   -31.3306 -31.3093 -31.2972 -31.2662 -31.2636 -31.2547 -31.2523 -31.2297
   -31.2261 -31.2211 -31.2028 -31.1990 -31.1912 -31.1863 -31.1849 -31.1802
   -31.1768 -31.1724 -31.1545 -31.1475 -31.1347 -31.1311 -31.1134 -31.1027
   -31.0641 -31.0484 -31.0385 -31.0176 -31.0079 -30.9969 -30.9858 -30.9654
   -30.9466 -30.9413 -30.9364 -30.9328 -30.9252 -30.9178 -30.9164 -30.8398
   -30.8297 -30.8274 -30.8150 -30.8038 -30.7988 -30.6324 -30.6272 -30.6055
   -10.0812  -9.9809  -9.8430  -9.7132  -9.6414  -9.4759  -9.4309  -9.4141
    -9.3784  -9.2573  -9.1881  -9.1467  -9.1352  -9.1010  -9.0476  -9.0292
    -8.9895  -8.9858  -8.9712  -8.9439  -8.8948  -8.8670  -8.8231  -8.7747
    -8.7479  -8.7436  -8.6953  -8.6675  -8.6529  -8.6394  -8.6100  -8.5906
    -8.5736  -8.5558  -8.4822  -8.4373  -8.3994  -8.3661  -8.3621  -8.3398
    -8.2961  -8.2701  -8.2332  -8.2066  -8.1396  -8.1040  -8.1010  -8.0684
    -8.0470  -7.9761  -7.9435  -7.9285  -7.8355  -7.7855  -7.7159  -7.7014
    -7.6644  -7.6102  -7.5680  -7.5620  -7.4986  -7.4310  -7.3023  -7.2104
     2.6256   2.6621   2.7614   2.8156   2.8292   2.8654   2.9120   2.9193
     3.0097   3.0501   3.1077   3.1352   3.1753   3.2083   3.2418   3.2508
     3.2803   3.2887   3.3211   3.3629   3.4166   3.4375   3.4495   3.4946
     3.5242   3.5531   3.5807   3.6034   3.6194   3.6436   3.6780   3.7010
     3.7186   3.7697   3.7935   3.8233   3.8312   3.8634   3.8805   3.9353
     3.9417   3.9863   4.0083   4.0462   4.0867   4.1060   4.1506   4.1770
     4.2055   4.2308   4.2597   4.2800   4.2989   4.3474   4.3780   4.4062
     4.4173   4.4836   4.4938   4.5194   4.5625   4.5965   4.6338   4.6908
     4.7079   4.7196   4.7604   4.8129   4.8552   4.8957   4.9750   5.0241
     5.0740   5.0873   5.1601   5.1685   5.1845   5.2003   5.2122   5.2885
     5.2890   5.3098   5.3130   5.3460   5.3702   5.4035   5.4104   5.4321
[...]
     atom   77 type  1   force =   0.00000000E+00  0.00000000E+00  0.00000000E+00
     atom   78 type  2   force =   0.00000000E+00  0.00000000E+00  0.00000000E+00
     atom   79 type  1   force =   0.00000000E+00  0.00000000E+00  0.00000000E+00
     atom   80 type  2   force =   0.00000000E+00  0.00000000E+00  0.00000000E+00
     atom   81 type  1   force =   0.00000000E+00  0.00000000E+00  0.00000000E+00
     atom   82 type  2   force =   0.00000000E+00  0.00000000E+00  0.00000000E+00
     atom   83 type  1   force =   0.00000000E+00  0.00000000E+00  0.00000000E+00
     atom   84 type  2   force =   0.00000000E+00  0.00000000E+00  0.00000000E+00
     atom   85 type  1   force =   0.00000000E+00  0.00000000E+00  0.00000000E+00
     atom   86 type  2   force =   0.00000000E+00  0.00000000E+00  0.00000000E+00
     atom   87 type  1   force =   0.00000000E+00  0.00000000E+00  0.00000000E+00
     atom   88 type  2   force =   0.00000000E+00  0.00000000E+00  0.00000000E+00
     atom   89 type  1   force =   0.00000000E+00  0.00000000E+00  0.00000000E+00
     atom   90 type  2   force =   0.00000000E+00  0.00000000E+00  0.00000000E+00
     atom   91 type  1   force =   0.00000000E+00  0.00000000E+00  0.00000000E+00
     atom   92 type  2   force =   0.00000000E+00  0.00000000E+00  0.00000000E+00
     atom   93 type  1   force =   0.00000000E+00  0.00000000E+00  0.00000000E+00
     atom   94 type  2   force =   0.00000000E+00  0.00000000E+00  0.00000000E+00
     atom   95 type  1   force =   0.00000000E+00  0.00000000E+00  0.00000000E+00
     atom   96 type  2   force =   0.00000000E+00  0.00000000E+00  0.00000000E+00
     atom   97 type  1   force =   0.00000000E+00  0.00000000E+00  0.00000000E+00
     atom   98 type  2   force =   0.00000000E+00  0.00000000E+00  0.00000000E+00
     atom   99 type  1   force =   0.00000000E+00  0.00000000E+00  0.00000000E+00
     atom  100 type  2   force =   0.00000000E+00  0.00000000E+00  0.00000000E+00
     atom  101 type  1   force =   0.00000000E+00  0.00000000E+00  0.00000000E+00
     atom  102 type  2   force =   0.00000000E+00  0.00000000E+00  0.00000000E+00
     atom  103 type  1   force =   0.00000000E+00  0.00000000E+00  0.00000000E+00
     atom  104 type  2   force =   0.00000000E+00  0.00000000E+00  0.00000000E+00
     atom  105 type  1   force =   0.00000000E+00  0.00000000E+00  0.00000000E+00
     atom  106 type  2   force =   0.00000000E+00  0.00000000E+00  0.00000000E+00
     atom  107 type  1   force =   0.00000000E+00  0.00000000E+00  0.00000000E+00
     atom  108 type  2   force =   0.00000000E+00  0.00000000E+00  0.00000000E+00
     atom  109 type  1   force =   0.00000000E+00  0.00000000E+00  0.00000000E+00
     atom  110 type  2   force =   0.00000000E+00  0.00000000E+00  0.00000000E+00
     atom  111 type  1   force =   0.00000000E+00  0.00000000E+00  0.00000000E+00
     atom  112 type  2   force =   0.00000000E+00  0.00000000E+00  0.00000000E+00
     atom  113 type  1   force =   0.00000000E+00  0.00000000E+00  0.00000000E+00
     atom  114 type  2   force =   0.00000000E+00  0.00000000E+00  0.00000000E+00
     atom  115 type  1   force =   0.00000000E+00  0.00000000E+00  0.00000000E+00
     atom  116 type  2   force =   0.00000000E+00  0.00000000E+00  0.00000000E+00
     atom  117 type  1   force =   0.00000000E+00  0.00000000E+00  0.00000000E+00
     atom  118 type  2   force =   0.00000000E+00  0.00000000E+00  0.00000000E+00
     atom  119 type  1   force =   0.00000000E+00  0.00000000E+00  0.00000000E+00
     atom  120 type  2   force =   0.00000000E+00  0.00000000E+00  0.00000000E+00
     atom  121 type  1   force =   0.00000000E+00  0.00000000E+00  0.00000000E+00
     atom  122 type  2   force =   0.00000000E+00  0.00000000E+00  0.00000000E+00
     atom  123 type  1   force =   0.00000000E+00  0.00000000E+00  0.00000000E+00
     atom  124 type  2   force =   0.00000000E+00  0.00000000E+00  0.00000000E+00
     atom  125 type  1   force =   0.00000000E+00  0.00000000E+00  0.00000000E+00
     atom  126 type  2   force =   0.00000000E+00  0.00000000E+00  0.00000000E+00
     atom  127 type  1   force =   0.00000000E+00  0.00000000E+00  0.00000000E+00
     atom  128 type  2   force =   0.00000000E+00  0.00000000E+00  0.00000000E+00
     The SCF correction term to forces
     atom    1 type  1   force =   0.21179015E-08 -0.18358751E-05 -0.14599060E-05
     atom    2 type  2   force =  -0.17875080E-05 -0.88061799E-06  0.16047896E-05
     atom    3 type  1   force =  -0.35405294E-05 -0.32653112E-05  0.49050713E-06
     atom    4 type  2   force =  -0.61377930E-06 -0.16771545E-05  0.21067595E-05
     atom    5 type  1   force =   0.23879150E-05 -0.11280948E-05 -0.33836505E-05
     atom    6 type  2   force =   0.24935811E-05  0.72540308E-06 -0.32232125E-07
     atom    7 type  1   force =   0.48794607E-05  0.14612886E-05 -0.38722579E-05
     atom    8 type  2   force =   0.42007249E-06  0.75224914E-06 -0.65287743E-06
     atom    9 type  1   force =  -0.44157956E-07 -0.29585047E-05  0.41053245E-06
     atom   10 type  2   force =  -0.50057834E-06 -0.19305309E-07  0.32097719E-05
     atom   11 type  1   force =  -0.54864449E-06 -0.14818336E-05  0.16037202E-05
     atom   12 type  2   force =  -0.10450251E-06 -0.94202545E-06  0.26151588E-05
     atom   13 type  1   force =   0.50150650E-05 -0.27907605E-05  0.18683599E-05
     atom   14 type  2   force =   0.18859498E-05 -0.43013107E-06 -0.92361470E-06
     atom   15 type  1   force =   0.66290115E-05 -0.26965720E-05 -0.11859258E-05
     atom   16 type  2   force =   0.58703347E-06  0.12711485E-06 -0.56781713E-07
     atom   17 type  1   force =   0.21670925E-06 -0.26935745E-05  0.67821129E-06
     atom   18 type  2   force =  -0.14816358E-05  0.80563780E-06  0.14789453E-05
     atom   19 type  1   force =  -0.78766362E-06 -0.12964508E-05  0.36449033E-05
     atom   20 type  2   force =  -0.15056298E-05 -0.11886279E-05 -0.31266831E-06
     atom   21 type  1   force =   0.44700818E-05 -0.10447046E-05 -0.21824589E-05
     atom   22 type  2   force =  -0.44769820E-06  0.61762263E-06 -0.24274687E-05
     atom   23 type  1   force =   0.35402375E-05 -0.26559336E-05 -0.51413003E-05
     atom   24 type  2   force =   0.43989981E-07  0.30792029E-05 -0.70723295E-06
     atom   25 type  1   force =   0.11636391E-05  0.20004813E-05 -0.11996274E-05
     atom   26 type  2   force =  -0.28254519E-05  0.16235563E-06  0.10136163E-05
     atom   27 type  1   force =  -0.25421118E-05  0.12555095E-06 -0.14721612E-05
     atom   28 type  2   force =  -0.26429905E-05 -0.10715646E-05 -0.54877793E-06
     atom   29 type  1   force =  -0.25553040E-06 -0.24651489E-05 -0.59293854E-05
     atom   30 type  2   force =   0.69125462E-06  0.12429053E-05 -0.16731811E-05
     atom   31 type  1   force =   0.33206817E-05 -0.19288767E-05 -0.71725804E-05
     atom   32 type  2   force =   0.12806070E-05  0.29213942E-05 -0.56289578E-06
     atom   33 type  1   force =  -0.45164475E-05  0.32906986E-05  0.17810993E-05
     atom   34 type  2   force =  -0.18776612E-05 -0.10613300E-05  0.39089734E-05
     atom   35 type  1   force =  -0.44789140E-05 -0.24395728E-05  0.59242030E-05
     atom   36 type  2   force =  -0.11499620E-05 -0.10422920E-05  0.32574646E-05
     atom   37 type  1   force =  -0.13901353E-05  0.77478044E-06  0.30303032E-05
     atom   38 type  2   force =   0.11050739E-05  0.27743919E-05  0.30682232E-06
     atom   39 type  1   force =   0.22806837E-05  0.61875122E-05 -0.13861301E-05
     atom   40 type  2   force =  -0.44714493E-06  0.28482485E-05  0.60058108E-06
     atom   41 type  1   force =  -0.30703075E-05  0.30409323E-05  0.48865245E-05
     atom   42 type  2   force =  -0.17762794E-05 -0.89334109E-06  0.33930270E-05
     atom   43 type  1   force =  -0.36921745E-05 -0.16356007E-05  0.79126510E-05
     atom   44 type  2   force =  -0.14437104E-05 -0.16271144E-05  0.24759338E-05
     atom   45 type  1   force =   0.44846256E-06 -0.12884912E-05  0.31477283E-05
     atom   46 type  2   force =   0.19899967E-06  0.15711808E-05 -0.38699955E-07
     atom   47 type  1   force =   0.17703760E-06  0.20721694E-05  0.91272087E-06
     atom   48 type  2   force =   0.29893542E-06  0.27033685E-05  0.16600134E-05
     atom   49 type  1   force =  -0.19665099E-05  0.34694630E-05  0.43684008E-05
     atom   50 type  2   force =  -0.36186775E-05 -0.58323443E-06  0.15431604E-05
     atom   51 type  1   force =  -0.43078993E-05 -0.16663656E-05  0.39696149E-05
     atom   52 type  2   force =  -0.28617289E-05 -0.42269318E-06  0.10047969E-06
     atom   53 type  1   force =  -0.12720532E-05  0.10203058E-05  0.39230831E-06
     atom   54 type  2   force =   0.19621763E-06  0.41097374E-05 -0.16389930E-05
     atom   55 type  1   force =   0.25696860E-06  0.65440282E-05 -0.83104718E-07
     atom   56 type  2   force =  -0.59141996E-06  0.39130739E-05 -0.46244980E-06
     atom   57 type  1   force =  -0.27520877E-05  0.31964141E-05  0.13298356E-05
     atom   58 type  2   force =  -0.36633883E-05 -0.13226324E-05  0.21151746E-05
     atom   59 type  1   force =  -0.62184444E-05 -0.13045870E-05  0.21433681E-05
     atom   60 type  2   force =  -0.20347314E-05 -0.10938559E-07  0.20474818E-05
     atom   61 type  1   force =  -0.31675464E-05  0.27332036E-05 -0.78598488E-06
     atom   62 type  2   force =   0.10515353E-06  0.42948083E-05 -0.86622166E-07
     atom   63 type  1   force =  -0.37946191E-06  0.80888969E-05 -0.21403206E-05
     atom   64 type  2   force =  -0.74047918E-06  0.34818609E-05 -0.36682171E-06
     atom   65 type  1   force =  -0.17676837E-05 -0.12353176E-05  0.17501931E-05
     atom   66 type  2   force =   0.78881406E-07 -0.31130811E-05  0.23041766E-05
     atom   67 type  1   force =  -0.21294120E-05 -0.38779854E-05  0.53655777E-05
     atom   68 type  2   force =  -0.42260158E-06 -0.16212289E-05  0.13252764E-05
     atom   69 type  1   force =   0.35120739E-07  0.38252948E-05  0.77471809E-06
     atom   70 type  2   force =   0.13130191E-05  0.13020821E-05 -0.21597092E-05
     atom   71 type  1   force =   0.11616426E-05  0.49145477E-05 -0.12436259E-05
     atom   72 type  2   force =   0.23230169E-05 -0.23918045E-06 -0.59030190E-06
     atom   73 type  1   force =   0.21550418E-06 -0.27258567E-06  0.30725135E-05
     atom   74 type  2   force =  -0.98478603E-06 -0.40091440E-05  0.87257399E-06
     atom   75 type  1   force =  -0.41046299E-05 -0.40994781E-05  0.57943801E-05
     atom   76 type  2   force =  -0.72447265E-06 -0.21590123E-05 -0.36717882E-06
     atom   77 type  1   force =   0.51317488E-06  0.98516106E-06  0.26032933E-05
     atom   78 type  2   force =   0.32903585E-05  0.23493518E-05 -0.99846711E-06
     atom   79 type  1   force =   0.44640706E-05  0.41067280E-05 -0.21108991E-07
     atom   80 type  2   force =   0.17288045E-05  0.42001059E-07  0.13150621E-06
     atom   81 type  1   force =  -0.20646250E-05  0.10628136E-05  0.24519425E-05
     atom   82 type  2   force =  -0.17184366E-05 -0.30862540E-05  0.30874167E-06
     atom   83 type  1   force =  -0.51067229E-05 -0.25696330E-05  0.24571571E-05
     atom   84 type  2   force =  -0.52753917E-06  0.37470115E-06  0.65775702E-06
     atom   85 type  1   force =  -0.12117229E-05  0.23594826E-05 -0.16009405E-05
     atom   86 type  2   force =   0.14820024E-05  0.43371625E-05 -0.63855118E-06
     atom   87 type  1   force =   0.11223104E-05  0.70968287E-05 -0.26723734E-05
     atom   88 type  2   force =   0.12622535E-06 -0.24834664E-06 -0.81175599E-06
     atom   89 type  1   force =  -0.64509361E-05 -0.49234591E-06  0.15314472E-05
     atom   90 type  2   force =  -0.20087588E-05 -0.23820577E-05  0.84674220E-06
     atom   91 type  1   force =  -0.66361664E-05 -0.19712542E-05  0.33503161E-05
     atom   92 type  2   force =  -0.77444308E-06  0.86046396E-06  0.53304917E-06
     atom   93 type  1   force =  -0.11815936E-05  0.53311605E-05  0.12366488E-05
     atom   94 type  2   force =   0.37024840E-06  0.37347284E-05 -0.25760025E-05
     atom   95 type  1   force =  -0.39681521E-06  0.95551165E-05 -0.63112087E-06
     atom   96 type  2   force =  -0.45806907E-06 -0.17770754E-06 -0.22374190E-05
     atom   97 type  1   force =   0.25368389E-05 -0.34530943E-05  0.32776137E-06
     atom   98 type  2   force =  -0.65299091E-06 -0.29628384E-05 -0.25771356E-06
     atom   99 type  1   force =  -0.12445835E-05 -0.36270089E-05  0.20957044E-05
     atom  100 type  2   force =   0.11551341E-05 -0.16154439E-05 -0.59875855E-06
     atom  101 type  1   force =   0.19372945E-05  0.37802968E-06 -0.41912080E-05
     atom  102 type  2   force =   0.32146832E-05 -0.52689510E-06 -0.23561126E-05
     atom  103 type  1   force =   0.22283884E-05 -0.40621528E-06 -0.60477961E-05
     atom  104 type  2   force =   0.31998765E-05 -0.14857405E-05 -0.14009018E-05
     atom  105 type  1   force =   0.32545995E-05 -0.63408376E-05 -0.24859358E-07
     atom  106 type  2   force =  -0.69297542E-06 -0.32467656E-05  0.55661610E-06
     atom  107 type  1   force =   0.17979182E-05 -0.76413051E-05 -0.91708005E-06
     atom  108 type  2   force =   0.11761803E-05 -0.23425159E-06  0.56484923E-06
     atom  109 type  1   force =   0.26480760E-05 -0.20471758E-05 -0.22477589E-05
     atom  110 type  2   force =   0.41999899E-05 -0.35441810E-06 -0.12189144E-05
     atom  111 type  1   force =   0.83978745E-05 -0.58393312E-06 -0.13472641E-05
     atom  112 type  2   force =   0.17948164E-05 -0.30168951E-05 -0.11344332E-05
     atom  113 type  1   force =  -0.58911986E-06 -0.81449710E-05 -0.25905729E-05
     atom  114 type  2   force =  -0.37570023E-06 -0.13914890E-05  0.10294959E-05
     atom  115 type  1   force =  -0.47112939E-06 -0.55205514E-05 -0.91411757E-06
     atom  116 type  2   force =   0.11741578E-05  0.56109208E-06  0.44512872E-06
     atom  117 type  1   force =   0.52699791E-05  0.26337049E-05 -0.30188026E-05
     atom  118 type  2   force =   0.18497027E-05 -0.85880690E-06 -0.36224832E-05
     atom  119 type  1   force =   0.52797511E-05 -0.78330819E-06 -0.23583871E-05
     atom  120 type  2   force =   0.23481884E-06 -0.20143135E-05 -0.20819555E-05
     atom  121 type  1   force =   0.44103405E-06 -0.38013729E-05 -0.18201139E-05
     atom  122 type  2   force =  -0.30175380E-06 -0.91978785E-06  0.36031874E-06
     atom  123 type  1   force =  -0.15443319E-05 -0.11931084E-05  0.16245874E-05
     atom  124 type  2   force =  -0.73161588E-06  0.56540869E-07 -0.20665873E-05
     atom  125 type  1   force =   0.17002084E-05  0.54812638E-05 -0.41825536E-05
     atom  126 type  2   force =   0.17212355E-05  0.29511881E-07 -0.44278130E-05
     atom  127 type  1   force =   0.19043777E-05 -0.50096632E-06 -0.76526834E-05
     atom  128 type  2   force =   0.14154827E-05 -0.79763056E-06 -0.25381506E-05

     Total force =     0.628929     Total SCF correction =     0.000053


     entering subroutine stress ...

          total   stress  (Ry/bohr**3)                   (kbar)     P=  -22.12
  -0.0001627871   0.0001402800   0.0000775593        -23.95     20.64     11.41
   0.0001402800  -0.0001327527  -0.0000024150         20.64    -19.53     -0.36
   0.0000775593  -0.0000024150  -0.0001555367         11.41     -0.36    -22.88

     kinetic stress (kbar)  23286.93     24.01     13.76
                               24.01  23287.14     -0.29
                               13.76     -0.29  23286.15

     local   stress (kbar)  -4197.44     41.30    108.31
                               41.30  -4660.37    -12.15
                              108.31    -12.15  -4576.77

     nonloc. stress (kbar)   6350.96     -1.67     -1.09
                               -1.67   6353.54      0.44
                               -1.09      0.44   6352.48

     hartree stress (kbar)  18300.95    -15.26    -43.34
                              -15.26  18474.95      4.07
                              -43.34      4.07  18453.46

     exc-cor stress (kbar)  -8274.14     -0.17     -0.12
                               -0.17  -8273.85      0.03
                               -0.12      0.03  -8273.96

     corecor stress (kbar)   -304.59     -0.07     -0.04
                               -0.07   -304.60     -0.00
                               -0.04     -0.00   -304.59

     ewald   stress (kbar) -35186.63    -27.51    -66.08
                              -27.51 -34896.34      7.55
                              -66.08      7.55 -34959.65

     hubbard stress (kbar)      0.00      0.00      0.00
                                0.00      0.00      0.00
                                0.00      0.00      0.00

     london  stress (kbar)      0.00      0.00      0.00
                                0.00      0.00      0.00
                                0.00      0.00      0.00

     XDM     stress (kbar)      0.00      0.00      0.00
                                0.00      0.00      0.00
                                0.00      0.00      0.00

     dft-nl  stress (kbar)      0.00      0.00      0.00
                                0.00      0.00      0.00
                                0.00      0.00      0.00



     Writing output data file MgO_rocksalt.relax.in.up_1.00.super.444.a.022.save

     init_run     :    714.78s CPU    712.81s WALL (       1 calls)
     electrons    :  55987.43s CPU  55449.15s WALL (       1 calls)
     forces       :    535.89s CPU    381.41s WALL (       1 calls)
     stress       :   1887.97s CPU   1860.42s WALL (       1 calls)

     Called by init_run:
     wfcinit      :    688.98s CPU    686.62s WALL (       1 calls)
     potinit      :      3.19s CPU      3.28s WALL (       1 calls)

     Called by electrons:
     c_bands      :  48905.82s CPU  48247.98s WALL (      26 calls)
     sum_band     :   6583.88s CPU   6614.48s WALL (      26 calls)
     v_of_rho     :     17.61s CPU     21.56s WALL (      27 calls)
     v_h          :      1.40s CPU      2.01s WALL (      27 calls)
     v_xc         :     16.99s CPU     20.39s WALL (      29 calls)
     newd         :    459.68s CPU    535.37s WALL (      27 calls)
     mix_rho      :     33.77s CPU     42.29s WALL (      26 calls)

     Called by c_bands:
     init_us_2    :     50.79s CPU     62.84s WALL (     440 calls)
     cegterg      :  48540.51s CPU  47795.34s WALL (     208 calls)

     Called by sum_band:
     sum_band:bec :     19.61s CPU     22.60s WALL (     208 calls)
     addusdens    :    400.68s CPU    456.14s WALL (      26 calls)

     Called by *egterg:
     h_psi        :  24332.28s CPU  24226.53s WALL (     763 calls)
     s_psi        :   5174.12s CPU   3606.50s WALL (     763 calls)
     g_psi        :      8.82s CPU     11.48s WALL (     547 calls)
     cdiaghg      :   9924.28s CPU  12804.10s WALL (     755 calls)
     cegterg:over :   4125.90s CPU   3240.60s WALL (     547 calls)
     cegterg:upda :   1923.73s CPU   1419.10s WALL (     547 calls)
     cegterg:last :   1494.57s CPU   1035.97s WALL (     208 calls)

     Called by h_psi:
     h_psi:vloc   :  12993.46s CPU  16130.51s WALL (     763 calls)
     h_psi:vnl    :  11322.99s CPU   8077.37s WALL (     763 calls)
     add_vuspsi   :   5145.85s CPU   3601.29s WALL (     763 calls)

     General routines
     calbec       :   9538.86s CPU   6973.04s WALL (     987 calls)
     fft          :     76.77s CPU     88.61s WALL (     453 calls)
     ffts         :     22.86s CPU     28.26s WALL (     676 calls)
     fftw         :  15554.04s CPU  19335.55s WALL (  695544 calls)
     interpolate  :      4.75s CPU      5.85s WALL (      53 calls)

     Parallel routines
     fft_scatter  :  11729.51s CPU  14722.63s WALL (  696673 calls)

     PWSCF        :    16h25m CPU       16h13m WALL


   This run was terminated on:  12:14:33  19Aug2017            

=------------------------------------------------------------------------------=
   JOB DONE.
=------------------------------------------------------------------------------=
