
     Program PWSCF v.5.1 starts on 18Aug2017 at 20: 1: 5 

     This program is part of the open-source Quantum ESPRESSO suite
     for quantum simulation of materials; please cite
         "P. Giannozzi et al., J. Phys.:Condens. Matter 21 395502 (2009);
          URL http://www.quantum-espresso.org", 
     in publications or presentations arising from this work. More details at
     http://www.quantum-espresso.org/quote

     Parallel version (MPI), running on     8 processors
     R & G space division:  proc/nbgrp/npool/nimage =       8
     Reading input from /tmp/MgO_rocksalt.relax.in.up_1.00.super.444.b.01.16902/MgO_rocksalt.relax.in.up_1.00.super.444.b.01.t
Warning: card &IONS ignored
Warning: card   ION_DYNAMICS='BFGS', ignored
Warning: card / ignored
Warning: card &CELL ignored
Warning: card  CELL_DYNAMICS = 'BFGS' ignored
Warning: card / ignored
     Message from routine read_cards :
     DEPRECATED: no units specified in CELL_PARAMETERS card

     Current dimensions of program PWSCF are:
     Max number of different atomic species (ntypx) = 10
     Max number of k-points (npk) =  40000
     Max angular momentum in pseudopotentials (lmaxx) =  3
 kfg - two_fermi_energies  F

     Subspace diagonalization in iterative solution of the eigenvalue problem:
     a serial algorithm will be used


     Parallelization info
     --------------------
     sticks:   dense  smooth     PW     G-vecs:    dense   smooth      PW
     Min         884     708    188                49241    35243    4838
     Max         885     709    189                49243    35255    4840
     Sum        7075    5667   1509               393931   281971   38709



     bravais-lattice index     =            0
     lattice parameter (alat)  =    22.649911355  a.u.
     unit-cell volume          =    8250.0948 (a.u.)^3
     number of atoms/cell      =          128
     number of atomic types    =            3
     number of electrons       =      1024.00
     number of Kohn-Sham states=          614
     kinetic-energy cutoff     =      40.0000  Ry
     charge density cutoff     =     200.0000  Ry
     convergence threshold     =      1.0E-10
     mixing beta               =       0.3000
     number of iterations used =            8  local-TF  mixing
     Exchange-correlation      = SLA  PW   PSX  PSC ( 1  4 10  8 0)
     A smooth kinetic-energy cutoff is imposed at      39.5000 Ry
     height of the smooth step-function =             800.0000 Ry
     width of the smooth step-function  =               1.0000 Ry


     celldm(1)=  22.649911  celldm(2)=   0.000000  celldm(3)=   0.000000
     celldm(4)=   0.000000  celldm(5)=   0.000000  celldm(6)=   0.000000

     crystal axes: (cart. coord. in units of alat)
               a(1) = (  -0.003884783333   0.706741471089   0.707461236749 )  
               a(2) = (   0.706492337151  -0.003856865648   0.704498071637 )  
               a(3) = (   0.708384159213   0.705612698313  -0.001518531699 )  

     reciprocal axes: (cart. coord. in units 2 pi/alat)
               b(1) = ( -0.700135  0.704404  0.705973 )  
               b(2) = (  0.704599 -0.705841  0.708992 )  
               b(3) = (  0.705106  0.707819 -0.703227 )  


     PseudoPot. # 1 for Mg read from file:
     /users/kfg/psuedo/gbrv_1.5/mg.pbesol.UPF
     MD5 check sum: 4059f37963cf5867752dbf5ab2400678
     Pseudo is Ultrasoft, Zval = 10.0
     Generated by new atomic code, or converted to UPF format
     Using radial grid of  821 points,  7 beta functions with: 
                l(1) =   0
                l(2) =   0
                l(3) =   0
                l(4) =   1
                l(5) =   1
                l(6) =   2
                l(7) =   2
     Q(r) pseudized with  8 coefficients,  rinner =    1.200   1.200   1.200
                                                       1.200   1.200

     PseudoPot. # 2 for Ca read from file:
     /users/kfg/psuedo/gbrv_1.5/ca.pbesol.UPF
     MD5 check sum: 0533207b58cddeaa036efa5b63902087
     Pseudo is Ultrasoft + core correction, Zval = 10.0
     Generated by new atomic code, or converted to UPF format
     Using radial grid of  845 points,  6 beta functions with: 
                l(1) =   0
                l(2) =   0
                l(3) =   1
                l(4) =   1
                l(5) =   2
                l(6) =   2
     Q(r) pseudized with  8 coefficients,  rinner =    1.500   1.500   1.500
                                                       1.500   1.500

     PseudoPot. # 3 for O  read from file:
     /users/kfg/psuedo/gbrv_1.5/o.pbesol.UPF
     MD5 check sum: 501638753501ef6325af9037351f7734
     Pseudo is Ultrasoft + core correction, Zval =  6.0
     Generated by new atomic code, or converted to UPF format
     Using radial grid of  737 points,  5 beta functions with: 
                l(1) =   0
                l(2) =   0
                l(3) =   1
                l(4) =   1
                l(5) =   2
     Q(r) pseudized with  8 coefficients,  rinner =    0.900   0.900   0.900
                                                       0.900   0.900

     atomic species   valence    mass     pseudopotential
        Mg            10.00    24.30500     Mg( 1.00)
        Ca            10.00    24.30500     Ca( 1.00)
        O              6.00    15.99940     O ( 1.00)

     No symmetry found


                                    s                        frac. trans.

      isym =  1     identity                                     

 cryst.   s( 1) = (     1          0          0      )
                  (     0          1          0      )
                  (     0          0          1      )

 cart.    s( 1) = (  1.0000000 -0.0000000 -0.0000000 )
                  (  0.0000000  1.0000000  0.0000000 )
                  ( -0.0000000 -0.0000000  1.0000000 )


     point group C_1 (1)    
     there are  1 classes
     the character table:

       E    
A      1.00

     the symmetry operations in each class:
     E        1

   Cartesian axes

     site n.     atom                  positions (alat units)
         1           Mg  tau(   1) = (   -0.00407472516    0.00254245174    0.00439513795  )
         2           O   tau(   2) = (    0.17804796214    0.17753995922    0.17870379005  )
         3           Mg  tau(   3) = (    0.18140695564    0.17265586754   -0.00405399036  )
         4           O   tau(   4) = (    0.34997961395    0.35005427647    0.17207147054  )
         5           Mg  tau(   5) = (    0.35724668319    0.35711403814    0.00051602845  )
         6           O   tau(   6) = (    0.52894855556    0.52861066379    0.17916510260  )
         7           Ca  tau(   7) = (    0.53302524961    0.52726303252   -0.00228076390  )
         8           O   tau(   8) = (    0.70651702254    0.70661074686    0.17392088453  )
         9           Mg  tau(   9) = (    0.17427598146   -0.00035241487    0.17213525233  )
        10           O   tau(  10) = (    0.35335929295    0.17106805698    0.34966237122  )
        11           Mg  tau(  11) = (    0.35191320082    0.17139313959    0.17538305087  )
        12           O   tau(  12) = (    0.53097830614    0.35146135944    0.34810669277  )
        13           Mg  tau(  13) = (    0.53166182881    0.35238773834    0.17931240798  )
        14           O   tau(  14) = (    0.70794445549    0.53230350481    0.35199947650  )
        15           Mg  tau(  15) = (    0.70380069433    0.53172957710    0.17614388314  )
        16           O   tau(  16) = (    0.88368083720    0.70020187500    0.35137377590  )
        17           Mg  tau(  17) = (    0.35006573830   -0.00551978325    0.35495541234  )
        18           O   tau(  18) = (    0.52577056076    0.17678302812    0.52544251860  )
        19           Mg  tau(  19) = (    0.53036165751    0.17182106715    0.35521609127  )
        20           O   tau(  20) = (    0.70858985729    0.35324674077    0.52457021513  )
        21           Mg  tau(  21) = (    0.70570560038    0.34935574412    0.35331318998  )
        22           O   tau(  22) = (    0.88074967715    0.52399456037    0.53189286686  )
        23           Mg  tau(  23) = (    0.88077969868    0.53130425050    0.35197949401  )
        24           O   tau(  24) = (    1.05922618332    0.70285418039    0.52578648144  )
        25           Mg  tau(  25) = (    0.53395333527   -0.00718146754    0.52820545932  )
        26           O   tau(  26) = (    0.70564701465    0.17637867474    0.70471261704  )
        27           Mg  tau(  27) = (    0.70948878926    0.17690084943    0.52887087160  )
        28           O   tau(  28) = (    0.88313896228    0.35178246389    0.70698604202  )
        29           Mg  tau(  29) = (    0.88028669652    0.35151929779    0.52427531628  )
        30           O   tau(  30) = (    1.05734119740    0.52875449528    0.70167614927  )
        31           Mg  tau(  31) = (    1.06447537156    0.52631652985    0.52909291000  )
        32           O   tau(  32) = (    1.23327868321    0.70401995335    0.70426361005  )
        33           Mg  tau(  33) = (   -0.00450096161    0.17415240140    0.17864396056  )
        34           O   tau(  34) = (    0.17749721553    0.35514817269    0.35687917968  )
        35           Mg  tau(  35) = (    0.17309011867    0.35466558191    0.17559970454  )
        36           O   tau(  36) = (    0.35398001630    0.52634978312    0.35323180555  )
        37           Mg  tau(  37) = (    0.35721140790    0.52737516854    0.17700097375  )
        38           O   tau(  38) = (    0.53162954726    0.70854489908    0.34824318302  )
        39           Mg  tau(  39) = (    0.53232257081    0.71025003319    0.17964696707  )
        40           O   tau(  40) = (    0.70353391809    0.87806652738    0.35449114210  )
        41           Mg  tau(  41) = (    0.17642457374    0.17225282438    0.34986396085  )
        42           O   tau(  42) = (    0.35437677333    0.34958984513    0.53250201662  )
        43           Mg  tau(  43) = (    0.35329169604    0.34896000555    0.35403530352  )
        44           O   tau(  44) = (    0.53071776629    0.52711172069    0.53161385748  )
        45           Mg  tau(  45) = (    0.53262483791    0.52473730281    0.35567856988  )
        46           O   tau(  46) = (    0.70484518820    0.70568360604    0.53103097141  )
        47           Mg  tau(  47) = (    0.71052357186    0.70317992435    0.35121154621  )
        48           O   tau(  48) = (    0.88301310942    0.88461893350    0.53193029304  )
        49           Mg  tau(  49) = (    0.35324644175    0.17331545271    0.52827876141  )
        50           O   tau(  50) = (    0.53009095568    0.34994932227    0.70315130589  )
        51           Mg  tau(  51) = (    0.53003461157    0.35079100740    0.53248969064  )
        52           O   tau(  52) = (    0.70309301046    0.53126480576    0.70322570296  )
        53           Mg  tau(  53) = (    0.70934104261    0.53175988766    0.52655710940  )
        54           O   tau(  54) = (    0.88049590194    0.70180353845    0.70656403711  )
        55           Mg  tau(  55) = (    0.88205671117    0.70449559017    0.52689285115  )
        56           O   tau(  56) = (    1.05569645978    0.87764768273    0.70336716399  )
        57           Mg  tau(  57) = (    0.53121632047    0.17338755731    0.70528066010  )
        58           O   tau(  58) = (    0.70315473246    0.34584551256    0.88503093117  )
        59           Mg  tau(  59) = (    0.70170627146    0.34781864756    0.70215986752  )
        60           O   tau(  60) = (    0.88381398669    0.52759415609    0.87699817722  )
        61           Mg  tau(  61) = (    0.88299256285    0.52272519711    0.70786911823  )
        62           O   tau(  62) = (    1.06214059580    0.70362432800    0.87693711809  )
        63           Mg  tau(  63) = (    1.05979456590    0.70723125671    0.70178089770  )
        64           O   tau(  64) = (    1.23673876926    0.87791183043    0.88125615885  )
        65           Ca  tau(  65) = (    0.00106469603    0.34966846857    0.35083291491  )
        66           O   tau(  66) = (    0.17042273678    0.53062901932    0.53339948897  )
        67           Mg  tau(  67) = (    0.17664301866    0.53169920018    0.35623982427  )
        68           O   tau(  68) = (    0.35522102876    0.70233701567    0.52894062440  )
        69           Mg  tau(  69) = (    0.35593157952    0.70634701282    0.35486502203  )
        70           O   tau(  70) = (    0.52604495671    0.87898299090    0.52509922636  )
        71           Mg  tau(  71) = (    0.52929414072    0.88148046630    0.35504335616  )
        72           O   tau(  72) = (    0.70318777477    1.06181536080    0.53325576899  )
        73           Mg  tau(  73) = (    0.17033845230    0.34856229897    0.52602887383  )
        74           O   tau(  74) = (    0.34997533451    0.52718855102    0.70668826108  )
        75           Mg  tau(  75) = (    0.34798790128    0.52646010114    0.53162529835  )
        76           O   tau(  76) = (    0.53016186583    0.70545149684    0.70902678667  )
        77           Mg  tau(  77) = (    0.53185726806    0.70738289881    0.52694795196  )
        78           O   tau(  78) = (    0.70412440195    0.88422585724    0.70939288697  )
        79           Mg  tau(  79) = (    0.70175772233    0.88423370882    0.52823929738  )
        80           O   tau(  80) = (    0.87839306970    1.05764551558    0.70558613824  )
        81           Mg  tau(  81) = (    0.35013780569    0.34795901046    0.70660569967  )
        82           O   tau(  82) = (    0.52408353103    0.52502591442    0.88026575081  )
        83           Mg  tau(  83) = (    0.53172119955    0.52986690868    0.70235855541  )
        84           O   tau(  84) = (    0.70898583682    0.70471926090    0.88504076506  )
        85           Mg  tau(  85) = (    0.70584800203    0.70197786289    0.70681425928  )
        86           O   tau(  86) = (    0.88203251436    0.88258598535    0.87746652208  )
        87           Ca  tau(  87) = (    0.88236250248    0.88152733425    0.70364894555  )
        88           O   tau(  88) = (    1.05466316965    1.06092845627    0.88089641733  )
        89           Mg  tau(  89) = (    0.52704637935    0.35343432217    0.88266786089  )
        90           O   tau(  90) = (    0.70832931367    0.52577840127    1.06100260199  )
        91           Mg  tau(  91) = (    0.70253928995    0.52897223578    0.88247725899  )
        92           O   tau(  92) = (    0.88105336325    0.70653901753    1.05724893427  )
        93           Mg  tau(  93) = (    0.87889309368    0.70019041442    0.88457415497  )
        94           O   tau(  94) = (    1.05894302510    0.87495241909    1.05399315396  )
        95           Ca  tau(  95) = (    1.05745340721    0.88169289734    0.88204264842  )
        96           O   tau(  96) = (    1.23944682431    1.05670723581    1.05811949140  )
        97           Mg  tau(  97) = (    0.00145848617    0.53159660232    0.53064156757  )
        98           O   tau(  98) = (    0.17323571938    0.70997249123    0.70323147925  )
        99           Mg  tau(  99) = (    0.17285292224    0.70822821742    0.53085151974  )
       100           O   tau( 100) = (    0.35465369553    0.88504666666    0.70275505173  )
       101           Mg  tau( 101) = (    0.34887201068    0.88506996405    0.53039167714  )
       102           O   tau( 102) = (    0.53056805692    1.06191929094    0.70790099942  )
       103           Mg  tau( 103) = (    0.52875171304    1.06187713170    0.52828482980  )
       104           O   tau( 104) = (    0.70707086111    1.23930282457    0.70594831481  )
       105           Ca  tau( 105) = (    0.17535595746    0.52514051970    0.70879131362  )
       106           O   tau( 106) = (    0.34812154830    0.70300934471    0.88240145602  )
       107           Mg  tau( 107) = (    0.35464763089    0.70817007925    0.70859708627  )
       108           O   tau( 108) = (    0.52641388487    0.88303242564    0.88095789272  )
       109           Mg  tau( 109) = (    0.53077859199    0.88575037837    0.70704637359  )
       110           O   tau( 110) = (    0.70643732359    1.05588167355    0.88010167304  )
       111           Mg  tau( 111) = (    0.70248478748    1.05949887904    0.70678474513  )
       112           O   tau( 112) = (    0.88017531124    1.23381968201    0.87984348722  )
       113           Mg  tau( 113) = (    0.34626692417    0.52932287615    0.88714288297  )
       114           O   tau( 114) = (    0.52956778131    0.70201790693    1.06038555769  )
       115           Mg  tau( 115) = (    0.52712873937    0.70574478361    0.88280199210  )
       116           O   tau( 116) = (    0.70258798698    0.87717701994    1.06038613819  )
       117           Mg  tau( 117) = (    0.70044822341    0.88181332865    0.88205747938  )
       118           O   tau( 118) = (    0.87952136871    1.05991108384    1.05398372750  )
       119           Mg  tau( 119) = (    0.88231372445    1.05416004324    0.88090618077  )
       120           O   tau( 120) = (    1.05975286565    1.22963813582    1.05989791857  )
       121           Mg  tau( 121) = (    0.52584087997    0.52946020801    1.05534131766  )
       122           O   tau( 122) = (    0.70066459672    0.70424931066    1.23784278116  )
       123           Mg  tau( 123) = (    0.70832188887    0.70004312050    1.06088161079  )
       124           O   tau( 124) = (    0.88233382622    0.88204954204    1.23227977625  )
       125           Mg  tau( 125) = (    0.88208357795    0.88275036810    1.05751593508  )
       126           O   tau( 126) = (    1.05679114538    1.05178912068    1.23605389922  )
       127           Mg  tau( 127) = (    1.05417325636    1.05441746419    1.05909826843  )
       128           O   tau( 128) = (    1.23216322108    1.22879728994    1.23689836751  )

   Crystallographic axes

     site n.     atom                  positions (cryst. coord.)
         1           Mg  tau(   1) = (    0.00774661916   -0.00154949812   -0.00416429791  )
         2           O   tau(   2) = (    0.12656235402    0.12683706302    0.12553953277  )
         3           Mg  tau(   3) = (   -0.00825183778    0.00307738204    0.25297114549  )
         4           O   tau(   4) = (    0.12302456662    0.12151004826    0.37354254229  )
         5           Mg  tau(   5) = (    0.00179604272    0.00001590151    0.50430606258  )
         6           O   tau(   6) = (    0.12850593843    0.12660835341    0.62113181959  )
         7           Ca  tau(   7) = (   -0.00339346761    0.00178832121    0.75065008806  )
         8           O   tau(   8) = (    0.12586577845    0.12236510931    0.87601616113  )
         9           Mg  tau(   9) = (   -0.00074207019    0.24508604025    0.00158344774  )
        10           O   tau(  10) = (    0.11995410990    0.37613774519    0.12434898896  )
        11           Mg  tau(  11) = (   -0.00184094641    0.25132671508    0.24611737650  )
        12           O   tau(  12) = (    0.12156836382    0.37285602862    0.37836905629  )
        13           Mg  tau(  13) = (    0.00257813297    0.25300995105    0.49820743176  )
        14           O   tau(  14) = (    0.12780234470    0.37266040930    0.62841497878  )
        15           Mg  tau(  15) = (    0.00614994756    0.24546559645    0.74875336457  )
        16           O   tau(  16) = (    0.12258975285    0.37753097563    0.87160945438  )
        17           Mg  tau(  17) = (    0.00160759704    0.50221279292   -0.00668776439  )
        18           O   tau(  18) = (    0.12736467961    0.61821150036    0.12634903822  )
        19           Mg  tau(  19) = (    0.00047979569    0.50425955207    0.24578191038  )
        20           O   tau(  20) = (    0.12305245956    0.62185207413    0.38077385091  )
        21           Mg  tau(  21) = (    0.00142814815    0.50114637941    0.49641859859  )
        22           O   tau(  22) = (    0.12796242943    0.62782665722    0.61787386885  )
        23           Mg  tau(  23) = (    0.00607639112    0.49513117413    0.74958892972  )
        24           O   tau(  24) = (    0.12468331403    0.62300525068    0.87461317042  )
        25           Mg  tau(  25) = (   -0.00599913930    0.75578568897   -0.00003778722  )
        26           O   tau(  26) = (    0.12770194725    0.87233884011    0.12682723341  )
        27           Mg  tau(  27) = (    0.00124047388    0.75000677531    0.25356237337  )
        28           O   tau(  28) = (    0.12859377468    0.87520420093    0.37453330425  )
        29           Mg  tau(  29) = (    0.00141651962    0.74383979215    0.50082300903  )
        30           O   tau(  30) = (    0.12753990245    0.86926819004    0.62636260470  )
        31           Mg  tau(  31) = (   -0.00101141153    0.75365559185    0.75103252244  )
        32           O   tau(  32) = (    0.12964432252    0.87135856657    0.87265386313  )
        33           Mg  tau(  33) = (    0.25194276002    0.00056185055   -0.00553253715  )
        34           O   tau(  34) = (    0.37784292063    0.12741076551    0.12556791784  )
        35           Mg  tau(  35) = (    0.25261011766   -0.00387955209    0.24959949453  )
        36           O   tau(  36) = (    0.37230133051    0.12833335291    0.37375171711  )
        37           Mg  tau(  37) = (    0.24634698672    0.00494016659    0.50068627046  )
        38           O   tau(  38) = (    0.37273985656    0.12136741491    0.63148279985  )
        39           Mg  tau(  39) = (    0.25443136340    0.00111878344    0.75173980485  )
        40           O   tau(  40) = (    0.37620623701    0.12726555643    0.86829053051  )
        41           Mg  tau(  41) = (    0.24480913522    0.25077630705    0.00028807098  )
        42           O   tau(  42) = (    0.37407307087    0.38047850138    0.12284975512  )
        43           Mg  tau(  43) = (    0.24839641797    0.25362703720    0.24714147226  )
        44           O   tau(  44) = (    0.37503071713    0.37879632956    0.37346681423  )
        45           Mg  tau(  45) = (    0.24781738686    0.25707928760    0.49685330122  )
        46           O   tau(  46) = (    0.37849330721    0.37502977290    0.62305161147  )
        47           Mg  tau(  47) = (    0.24580639969    0.25330741225    0.75173720903  )
        48           O   tau(  48) = (    0.38042941193    0.37490449096    0.87470031221  )
        49           Mg  tau(  49) = (    0.24771455531    0.50110953182    0.00025228517  )
        50           O   tau(  50) = (    0.37177647591    0.62502187849    0.12699614731  )
        51           Mg  tau(  51) = (    0.25192630791    0.50339034903    0.24756604764  )
        52           O   tau(  52) = (    0.37842360051    0.61899185289    0.37726719303  )
        53           Mg  tau(  53) = (    0.24967460574    0.49778813026    0.50626128512  )
        54           O   tau(  54) = (    0.37670261097    0.62598343390    0.62071801721  )
        55           Mg  tau(  55) = (    0.25066310914    0.49779757068    0.75007368105  )
        56           O   tau(  56) = (    0.37564702495    0.62304506394    0.87096696854  )
        57           Mg  tau(  57) = (    0.24812101358    0.75194906047    0.00131844803  )
        58           O   tau(  58) = (    0.37611987949    0.87881037198    0.11821704649  )
        59           Mg  tau(  59) = (    0.24942183716    0.74674293167    0.24719223310  )
        60           O   tau(  60) = (    0.37198762177    0.87212195689    0.37989499751  )
        61           Mg  tau(  61) = (    0.24973245532    0.75506873040    0.49480559767  )
        62           O   tau(  62) = (    0.37108821732    0.87347816227    0.63027463136  )
        63           Mg  tau(  63) = (    0.25161591662    0.74509485937    0.75434808031  )
        64           O   tau(  64) = (    0.37466390948    0.87654281785    0.87371162288  )
        65           Ca  tau(  65) = (    0.49324104084    0.00267755584    0.00153752439  )
        66           O   tau(  66) = (    0.63102401117    0.12371599410    0.12065448587  )
        67           Mg  tau(  67) = (    0.50235286437    0.00173862460    0.25038141160  )
        68           O   tau(  68) = (    0.61944426622    0.12956490372    0.37563068064  )
        69           Mg  tau(  69) = (    0.49887875731    0.00381691321    0.50138472302  )
        70           O   tau(  70) = (    0.62156270682    0.12251983442    0.62381444198  )
        71           Mg  tau(  71) = (    0.50099220862    0.00247812183    0.74746111404  )
        72           O   tau(  72) = (    0.63208501692    0.12406688473    0.87239526282  )
        73           Mg  tau(  73) = (    0.49763103108    0.24694107878   -0.00309202121  )
        74           O   tau(  74) = (    0.62522671487    0.37551744677    0.12296153872  )
        75           Mg  tau(  75) = (    0.50251532736    0.25051301834    0.24415359149  )
        76           O   tau(  76) = (    0.62629193131    0.37830945523    0.37454556210  )
        77           Mg  tau(  77) = (    0.49792265632    0.24904832015    0.50515084969  )
        78           O   tau(  78) = (    0.63068254673    0.37495662872    0.62349006016  )
        79           Mg  tau(  79) = (    0.50445551803    0.24484706545    0.74921896587  )
        80           O   tau(  80) = (    0.62814103593    0.37264055443    0.87179471376  )
        81           Mg  tau(  81) = (    0.49880466309    0.50208096954   -0.00372792622  )
        82           O   tau(  82) = (    0.62434517000    0.62278552969    0.12213115046  )
        83           Mg  tau(  83) = (    0.49681010118    0.49861526150    0.25605222160  )
        84           O   tau(  84) = (    0.62483638401    0.62961808579    0.37633935539  )
        85           Mg  tau(  85) = (    0.49927912766    0.50298097967    0.49752013905  )
        86           O   tau(  86) = (    0.62362321300    0.62063095212    0.62957949828  )
        87           Ca  tau(  87) = (    0.49993593219    0.49837541606    0.75129606706  )
        88           O   tau(  88) = (    0.63080505654    0.61881673484    0.87512463583  )
        89           Mg  tau(  89) = (    0.50309678958    0.74769263101    0.00107524570  )
        90           O   tau(  90) = (    0.62347368941    0.88021486675    0.12547755947  )
        91           Mg  tau(  91) = (    0.50374315361    0.74730782532    0.24919948954  )
        92           O   tau(  92) = (    0.62722209378    0.87166653935    0.37785183521  )
        93           Mg  tau(  93) = (    0.50235884947    0.75220046895    0.49326453324  )
        94           O   tau(  94) = (    0.61900794034    0.87582606968    0.62477869411  )
        95           Ca  tau(  95) = (    0.50340646911    0.74810723251    0.74941964502  )
        96           O   tau(  96) = (    0.62357286149    0.87764446326    0.87780080009  )
        97           Mg  tau(  97) = (    0.74805631345    0.00202557156    0.00414107521  )
        98           O   tau(  98) = (    0.87528162182    0.11951955752    0.13015021032  )
        99           Mg  tau(  99) = (    0.75262535023   -0.00173500686    0.24986792181  )
       100           O   tau( 100) = (    0.87125119703    0.12343422715    0.38232501180  )
       101           Mg  tau( 101) = (    0.75363166741   -0.00286025641    0.49947539207  )
       102           O   tau( 102) = (    0.87631012453    0.12618785318    0.62793835067  )
       103           Mg  tau( 103) = (    0.75074793590   -0.00240862556    0.75293874754  )
       104           O   tau( 104) = (    0.87630550621    0.12396260077    0.87932018594  )
       105           Ca  tau( 105) = (    0.74752587367    0.25541736188   -0.00309221403  )
       106           O   tau( 106) = (    0.87442227601    0.37468898615    0.12253745475  )
       107           Mg  tau( 107) = (    0.75078717791    0.25241868017    0.25301584004  )
       108           O   tau( 108) = (    0.87538347752    0.37222249920    0.37669139427  )
       109           Mg  tau( 109) = (    0.75146528361    0.25007753707    0.50399208329  )
       110           O   tau( 110) = (    0.87049404593    0.37645575424    0.62657513289  )
       111           Mg  tau( 111) = (    0.75345224609    0.24823729797    0.74822965830  )
       112           O   tau( 112) = (    0.87401201668    0.37309242870    0.87520832950  )
       113           Mg  tau( 113) = (    0.75672263102    0.49933890602   -0.00504314369  )
       114           O   tau( 114) = (    0.87233906296    0.62942501821    0.12461130905  )
       115           Mg  tau( 115) = (    0.75130273476    0.49917054635    0.25041105096  )
       116           O   tau( 116) = (    0.87458479469    0.62770086584    0.37058946654  )
       117           Mg  tau( 117) = (    0.75345352314    0.49648708563    0.49776791451  )
       118           O   tau( 118) = (    0.87490626248    0.61884755326    0.62919127981  )
       119           Mg  tau( 119) = (    0.74671209535    0.50216375683    0.74880230741  )
       120           O   tau( 120) = (    0.87245160224    0.63023134790    0.87225063566  )
       121           Mg  tau( 121) = (    0.74983695703    0.74502104016    0.00339106706  )
       122           O   tau( 122) = (    0.87940005808    0.87422048976    0.12203942916  )
       123           Mg  tau( 123) = (    0.74614624492    0.75712064748    0.24890529712  )
       124           O   tau( 124) = (    0.87352298032    0.87278168688    0.37989796420  )
       125           Mg  tau( 125) = (    0.75081328868    0.74820451109    0.50311623510  )
       126           O   tau( 126) = (    0.87360901627    0.87857086585    0.62039973232  )
       127           Mg  tau( 127) = (    0.75236739897    0.74941096912    0.74485422459  )
       128           O   tau( 128) = (    0.87610636672    0.87779700963    0.86875156031  )

     number of k points=     8  gaussian smearing, width (Ry)=  0.0050
                       cart. coord. in units 2pi/alat
        k(    1) = (   0.0000000   0.0000000   0.0000000), wk =   0.2500000
        k(    2) = (  -0.3525531  -0.3539095   0.3516135), wk =   0.2500000
        k(    3) = (  -0.3522997   0.3529206  -0.3544960), wk =   0.2500000
        k(    4) = (  -0.7048528  -0.0009890  -0.0028825), wk =   0.2500000
        k(    5) = (   0.3500674  -0.3522020  -0.3529865), wk =   0.2500000
        k(    6) = (  -0.0024857  -0.7061116  -0.0013730), wk =   0.2500000
        k(    7) = (  -0.0022323   0.0007185  -0.7074826), wk =   0.2500000
        k(    8) = (  -0.3547854  -0.3531910  -0.3558690), wk =   0.2500000

                       cryst. coord.
        k(    1) = (   0.0000000   0.0000000   0.0000000), wk =   0.2500000
        k(    2) = (   0.0000000   0.0000000  -0.5000000), wk =   0.2500000
        k(    3) = (   0.0000000  -0.5000000   0.0000000), wk =   0.2500000
        k(    4) = (   0.0000000  -0.5000000  -0.5000000), wk =   0.2500000
        k(    5) = (  -0.5000000  -0.0000000  -0.0000000), wk =   0.2500000
        k(    6) = (  -0.5000000   0.0000000  -0.5000000), wk =   0.2500000
        k(    7) = (  -0.5000000  -0.5000000   0.0000000), wk =   0.2500000
        k(    8) = (  -0.5000000  -0.5000000  -0.5000000), wk =   0.2500000

     Dense  grid:   393931 G-vectors     FFT dimensions: ( 108, 108, 108)

     Smooth grid:   281971 G-vectors     FFT dimensions: (  96,  96,  96)

     Largest allocated arrays     est. size (Mb)     dimensions
        Kohn-Sham Wavefunctions        41.38 Mb     (    4417,  614)
        NL pseudopotentials           137.69 Mb     (    4417, 2043)
        Each V/rho on FFT grid          2.49 Mb     (  163296)
        Each G-vector array             0.38 Mb     (   49243)
        G-vector shells                 0.37 Mb     (   48348)
     Largest temporary arrays     est. size (Mb)     dimensions
        Auxiliary wavefunctions       165.53 Mb     (    4417, 2456)
        Each subspace H/S matrix       92.04 Mb     (    2456, 2456)
        Each <psi_i|beta_j> matrix     19.14 Mb     (    2043,  614)
        Arrays for rho mixing          19.93 Mb     (  163296,    8)

     Check: negative/imaginary core charge=   -0.000003    0.000000

     Initial potential from superposition of free atoms

     starting charge 1006.26061, renormalised to 1024.00000
     Starting wfc are  601 randomized atomic wfcs +   13 random wfc

     total cpu time spent up to now is      707.5 secs

     Self-consistent Calculation

     iteration #  1     ecut=    40.00 Ry     beta=0.30
     Davidson diagonalization with overlap
     ethr =  1.00E-02,  avg # of iterations =  5.1

     total cpu time spent up to now is     3954.9 secs

     total energy              =   -9838.20999170 Ry
     Harris-Foulkes estimate   =   -9842.63978043 Ry
     estimated scf accuracy    <      22.37318237 Ry

     iteration #  2     ecut=    40.00 Ry     beta=0.30
     Davidson diagonalization with overlap
     ethr =  2.18E-03,  avg # of iterations =  1.0

     total cpu time spent up to now is     5740.3 secs

     total energy              =   -9834.03053820 Ry
     Harris-Foulkes estimate   =   -9838.74603630 Ry
     estimated scf accuracy    <      10.43480990 Ry

     iteration #  3     ecut=    40.00 Ry     beta=0.30
     Davidson diagonalization with overlap
     ethr =  1.02E-03,  avg # of iterations =  2.1

     total cpu time spent up to now is     7934.8 secs

     total energy              =   -9834.94999836 Ry
     Harris-Foulkes estimate   =   -9835.59467656 Ry
     estimated scf accuracy    <       1.36912277 Ry

     iteration #  4     ecut=    40.00 Ry     beta=0.30
     Davidson diagonalization with overlap
     ethr =  1.34E-04,  avg # of iterations =  7.5

     total cpu time spent up to now is    10502.5 secs

     total energy              =   -9834.84261010 Ry
     Harris-Foulkes estimate   =   -9835.03473222 Ry
     estimated scf accuracy    <       0.31660467 Ry

     iteration #  5     ecut=    40.00 Ry     beta=0.30
     Davidson diagonalization with overlap
     ethr =  3.09E-05,  avg # of iterations =  6.8

     total cpu time spent up to now is    13893.9 secs

     total energy              =   -9834.87355544 Ry
     Harris-Foulkes estimate   =   -9834.88381476 Ry
     estimated scf accuracy    <       0.04701583 Ry

     iteration #  6     ecut=    40.00 Ry     beta=0.30
     Davidson diagonalization with overlap
     ethr =  4.59E-06,  avg # of iterations =  4.9

     total cpu time spent up to now is    16631.7 secs

     total energy              =   -9834.87345717 Ry
     Harris-Foulkes estimate   =   -9834.87794123 Ry
     estimated scf accuracy    <       0.01832499 Ry

     iteration #  7     ecut=    40.00 Ry     beta=0.30
     Davidson diagonalization with overlap
     ethr =  1.79E-06,  avg # of iterations =  2.5

     total cpu time spent up to now is    18665.4 secs

     total energy              =   -9834.87247418 Ry
     Harris-Foulkes estimate   =   -9834.87461749 Ry
     estimated scf accuracy    <       0.00493989 Ry

     iteration #  8     ecut=    40.00 Ry     beta=0.30
     Davidson diagonalization with overlap
     ethr =  4.82E-07,  avg # of iterations =  6.0

     total cpu time spent up to now is    21502.5 secs

     total energy              =   -9834.87295255 Ry
     Harris-Foulkes estimate   =   -9834.87311769 Ry
     estimated scf accuracy    <       0.00107806 Ry

     iteration #  9     ecut=    40.00 Ry     beta=0.30
     Davidson diagonalization with overlap
     ethr =  1.05E-07,  avg # of iterations =  2.0

     total cpu time spent up to now is    23198.9 secs

     total energy              =   -9834.87292669 Ry
     Harris-Foulkes estimate   =   -9834.87300034 Ry
     estimated scf accuracy    <       0.00046376 Ry

     iteration # 10     ecut=    40.00 Ry     beta=0.30
     Davidson diagonalization with overlap
     ethr =  4.53E-08,  avg # of iterations =  1.0

     total cpu time spent up to now is    24804.1 secs

     total energy              =   -9834.87285955 Ry
     Harris-Foulkes estimate   =   -9834.87294218 Ry
     estimated scf accuracy    <       0.00026322 Ry

     iteration # 11     ecut=    40.00 Ry     beta=0.30
     Davidson diagonalization with overlap
     ethr =  2.57E-08,  avg # of iterations =  2.0

     total cpu time spent up to now is    26709.2 secs

     total energy              =   -9834.87287830 Ry
     Harris-Foulkes estimate   =   -9834.87288404 Ry
     estimated scf accuracy    <       0.00007041 Ry

     iteration # 12     ecut=    40.00 Ry     beta=0.30
     Davidson diagonalization with overlap
     ethr =  6.88E-09,  avg # of iterations =  1.0

     total cpu time spent up to now is    28370.0 secs

     total energy              =   -9834.87284780 Ry
     Harris-Foulkes estimate   =   -9834.87288131 Ry
     estimated scf accuracy    <       0.00006003 Ry

     iteration # 13     ecut=    40.00 Ry     beta=0.30
     Davidson diagonalization with overlap
     ethr =  5.86E-09,  avg # of iterations =  2.0

     total cpu time spent up to now is    30471.1 secs

     total energy              =   -9834.87285877 Ry
     Harris-Foulkes estimate   =   -9834.87285904 Ry
     estimated scf accuracy    <       0.00000375 Ry

     iteration # 14     ecut=    40.00 Ry     beta=0.30
     Davidson diagonalization with overlap
     ethr =  3.66E-10,  avg # of iterations =  2.0

     total cpu time spent up to now is    32204.6 secs

     total energy              =   -9834.87285832 Ry
     Harris-Foulkes estimate   =   -9834.87285890 Ry
     estimated scf accuracy    <       0.00000249 Ry

     iteration # 15     ecut=    40.00 Ry     beta=0.30
     Davidson diagonalization with overlap
     ethr =  2.43E-10,  avg # of iterations =  2.0

     total cpu time spent up to now is    34147.5 secs

     total energy              =   -9834.87285833 Ry
     Harris-Foulkes estimate   =   -9834.87285852 Ry
     estimated scf accuracy    <       0.00000080 Ry

     iteration # 16     ecut=    40.00 Ry     beta=0.30
     Davidson diagonalization with overlap
     ethr =  7.81E-11,  avg # of iterations =  2.0

     total cpu time spent up to now is    36010.2 secs

     total energy              =   -9834.87285829 Ry
     Harris-Foulkes estimate   =   -9834.87285838 Ry
     estimated scf accuracy    <       0.00000045 Ry

     iteration # 17     ecut=    40.00 Ry     beta=0.30
     Davidson diagonalization with overlap
     ethr =  4.40E-11,  avg # of iterations =  2.0

     total cpu time spent up to now is    37847.6 secs

     total energy              =   -9834.87285829 Ry
     Harris-Foulkes estimate   =   -9834.87285831 Ry
     estimated scf accuracy    <       0.00000024 Ry

     iteration # 18     ecut=    40.00 Ry     beta=0.30
     Davidson diagonalization with overlap
     ethr =  2.31E-11,  avg # of iterations =  1.0

     total cpu time spent up to now is    39541.0 secs

     total energy              =   -9834.87285827 Ry
     Harris-Foulkes estimate   =   -9834.87285830 Ry
     estimated scf accuracy    <       0.00000015 Ry

     iteration # 19     ecut=    40.00 Ry     beta=0.30
     Davidson diagonalization with overlap
     ethr =  1.50E-11,  avg # of iterations =  2.0

     total cpu time spent up to now is    41478.7 secs

     total energy              =   -9834.87285825 Ry
     Harris-Foulkes estimate   =   -9834.87285828 Ry
     estimated scf accuracy    <       0.00000007 Ry

     iteration # 20     ecut=    40.00 Ry     beta=0.30
     Davidson diagonalization with overlap
     ethr =  6.36E-12,  avg # of iterations =  2.0

     total cpu time spent up to now is    43550.7 secs

     total energy              =   -9834.87285826 Ry
     Harris-Foulkes estimate   =   -9834.87285826 Ry
     estimated scf accuracy    <       0.00000001 Ry

     iteration # 21     ecut=    40.00 Ry     beta=0.30
     Davidson diagonalization with overlap
     ethr =  1.38E-12,  avg # of iterations =  1.0

     total cpu time spent up to now is    45309.5 secs

     total energy              =   -9834.87285825 Ry
     Harris-Foulkes estimate   =   -9834.87285826 Ry
     estimated scf accuracy    <          8.9E-09 Ry

     iteration # 22     ecut=    40.00 Ry     beta=0.30
     Davidson diagonalization with overlap
     ethr =  8.67E-13,  avg # of iterations =  2.0

     total cpu time spent up to now is    47459.1 secs

     total energy              =   -9834.87285825 Ry
     Harris-Foulkes estimate   =   -9834.87285825 Ry
     estimated scf accuracy    <          1.2E-09 Ry

     iteration # 23     ecut=    40.00 Ry     beta=0.30
     Davidson diagonalization with overlap
     ethr =  1.14E-13,  avg # of iterations =  1.0

     total cpu time spent up to now is    49224.6 secs

     total energy              =   -9834.87285825 Ry
     Harris-Foulkes estimate   =   -9834.87285825 Ry
     estimated scf accuracy    <          5.9E-10 Ry

     iteration # 24     ecut=    40.00 Ry     beta=0.30
     Davidson diagonalization with overlap
     ethr =  1.00E-13,  avg # of iterations =  2.0

     total cpu time spent up to now is    51108.4 secs

     End of self-consistent calculation

          k = 0.0000 0.0000 0.0000 ( 35275 PWs)   bands (ev):

   -64.4964 -64.4726 -64.4348 -64.3991 -64.3668 -64.3461 -64.3329 -64.3209
   -64.3169 -64.3131 -64.3120 -64.3057 -64.3032 -64.3003 -64.2795 -64.2772
   -64.2759 -64.2558 -64.2450 -64.2440 -64.2395 -64.2373 -64.2236 -64.2184
   -64.2133 -64.2000 -64.1811 -64.1789 -64.1773 -64.1719 -64.1689 -64.1658
   -64.1607 -64.1572 -64.1349 -64.1253 -64.1104 -64.1070 -64.1059 -64.1042
   -64.1031 -64.0975 -64.0944 -64.0647 -64.0432 -64.0229 -64.0192 -64.0042
   -63.9928 -63.9851 -63.9663 -63.9351 -63.9291 -63.9259 -63.9016 -63.8670
   -63.8496 -63.8068 -63.5993 -31.4903 -31.4801 -31.4670 -31.4566 -31.4539
   -31.4445 -31.4177 -31.4128 -31.4102 -31.3872 -31.3839 -31.3748 -31.3591
   -31.3491 -31.3445 -31.3367 -31.3238 -31.3196 -31.3160 -31.3132 -31.3130
   -31.3061 -31.3043 -31.3041 -31.3030 -31.3020 -31.3005 -31.3000 -31.2996
   -31.2985 -31.2950 -31.2905 -31.2900 -31.2893 -31.2881 -31.2877 -31.2869
   -31.2857 -31.2849 -31.2804 -31.2799 -31.2756 -31.2692 -31.2682 -31.2636
   -31.2575 -31.2553 -31.2540 -31.2523 -31.2464 -31.2444 -31.2435 -31.2387
   -31.2377 -31.2338 -31.2284 -31.2274 -31.2240 -31.2237 -31.2230 -31.2210
   -31.2184 -31.2158 -31.2145 -31.2112 -31.2083 -31.2080 -31.2070 -31.2044
   -31.1994 -31.1988 -31.1965 -31.1934 -31.1914 -31.1882 -31.1878 -31.1846
   -31.1793 -31.1723 -31.1667 -31.1636 -31.1625 -31.1604 -31.1600 -31.1594
   -31.1563 -31.1560 -31.1536 -31.1518 -31.1508 -31.1499 -31.1495 -31.1490
   -31.1479 -31.1478 -31.1438 -31.1416 -31.1398 -31.1371 -31.1333 -31.1297
   -31.1284 -31.1200 -31.1190 -31.1105 -31.1084 -31.1070 -31.1012 -31.1006
   -31.0953 -31.0928 -31.0926 -31.0909 -31.0883 -31.0856 -31.0848 -31.0846
   -31.0840 -31.0834 -31.0829 -31.0814 -31.0811 -31.0773 -31.0772 -31.0755
   -31.0721 -31.0701 -31.0698 -31.0623 -31.0532 -31.0453 -31.0380 -31.0340
   -31.0265 -31.0213 -31.0156 -31.0073 -31.0045 -30.9995 -30.9964 -30.9953
   -30.9867 -30.9835 -30.9799 -30.9798 -30.9782 -30.9739 -30.9677 -30.9665
   -30.9578 -30.9537 -30.9426 -30.9341 -30.9305 -30.9275 -30.9163 -30.9123
   -30.9099 -30.9067 -30.9055 -30.9040 -30.8914 -30.8907 -30.8796 -30.8716
   -30.8609 -30.8512 -30.8469 -30.8413 -30.8336 -30.8203 -30.7948 -30.7881
   -30.7839 -30.5877 -30.5865 -30.5753 -27.6462 -27.5330 -27.4428 -27.2013
   -27.1304 -10.3619 -10.2397 -10.2124 -10.1423 -10.1160 -10.0952 -10.0758
   -10.0422  -9.9877  -9.9490  -9.8064  -9.5558  -9.4714  -9.4113  -9.2753
    -9.2031  -8.7820  -8.7003  -8.6442  -8.5918  -8.5761  -8.5127  -8.4923
    -8.4267  -8.4213  -8.3785  -8.3138  -8.2716  -8.2630  -8.2339  -8.1785
    -8.1482  -8.1111  -8.0926  -8.0731  -8.0331  -8.0085  -7.9988  -7.9853
    -7.9745  -7.9607  -7.9547  -7.9296  -7.9145  -7.8973  -7.8881  -7.8793
    -7.8656  -7.8610  -7.8323  -7.8127  -7.8036  -7.7892  -7.7693  -7.7629
    -7.7424  -7.7215  -7.7145  -7.6961  -7.6675  -7.6485  -7.6223  -7.5600
    -7.5499  -7.1306  -7.0682  -7.0227  -6.9897  -6.9668  -6.8285  -6.7757
    -6.7502  -6.7263  -6.5602  -6.4932  -6.2183  -6.1241  -6.0754  -5.9816
     3.1438   3.2098   3.2263   3.3459   3.7588   3.7784   3.8246   3.8978
     3.9140   3.9291   3.9415   3.9509   3.9629   3.9792   3.9877   4.0034
     4.0200   4.0415   4.0723   4.0919   4.1036   4.1082   4.1398   4.1595
     4.1755   4.2040   4.2067   4.2294   4.2610   4.2673   4.2765   4.2951
     4.3031   4.3247   4.3358   4.3549   4.3800   4.4006   4.4970   4.6059
     4.6525   4.6895   4.8082   4.8486   4.8663   4.8767   4.9038   4.9546
     4.9694   4.9915   5.0196   5.0547   5.0756   5.0880   5.0928   5.1188
     5.1394   5.1604   5.1780   5.1889   5.2300   5.2519   5.2602   5.2811
     5.3900   5.4310   5.4949   5.5618   5.6765   5.6853   5.7035   5.7219
     5.7408   5.7601   5.7637   5.7714   5.7937   5.8013   5.8120   5.8182
     5.8312   5.8485   5.8566   5.8578   5.8681   5.8840   5.8915   5.9069
     5.9132   5.9304   5.9442   5.9661   5.9946   6.0163   6.0320   6.0529
     6.0624   6.1026   6.1184   6.1374   6.1434   6.1612   6.2002   6.2238
     6.2850   6.3159   6.3218   6.3404   6.4476   6.4504   6.4719   6.5081
     6.5358   6.5600   6.5639   6.6095   6.6302   6.6605   6.6700   6.6900
     6.7139   6.7346   6.7389   6.7509   6.7592   6.7821   6.7922   6.7992
     6.8274   6.8364   6.8639   6.8671   6.8957   6.8998   6.9124   6.9170
     6.9384   6.9416   6.9705   6.9816   6.9912   7.0060   7.0210   7.0251
     7.0315   7.0539   7.0644   7.0694   7.0844   7.1044   7.1072   7.1180
     7.1296   7.1405   7.1537   7.1653   7.1817   7.1885   7.2135   7.2323
     7.2380   7.2469   7.2589   7.2672   7.2891   7.2908   7.3286   7.3410
     7.3601   7.3687   7.3887   7.4053   7.4227   7.4276   7.4423   7.4538
     7.4803   7.5190   7.5279   7.5431   7.5607   7.5907   7.5982   7.6176
     7.6542   7.6759   7.6834   7.7794   7.8155   7.9381   8.0331   8.0632
    12.4140  14.5068  14.5722  14.6084  14.6356  14.6960  14.7667  14.8021
    14.8967  15.1727  15.2151  15.2833  15.4062  15.4603  15.4770  15.5055
    15.5776  15.6304  15.6596  15.6782  15.7043  15.7558  15.8154  15.8476
    15.9222  15.9550  15.9935  16.0898  16.2422  16.3528  16.4129  16.5606
    16.6123  16.7426  16.7883  16.8684  16.8804  16.9093  16.9577  16.9837
    16.9999  17.0133  17.0370  17.0665  17.0757  17.1141  17.1198  17.1368
    17.1507  17.2168  17.2383  17.2467  17.2813  17.3239  17.3634  17.3850
    17.4337  17.4438  17.4980  17.5683  17.6131  17.6521  17.6799  17.7169
    17.7638  17.7972  17.8211  17.8658  17.9073  17.9617  17.9769  18.0730
    18.1853  18.2356  18.3020  18.3379  18.6421  18.7203  18.7506  18.7689
    18.8123  18.8325  18.8576  18.8976  18.9277  18.9317  18.9535  18.9936
    19.0054  19.0153  19.0272  19.0355  19.0843  19.0926  19.1178  19.1358
    19.1533  19.1593  19.1717  19.2144  19.2209  19.2311

     occupation numbers 
     1.0000   1.0000   1.0000   1.0000   1.0000   1.0000   1.0000   1.0000
     1.0000   1.0000   1.0000   1.0000   1.0000   1.0000   1.0000   1.0000
     1.0000   1.0000   1.0000   1.0000   1.0000   1.0000   1.0000   1.0000
     1.0000   1.0000   1.0000   1.0000   1.0000   1.0000   1.0000   1.0000
     1.0000   1.0000   1.0000   1.0000   1.0000   1.0000   1.0000   1.0000
     1.0000   1.0000   1.0000   1.0000   1.0000   1.0000   1.0000   1.0000
     1.0000   1.0000   1.0000   1.0000   1.0000   1.0000   1.0000   1.0000
     1.0000   1.0000   1.0000   1.0000   1.0000   1.0000   1.0000   1.0000
     1.0000   1.0000   1.0000   1.0000   1.0000   1.0000   1.0000   1.0000
     1.0000   1.0000   1.0000   1.0000   1.0000   1.0000   1.0000   1.0000
     1.0000   1.0000   1.0000   1.0000   1.0000   1.0000   1.0000   1.0000
     1.0000   1.0000   1.0000   1.0000   1.0000   1.0000   1.0000   1.0000
     1.0000   1.0000   1.0000   1.0000   1.0000   1.0000   1.0000   1.0000
     1.0000   1.0000   1.0000   1.0000   1.0000   1.0000   1.0000   1.0000
     1.0000   1.0000   1.0000   1.0000   1.0000   1.0000   1.0000   1.0000
     1.0000   1.0000   1.0000   1.0000   1.0000   1.0000   1.0000   1.0000
     1.0000   1.0000   1.0000   1.0000   1.0000   1.0000   1.0000   1.0000
     1.0000   1.0000   1.0000   1.0000   1.0000   1.0000   1.0000   1.0000
     1.0000   1.0000   1.0000   1.0000   1.0000   1.0000   1.0000   1.0000
     1.0000   1.0000   1.0000   1.0000   1.0000   1.0000   1.0000   1.0000
     1.0000   1.0000   1.0000   1.0000   1.0000   1.0000   1.0000   1.0000
     1.0000   1.0000   1.0000   1.0000   1.0000   1.0000   1.0000   1.0000
     1.0000   1.0000   1.0000   1.0000   1.0000   1.0000   1.0000   1.0000
     1.0000   1.0000   1.0000   1.0000   1.0000   1.0000   1.0000   1.0000
     1.0000   1.0000   1.0000   1.0000   1.0000   1.0000   1.0000   1.0000
     1.0000   1.0000   1.0000   1.0000   1.0000   1.0000   1.0000   1.0000
     1.0000   1.0000   1.0000   1.0000   1.0000   1.0000   1.0000   1.0000
     1.0000   1.0000   1.0000   1.0000   1.0000   1.0000   1.0000   1.0000
     1.0000   1.0000   1.0000   1.0000   1.0000   1.0000   1.0000   1.0000
     1.0000   1.0000   1.0000   1.0000   1.0000   1.0000   1.0000   1.0000
     1.0000   1.0000   1.0000   1.0000   1.0000   1.0000   1.0000   1.0000
     1.0000   1.0000   1.0000   1.0000   1.0000   1.0000   1.0000   1.0000
     1.0000   1.0000   1.0000   1.0000   1.0000   1.0000   1.0000   1.0000
     1.0000   1.0000   1.0000   1.0000   1.0000   1.0000   1.0000   1.0000
     1.0000   1.0000   1.0000   1.0000   1.0000   1.0000   1.0000   1.0000
     1.0000   1.0000   1.0000   1.0000   1.0000   1.0000   1.0000   1.0000
     1.0000   1.0000   1.0000   1.0000   1.0000   1.0000   1.0000   1.0000
     1.0000   1.0000   1.0000   1.0000   1.0000   1.0000   1.0000   1.0000
     1.0000   1.0000   1.0000   1.0000   1.0000   1.0000   1.0000   1.0000
     1.0000   1.0000   1.0000   1.0000   1.0000   1.0000   1.0000   1.0000
     1.0000   1.0000   1.0000   1.0000   1.0000   1.0000   1.0000   1.0000
     1.0000   1.0000   1.0000   1.0000   1.0000   1.0000   1.0000   1.0000
     1.0000   1.0000   1.0000   1.0000   1.0000   1.0000   1.0000   1.0000
     1.0000   1.0000   1.0000   1.0000   1.0000   1.0000   1.0000   1.0000
     1.0000   1.0000   1.0000   1.0000   1.0000   1.0000   1.0000   1.0000
     1.0000   1.0000   1.0000   1.0000   1.0000   1.0000   1.0000   1.0000
     1.0000   1.0000   1.0000   1.0000   1.0000   1.0000   1.0000   1.0000
     1.0000   1.0000   1.0000   1.0000   1.0000   1.0000   1.0000   1.0000
     1.0000   1.0000   1.0000   1.0000   1.0000   1.0000   1.0000   1.0000
     1.0000   1.0000   1.0000   1.0000   1.0000   1.0000   1.0000   1.0000
     1.0000   1.0000   1.0000   1.0000   1.0000   1.0000   1.0000   1.0000
     1.0000   1.0000   1.0000   1.0000   1.0000   1.0000   1.0000   1.0000
     1.0000   1.0000   1.0000   1.0000   1.0000   1.0000   1.0000   1.0000
     1.0000   1.0000   1.0000   1.0000   1.0000   1.0000   1.0000   1.0000
     1.0000   1.0000   1.0000   1.0000   1.0000   1.0000   1.0000   1.0000
     1.0000   1.0000   1.0000   1.0000   1.0000   1.0000   1.0000   1.0000
     1.0000   1.0000   1.0000   1.0000   1.0000   1.0000   1.0000   1.0000
     1.0000   1.0000   1.0000   1.0000   1.0000   1.0000   1.0000   1.0000
     1.0000   1.0000   1.0000   1.0000   1.0000   1.0000   1.0000   1.0000
     1.0000   1.0000   1.0000   1.0000   1.0000   1.0000   1.0000   1.0000
     1.0000   1.0000   1.0000   1.0000   1.0000   1.0000   1.0000   1.0000
     1.0000   1.0000   1.0000   1.0000   1.0000   1.0000   1.0000   1.0000
     1.0000   1.0000   1.0000   1.0000   1.0000   1.0000   1.0000   1.0000
     1.0000   1.0000   1.0000   1.0000   1.0000   1.0000   1.0000   1.0000
     0.0000   0.0000   0.0000   0.0000   0.0000   0.0000   0.0000   0.0000
     0.0000   0.0000   0.0000   0.0000   0.0000   0.0000   0.0000   0.0000
     0.0000   0.0000   0.0000   0.0000   0.0000   0.0000   0.0000   0.0000
     0.0000   0.0000   0.0000   0.0000   0.0000   0.0000   0.0000   0.0000
     0.0000   0.0000   0.0000   0.0000   0.0000   0.0000   0.0000   0.0000
     0.0000   0.0000   0.0000   0.0000   0.0000   0.0000   0.0000   0.0000
     0.0000   0.0000   0.0000   0.0000   0.0000   0.0000   0.0000   0.0000
     0.0000   0.0000   0.0000   0.0000   0.0000   0.0000   0.0000   0.0000
     0.0000   0.0000   0.0000   0.0000   0.0000   0.0000   0.0000   0.0000
     0.0000   0.0000   0.0000   0.0000   0.0000   0.0000   0.0000   0.0000
     0.0000   0.0000   0.0000   0.0000   0.0000   0.0000   0.0000   0.0000
     0.0000   0.0000   0.0000   0.0000   0.0000   0.0000   0.0000   0.0000
     0.0000   0.0000   0.0000   0.0000   0.0000   0.0000

          k =-0.3526-0.3539 0.3516 ( 35244 PWs)   bands (ev):

   -64.4964 -64.4726 -64.4348 -64.3991 -64.3668 -64.3461 -64.3329 -64.3209
   -64.3169 -64.3131 -64.3120 -64.3057 -64.3032 -64.3003 -64.2795 -64.2772
   -64.2759 -64.2558 -64.2450 -64.2440 -64.2395 -64.2373 -64.2236 -64.2184
   -64.2133 -64.2000 -64.1811 -64.1789 -64.1773 -64.1719 -64.1689 -64.1658
   -64.1607 -64.1572 -64.1349 -64.1253 -64.1104 -64.1070 -64.1059 -64.1042
   -64.1031 -64.0975 -64.0944 -64.0647 -64.0432 -64.0229 -64.0192 -64.0042
   -63.9928 -63.9851 -63.9663 -63.9351 -63.9291 -63.9259 -63.9016 -63.8670
   -63.8496 -63.8068 -63.5993 -31.4903 -31.4801 -31.4670 -31.4566 -31.4539
   -31.4445 -31.4177 -31.4128 -31.4102 -31.3872 -31.3839 -31.3748 -31.3590
   -31.3491 -31.3445 -31.3367 -31.3238 -31.3198 -31.3159 -31.3139 -31.3130
   -31.3061 -31.3046 -31.3038 -31.3031 -31.3020 -31.3005 -31.3000 -31.2996
   -31.2985 -31.2945 -31.2900 -31.2895 -31.2891 -31.2884 -31.2876 -31.2872
   -31.2857 -31.2849 -31.2804 -31.2799 -31.2756 -31.2693 -31.2682 -31.2636
   -31.2576 -31.2557 -31.2540 -31.2524 -31.2466 -31.2444 -31.2435 -31.2387
   -31.2377 -31.2338 -31.2285 -31.2274 -31.2240 -31.2233 -31.2231 -31.2208
   -31.2182 -31.2158 -31.2148 -31.2111 -31.2083 -31.2080 -31.2069 -31.2042
   -31.1994 -31.1988 -31.1965 -31.1934 -31.1914 -31.1882 -31.1878 -31.1845
   -31.1794 -31.1723 -31.1667 -31.1636 -31.1625 -31.1604 -31.1601 -31.1594
   -31.1564 -31.1560 -31.1537 -31.1518 -31.1508 -31.1499 -31.1495 -31.1490
   -31.1480 -31.1476 -31.1438 -31.1416 -31.1398 -31.1371 -31.1333 -31.1297
   -31.1282 -31.1200 -31.1190 -31.1105 -31.1084 -31.1069 -31.1012 -31.1005
   -31.0952 -31.0928 -31.0926 -31.0909 -31.0883 -31.0856 -31.0848 -31.0846
   -31.0840 -31.0834 -31.0829 -31.0813 -31.0809 -31.0774 -31.0772 -31.0757
   -31.0722 -31.0701 -31.0699 -31.0624 -31.0532 -31.0453 -31.0381 -31.0340
   -31.0265 -31.0213 -31.0156 -31.0073 -31.0045 -30.9995 -30.9964 -30.9954
   -30.9867 -30.9834 -30.9799 -30.9798 -30.9782 -30.9739 -30.9677 -30.9665
   -30.9577 -30.9537 -30.9426 -30.9341 -30.9305 -30.9275 -30.9164 -30.9123
   -30.9099 -30.9067 -30.9054 -30.9040 -30.8914 -30.8907 -30.8796 -30.8716
   -30.8609 -30.8512 -30.8470 -30.8413 -30.8336 -30.8203 -30.7948 -30.7881
   -30.7839 -30.5877 -30.5865 -30.5753 -27.6462 -27.5330 -27.4428 -27.2013
   -27.1304 -10.3618 -10.2407 -10.2125 -10.1404 -10.1179 -10.0947 -10.0772
   -10.0437  -9.9866  -9.9489  -9.8092  -9.5565  -9.4756  -9.4102  -9.2794
    -9.0614  -8.9711  -8.7207  -8.6715  -8.5854  -8.5587  -8.5109  -8.4574
    -8.4458  -8.4307  -8.3672  -8.3008  -8.2614  -8.2305  -8.2003  -8.1607
    -8.1364  -8.1114  -8.1049  -8.0753  -8.0346  -8.0264  -8.0032  -7.9965
    -7.9800  -7.9693  -7.9563  -7.9366  -7.9182  -7.8959  -7.8742  -7.8679
    -7.8493  -7.8423  -7.8273  -7.8061  -7.8033  -7.7859  -7.7518  -7.7444
    -7.7401  -7.7221  -7.7187  -7.7063  -7.6858  -7.6550  -7.6483  -7.5766
    -7.5601  -7.1300  -7.0755  -7.0235  -6.9858  -6.9651  -6.8373  -6.7806
    -6.7420  -6.7230  -6.5632  -6.4891  -6.2179  -6.1240  -6.0752  -5.9812
     3.3655   3.4392   3.5006   3.5151   3.5456   3.5839   3.6919   3.7600
     3.9029   3.9128   3.9523   3.9622   3.9705   3.9895   4.0185   4.0359
     4.0478   4.0499   4.0673   4.0917   4.0984   4.1186   4.1370   4.1556
     4.1799   4.2020   4.2260   4.2359   4.2494   4.2513   4.2983   4.3233
     4.3354   4.3689   4.3817   4.4289   4.4385   4.4509   4.4751   4.4790
     4.5035   4.5125   4.5358   4.5581   4.5931   4.6248   4.6352   4.6381
     4.6646   4.7165   4.7852   4.9108   4.9611   5.0009   5.0307   5.1610
     5.2907   5.3022   5.3261   5.3461   5.3720   5.3789   5.4040   5.4291
     5.4378   5.4558   5.4754   5.4892   5.5199   5.5551   5.5904   5.5960
     5.6332   5.6584   5.6916   5.7183   5.7489   5.7610   5.8417   5.9278
     5.9725   5.9848   6.0187   6.0350   6.0456   6.0821   6.0956   6.1038
     6.1139   6.1551   6.1637   6.1770   6.2095   6.2159   6.2526   6.2834
     6.3020   6.3288   6.3510   6.3707   6.3865   6.4047   6.4171   6.4379
     6.4440   6.4573   6.4743   6.4958   6.5106   6.5341   6.5491   6.5576
     6.5841   6.5947   6.5986   6.6118   6.6169   6.6191   6.6549   6.6597
     6.6881   6.7015   6.7046   6.7098   6.7214   6.7314   6.7462   6.7529
     6.7746   6.7794   6.8081   6.8198   6.8249   6.8453   6.8571   6.8672
     6.8804   6.8884   6.8904   6.9086   6.9322   6.9412   6.9516   6.9687
     6.9710   6.9812   6.9911   7.0021   7.0157   7.0338   7.0380   7.0557
     7.0641   7.0761   7.0884   7.1119   7.1192   7.1226   7.1472   7.1579
     7.1747   7.1843   7.1890   7.2253   7.2429   7.2540   7.2694   7.2753
     7.2874   7.3026   7.3257   7.3487   7.3697   7.3811   7.4025   7.4103
     7.4242   7.4316   7.4651   7.4927   7.5268   7.5413   7.5521   7.5714
     7.6304   7.6494   7.7022   7.7422   7.8165   7.8512   7.9509   8.0406
    13.2088  13.3909  14.6525  14.6920  14.7846  14.8328  14.8834  14.9322
    15.2240  15.2903  15.3719  15.4131  15.4605  15.5279  15.5496  15.5820
    15.6100  15.6637  15.6811  15.7363  15.8568  15.8813  15.9158  15.9526
    16.0234  16.1408  16.1718  16.2297  16.2626  16.3176  16.3909  16.4141
    16.4510  16.5101  16.5810  16.6279  16.6671  16.7176  16.7453  16.7679
    16.8031  16.8687  16.8904  16.9626  16.9879  17.0209  17.0664  17.0724
    17.0853  17.1756  17.2146  17.2550  17.3305  17.3526  17.3857  17.4181
    17.4513  17.4818  17.5394  17.5692  17.6511  17.6925  17.7448  17.7706
    17.8020  17.8734  17.8990  17.9470  17.9614  18.0007  18.0423  18.0859
    18.1561  18.1663  18.1960  18.3602  18.3896  18.4386  18.4916  18.5327
    18.6024  18.6158  18.6655  18.7239  18.7505  18.8384  18.9186  18.9439
    18.9916  19.0226  19.0479  19.0535  19.0826  19.1247  19.1395  19.1597
    19.1718  19.2100  19.2429  19.2592  19.2789  19.3506

     occupation numbers 
     1.0000   1.0000   1.0000   1.0000   1.0000   1.0000   1.0000   1.0000
     1.0000   1.0000   1.0000   1.0000   1.0000   1.0000   1.0000   1.0000
     1.0000   1.0000   1.0000   1.0000   1.0000   1.0000   1.0000   1.0000
     1.0000   1.0000   1.0000   1.0000   1.0000   1.0000   1.0000   1.0000
     1.0000   1.0000   1.0000   1.0000   1.0000   1.0000   1.0000   1.0000
     1.0000   1.0000   1.0000   1.0000   1.0000   1.0000   1.0000   1.0000
     1.0000   1.0000   1.0000   1.0000   1.0000   1.0000   1.0000   1.0000
     1.0000   1.0000   1.0000   1.0000   1.0000   1.0000   1.0000   1.0000
     1.0000   1.0000   1.0000   1.0000   1.0000   1.0000   1.0000   1.0000
     1.0000   1.0000   1.0000   1.0000   1.0000   1.0000   1.0000   1.0000
     1.0000   1.0000   1.0000   1.0000   1.0000   1.0000   1.0000   1.0000
     1.0000   1.0000   1.0000   1.0000   1.0000   1.0000   1.0000   1.0000
     1.0000   1.0000   1.0000   1.0000   1.0000   1.0000   1.0000   1.0000
     1.0000   1.0000   1.0000   1.0000   1.0000   1.0000   1.0000   1.0000
     1.0000   1.0000   1.0000   1.0000   1.0000   1.0000   1.0000   1.0000
     1.0000   1.0000   1.0000   1.0000   1.0000   1.0000   1.0000   1.0000
     1.0000   1.0000   1.0000   1.0000   1.0000   1.0000   1.0000   1.0000
     1.0000   1.0000   1.0000   1.0000   1.0000   1.0000   1.0000   1.0000
     1.0000   1.0000   1.0000   1.0000   1.0000   1.0000   1.0000   1.0000
     1.0000   1.0000   1.0000   1.0000   1.0000   1.0000   1.0000   1.0000
     1.0000   1.0000   1.0000   1.0000   1.0000   1.0000   1.0000   1.0000
     1.0000   1.0000   1.0000   1.0000   1.0000   1.0000   1.0000   1.0000
     1.0000   1.0000   1.0000   1.0000   1.0000   1.0000   1.0000   1.0000
     1.0000   1.0000   1.0000   1.0000   1.0000   1.0000   1.0000   1.0000
     1.0000   1.0000   1.0000   1.0000   1.0000   1.0000   1.0000   1.0000
     1.0000   1.0000   1.0000   1.0000   1.0000   1.0000   1.0000   1.0000
     1.0000   1.0000   1.0000   1.0000   1.0000   1.0000   1.0000   1.0000
     1.0000   1.0000   1.0000   1.0000   1.0000   1.0000   1.0000   1.0000
     1.0000   1.0000   1.0000   1.0000   1.0000   1.0000   1.0000   1.0000
     1.0000   1.0000   1.0000   1.0000   1.0000   1.0000   1.0000   1.0000
     1.0000   1.0000   1.0000   1.0000   1.0000   1.0000   1.0000   1.0000
     1.0000   1.0000   1.0000   1.0000   1.0000   1.0000   1.0000   1.0000
     1.0000   1.0000   1.0000   1.0000   1.0000   1.0000   1.0000   1.0000
     1.0000   1.0000   1.0000   1.0000   1.0000   1.0000   1.0000   1.0000
     1.0000   1.0000   1.0000   1.0000   1.0000   1.0000   1.0000   1.0000
     1.0000   1.0000   1.0000   1.0000   1.0000   1.0000   1.0000   1.0000
     1.0000   1.0000   1.0000   1.0000   1.0000   1.0000   1.0000   1.0000
     1.0000   1.0000   1.0000   1.0000   1.0000   1.0000   1.0000   1.0000
     1.0000   1.0000   1.0000   1.0000   1.0000   1.0000   1.0000   1.0000
     1.0000   1.0000   1.0000   1.0000   1.0000   1.0000   1.0000   1.0000
     1.0000   1.0000   1.0000   1.0000   1.0000   1.0000   1.0000   1.0000
     1.0000   1.0000   1.0000   1.0000   1.0000   1.0000   1.0000   1.0000
     1.0000   1.0000   1.0000   1.0000   1.0000   1.0000   1.0000   1.0000
     1.0000   1.0000   1.0000   1.0000   1.0000   1.0000   1.0000   1.0000
     1.0000   1.0000   1.0000   1.0000   1.0000   1.0000   1.0000   1.0000
     1.0000   1.0000   1.0000   1.0000   1.0000   1.0000   1.0000   1.0000
     1.0000   1.0000   1.0000   1.0000   1.0000   1.0000   1.0000   1.0000
     1.0000   1.0000   1.0000   1.0000   1.0000   1.0000   1.0000   1.0000
     1.0000   1.0000   1.0000   1.0000   1.0000   1.0000   1.0000   1.0000
     1.0000   1.0000   1.0000   1.0000   1.0000   1.0000   1.0000   1.0000
     1.0000   1.0000   1.0000   1.0000   1.0000   1.0000   1.0000   1.0000
     1.0000   1.0000   1.0000   1.0000   1.0000   1.0000   1.0000   1.0000
     1.0000   1.0000   1.0000   1.0000   1.0000   1.0000   1.0000   1.0000
     1.0000   1.0000   1.0000   1.0000   1.0000   1.0000   1.0000   1.0000
     1.0000   1.0000   1.0000   1.0000   1.0000   1.0000   1.0000   1.0000
     1.0000   1.0000   1.0000   1.0000   1.0000   1.0000   1.0000   1.0000
     1.0000   1.0000   1.0000   1.0000   1.0000   1.0000   1.0000   1.0000
     1.0000   1.0000   1.0000   1.0000   1.0000   1.0000   1.0000   1.0000
     1.0000   1.0000   1.0000   1.0000   1.0000   1.0000   1.0000   1.0000
     1.0000   1.0000   1.0000   1.0000   1.0000   1.0000   1.0000   1.0000
     1.0000   1.0000   1.0000   1.0000   1.0000   1.0000   1.0000   1.0000
     1.0000   1.0000   1.0000   1.0000   1.0000   1.0000   1.0000   1.0000
     1.0000   1.0000   1.0000   1.0000   1.0000   1.0000   1.0000   1.0000
     1.0000   1.0000   1.0000   1.0000   1.0000   1.0000   1.0000   1.0000
     0.0000   0.0000   0.0000   0.0000   0.0000   0.0000   0.0000   0.0000
     0.0000   0.0000   0.0000   0.0000   0.0000   0.0000   0.0000   0.0000
     0.0000   0.0000   0.0000   0.0000   0.0000   0.0000   0.0000   0.0000
     0.0000   0.0000   0.0000   0.0000   0.0000   0.0000   0.0000   0.0000
     0.0000   0.0000   0.0000   0.0000   0.0000   0.0000   0.0000   0.0000
     0.0000   0.0000   0.0000   0.0000   0.0000   0.0000   0.0000   0.0000
     0.0000   0.0000   0.0000   0.0000   0.0000   0.0000   0.0000   0.0000
     0.0000   0.0000   0.0000   0.0000   0.0000   0.0000   0.0000   0.0000
     0.0000   0.0000   0.0000   0.0000   0.0000   0.0000   0.0000   0.0000
     0.0000   0.0000   0.0000   0.0000   0.0000   0.0000   0.0000   0.0000
     0.0000   0.0000   0.0000   0.0000   0.0000   0.0000   0.0000   0.0000
     0.0000   0.0000   0.0000   0.0000   0.0000   0.0000   0.0000   0.0000
     0.0000   0.0000   0.0000   0.0000   0.0000   0.0000

          k =-0.3523 0.3529-0.3545 ( 35244 PWs)   bands (ev):

   -64.4964 -64.4726 -64.4348 -64.3991 -64.3668 -64.3461 -64.3329 -64.3209
   -64.3169 -64.3131 -64.3120 -64.3057 -64.3032 -64.3003 -64.2795 -64.2772
   -64.2759 -64.2558 -64.2450 -64.2440 -64.2395 -64.2373 -64.2236 -64.2184
   -64.2133 -64.2000 -64.1811 -64.1789 -64.1773 -64.1719 -64.1689 -64.1658
   -64.1607 -64.1572 -64.1349 -64.1253 -64.1104 -64.1070 -64.1059 -64.1042
   -64.1031 -64.0975 -64.0944 -64.0647 -64.0432 -64.0229 -64.0192 -64.0042
   -63.9928 -63.9851 -63.9663 -63.9351 -63.9291 -63.9259 -63.9016 -63.8670
   -63.8496 -63.8068 -63.5993 -31.4903 -31.4801 -31.4670 -31.4566 -31.4539
   -31.4445 -31.4177 -31.4128 -31.4102 -31.3872 -31.3839 -31.3748 -31.3591
   -31.3491 -31.3446 -31.3367 -31.3238 -31.3196 -31.3159 -31.3138 -31.3130
   -31.3061 -31.3043 -31.3039 -31.3030 -31.3020 -31.3006 -31.3000 -31.2996
   -31.2985 -31.2944 -31.2901 -31.2899 -31.2887 -31.2886 -31.2874 -31.2871
   -31.2857 -31.2849 -31.2805 -31.2799 -31.2756 -31.2693 -31.2682 -31.2636
   -31.2575 -31.2555 -31.2540 -31.2524 -31.2464 -31.2445 -31.2436 -31.2387
   -31.2376 -31.2338 -31.2284 -31.2273 -31.2240 -31.2234 -31.2231 -31.2210
   -31.2183 -31.2159 -31.2145 -31.2111 -31.2083 -31.2082 -31.2072 -31.2044
   -31.1995 -31.1989 -31.1965 -31.1934 -31.1914 -31.1880 -31.1879 -31.1845
   -31.1794 -31.1723 -31.1667 -31.1636 -31.1625 -31.1603 -31.1600 -31.1593
   -31.1564 -31.1559 -31.1537 -31.1517 -31.1509 -31.1499 -31.1494 -31.1490
   -31.1479 -31.1477 -31.1437 -31.1416 -31.1398 -31.1372 -31.1333 -31.1297
   -31.1282 -31.1200 -31.1190 -31.1104 -31.1084 -31.1070 -31.1012 -31.1005
   -31.0953 -31.0928 -31.0926 -31.0909 -31.0885 -31.0856 -31.0848 -31.0847
   -31.0840 -31.0835 -31.0829 -31.0814 -31.0812 -31.0773 -31.0772 -31.0755
   -31.0721 -31.0702 -31.0698 -31.0621 -31.0532 -31.0453 -31.0381 -31.0340
   -31.0265 -31.0213 -31.0156 -31.0073 -31.0045 -30.9995 -30.9964 -30.9954
   -30.9867 -30.9835 -30.9799 -30.9798 -30.9782 -30.9739 -30.9677 -30.9665
   -30.9577 -30.9537 -30.9426 -30.9342 -30.9304 -30.9275 -30.9163 -30.9123
   -30.9099 -30.9066 -30.9055 -30.9040 -30.8914 -30.8907 -30.8797 -30.8716
   -30.8609 -30.8512 -30.8469 -30.8413 -30.8336 -30.8203 -30.7948 -30.7881
   -30.7839 -30.5877 -30.5865 -30.5753 -27.6462 -27.5330 -27.4428 -27.2013
   -27.1304 -10.3624 -10.2434 -10.1961 -10.1411 -10.1213 -10.0974 -10.0817
   -10.0441  -9.9849  -9.9508  -9.8042  -9.5591  -9.4807  -9.4384  -9.2846
    -9.0402  -8.9310  -8.7456  -8.7092  -8.5916  -8.5752  -8.4651  -8.4428
    -8.4070  -8.3674  -8.3516  -8.3093  -8.2794  -8.2269  -8.1911  -8.1584
    -8.1412  -8.1174  -8.1069  -8.0929  -8.0661  -8.0347  -8.0151  -8.0110
    -8.0010  -7.9874  -7.9587  -7.9339  -7.9240  -7.9091  -7.8788  -7.8714
    -7.8557  -7.8494  -7.8374  -7.8097  -7.7892  -7.7747  -7.7586  -7.7525
    -7.7378  -7.7308  -7.7057  -7.7012  -7.6724  -7.6443  -7.6263  -7.5957
    -7.5572  -7.1233  -7.0709  -7.0091  -6.9775  -6.9469  -6.8248  -6.7932
    -6.7437  -6.7262  -6.5729  -6.4873  -6.2251  -6.1210  -6.0782  -5.9832
     3.4037   3.4189   3.4662   3.5073   3.5500   3.5727   3.7094   3.7542
     3.9061   3.9251   3.9361   3.9659   3.9935   4.0159   4.0277   4.0439
     4.0563   4.0712   4.0826   4.0999   4.1058   4.1202   4.1372   4.1408
     4.1580   4.1821   4.1943   4.2298   4.2426   4.2718   4.3175   4.3275
     4.3580   4.3736   4.3771   4.4207   4.4393   4.4488   4.4796   4.4861
     4.4955   4.5145   4.5377   4.5403   4.5840   4.5928   4.6331   4.6518
     4.6826   4.7245   4.7913   4.8414   4.9043   5.0094   5.0638   5.1797
     5.2716   5.2938   5.3318   5.3325   5.3684   5.3866   5.3963   5.4168
     5.4377   5.4474   5.4743   5.5142   5.5399   5.5541   5.5774   5.5929
     5.6150   5.6233   5.6532   5.6999   5.7658   5.7799   5.8138   5.9430
     5.9705   6.0044   6.0158   6.0319   6.0512   6.0663   6.0916   6.1097
     6.1460   6.1664   6.1813   6.1941   6.1976   6.2348   6.2572   6.2723
     6.2763   6.3206   6.3367   6.3627   6.3854   6.4055   6.4251   6.4343
     6.4626   6.4865   6.4958   6.5167   6.5297   6.5302   6.5372   6.5560
     6.5751   6.5837   6.6011   6.6081   6.6251   6.6370   6.6485   6.6585
     6.6767   6.6943   6.7162   6.7291   6.7409   6.7481   6.7627   6.7737
     6.7909   6.7965   6.8107   6.8229   6.8254   6.8327   6.8489   6.8649
     6.8887   6.9017   6.9136   6.9147   6.9352   6.9405   6.9556   6.9616
     6.9661   6.9757   6.9802   6.9924   7.0075   7.0111   7.0284   7.0338
     7.0417   7.0554   7.0808   7.0931   7.1119   7.1176   7.1571   7.1684
     7.1931   7.2010   7.2252   7.2349   7.2478   7.2576   7.2790   7.2850
     7.3092   7.3304   7.3388   7.3505   7.3676   7.3822   7.4003   7.4139
     7.4282   7.4375   7.4722   7.4815   7.4895   7.5016   7.5481   7.5678
     7.5889   7.6172   7.6895   7.7288   7.8427   7.8485   7.9352   8.0425
    13.2702  13.3190  14.6039  14.6746  14.7464  14.8470  14.9376  15.1069
    15.2848  15.3725  15.4242  15.4340  15.4514  15.4951  15.5392  15.5680
    15.5911  15.6531  15.6746  15.7272  15.7505  15.7715  15.8487  15.9611
    16.0473  16.0667  16.1044  16.1724  16.2031  16.2114  16.2794  16.4097
    16.4940  16.5160  16.5773  16.6196  16.6631  16.7044  16.7756  16.8063
    16.8252  16.8843  16.9491  17.0135  17.0242  17.0597  17.1087  17.1310
    17.1606  17.1750  17.2308  17.2565  17.3100  17.3598  17.4046  17.4737
    17.4885  17.5007  17.5546  17.5943  17.6588  17.7011  17.7260  17.8080
    17.8948  17.9216  17.9555  17.9891  18.0333  18.0529  18.0952  18.1160
    18.1702  18.1881  18.1963  18.2468  18.3049  18.3091  18.4017  18.4495
    18.4743  18.6230  18.6394  18.7124  18.8073  18.8180  18.9202  18.9631
    18.9796  19.0361  19.0588  19.0749  19.0829  19.1109  19.1202  19.1743
    19.2088  19.2252  19.2521  19.2572  19.2786  19.3411

     occupation numbers 
     1.0000   1.0000   1.0000   1.0000   1.0000   1.0000   1.0000   1.0000
     1.0000   1.0000   1.0000   1.0000   1.0000   1.0000   1.0000   1.0000
     1.0000   1.0000   1.0000   1.0000   1.0000   1.0000   1.0000   1.0000
     1.0000   1.0000   1.0000   1.0000   1.0000   1.0000   1.0000   1.0000
     1.0000   1.0000   1.0000   1.0000   1.0000   1.0000   1.0000   1.0000
     1.0000   1.0000   1.0000   1.0000   1.0000   1.0000   1.0000   1.0000
     1.0000   1.0000   1.0000   1.0000   1.0000   1.0000   1.0000   1.0000
     1.0000   1.0000   1.0000   1.0000   1.0000   1.0000   1.0000   1.0000
     1.0000   1.0000   1.0000   1.0000   1.0000   1.0000   1.0000   1.0000
     1.0000   1.0000   1.0000   1.0000   1.0000   1.0000   1.0000   1.0000
     1.0000   1.0000   1.0000   1.0000   1.0000   1.0000   1.0000   1.0000
     1.0000   1.0000   1.0000   1.0000   1.0000   1.0000   1.0000   1.0000
     1.0000   1.0000   1.0000   1.0000   1.0000   1.0000   1.0000   1.0000
     1.0000   1.0000   1.0000   1.0000   1.0000   1.0000   1.0000   1.0000
     1.0000   1.0000   1.0000   1.0000   1.0000   1.0000   1.0000   1.0000
     1.0000   1.0000   1.0000   1.0000   1.0000   1.0000   1.0000   1.0000
     1.0000   1.0000   1.0000   1.0000   1.0000   1.0000   1.0000   1.0000
     1.0000   1.0000   1.0000   1.0000   1.0000   1.0000   1.0000   1.0000
     1.0000   1.0000   1.0000   1.0000   1.0000   1.0000   1.0000   1.0000
     1.0000   1.0000   1.0000   1.0000   1.0000   1.0000   1.0000   1.0000
     1.0000   1.0000   1.0000   1.0000   1.0000   1.0000   1.0000   1.0000
     1.0000   1.0000   1.0000   1.0000   1.0000   1.0000   1.0000   1.0000
     1.0000   1.0000   1.0000   1.0000   1.0000   1.0000   1.0000   1.0000
     1.0000   1.0000   1.0000   1.0000   1.0000   1.0000   1.0000   1.0000
     1.0000   1.0000   1.0000   1.0000   1.0000   1.0000   1.0000   1.0000
     1.0000   1.0000   1.0000   1.0000   1.0000   1.0000   1.0000   1.0000
     1.0000   1.0000   1.0000   1.0000   1.0000   1.0000   1.0000   1.0000
     1.0000   1.0000   1.0000   1.0000   1.0000   1.0000   1.0000   1.0000
     1.0000   1.0000   1.0000   1.0000   1.0000   1.0000   1.0000   1.0000
     1.0000   1.0000   1.0000   1.0000   1.0000   1.0000   1.0000   1.0000
     1.0000   1.0000   1.0000   1.0000   1.0000   1.0000   1.0000   1.0000
     1.0000   1.0000   1.0000   1.0000   1.0000   1.0000   1.0000   1.0000
     1.0000   1.0000   1.0000   1.0000   1.0000   1.0000   1.0000   1.0000
     1.0000   1.0000   1.0000   1.0000   1.0000   1.0000   1.0000   1.0000
     1.0000   1.0000   1.0000   1.0000   1.0000   1.0000   1.0000   1.0000
     1.0000   1.0000   1.0000   1.0000   1.0000   1.0000   1.0000   1.0000
     1.0000   1.0000   1.0000   1.0000   1.0000   1.0000   1.0000   1.0000
     1.0000   1.0000   1.0000   1.0000   1.0000   1.0000   1.0000   1.0000
     1.0000   1.0000   1.0000   1.0000   1.0000   1.0000   1.0000   1.0000
     1.0000   1.0000   1.0000   1.0000   1.0000   1.0000   1.0000   1.0000
     1.0000   1.0000   1.0000   1.0000   1.0000   1.0000   1.0000   1.0000
     1.0000   1.0000   1.0000   1.0000   1.0000   1.0000   1.0000   1.0000
     1.0000   1.0000   1.0000   1.0000   1.0000   1.0000   1.0000   1.0000
     1.0000   1.0000   1.0000   1.0000   1.0000   1.0000   1.0000   1.0000
     1.0000   1.0000   1.0000   1.0000   1.0000   1.0000   1.0000   1.0000
     1.0000   1.0000   1.0000   1.0000   1.0000   1.0000   1.0000   1.0000
     1.0000   1.0000   1.0000   1.0000   1.0000   1.0000   1.0000   1.0000
     1.0000   1.0000   1.0000   1.0000   1.0000   1.0000   1.0000   1.0000
     1.0000   1.0000   1.0000   1.0000   1.0000   1.0000   1.0000   1.0000
     1.0000   1.0000   1.0000   1.0000   1.0000   1.0000   1.0000   1.0000
     1.0000   1.0000   1.0000   1.0000   1.0000   1.0000   1.0000   1.0000
     1.0000   1.0000   1.0000   1.0000   1.0000   1.0000   1.0000   1.0000
     1.0000   1.0000   1.0000   1.0000   1.0000   1.0000   1.0000   1.0000
     1.0000   1.0000   1.0000   1.0000   1.0000   1.0000   1.0000   1.0000
     1.0000   1.0000   1.0000   1.0000   1.0000   1.0000   1.0000   1.0000
     1.0000   1.0000   1.0000   1.0000   1.0000   1.0000   1.0000   1.0000
     1.0000   1.0000   1.0000   1.0000   1.0000   1.0000   1.0000   1.0000
     1.0000   1.0000   1.0000   1.0000   1.0000   1.0000   1.0000   1.0000
     1.0000   1.0000   1.0000   1.0000   1.0000   1.0000   1.0000   1.0000
     1.0000   1.0000   1.0000   1.0000   1.0000   1.0000   1.0000   1.0000
     1.0000   1.0000   1.0000   1.0000   1.0000   1.0000   1.0000   1.0000
     1.0000   1.0000   1.0000   1.0000   1.0000   1.0000   1.0000   1.0000
     1.0000   1.0000   1.0000   1.0000   1.0000   1.0000   1.0000   1.0000
     1.0000   1.0000   1.0000   1.0000   1.0000   1.0000   1.0000   1.0000
     0.0000   0.0000   0.0000   0.0000   0.0000   0.0000   0.0000   0.0000
     0.0000   0.0000   0.0000   0.0000   0.0000   0.0000   0.0000   0.0000
     0.0000   0.0000   0.0000   0.0000   0.0000   0.0000   0.0000   0.0000
     0.0000   0.0000   0.0000   0.0000   0.0000   0.0000   0.0000   0.0000
     0.0000   0.0000   0.0000   0.0000   0.0000   0.0000   0.0000   0.0000
     0.0000   0.0000   0.0000   0.0000   0.0000   0.0000   0.0000   0.0000
     0.0000   0.0000   0.0000   0.0000   0.0000   0.0000   0.0000   0.0000
     0.0000   0.0000   0.0000   0.0000   0.0000   0.0000   0.0000   0.0000
     0.0000   0.0000   0.0000   0.0000   0.0000   0.0000   0.0000   0.0000
     0.0000   0.0000   0.0000   0.0000   0.0000   0.0000   0.0000   0.0000
     0.0000   0.0000   0.0000   0.0000   0.0000   0.0000   0.0000   0.0000
     0.0000   0.0000   0.0000   0.0000   0.0000   0.0000   0.0000   0.0000
     0.0000   0.0000   0.0000   0.0000   0.0000   0.0000

          k =-0.7049-0.0010-0.0029 ( 35226 PWs)   bands (ev):

   -64.4964 -64.4726 -64.4348 -64.3991 -64.3668 -64.3461 -64.3329 -64.3209
   -64.3169 -64.3131 -64.3120 -64.3057 -64.3032 -64.3003 -64.2795 -64.2772
   -64.2759 -64.2558 -64.2450 -64.2440 -64.2395 -64.2373 -64.2236 -64.2184
   -64.2133 -64.2000 -64.1811 -64.1789 -64.1773 -64.1719 -64.1689 -64.1658
   -64.1607 -64.1572 -64.1349 -64.1253 -64.1104 -64.1070 -64.1059 -64.1042
   -64.1031 -64.0975 -64.0944 -64.0647 -64.0432 -64.0229 -64.0192 -64.0042
   -63.9928 -63.9851 -63.9663 -63.9351 -63.9291 -63.9259 -63.9016 -63.8670
   -63.8496 -63.8068 -63.5993 -31.4903 -31.4801 -31.4670 -31.4566 -31.4539
   -31.4445 -31.4177 -31.4128 -31.4102 -31.3872 -31.3839 -31.3748 -31.3591
   -31.3491 -31.3446 -31.3367 -31.3238 -31.3198 -31.3159 -31.3132 -31.3129
   -31.3062 -31.3042 -31.3038 -31.3031 -31.3020 -31.3006 -31.3000 -31.2995
   -31.2985 -31.2949 -31.2908 -31.2900 -31.2888 -31.2883 -31.2877 -31.2868
   -31.2857 -31.2849 -31.2803 -31.2799 -31.2756 -31.2692 -31.2682 -31.2636
   -31.2575 -31.2558 -31.2540 -31.2523 -31.2463 -31.2445 -31.2436 -31.2386
   -31.2376 -31.2338 -31.2285 -31.2273 -31.2240 -31.2236 -31.2230 -31.2209
   -31.2181 -31.2159 -31.2147 -31.2112 -31.2083 -31.2082 -31.2071 -31.2042
   -31.1995 -31.1989 -31.1965 -31.1934 -31.1914 -31.1880 -31.1879 -31.1845
   -31.1794 -31.1723 -31.1667 -31.1636 -31.1625 -31.1603 -31.1599 -31.1593
   -31.1564 -31.1558 -31.1537 -31.1517 -31.1509 -31.1499 -31.1495 -31.1489
   -31.1480 -31.1476 -31.1437 -31.1416 -31.1398 -31.1372 -31.1333 -31.1297
   -31.1284 -31.1200 -31.1190 -31.1104 -31.1084 -31.1069 -31.1012 -31.1005
   -31.0953 -31.0928 -31.0926 -31.0909 -31.0885 -31.0856 -31.0848 -31.0846
   -31.0840 -31.0835 -31.0829 -31.0814 -31.0809 -31.0774 -31.0772 -31.0757
   -31.0722 -31.0702 -31.0699 -31.0621 -31.0532 -31.0453 -31.0381 -31.0340
   -31.0265 -31.0213 -31.0156 -31.0073 -31.0045 -30.9996 -30.9964 -30.9953
   -30.9867 -30.9834 -30.9799 -30.9798 -30.9782 -30.9739 -30.9677 -30.9665
   -30.9577 -30.9538 -30.9426 -30.9342 -30.9304 -30.9275 -30.9163 -30.9123
   -30.9099 -30.9066 -30.9054 -30.9040 -30.8914 -30.8907 -30.8797 -30.8716
   -30.8609 -30.8512 -30.8470 -30.8413 -30.8336 -30.8203 -30.7948 -30.7881
   -30.7839 -30.5877 -30.5865 -30.5753 -27.6462 -27.5330 -27.4428 -27.2013
   -27.1304 -10.3625 -10.2437 -10.1962 -10.1402 -10.1217 -10.0970 -10.0823
   -10.0458  -9.9855  -9.9504  -9.8018  -9.5609  -9.4833  -9.4328  -9.2791
    -9.0248  -8.9224  -8.7763  -8.7096  -8.6481  -8.6104  -8.4564  -8.4181
    -8.3881  -8.3280  -8.3201  -8.3008  -8.2416  -8.2273  -8.2182  -8.1963
    -8.1756  -8.1519  -8.0886  -8.0676  -8.0578  -8.0309  -8.0198  -7.9961
    -7.9835  -7.9677  -7.9510  -7.9305  -7.9244  -7.9021  -7.8863  -7.8758
    -7.8696  -7.8554  -7.8475  -7.8209  -7.8084  -7.7862  -7.7642  -7.7414
    -7.7380  -7.7198  -7.7084  -7.6938  -7.6760  -7.6440  -7.6120  -7.6083
    -7.5544  -7.1300  -7.0681  -7.0023  -6.9791  -6.9519  -6.8338  -6.7976
    -6.7337  -6.7247  -6.5681  -6.4903  -6.2247  -6.1205  -6.0783  -5.9835
     3.5158   3.5311   3.5725   3.6040   3.6456   3.6656   3.7179   3.7591
     3.7708   3.8011   3.8621   3.8663   3.9001   3.9031   3.9165   3.9617
     4.0324   4.0509   4.0580   4.0893   4.1023   4.1357   4.1467   4.1669
     4.1729   4.2143   4.2302   4.2372   4.2567   4.2732   4.2874   4.3125
     4.3492   4.3613   4.3886   4.3961   4.4136   4.4300   4.4394   4.4474
     4.4906   4.5163   4.5356   4.5643   4.6291   4.6532   4.6993   4.7452
     4.7686   4.7861   4.8438   4.8526   4.9093   4.9422   4.9977   5.0293
     5.0563   5.1168   5.1510   5.1789   5.2155   5.2412   5.2658   5.3167
     5.3466   5.3779   5.3989   5.4623   5.5250   5.5795   5.7642   5.8058
     5.8333   5.8690   5.9141   5.9353   5.9426   5.9587   5.9697   5.9911
     6.0036   6.0230   6.0438   6.0549   6.0649   6.0891   6.1031   6.1228
[...]
     atom   77 type  1   force =   0.00000000E+00  0.00000000E+00  0.00000000E+00
     atom   78 type  3   force =   0.00000000E+00  0.00000000E+00  0.00000000E+00
     atom   79 type  1   force =   0.00000000E+00  0.00000000E+00  0.00000000E+00
     atom   80 type  3   force =   0.00000000E+00  0.00000000E+00  0.00000000E+00
     atom   81 type  1   force =   0.00000000E+00  0.00000000E+00  0.00000000E+00
     atom   82 type  3   force =   0.00000000E+00  0.00000000E+00  0.00000000E+00
     atom   83 type  1   force =   0.00000000E+00  0.00000000E+00  0.00000000E+00
     atom   84 type  3   force =   0.00000000E+00  0.00000000E+00  0.00000000E+00
     atom   85 type  1   force =   0.00000000E+00  0.00000000E+00  0.00000000E+00
     atom   86 type  3   force =   0.00000000E+00  0.00000000E+00  0.00000000E+00
     atom   87 type  2   force =   0.00000000E+00  0.00000000E+00  0.00000000E+00
     atom   88 type  3   force =   0.00000000E+00  0.00000000E+00  0.00000000E+00
     atom   89 type  1   force =   0.00000000E+00  0.00000000E+00  0.00000000E+00
     atom   90 type  3   force =   0.00000000E+00  0.00000000E+00  0.00000000E+00
     atom   91 type  1   force =   0.00000000E+00  0.00000000E+00  0.00000000E+00
     atom   92 type  3   force =   0.00000000E+00  0.00000000E+00  0.00000000E+00
     atom   93 type  1   force =   0.00000000E+00  0.00000000E+00  0.00000000E+00
     atom   94 type  3   force =   0.00000000E+00  0.00000000E+00  0.00000000E+00
     atom   95 type  2   force =   0.00000000E+00  0.00000000E+00  0.00000000E+00
     atom   96 type  3   force =   0.00000000E+00  0.00000000E+00  0.00000000E+00
     atom   97 type  1   force =   0.00000000E+00  0.00000000E+00  0.00000000E+00
     atom   98 type  3   force =   0.00000000E+00  0.00000000E+00  0.00000000E+00
     atom   99 type  1   force =   0.00000000E+00  0.00000000E+00  0.00000000E+00
     atom  100 type  3   force =   0.00000000E+00  0.00000000E+00  0.00000000E+00
     atom  101 type  1   force =   0.00000000E+00  0.00000000E+00  0.00000000E+00
     atom  102 type  3   force =   0.00000000E+00  0.00000000E+00  0.00000000E+00
     atom  103 type  1   force =   0.00000000E+00  0.00000000E+00  0.00000000E+00
     atom  104 type  3   force =   0.00000000E+00  0.00000000E+00  0.00000000E+00
     atom  105 type  2   force =   0.00000000E+00  0.00000000E+00  0.00000000E+00
     atom  106 type  3   force =   0.00000000E+00  0.00000000E+00  0.00000000E+00
     atom  107 type  1   force =   0.00000000E+00  0.00000000E+00  0.00000000E+00
     atom  108 type  3   force =   0.00000000E+00  0.00000000E+00  0.00000000E+00
     atom  109 type  1   force =   0.00000000E+00  0.00000000E+00  0.00000000E+00
     atom  110 type  3   force =   0.00000000E+00  0.00000000E+00  0.00000000E+00
     atom  111 type  1   force =   0.00000000E+00  0.00000000E+00  0.00000000E+00
     atom  112 type  3   force =   0.00000000E+00  0.00000000E+00  0.00000000E+00
     atom  113 type  1   force =   0.00000000E+00  0.00000000E+00  0.00000000E+00
     atom  114 type  3   force =   0.00000000E+00  0.00000000E+00  0.00000000E+00
     atom  115 type  1   force =   0.00000000E+00  0.00000000E+00  0.00000000E+00
     atom  116 type  3   force =   0.00000000E+00  0.00000000E+00  0.00000000E+00
     atom  117 type  1   force =   0.00000000E+00  0.00000000E+00  0.00000000E+00
     atom  118 type  3   force =   0.00000000E+00  0.00000000E+00  0.00000000E+00
     atom  119 type  1   force =   0.00000000E+00  0.00000000E+00  0.00000000E+00
     atom  120 type  3   force =   0.00000000E+00  0.00000000E+00  0.00000000E+00
     atom  121 type  1   force =   0.00000000E+00  0.00000000E+00  0.00000000E+00
     atom  122 type  3   force =   0.00000000E+00  0.00000000E+00  0.00000000E+00
     atom  123 type  1   force =   0.00000000E+00  0.00000000E+00  0.00000000E+00
     atom  124 type  3   force =   0.00000000E+00  0.00000000E+00  0.00000000E+00
     atom  125 type  1   force =   0.00000000E+00  0.00000000E+00  0.00000000E+00
     atom  126 type  3   force =   0.00000000E+00  0.00000000E+00  0.00000000E+00
     atom  127 type  1   force =   0.00000000E+00  0.00000000E+00  0.00000000E+00
     atom  128 type  3   force =   0.00000000E+00  0.00000000E+00  0.00000000E+00
     The SCF correction term to forces
     atom    1 type  1   force =  -0.67317699E-06 -0.29398313E-05  0.50590746E-06
     atom    2 type  3   force =  -0.12452720E-06  0.16979539E-05 -0.71258553E-06
     atom    3 type  1   force =   0.14401944E-05 -0.13125703E-06 -0.35016940E-05
     atom    4 type  3   force =   0.11970614E-05  0.27299536E-05 -0.16169184E-05
     atom    5 type  1   force =   0.50036980E-05  0.11811237E-05 -0.88894883E-06
     atom    6 type  3   force =  -0.17489266E-05 -0.20507484E-05 -0.15960555E-05
     atom    7 type  2   force =  -0.27010624E-06 -0.45745625E-05  0.18021615E-05
     atom    8 type  3   force =   0.29305546E-06 -0.19572596E-05 -0.19709078E-05
     atom    9 type  1   force =  -0.93839055E-07 -0.46075816E-05 -0.13971180E-05
     atom   10 type  3   force =  -0.33097776E-06  0.13381492E-05  0.81336543E-06
     atom   11 type  1   force =   0.31843774E-05  0.25759256E-05 -0.31519160E-05
     atom   12 type  3   force =  -0.25661064E-05  0.93259200E-06 -0.11686727E-05
     atom   13 type  1   force =  -0.26885504E-05  0.18232155E-05 -0.73773433E-05
     atom   14 type  3   force =   0.14088790E-05  0.10742877E-05 -0.69320105E-06
     atom   15 type  1   force =  -0.11008606E-05  0.67099561E-06 -0.57925748E-05
     atom   16 type  3   force =   0.14994178E-06 -0.19099142E-05  0.79240267E-06
     atom   17 type  1   force =  -0.23913167E-05 -0.28521374E-05  0.97566286E-06
     atom   18 type  3   force =  -0.66431205E-06  0.73258949E-06  0.23933431E-05
     atom   19 type  1   force =  -0.14558540E-07  0.22792476E-06 -0.11314557E-06
     atom   20 type  3   force =   0.63382559E-06 -0.86754762E-06  0.26332173E-05
     atom   21 type  1   force =  -0.33411441E-06 -0.66516309E-06  0.20472768E-05
     atom   22 type  3   force =   0.14249551E-05 -0.36022681E-06  0.84119717E-06
     atom   23 type  1   force =   0.24470341E-05  0.29103159E-05 -0.50529259E-06
     atom   24 type  3   force =  -0.68460688E-06 -0.32836776E-06  0.11319052E-05
     atom   25 type  1   force =  -0.34693063E-06 -0.72806496E-06  0.31534799E-05
     atom   26 type  3   force =  -0.78461684E-06  0.12618485E-05 -0.62927917E-06
     atom   27 type  1   force =   0.55536311E-06  0.16884772E-05  0.25078969E-05
     atom   28 type  3   force =   0.10553501E-05  0.10458640E-05  0.28111238E-07
     atom   29 type  1   force =   0.25123713E-05  0.18384924E-06  0.25155349E-05
     atom   30 type  3   force =  -0.39975931E-06 -0.25356789E-05  0.80266368E-06
     atom   31 type  1   force =   0.64941374E-06 -0.33480845E-05  0.26556692E-05
     atom   32 type  3   force =   0.11420268E-06  0.61993273E-06  0.97930456E-07
     atom   33 type  1   force =  -0.48970164E-06  0.31777151E-05 -0.16900997E-05
     atom   34 type  3   force =   0.30110133E-05  0.24600678E-05 -0.83703540E-06
     atom   35 type  1   force =  -0.17587127E-06  0.42957903E-05  0.49720263E-06
     atom   36 type  3   force =  -0.18202767E-05 -0.14630976E-05 -0.11800864E-05
     atom   37 type  1   force =   0.12743367E-05 -0.30565481E-05 -0.91300963E-06
     atom   38 type  3   force =  -0.10228762E-05 -0.10722074E-05  0.54573003E-06
     atom   39 type  1   force =  -0.11149770E-05 -0.37547318E-05 -0.43973079E-05
     atom   40 type  3   force =   0.11693268E-05 -0.14231528E-05  0.55786281E-06
     atom   41 type  1   force =  -0.26799002E-06  0.14561006E-05  0.21677598E-05
     atom   42 type  3   force =  -0.72669185E-06 -0.21296098E-06 -0.14635775E-06
     atom   43 type  1   force =  -0.26322877E-05  0.44368924E-05 -0.11189443E-05
     atom   44 type  3   force =  -0.11304694E-05  0.15279775E-06  0.12330548E-05
     atom   45 type  1   force =  -0.41918902E-05 -0.21981295E-05 -0.29710691E-05
     atom   46 type  3   force =   0.58788751E-06  0.14209541E-05  0.27794766E-05
     atom   47 type  1   force =   0.36983833E-05 -0.47238528E-06  0.12860958E-05
     atom   48 type  3   force =   0.91114379E-07  0.10355958E-06  0.13423364E-05
     atom   49 type  1   force =  -0.55953006E-06  0.12943037E-05  0.35922067E-05
     atom   50 type  3   force =   0.12830962E-05 -0.11935387E-05 -0.90264735E-06
     atom   51 type  1   force =  -0.73061108E-06 -0.16983334E-05  0.22591208E-05
     atom   52 type  3   force =   0.81828797E-06  0.91872776E-06  0.14442890E-05
     atom   53 type  1   force =   0.17413076E-05  0.80742666E-06  0.24295259E-05
     atom   54 type  3   force =  -0.15694435E-05 -0.91287874E-07  0.14109206E-05
     atom   55 type  1   force =  -0.10214885E-05  0.22909201E-06  0.18771006E-05
     atom   56 type  3   force =  -0.19272940E-06 -0.91708696E-07 -0.23192539E-05
     atom   57 type  1   force =   0.10884253E-06 -0.68014770E-06 -0.19862680E-05
     atom   58 type  3   force =   0.13330275E-05  0.11592717E-05 -0.28761649E-05
     atom   59 type  1   force =   0.18888972E-06 -0.13245983E-05  0.99757951E-06
     atom   60 type  3   force =   0.14741538E-06 -0.16200673E-06  0.26429761E-06
     atom   61 type  1   force =   0.19895562E-05 -0.17014906E-06  0.15330931E-05
     atom   62 type  3   force =  -0.15761476E-05 -0.31420716E-05 -0.10427230E-05
     atom   63 type  1   force =  -0.32385090E-07  0.63552184E-09  0.82316799E-06
     atom   64 type  3   force =   0.21091765E-05  0.71432821E-07 -0.27756260E-05
     atom   65 type  2   force =   0.24606068E-05  0.21855981E-05 -0.27063971E-05
     atom   66 type  3   force =   0.10519172E-05  0.18119188E-06 -0.14889841E-05
     atom   67 type  1   force =   0.88931855E-06 -0.13718473E-05 -0.97538512E-06
     atom   68 type  3   force =  -0.64317046E-06  0.33054637E-06  0.62636181E-06
     atom   69 type  1   force =  -0.38373295E-05 -0.17959852E-05  0.12624129E-05
     atom   70 type  3   force =  -0.89275910E-06  0.63532647E-06  0.49575684E-05
     atom   71 type  1   force =  -0.28252564E-06  0.90468499E-06  0.30102480E-05
     atom   72 type  3   force =  -0.51259383E-06 -0.58042664E-06  0.48845948E-05
     atom   73 type  1   force =   0.99685949E-06 -0.33917611E-06  0.20094357E-06
     atom   74 type  3   force =  -0.15924327E-06  0.34801761E-06 -0.56169742E-06
     atom   75 type  1   force =  -0.21919090E-05  0.56364609E-06 -0.12321173E-05
     atom   76 type  3   force =   0.17863213E-05  0.28160122E-05  0.19083411E-06
     atom   77 type  1   force =  -0.44008799E-06  0.27488027E-05  0.50076079E-05
     atom   78 type  3   force =  -0.26251476E-05 -0.25952974E-06  0.15124988E-05
     atom   79 type  1   force =  -0.36688570E-06 -0.14735721E-05  0.64947338E-05
     atom   80 type  3   force =  -0.10162591E-05 -0.10206352E-05  0.36655513E-06
     atom   81 type  1   force =  -0.26096628E-05 -0.15817267E-05 -0.20331621E-05
     atom   82 type  3   force =   0.14350509E-05  0.88999803E-06 -0.51416644E-06
     atom   83 type  1   force =   0.14359244E-05  0.22113320E-05 -0.55537862E-06
     atom   84 type  3   force =   0.13368842E-05  0.87166566E-06 -0.18890859E-05
     atom   85 type  1   force =   0.19603407E-06  0.41392531E-05  0.24132514E-05
     atom   86 type  3   force =  -0.30376712E-05 -0.16194600E-05 -0.14941353E-05
     atom   87 type  2   force =  -0.25479430E-05 -0.12860800E-06  0.14803796E-05
     atom   88 type  3   force =  -0.20105150E-05  0.19872933E-05 -0.71575944E-06
     atom   89 type  1   force =   0.41902522E-05  0.94227951E-06 -0.11476988E-05
     atom   90 type  3   force =   0.24733183E-05  0.21924730E-05 -0.22366878E-05
     atom   91 type  1   force =   0.31022902E-05  0.12748127E-05  0.38583866E-06
     atom   92 type  3   force =  -0.60226327E-07 -0.11460559E-05 -0.13482971E-05
     atom   93 type  1   force =  -0.37070959E-05  0.24303547E-06 -0.11222552E-05
     atom   94 type  3   force =  -0.21327496E-05 -0.36862490E-06  0.33181734E-05
     atom   95 type  2   force =  -0.43038973E-05 -0.19331817E-05 -0.26895878E-05
     atom   96 type  3   force =  -0.19872837E-05  0.12601199E-05  0.92480856E-06
     atom   97 type  1   force =   0.14508585E-05 -0.43812888E-06  0.31038012E-05
     atom   98 type  3   force =  -0.84410970E-07  0.23059102E-06 -0.76163977E-06
     atom   99 type  1   force =   0.17315153E-05 -0.68566923E-06  0.70267982E-06
     atom  100 type  3   force =   0.27940930E-05  0.21601661E-05 -0.18112561E-05
     atom  101 type  1   force =   0.60480549E-06  0.30047887E-05  0.35687751E-05
     atom  102 type  3   force =  -0.82845807E-06 -0.22982772E-05  0.49789183E-06
     atom  103 type  1   force =  -0.35208092E-05  0.19837437E-06  0.76698728E-05
     atom  104 type  3   force =  -0.55192035E-06 -0.74359076E-06  0.13841119E-05
     atom  105 type  2   force =  -0.19813846E-05 -0.11975440E-05  0.61868346E-06
     atom  106 type  3   force =   0.12269560E-06 -0.98877790E-06 -0.10088732E-05
     atom  107 type  1   force =   0.56762354E-06  0.10655455E-05 -0.16584326E-05
     atom  108 type  3   force =   0.16582040E-05  0.71576822E-06 -0.50707335E-05
     atom  109 type  1   force =   0.25833608E-05  0.32854675E-05  0.85299860E-06
     atom  110 type  3   force =  -0.13280266E-05 -0.10339741E-05 -0.48750978E-05
     atom  111 type  1   force =  -0.41797046E-05 -0.17575746E-05  0.69585745E-06
     atom  112 type  3   force =   0.16061367E-06  0.60001003E-06  0.80662373E-07
     atom  113 type  1   force =  -0.32972139E-05  0.90262871E-06  0.10148413E-07
     atom  114 type  3   force =   0.72335167E-06 -0.58053179E-06 -0.86832450E-06
     atom  115 type  1   force =   0.37583628E-05  0.22621710E-05 -0.38391757E-05
     atom  116 type  3   force =   0.81399363E-06 -0.17246675E-05 -0.11325972E-05
     atom  117 type  1   force =   0.17450413E-06 -0.35973606E-05 -0.77926649E-05
     atom  118 type  3   force =   0.20757133E-05  0.49214419E-06  0.82399703E-06
     atom  119 type  1   force =   0.34267420E-06 -0.91891809E-06 -0.41113794E-05
     atom  120 type  3   force =  -0.13257263E-05 -0.28608599E-06  0.84854188E-06
     atom  121 type  1   force =  -0.47344553E-06  0.11578409E-06  0.53889882E-06
     atom  122 type  3   force =   0.73307825E-06 -0.14761247E-06  0.11366269E-05
     atom  123 type  1   force =   0.28636725E-05 -0.16782716E-05 -0.46402731E-05
     atom  124 type  3   force =   0.16795655E-05  0.38175535E-06  0.11837281E-05
     atom  125 type  1   force =   0.18775259E-05 -0.30586587E-05 -0.48463500E-06
     atom  126 type  3   force =   0.69727626E-06 -0.18203180E-06  0.26977154E-05
     atom  127 type  1   force =  -0.14873240E-05  0.17693845E-05  0.39251554E-05
     atom  128 type  3   force =  -0.18400364E-05 -0.18061704E-05  0.15029792E-05

     Total force =     0.511280     Total SCF correction =     0.000040


     entering subroutine stress ...

          total   stress  (Ry/bohr**3)                   (kbar)     P=   46.10
   0.0002855211   0.0000406034   0.0000744789         42.00      5.97     10.96
   0.0000406034   0.0002896055   0.0000074603          5.97     42.60      1.10
   0.0000744789   0.0000074603   0.0003649324         10.96      1.10     53.68

     kinetic stress (kbar)  23960.00      6.35     12.64
                                6.35  23958.35      1.46
                               12.64      1.46  23966.08

     local   stress (kbar)  -3241.13     79.70    105.12
                               79.70  -3538.24     21.96
                              105.12     21.96  -3873.27

     nonloc. stress (kbar)   6429.55     -0.55     -1.14
                               -0.55   6431.79     -0.11
                               -1.14     -0.11   6432.72

     hartree stress (kbar)  17396.11    -29.95    -44.94
                              -29.95  17513.05     -9.57
                              -44.94     -9.57  17630.37

     exc-cor stress (kbar)  -8095.62     -0.08     -0.09
                               -0.08  -8095.47     -0.01
                               -0.09     -0.01  -8095.19

     corecor stress (kbar)   -460.44     -0.01     -0.03
                               -0.01   -460.44     -0.00
                               -0.03     -0.00   -460.47

     ewald   stress (kbar) -35946.47    -49.48    -60.59
                              -49.48 -35766.43    -12.63
                              -60.59    -12.63 -35546.55

     hubbard stress (kbar)      0.00      0.00      0.00
                                0.00      0.00      0.00
                                0.00      0.00      0.00

     london  stress (kbar)      0.00      0.00      0.00
                                0.00      0.00      0.00
                                0.00      0.00      0.00

     XDM     stress (kbar)      0.00      0.00      0.00
                                0.00      0.00      0.00
                                0.00      0.00      0.00

     dft-nl  stress (kbar)      0.00      0.00      0.00
                                0.00      0.00      0.00
                                0.00      0.00      0.00



     Writing output data file MgO_rocksalt.relax.in.up_1.00.super.444.b.011.save

     init_run     :    702.63s CPU    707.17s WALL (       1 calls)
     electrons    :  50396.12s CPU  50401.89s WALL (       1 calls)
     forces       :    472.59s CPU    369.97s WALL (       1 calls)
     stress       :   1889.09s CPU   2150.39s WALL (       1 calls)

     Called by init_run:
     wfcinit      :    670.27s CPU    672.33s WALL (       1 calls)
     potinit      :      4.77s CPU      4.84s WALL (       1 calls)

     Called by electrons:
     c_bands      :  44170.46s CPU  43983.94s WALL (      24 calls)
     sum_band     :   5780.76s CPU   5883.60s WALL (      24 calls)
     v_of_rho     :     16.02s CPU     21.71s WALL (      25 calls)
     v_h          :      1.38s CPU      1.83s WALL (      25 calls)
     v_xc         :     16.14s CPU     21.67s WALL (      27 calls)
     newd         :    413.05s CPU    487.59s WALL (      25 calls)
     mix_rho      :     31.65s CPU     41.07s WALL (      24 calls)

     Called by c_bands:
     init_us_2    :     41.52s CPU     50.44s WALL (     408 calls)
     cegterg      :  43851.72s CPU  43591.42s WALL (     192 calls)

     Called by sum_band:
     sum_band:bec :     18.04s CPU     21.19s WALL (     192 calls)
     addusdens    :    359.77s CPU    420.36s WALL (      24 calls)

     Called by *egterg:
     h_psi        :  21824.71s CPU  21965.12s WALL (     703 calls)
     s_psi        :   4687.14s CPU   3272.01s WALL (     703 calls)
     g_psi        :      7.93s CPU     10.69s WALL (     503 calls)
     cdiaghg      :   9237.44s CPU  12021.01s WALL (     695 calls)
     cegterg:over :   3706.35s CPU   2875.53s WALL (     503 calls)
     cegterg:upda :   1731.35s CPU   1288.98s WALL (     503 calls)
     cegterg:last :   1338.06s CPU    931.51s WALL (     192 calls)

     Called by h_psi:
     h_psi:vloc   :  11513.86s CPU  14605.44s WALL (     703 calls)
     h_psi:vnl    :  10296.50s CPU   7342.00s WALL (     703 calls)
     add_vuspsi   :   4700.49s CPU   3294.42s WALL (     703 calls)

     General routines
     calbec       :   8468.71s CPU   6184.56s WALL (     911 calls)
     fft          :     81.13s CPU    100.62s WALL (     421 calls)
     ffts         :     21.93s CPU     28.29s WALL (     620 calls)
     fftw         :  13737.97s CPU  17464.93s WALL (  640696 calls)
     interpolate  :      4.62s CPU      6.87s WALL (      49 calls)

     Parallel routines
     fft_scatter  :  10271.58s CPU  12989.03s WALL (  641737 calls)

     PWSCF        :    14h51m CPU       14h55m WALL


   This run was terminated on:  10:56: 8  19Aug2017            

=------------------------------------------------------------------------------=
   JOB DONE.
=------------------------------------------------------------------------------=
