
     Program PWSCF v.5.1 starts on 21Aug2017 at 11:10: 5 

     This program is part of the open-source Quantum ESPRESSO suite
     for quantum simulation of materials; please cite
         "P. Giannozzi et al., J. Phys.:Condens. Matter 21 395502 (2009);
          URL http://www.quantum-espresso.org", 
     in publications or presentations arising from this work. More details at
     http://www.quantum-espresso.org/quote

     Parallel version (MPI), running on     8 processors
     R & G space division:  proc/nbgrp/npool/nimage =       8
     Reading input from /tmp/MgO_rocksalt.relax.in.up_1.00.super.222.sub1.5275/MgO_rocksalt.relax.in.up_1.00.super.222.sub1.t
Warning: card &IONS ignored
Warning: card   ION_DYNAMICS='BFGS', ignored
Warning: card / ignored
Warning: card &CELL ignored
Warning: card  CELL_DYNAMICS = 'BFGS' ignored
Warning: card / ignored
     Message from routine read_cards :
     DEPRECATED: no units specified in CELL_PARAMETERS card

     Current dimensions of program PWSCF are:
     Max number of different atomic species (ntypx) = 10
     Max number of k-points (npk) =  40000
     Max angular momentum in pseudopotentials (lmaxx) =  3
 kfg - two_fermi_energies  F

     Subspace diagonalization in iterative solution of the eigenvalue problem:
     a serial algorithm will be used


     Parallelization info
     --------------------
     sticks:   dense  smooth     PW     G-vecs:    dense   smooth      PW
     Min         219     174     49                 6055     4321     650
     Max         220     175     50                 6058     4334     652
     Sum        1759    1393    397                48455    34621    5209



     bravais-lattice index     =            0
     lattice parameter (alat)  =    11.275146168  a.u.
     unit-cell volume          =    1013.5649 (a.u.)^3
     number of atoms/cell      =           16
     number of atomic types    =            3
     number of electrons       =       128.00
     number of Kohn-Sham states=           77
     kinetic-energy cutoff     =      40.0000  Ry
     charge density cutoff     =     200.0000  Ry
     convergence threshold     =      1.0E-10
     mixing beta               =       0.3000
     number of iterations used =            8  local-TF  mixing
     Exchange-correlation      = SLA  PW   PSX  PSC ( 1  4 10  8 0)
     A smooth kinetic-energy cutoff is imposed at      39.5000 Ry
     height of the smooth step-function =             800.0000 Ry
     width of the smooth step-function  =               1.0000 Ry


     celldm(1)=  11.275146  celldm(2)=   0.000000  celldm(3)=   0.000000
     celldm(4)=   0.000000  celldm(5)=   0.000000  celldm(6)=   0.000000

     crystal axes: (cart. coord. in units of alat)
               a(1) = (  -0.000000000000   0.707106781187   0.707106781187 )  
               a(2) = (   0.707106781187   0.000000000000   0.707106781187 )  
               a(3) = (   0.707106781187   0.707106781187  -0.000000000000 )  

     reciprocal axes: (cart. coord. in units 2 pi/alat)
               b(1) = ( -0.707107  0.707107  0.707107 )  
               b(2) = (  0.707107 -0.707107  0.707107 )  
               b(3) = (  0.707107  0.707107 -0.707107 )  


     PseudoPot. # 1 for Ca read from file:
     /users/kfg/psuedo/gbrv_1.5/ca.pbesol.UPF
     MD5 check sum: 0533207b58cddeaa036efa5b63902087
     Pseudo is Ultrasoft + core correction, Zval = 10.0
     Generated by new atomic code, or converted to UPF format
     Using radial grid of  845 points,  6 beta functions with: 
                l(1) =   0
                l(2) =   0
                l(3) =   1
                l(4) =   1
                l(5) =   2
                l(6) =   2
     Q(r) pseudized with  8 coefficients,  rinner =    1.500   1.500   1.500
                                                       1.500   1.500

     PseudoPot. # 2 for Mg read from file:
     /users/kfg/psuedo/gbrv_1.5/mg.pbesol.UPF
     MD5 check sum: 4059f37963cf5867752dbf5ab2400678
     Pseudo is Ultrasoft, Zval = 10.0
     Generated by new atomic code, or converted to UPF format
     Using radial grid of  821 points,  7 beta functions with: 
                l(1) =   0
                l(2) =   0
                l(3) =   0
                l(4) =   1
                l(5) =   1
                l(6) =   2
                l(7) =   2
     Q(r) pseudized with  8 coefficients,  rinner =    1.200   1.200   1.200
                                                       1.200   1.200

     PseudoPot. # 3 for O  read from file:
     /users/kfg/psuedo/gbrv_1.5/o.pbesol.UPF
     MD5 check sum: 501638753501ef6325af9037351f7734
     Pseudo is Ultrasoft + core correction, Zval =  6.0
     Generated by new atomic code, or converted to UPF format
     Using radial grid of  737 points,  5 beta functions with: 
                l(1) =   0
                l(2) =   0
                l(3) =   1
                l(4) =   1
                l(5) =   2
     Q(r) pseudized with  8 coefficients,  rinner =    0.900   0.900   0.900
                                                       0.900   0.900

     atomic species   valence    mass     pseudopotential
        Ca            10.00    40.07800     Ca( 1.00)
        Mg            10.00    40.07800     Mg( 1.00)
        O              6.00    15.99940     O ( 1.00)

     48 Sym. Ops., with inversion, found


                                    s                        frac. trans.

      isym =  1     identity                                     

 cryst.   s( 1) = (     1          0          0      )
                  (     0          1          0      )
                  (     0          0          1      )

 cart.    s( 1) = (  1.0000000  0.0000000  0.0000000 )
                  (  0.0000000  1.0000000  0.0000000 )
                  (  0.0000000  0.0000000  1.0000000 )


      isym =  2     180 deg rotation - cart. axis [0,0,1]        

 cryst.   s( 2) = (     0          1         -1      )
                  (     1          0         -1      )
                  (     0          0         -1      )

 cart.    s( 2) = ( -1.0000000  0.0000000  0.0000000 )
                  (  0.0000000 -1.0000000  0.0000000 )
                  (  0.0000000  0.0000000  1.0000000 )


      isym =  3     180 deg rotation - cart. axis [0,1,0]        

 cryst.   s( 3) = (     0         -1          1      )
                  (     0         -1          0      )
                  (     1         -1          0      )

 cart.    s( 3) = ( -1.0000000  0.0000000  0.0000000 )
                  (  0.0000000  1.0000000  0.0000000 )
                  (  0.0000000  0.0000000 -1.0000000 )


      isym =  4     180 deg rotation - cart. axis [1,0,0]        

 cryst.   s( 4) = (    -1          0          0      )
                  (    -1          0          1      )
                  (    -1          1          0      )

 cart.    s( 4) = (  1.0000000  0.0000000  0.0000000 )
                  (  0.0000000 -1.0000000  0.0000000 )
                  (  0.0000000  0.0000000 -1.0000000 )


      isym =  5     180 deg rotation - cart. axis [1,1,0]        

 cryst.   s( 5) = (    -1          0          1      )
                  (     0         -1          1      )
                  (     0          0          1      )

 cart.    s( 5) = (  0.0000000  1.0000000  0.0000000 )
                  (  1.0000000  0.0000000  0.0000000 )
                  (  0.0000000  0.0000000 -1.0000000 )


      isym =  6     180 deg rotation - cart. axis [1,-1,0]       

 cryst.   s( 6) = (     0         -1          0      )
                  (    -1          0          0      )
                  (     0          0         -1      )

 cart.    s( 6) = (  0.0000000 -1.0000000  0.0000000 )
                  ( -1.0000000  0.0000000  0.0000000 )
                  (  0.0000000  0.0000000 -1.0000000 )


      isym =  7      90 deg rotation - cart. axis [0,0,-1]       

 cryst.   s( 7) = (     0          1          0      )
                  (     0          1         -1      )
                  (    -1          1          0      )

 cart.    s( 7) = (  0.0000000  1.0000000  0.0000000 )
                  ( -1.0000000  0.0000000  0.0000000 )
                  (  0.0000000  0.0000000  1.0000000 )


      isym =  8      90 deg rotation - cart. axis [0,0,1]        

 cryst.   s( 8) = (     1          0         -1      )
                  (     1          0          0      )
                  (     1         -1          0      )

 cart.    s( 8) = (  0.0000000 -1.0000000  0.0000000 )
                  (  1.0000000  0.0000000  0.0000000 )
                  (  0.0000000  0.0000000  1.0000000 )


      isym =  9     180 deg rotation - cart. axis [1,0,1]        

 cryst.   s( 9) = (    -1          1          0      )
                  (     0          1          0      )
                  (     0          1         -1      )

 cart.    s( 9) = (  0.0000000  0.0000000  1.0000000 )
                  (  0.0000000 -1.0000000  0.0000000 )
                  (  1.0000000  0.0000000  0.0000000 )


      isym = 10     180 deg rotation - cart. axis [-1,0,1]       

 cryst.   s(10) = (     0          0         -1      )
                  (     0         -1          0      )
                  (    -1          0          0      )

 cart.    s(10) = (  0.0000000  0.0000000 -1.0000000 )
                  (  0.0000000 -1.0000000  0.0000000 )
                  ( -1.0000000  0.0000000  0.0000000 )


      isym = 11      90 deg rotation - cart. axis [0,1,0]        

 cryst.   s(11) = (     0          0          1      )
                  (    -1          0          1      )
                  (     0         -1          1      )

 cart.    s(11) = (  0.0000000  0.0000000  1.0000000 )
                  (  0.0000000  1.0000000  0.0000000 )
                  ( -1.0000000  0.0000000  0.0000000 )


      isym = 12      90 deg rotation - cart. axis [0,-1,0]       

 cryst.   s(12) = (     1         -1          0      )
                  (     1          0         -1      )
                  (     1          0          0      )

 cart.    s(12) = (  0.0000000  0.0000000 -1.0000000 )
                  (  0.0000000  1.0000000  0.0000000 )
                  (  1.0000000  0.0000000  0.0000000 )


      isym = 13     180 deg rotation - cart. axis [0,1,1]        

 cryst.   s(13) = (     1          0          0      )
                  (     1         -1          0      )
                  (     1          0         -1      )

 cart.    s(13) = ( -1.0000000  0.0000000  0.0000000 )
                  (  0.0000000  0.0000000  1.0000000 )
                  (  0.0000000  1.0000000  0.0000000 )


      isym = 14     180 deg rotation - cart. axis [0,1,-1]       

 cryst.   s(14) = (    -1          0          0      )
                  (     0          0         -1      )
                  (     0         -1          0      )

 cart.    s(14) = ( -1.0000000  0.0000000  0.0000000 )
                  (  0.0000000  0.0000000 -1.0000000 )
                  (  0.0000000 -1.0000000  0.0000000 )


      isym = 15      90 deg rotation - cart. axis [-1,0,0]       

 cryst.   s(15) = (     0         -1          1      )
                  (     0          0          1      )
                  (    -1          0          1      )

 cart.    s(15) = (  1.0000000  0.0000000  0.0000000 )
                  (  0.0000000  0.0000000  1.0000000 )
                  (  0.0000000 -1.0000000  0.0000000 )


      isym = 16      90 deg rotation - cart. axis [1,0,0]        

 cryst.   s(16) = (     0          1         -1      )
                  (    -1          1          0      )
                  (     0          1          0      )

 cart.    s(16) = (  1.0000000  0.0000000  0.0000000 )
                  (  0.0000000  0.0000000 -1.0000000 )
                  (  0.0000000  1.0000000  0.0000000 )


      isym = 17     120 deg rotation - cart. axis [-1,-1,-1]     

 cryst.   s(17) = (     0          0          1      )
                  (     1          0          0      )
                  (     0          1          0      )

 cart.    s(17) = (  0.0000000  1.0000000  0.0000000 )
                  (  0.0000000  0.0000000  1.0000000 )
                  (  1.0000000  0.0000000  0.0000000 )


      isym = 18     120 deg rotation - cart. axis [-1,1,1]       

 cryst.   s(18) = (     1         -1          0      )
                  (     0         -1          1      )
                  (     0         -1          0      )

 cart.    s(18) = (  0.0000000 -1.0000000  0.0000000 )
                  (  0.0000000  0.0000000  1.0000000 )
                  ( -1.0000000  0.0000000  0.0000000 )


      isym = 19     120 deg rotation - cart. axis [1,1,-1]       

 cryst.   s(19) = (    -1          1          0      )
                  (    -1          0          0      )
                  (    -1          0          1      )

 cart.    s(19) = (  0.0000000  1.0000000  0.0000000 )
                  (  0.0000000  0.0000000 -1.0000000 )
                  ( -1.0000000  0.0000000  0.0000000 )


      isym = 20     120 deg rotation - cart. axis [1,-1,1]       

 cryst.   s(20) = (     0          0         -1      )
                  (     0          1         -1      )
                  (     1          0         -1      )

 cart.    s(20) = (  0.0000000 -1.0000000  0.0000000 )
                  (  0.0000000  0.0000000 -1.0000000 )
                  (  1.0000000  0.0000000  0.0000000 )


      isym = 21     120 deg rotation - cart. axis [1,1,1]        

 cryst.   s(21) = (     0          1          0      )
                  (     0          0          1      )
                  (     1          0          0      )

 cart.    s(21) = (  0.0000000  0.0000000  1.0000000 )
                  (  1.0000000  0.0000000  0.0000000 )
                  (  0.0000000  1.0000000  0.0000000 )


      isym = 22     120 deg rotation - cart. axis [-1,1,-1]      

 cryst.   s(22) = (    -1          0          1      )
                  (    -1          1          0      )
                  (    -1          0          0      )

 cart.    s(22) = (  0.0000000  0.0000000  1.0000000 )
                  ( -1.0000000  0.0000000  0.0000000 )
                  (  0.0000000 -1.0000000  0.0000000 )


      isym = 23     120 deg rotation - cart. axis [1,-1,-1]      

 cryst.   s(23) = (     1          0         -1      )
                  (     0          0         -1      )
                  (     0          1         -1      )

 cart.    s(23) = (  0.0000000  0.0000000 -1.0000000 )
                  ( -1.0000000  0.0000000  0.0000000 )
                  (  0.0000000  1.0000000  0.0000000 )


      isym = 24     120 deg rotation - cart. axis [-1,-1,1]      

 cryst.   s(24) = (     0         -1          0      )
                  (     1         -1          0      )
                  (     0         -1          1      )

 cart.    s(24) = (  0.0000000  0.0000000 -1.0000000 )
                  (  1.0000000  0.0000000  0.0000000 )
                  (  0.0000000 -1.0000000  0.0000000 )


      isym = 25     inversion                                    

 cryst.   s(25) = (    -1          0          0      )
                  (     0         -1          0      )
                  (     0          0         -1      )

 cart.    s(25) = ( -1.0000000  0.0000000  0.0000000 )
                  (  0.0000000 -1.0000000  0.0000000 )
                  (  0.0000000  0.0000000 -1.0000000 )


      isym = 26     inv. 180 deg rotation - cart. axis [0,0,1]   

 cryst.   s(26) = (     0         -1          1      )
                  (    -1          0          1      )
                  (     0          0          1      )

 cart.    s(26) = (  1.0000000  0.0000000  0.0000000 )
                  (  0.0000000  1.0000000  0.0000000 )
                  (  0.0000000  0.0000000 -1.0000000 )


      isym = 27     inv. 180 deg rotation - cart. axis [0,1,0]   

 cryst.   s(27) = (     0          1         -1      )
                  (     0          1          0      )
                  (    -1          1          0      )

 cart.    s(27) = (  1.0000000  0.0000000  0.0000000 )
                  (  0.0000000 -1.0000000  0.0000000 )
                  (  0.0000000  0.0000000  1.0000000 )


      isym = 28     inv. 180 deg rotation - cart. axis [1,0,0]   

 cryst.   s(28) = (     1          0          0      )
                  (     1          0         -1      )
                  (     1         -1          0      )

 cart.    s(28) = ( -1.0000000  0.0000000  0.0000000 )
                  (  0.0000000  1.0000000  0.0000000 )
                  (  0.0000000  0.0000000  1.0000000 )


      isym = 29     inv. 180 deg rotation - cart. axis [1,1,0]   

 cryst.   s(29) = (     1          0         -1      )
                  (     0          1         -1      )
                  (     0          0         -1      )

 cart.    s(29) = (  0.0000000 -1.0000000  0.0000000 )
                  ( -1.0000000  0.0000000  0.0000000 )
                  (  0.0000000  0.0000000  1.0000000 )


      isym = 30     inv. 180 deg rotation - cart. axis [1,-1,0]  

 cryst.   s(30) = (     0          1          0      )
                  (     1          0          0      )
                  (     0          0          1      )

 cart.    s(30) = (  0.0000000  1.0000000  0.0000000 )
                  (  1.0000000  0.0000000  0.0000000 )
                  (  0.0000000  0.0000000  1.0000000 )


      isym = 31     inv.  90 deg rotation - cart. axis [0,0,-1]  

 cryst.   s(31) = (     0         -1          0      )
                  (     0         -1          1      )
                  (     1         -1          0      )

 cart.    s(31) = (  0.0000000 -1.0000000  0.0000000 )
                  (  1.0000000  0.0000000  0.0000000 )
                  (  0.0000000  0.0000000 -1.0000000 )


      isym = 32     inv.  90 deg rotation - cart. axis [0,0,1]   

 cryst.   s(32) = (    -1          0          1      )
                  (    -1          0          0      )
                  (    -1          1          0      )

 cart.    s(32) = (  0.0000000  1.0000000  0.0000000 )
                  ( -1.0000000  0.0000000  0.0000000 )
                  (  0.0000000  0.0000000 -1.0000000 )


      isym = 33     inv. 180 deg rotation - cart. axis [1,0,1]   

 cryst.   s(33) = (     1         -1          0      )
                  (     0         -1          0      )
                  (     0         -1          1      )

 cart.    s(33) = (  0.0000000  0.0000000 -1.0000000 )
                  (  0.0000000  1.0000000  0.0000000 )
                  ( -1.0000000  0.0000000  0.0000000 )


      isym = 34     inv. 180 deg rotation - cart. axis [-1,0,1]  

 cryst.   s(34) = (     0          0          1      )
                  (     0          1          0      )
                  (     1          0          0      )

 cart.    s(34) = (  0.0000000  0.0000000  1.0000000 )
                  (  0.0000000  1.0000000  0.0000000 )
                  (  1.0000000  0.0000000  0.0000000 )


      isym = 35     inv.  90 deg rotation - cart. axis [0,1,0]   

 cryst.   s(35) = (     0          0         -1      )
                  (     1          0         -1      )
                  (     0          1         -1      )

 cart.    s(35) = (  0.0000000  0.0000000 -1.0000000 )
                  (  0.0000000 -1.0000000  0.0000000 )
                  (  1.0000000  0.0000000  0.0000000 )


      isym = 36     inv.  90 deg rotation - cart. axis [0,-1,0]  

 cryst.   s(36) = (    -1          1          0      )
                  (    -1          0          1      )
                  (    -1          0          0      )

 cart.    s(36) = (  0.0000000  0.0000000  1.0000000 )
                  (  0.0000000 -1.0000000  0.0000000 )
                  ( -1.0000000  0.0000000  0.0000000 )


      isym = 37     inv. 180 deg rotation - cart. axis [0,1,1]   

 cryst.   s(37) = (    -1          0          0      )
                  (    -1          1          0      )
                  (    -1          0          1      )

 cart.    s(37) = (  1.0000000  0.0000000  0.0000000 )
                  (  0.0000000  0.0000000 -1.0000000 )
                  (  0.0000000 -1.0000000  0.0000000 )


      isym = 38     inv. 180 deg rotation - cart. axis [0,1,-1]  

 cryst.   s(38) = (     1          0          0      )
                  (     0          0          1      )
                  (     0          1          0      )

 cart.    s(38) = (  1.0000000  0.0000000  0.0000000 )
                  (  0.0000000  0.0000000  1.0000000 )
                  (  0.0000000  1.0000000  0.0000000 )


      isym = 39     inv.  90 deg rotation - cart. axis [-1,0,0]  

 cryst.   s(39) = (     0          1         -1      )
                  (     0          0         -1      )
                  (     1          0         -1      )

 cart.    s(39) = ( -1.0000000  0.0000000  0.0000000 )
                  (  0.0000000  0.0000000 -1.0000000 )
                  (  0.0000000  1.0000000  0.0000000 )


      isym = 40     inv.  90 deg rotation - cart. axis [1,0,0]   

 cryst.   s(40) = (     0         -1          1      )
                  (     1         -1          0      )
                  (     0         -1          0      )

 cart.    s(40) = ( -1.0000000  0.0000000  0.0000000 )
                  (  0.0000000  0.0000000  1.0000000 )
                  (  0.0000000 -1.0000000  0.0000000 )


      isym = 41     inv. 120 deg rotation - cart. axis [-1,-1,-1]

 cryst.   s(41) = (     0          0         -1      )
                  (    -1          0          0      )
                  (     0         -1          0      )

 cart.    s(41) = (  0.0000000 -1.0000000  0.0000000 )
                  (  0.0000000  0.0000000 -1.0000000 )
                  ( -1.0000000  0.0000000  0.0000000 )


      isym = 42     inv. 120 deg rotation - cart. axis [-1,1,1]  

 cryst.   s(42) = (    -1          1          0      )
                  (     0          1         -1      )
                  (     0          1          0      )

 cart.    s(42) = (  0.0000000  1.0000000  0.0000000 )
                  (  0.0000000  0.0000000 -1.0000000 )
                  (  1.0000000  0.0000000  0.0000000 )


      isym = 43     inv. 120 deg rotation - cart. axis [1,1,-1]  

 cryst.   s(43) = (     1         -1          0      )
                  (     1          0          0      )
                  (     1          0         -1      )

 cart.    s(43) = (  0.0000000 -1.0000000  0.0000000 )
                  (  0.0000000  0.0000000  1.0000000 )
                  (  1.0000000  0.0000000  0.0000000 )


      isym = 44     inv. 120 deg rotation - cart. axis [1,-1,1]  

 cryst.   s(44) = (     0          0          1      )
                  (     0         -1          1      )
                  (    -1          0          1      )

 cart.    s(44) = (  0.0000000  1.0000000  0.0000000 )
                  (  0.0000000  0.0000000  1.0000000 )
                  ( -1.0000000  0.0000000  0.0000000 )


      isym = 45     inv. 120 deg rotation - cart. axis [1,1,1]   

 cryst.   s(45) = (     0         -1          0      )
                  (     0          0         -1      )
                  (    -1          0          0      )

 cart.    s(45) = (  0.0000000  0.0000000 -1.0000000 )
                  ( -1.0000000  0.0000000  0.0000000 )
                  (  0.0000000 -1.0000000  0.0000000 )


      isym = 46     inv. 120 deg rotation - cart. axis [-1,1,-1] 

 cryst.   s(46) = (     1          0         -1      )
                  (     1         -1          0      )
                  (     1          0          0      )

 cart.    s(46) = (  0.0000000  0.0000000 -1.0000000 )
                  (  1.0000000  0.0000000  0.0000000 )
                  (  0.0000000  1.0000000  0.0000000 )


      isym = 47     inv. 120 deg rotation - cart. axis [1,-1,-1] 

 cryst.   s(47) = (    -1          0          1      )
                  (     0          0          1      )
                  (     0         -1          1      )

 cart.    s(47) = (  0.0000000  0.0000000  1.0000000 )
                  (  1.0000000  0.0000000  0.0000000 )
                  (  0.0000000 -1.0000000  0.0000000 )


      isym = 48     inv. 120 deg rotation - cart. axis [-1,-1,1] 

 cryst.   s(48) = (     0          1          0      )
                  (    -1          1          0      )
                  (     0          1         -1      )

 cart.    s(48) = (  0.0000000  0.0000000  1.0000000 )
                  ( -1.0000000  0.0000000  0.0000000 )
                  (  0.0000000  1.0000000  0.0000000 )


     point group O_h (m-3m) 
     there are 10 classes
     the character table:

       E     8C3   6C2'  6C4   3C2   i     6S4   8S6   3s_h  6s_d 
A_1g   1.00  1.00  1.00  1.00  1.00  1.00  1.00  1.00  1.00  1.00
A_2g   1.00  1.00 -1.00 -1.00  1.00  1.00 -1.00  1.00  1.00 -1.00
E_g    2.00 -1.00  0.00  0.00  2.00  2.00  0.00 -1.00  2.00  0.00
T_1g   3.00  0.00 -1.00  1.00 -1.00  3.00  1.00  0.00 -1.00 -1.00
T_2g   3.00  0.00  1.00 -1.00 -1.00  3.00 -1.00  0.00 -1.00  1.00
A_1u   1.00  1.00  1.00  1.00  1.00 -1.00 -1.00 -1.00 -1.00 -1.00
A_2u   1.00  1.00 -1.00 -1.00  1.00 -1.00  1.00 -1.00 -1.00  1.00
E_u    2.00 -1.00  0.00  0.00  2.00 -2.00  0.00  1.00 -2.00  0.00
T_1u   3.00  0.00 -1.00  1.00 -1.00 -3.00 -1.00  0.00  1.00  1.00
T_2u   3.00  0.00  1.00 -1.00 -1.00 -3.00  1.00  0.00  1.00 -1.00

     the symmetry operations in each class:
     E        1
     3C2      2    4    3
     6C2'     5    6   14   13   10    9
     6C4      7    8   15   16   12   11
     8C3     17   19   20   18   24   21   22   23
     i       25
     3s_h    26   28   27
     6s_d    29   30   38   37   34   33
     6S4     31   32   39   40   36   35
     8S6     41   43   44   42   48   45   46   47

   Cartesian axes

     site n.     atom                  positions (alat units)
         1           Ca  tau(   1) = (    0.00000000000    0.00000000000    0.00000000000  )
         2           O   tau(   2) = (    0.35355339059    0.35355339059    0.35355339059  )
         3           Mg  tau(   3) = (    0.35355339059    0.35355339059    0.00000000000  )
         4           O   tau(   4) = (    0.70710678119    0.70710678119    0.35355339059  )
         5           Mg  tau(   5) = (    0.35355339059    0.00000000000    0.35355339059  )
         6           O   tau(   6) = (    0.70710678119    0.35355339059    0.70710678119  )
         7           Mg  tau(   7) = (    0.70710678119    0.35355339059    0.35355339059  )
         8           O   tau(   8) = (    1.06066017178    0.70710678119    0.70710678119  )
         9           Mg  tau(   9) = (    0.00000000000    0.35355339059    0.35355339059  )
        10           O   tau(  10) = (    0.35355339059    0.70710678119    0.70710678119  )
        11           Mg  tau(  11) = (    0.35355339059    0.70710678119    0.35355339059  )
        12           O   tau(  12) = (    0.70710678119    1.06066017178    0.70710678119  )
        13           Mg  tau(  13) = (    0.35355339059    0.35355339059    0.70710678119  )
        14           O   tau(  14) = (    0.70710678119    0.70710678119    1.06066017178  )
        15           Mg  tau(  15) = (    0.70710678119    0.70710678119    0.70710678119  )
        16           O   tau(  16) = (    1.06066017178    1.06066017178    1.06066017178  )

   Crystallographic axes

     site n.     atom                  positions (cryst. coord.)
         1           Ca  tau(   1) = (    0.00000000000    0.00000000000    0.00000000000  )
         2           O   tau(   2) = (    0.25000000000    0.25000000000    0.25000000000  )
         3           Mg  tau(   3) = (    0.00000000000    0.00000000000    0.50000000000  )
         4           O   tau(   4) = (    0.25000000000    0.25000000000    0.75000000000  )
         5           Mg  tau(   5) = (    0.00000000000    0.50000000000    0.00000000000  )
         6           O   tau(   6) = (    0.25000000000    0.75000000000    0.25000000000  )
         7           Mg  tau(   7) = (    0.00000000000    0.50000000000    0.50000000000  )
         8           O   tau(   8) = (    0.25000000000    0.75000000000    0.75000000000  )
         9           Mg  tau(   9) = (    0.50000000000    0.00000000000    0.00000000000  )
        10           O   tau(  10) = (    0.75000000000    0.25000000000    0.25000000000  )
        11           Mg  tau(  11) = (    0.50000000000    0.00000000000    0.50000000000  )
        12           O   tau(  12) = (    0.75000000000    0.25000000000    0.75000000000  )
        13           Mg  tau(  13) = (    0.50000000000    0.50000000000    0.00000000000  )
        14           O   tau(  14) = (    0.75000000000    0.75000000000    0.25000000000  )
        15           Mg  tau(  15) = (    0.50000000000    0.50000000000    0.50000000000  )
        16           O   tau(  16) = (    0.75000000000    0.75000000000    0.75000000000  )

     number of k points=     8  gaussian smearing, width (Ry)=  0.0050
                       cart. coord. in units 2pi/alat
        k(    1) = (   0.0000000   0.0000000   0.0000000), wk =   0.0312500
        k(    2) = (   0.1767767   0.1767767  -0.1767767), wk =   0.2500000
        k(    3) = (  -0.3535534  -0.3535534   0.3535534), wk =   0.1250000
        k(    4) = (   0.3535534   0.0000000   0.0000000), wk =   0.1875000
        k(    5) = (  -0.1767767  -0.5303301   0.5303301), wk =   0.7500000
        k(    6) = (   0.0000000  -0.3535534   0.3535534), wk =   0.3750000
        k(    7) = (  -0.7071068   0.0000000   0.0000000), wk =   0.0937500
        k(    8) = (  -0.7071068   0.3535534   0.0000000), wk =   0.1875000

                       cryst. coord.
        k(    1) = (   0.0000000   0.0000000   0.0000000), wk =   0.0312500
        k(    2) = (   0.0000000   0.0000000   0.2500000), wk =   0.2500000
        k(    3) = (   0.0000000   0.0000000  -0.5000000), wk =   0.1250000
        k(    4) = (   0.0000000   0.2500000   0.2500000), wk =   0.1875000
        k(    5) = (   0.0000000   0.2500000  -0.5000000), wk =   0.7500000
        k(    6) = (   0.0000000   0.2500000  -0.2500000), wk =   0.3750000
        k(    7) = (   0.0000000  -0.5000000  -0.5000000), wk =   0.0937500
        k(    8) = (   0.2500000  -0.5000000  -0.2500000), wk =   0.1875000

     Dense  grid:    48455 G-vectors     FFT dimensions: (  54,  54,  54)

     Smooth grid:    34621 G-vectors     FFT dimensions: (  45,  45,  45)

     Largest allocated arrays     est. size (Mb)     dimensions
        Kohn-Sham Wavefunctions         0.66 Mb     (     558,   77)
        NL pseudopotentials             2.17 Mb     (     558,  255)
        Each V/rho on FFT grid          0.31 Mb     (   20412)
        Each G-vector array             0.05 Mb     (    6058)
        G-vector shells                 0.00 Mb     (     430)
     Largest temporary arrays     est. size (Mb)     dimensions
        Auxiliary wavefunctions         2.62 Mb     (     558,  308)
        Each subspace H/S matrix        1.45 Mb     (     308,  308)
        Each <psi_i|beta_j> matrix      0.30 Mb     (     255,   77)
        Arrays for rho mixing           2.49 Mb     (   20412,    8)

     Check: negative/imaginary core charge=   -0.000004    0.000000

     Initial potential from superposition of free atoms

     starting charge  125.89322, renormalised to  128.00000
     Starting wfc are   77 randomized atomic wfcs

     total cpu time spent up to now is        3.8 secs

     Self-consistent Calculation

     iteration #  1     ecut=    40.00 Ry     beta=0.30
     Davidson diagonalization with overlap
     ethr =  1.00E-02,  avg # of iterations =  4.8

     total cpu time spent up to now is       18.2 secs

     total energy              =   -1210.89917868 Ry
     Harris-Foulkes estimate   =   -1211.46185039 Ry
     estimated scf accuracy    <       2.84439748 Ry

     iteration #  2     ecut=    40.00 Ry     beta=0.30
     Davidson diagonalization with overlap
     ethr =  2.22E-03,  avg # of iterations =  1.0

     total cpu time spent up to now is       25.1 secs

     total energy              =   -1210.39313570 Ry
     Harris-Foulkes estimate   =   -1210.97486938 Ry
     estimated scf accuracy    <       1.30978810 Ry

     iteration #  3     ecut=    40.00 Ry     beta=0.30
     Davidson diagonalization with overlap
     ethr =  1.02E-03,  avg # of iterations =  2.3

     total cpu time spent up to now is       34.4 secs

     total energy              =   -1210.50972375 Ry
     Harris-Foulkes estimate   =   -1210.58806967 Ry
     estimated scf accuracy    <       0.18405594 Ry

     iteration #  4     ecut=    40.00 Ry     beta=0.30
     Davidson diagonalization with overlap
     ethr =  1.44E-04,  avg # of iterations =  3.8

     total cpu time spent up to now is       46.2 secs

     total energy              =   -1210.49005531 Ry
     Harris-Foulkes estimate   =   -1210.51834945 Ry
     estimated scf accuracy    <       0.04769192 Ry

     iteration #  5     ecut=    40.00 Ry     beta=0.30
     Davidson diagonalization with overlap
     ethr =  3.73E-05,  avg # of iterations =  4.5

     total cpu time spent up to now is       60.7 secs

     total energy              =   -1210.49303338 Ry
     Harris-Foulkes estimate   =   -1210.49518395 Ry
     estimated scf accuracy    <       0.00675196 Ry

     iteration #  6     ecut=    40.00 Ry     beta=0.30
     Davidson diagonalization with overlap
     ethr =  5.27E-06,  avg # of iterations =  4.6

     total cpu time spent up to now is       85.1 secs

     total energy              =   -1210.49316001 Ry
     Harris-Foulkes estimate   =   -1210.49393899 Ry
     estimated scf accuracy    <       0.00247675 Ry

     iteration #  7     ecut=    40.00 Ry     beta=0.30
     Davidson diagonalization with overlap
     ethr =  1.93E-06,  avg # of iterations =  3.1

     total cpu time spent up to now is       97.4 secs

     total energy              =   -1210.49316605 Ry
     Harris-Foulkes estimate   =   -1210.49336845 Ry
     estimated scf accuracy    <       0.00038495 Ry

     iteration #  8     ecut=    40.00 Ry     beta=0.30
     Davidson diagonalization with overlap
     ethr =  3.01E-07,  avg # of iterations =  2.6

     total cpu time spent up to now is      111.0 secs

     total energy              =   -1210.49321738 Ry
     Harris-Foulkes estimate   =   -1210.49322311 Ry
     estimated scf accuracy    <       0.00003717 Ry

     iteration #  9     ecut=    40.00 Ry     beta=0.30
     Davidson diagonalization with overlap
     ethr =  2.90E-08,  avg # of iterations =  2.0

     total cpu time spent up to now is      129.0 secs

     total energy              =   -1210.49320529 Ry
     Harris-Foulkes estimate   =   -1210.49322747 Ry
     estimated scf accuracy    <       0.00004454 Ry

     iteration # 10     ecut=    40.00 Ry     beta=0.30
     Davidson diagonalization with overlap
     ethr =  2.90E-08,  avg # of iterations =  2.0

     total cpu time spent up to now is      140.2 secs

     total energy              =   -1210.49321439 Ry
     Harris-Foulkes estimate   =   -1210.49321552 Ry
     estimated scf accuracy    <       0.00000285 Ry

     iteration # 11     ecut=    40.00 Ry     beta=0.30
     Davidson diagonalization with overlap
     ethr =  2.23E-09,  avg # of iterations =  2.0

     total cpu time spent up to now is      149.8 secs

     total energy              =   -1210.49321467 Ry
     Harris-Foulkes estimate   =   -1210.49321498 Ry
     estimated scf accuracy    <       0.00000066 Ry

     iteration # 12     ecut=    40.00 Ry     beta=0.30
     Davidson diagonalization with overlap
     ethr =  5.19E-10,  avg # of iterations =  2.0

     total cpu time spent up to now is      159.1 secs

     total energy              =   -1210.49321475 Ry
     Harris-Foulkes estimate   =   -1210.49321477 Ry
     estimated scf accuracy    <       0.00000007 Ry

     iteration # 13     ecut=    40.00 Ry     beta=0.30
     Davidson diagonalization with overlap
     ethr =  5.72E-11,  avg # of iterations =  2.3

     total cpu time spent up to now is      168.2 secs

     total energy              =   -1210.49321477 Ry
     Harris-Foulkes estimate   =   -1210.49321476 Ry
     estimated scf accuracy    <          4.0E-09 Ry

     iteration # 14     ecut=    40.00 Ry     beta=0.30
     Davidson diagonalization with overlap
     ethr =  3.09E-12,  avg # of iterations =  1.9

     total cpu time spent up to now is      176.3 secs

     total energy              =   -1210.49321478 Ry
     Harris-Foulkes estimate   =   -1210.49321477 Ry
     estimated scf accuracy    <          2.3E-09 Ry

     iteration # 15     ecut=    40.00 Ry     beta=0.30
     Davidson diagonalization with overlap
     ethr =  1.79E-12,  avg # of iterations =  2.0

     total cpu time spent up to now is      190.3 secs

     End of self-consistent calculation

          k = 0.0000 0.0000 0.0000 (  4285 PWs)   bands (ev):

   -63.7015 -63.6956 -63.6956 -63.6956 -63.6926 -63.6926 -63.3384 -30.7312
   -30.7100 -30.7100 -30.7100 -30.7040 -30.7040 -30.7040 -30.6749 -30.6749
   -30.6749 -30.6533 -30.6533 -30.6533 -30.6527 -30.6527 -30.6520 -30.6520
   -30.6520 -30.3201 -30.3201 -30.3201 -26.9956  -9.5435  -9.5435  -9.5435
    -8.7090  -7.6073  -7.3629  -7.3629  -7.2808  -6.2401  -6.2401  -6.2401
     3.4829   3.4829   3.4829   4.5647   4.5647   4.5647   4.6221   6.8876
     6.8876   6.8876   7.1240   7.1240   7.3685   7.3685   7.3685   7.5150
     7.5150   7.5150   7.6044   7.6044   7.6044   8.3680   8.3680   8.3680
    13.1595  15.5779  15.5779  15.5779  15.8879  16.5323  16.5323  16.5323
    17.9695  17.9695  19.6818  19.8982  19.8982

     occupation numbers 
     1.0000   1.0000   1.0000   1.0000   1.0000   1.0000   1.0000   1.0000
     1.0000   1.0000   1.0000   1.0000   1.0000   1.0000   1.0000   1.0000
     1.0000   1.0000   1.0000   1.0000   1.0000   1.0000   1.0000   1.0000
     1.0000   1.0000   1.0000   1.0000   1.0000   1.0000   1.0000   1.0000
     1.0000   1.0000   1.0000   1.0000   1.0000   1.0000   1.0000   1.0000
     1.0000   1.0000   1.0000   1.0000   1.0000   1.0000   1.0000   1.0000
     1.0000   1.0000   1.0000   1.0000   1.0000   1.0000   1.0000   1.0000
     1.0000   1.0000   1.0000   1.0000   1.0000   1.0000   1.0000   1.0000
     0.0000   0.0000   0.0000   0.0000   0.0000   0.0000   0.0000   0.0000
     0.0000   0.0000   0.0000   0.0000   0.0000

          k = 0.1768 0.1768-0.1768 (  4339 PWs)   bands (ev):

   -63.7006 -63.6964 -63.6951 -63.6951 -63.6930 -63.6930 -63.3384 -30.7241
   -30.7096 -30.7050 -30.7050 -30.7014 -30.6981 -30.6981 -30.6777 -30.6777
   -30.6723 -30.6628 -30.6593 -30.6593 -30.6546 -30.6539 -30.6539 -30.6527
   -30.6527 -30.3215 -30.3205 -30.3205 -26.9945  -9.6557  -9.5396  -9.5396
    -8.4291  -7.6451  -7.4244  -7.4244  -7.3151  -6.4125  -6.1764  -6.1764
     3.7608   3.7608   3.9679   4.6223   4.6223   4.7936   5.0028   6.5356
     6.5356   6.8308   6.8308   6.8495   6.9835   7.0231   7.2934   7.2934
     7.4895   7.5332   7.5938   7.5938   7.6045   7.6045   8.2986   8.2986
    14.0474  15.8675  15.9799  15.9799  16.1726  17.0440  17.0949  17.0949
    18.3700  18.3700  19.5740  19.7555  19.7555

     occupation numbers 
     1.0000   1.0000   1.0000   1.0000   1.0000   1.0000   1.0000   1.0000
     1.0000   1.0000   1.0000   1.0000   1.0000   1.0000   1.0000   1.0000
     1.0000   1.0000   1.0000   1.0000   1.0000   1.0000   1.0000   1.0000
     1.0000   1.0000   1.0000   1.0000   1.0000   1.0000   1.0000   1.0000
     1.0000   1.0000   1.0000   1.0000   1.0000   1.0000   1.0000   1.0000
     1.0000   1.0000   1.0000   1.0000   1.0000   1.0000   1.0000   1.0000
     1.0000   1.0000   1.0000   1.0000   1.0000   1.0000   1.0000   1.0000
     1.0000   1.0000   1.0000   1.0000   1.0000   1.0000   1.0000   1.0000
     0.0000   0.0000   0.0000   0.0000   0.0000   0.0000   0.0000   0.0000
     0.0000   0.0000   0.0000   0.0000   0.0000

          k =-0.3536-0.3536 0.3536 (  4338 PWs)   bands (ev):

   -63.6985 -63.6985 -63.6941 -63.6941 -63.6941 -63.6941 -63.3384 -30.7154
   -30.7116 -30.6972 -30.6972 -30.6915 -30.6915 -30.6891 -30.6812 -30.6782
   -30.6782 -30.6720 -30.6720 -30.6685 -30.6584 -30.6544 -30.6544 -30.6531
   -30.6531 -30.3229 -30.3208 -30.3208 -26.9934  -9.7359  -9.5355  -9.5355
    -8.0993  -7.7191  -7.4806  -7.4806  -7.3758  -6.6027  -6.1182  -6.1182
     4.2816   4.2816   4.4899   4.4899   4.8017   5.1898   5.7205   5.9147
     6.1310   6.1310   6.3525   6.5703   6.6497   6.6497   7.0301   7.0301
     7.2148   7.2393   7.6425   7.6425   7.7795   7.7795   8.1876   8.1876
    15.3819  15.5038  16.3710  16.3710  16.4026  18.0841  18.1041  18.1041
    18.3472  18.3472  19.3875  19.6432  19.6947

     occupation numbers 
     1.0000   1.0000   1.0000   1.0000   1.0000   1.0000   1.0000   1.0000
     1.0000   1.0000   1.0000   1.0000   1.0000   1.0000   1.0000   1.0000
     1.0000   1.0000   1.0000   1.0000   1.0000   1.0000   1.0000   1.0000
     1.0000   1.0000   1.0000   1.0000   1.0000   1.0000   1.0000   1.0000
     1.0000   1.0000   1.0000   1.0000   1.0000   1.0000   1.0000   1.0000
     1.0000   1.0000   1.0000   1.0000   1.0000   1.0000   1.0000   1.0000
     1.0000   1.0000   1.0000   1.0000   1.0000   1.0000   1.0000   1.0000
     1.0000   1.0000   1.0000   1.0000   1.0000   1.0000   1.0000   1.0000
     0.0000   0.0000   0.0000   0.0000   0.0000   0.0000   0.0000   0.0000
     0.0000   0.0000   0.0000   0.0000   0.0000

          k = 0.3536 0.0000 0.0000 (  4336 PWs)   bands (ev):

   -63.7003 -63.6956 -63.6956 -63.6956 -63.6937 -63.6926 -63.3384 -30.7211
   -30.7088 -30.7039 -30.7039 -30.6982 -30.6972 -30.6972 -30.6766 -30.6766
   -30.6758 -30.6621 -30.6619 -30.6592 -30.6592 -30.6557 -30.6557 -30.6528
   -30.6521 -30.3216 -30.3208 -30.3208 -26.9941  -9.6310  -9.5628  -9.5628
    -8.3472  -7.6510  -7.5969  -7.3304  -7.3093  -6.2609  -6.2609  -6.2439
     3.9212   3.9460   3.9460   4.7285   4.7930   4.7930   4.9835   6.5220
     6.5220   6.6260   6.6631   6.9530   6.9988   6.9988   7.1240   7.1618
     7.3110   7.3110   7.5924   7.5924   7.6044   7.7881   8.1844   8.1844
    14.3202  15.8621  16.2218  16.2218  16.6136  16.8811  17.2800  17.2800
    17.9340  18.8498  19.6268  19.6268  19.7381

     occupation numbers 
     1.0000   1.0000   1.0000   1.0000   1.0000   1.0000   1.0000   1.0000
     1.0000   1.0000   1.0000   1.0000   1.0000   1.0000   1.0000   1.0000
     1.0000   1.0000   1.0000   1.0000   1.0000   1.0000   1.0000   1.0000
     1.0000   1.0000   1.0000   1.0000   1.0000   1.0000   1.0000   1.0000
     1.0000   1.0000   1.0000   1.0000   1.0000   1.0000   1.0000   1.0000
     1.0000   1.0000   1.0000   1.0000   1.0000   1.0000   1.0000   1.0000
     1.0000   1.0000   1.0000   1.0000   1.0000   1.0000   1.0000   1.0000
     1.0000   1.0000   1.0000   1.0000   1.0000   1.0000   1.0000   1.0000
     0.0000   0.0000   0.0000   0.0000   0.0000   0.0000   0.0000   0.0000
     0.0000   0.0000   0.0000   0.0000   0.0000

          k =-0.1768-0.5303 0.5303 (  4327 PWs)   bands (ev):

   -63.6988 -63.6973 -63.6951 -63.6949 -63.6943 -63.6930 -63.3384 -30.7109
   -30.7055 -30.7024 -30.6953 -30.6901 -30.6884 -30.6878 -30.6851 -30.6800
   -30.6769 -30.6719 -30.6709 -30.6671 -30.6613 -30.6573 -30.6568 -30.6562
   -30.6527 -30.3226 -30.3215 -30.3212 -26.9930  -9.6796  -9.5828  -9.5592
    -7.9945  -7.7063  -7.6809  -7.4293  -7.3941  -6.4116  -6.1941  -6.1844
     4.3833   4.4522   4.7544   4.7676   4.8632   5.2102   5.3558   5.7824
     5.9329   6.0511   6.2887   6.4875   6.7467   6.8574   7.0266   7.0627
     7.1871   7.3569   7.3857   7.4915   7.7252   7.7582   7.9060   8.0932
    15.5591  16.3010  16.3252  16.6999  16.7710  17.3137  17.9445  18.0575
    18.3616  18.9410  19.3922  19.5796  19.7911

     occupation numbers 
     1.0000   1.0000   1.0000   1.0000   1.0000   1.0000   1.0000   1.0000
     1.0000   1.0000   1.0000   1.0000   1.0000   1.0000   1.0000   1.0000
     1.0000   1.0000   1.0000   1.0000   1.0000   1.0000   1.0000   1.0000
     1.0000   1.0000   1.0000   1.0000   1.0000   1.0000   1.0000   1.0000
     1.0000   1.0000   1.0000   1.0000   1.0000   1.0000   1.0000   1.0000
     1.0000   1.0000   1.0000   1.0000   1.0000   1.0000   1.0000   1.0000
     1.0000   1.0000   1.0000   1.0000   1.0000   1.0000   1.0000   1.0000
     1.0000   1.0000   1.0000   1.0000   1.0000   1.0000   1.0000   1.0000
     0.0000   0.0000   0.0000   0.0000   0.0000   0.0000   0.0000   0.0000
     0.0000   0.0000   0.0000   0.0000   0.0000

          k = 0.0000-0.3536 0.3536 (  4335 PWs)   bands (ev):

   -63.6993 -63.6970 -63.6956 -63.6941 -63.6941 -63.6933 -63.3384 -30.7145
   -30.7080 -30.6990 -30.6985 -30.6984 -30.6901 -30.6887 -30.6866 -30.6790
   -30.6716 -30.6705 -30.6692 -30.6602 -30.6598 -30.6572 -30.6571 -30.6553
   -30.6531 -30.3222 -30.3215 -30.3208 -26.9934  -9.6802  -9.5915  -9.5358
    -8.1130  -7.6880  -7.5331  -7.4805  -7.3973  -6.4014  -6.2607  -6.1176
     4.1160   4.3313   4.5340   4.6553   4.8543   5.0409   5.3340   5.7469
     6.2252   6.3528   6.4849   6.4850   6.9838   6.9980   7.0461   7.1916
     7.2466   7.2979   7.4208   7.4975   7.5006   7.8433   7.9655   8.1984
    15.0980  16.1854  16.3360  16.4933  16.5329  17.1523  17.8138  18.1880
    18.4584  18.4990  19.3431  19.5257  19.6978

     occupation numbers 
     1.0000   1.0000   1.0000   1.0000   1.0000   1.0000   1.0000   1.0000
     1.0000   1.0000   1.0000   1.0000   1.0000   1.0000   1.0000   1.0000
     1.0000   1.0000   1.0000   1.0000   1.0000   1.0000   1.0000   1.0000
     1.0000   1.0000   1.0000   1.0000   1.0000   1.0000   1.0000   1.0000
     1.0000   1.0000   1.0000   1.0000   1.0000   1.0000   1.0000   1.0000
     1.0000   1.0000   1.0000   1.0000   1.0000   1.0000   1.0000   1.0000
     1.0000   1.0000   1.0000   1.0000   1.0000   1.0000   1.0000   1.0000
     1.0000   1.0000   1.0000   1.0000   1.0000   1.0000   1.0000   1.0000
     0.0000   0.0000   0.0000   0.0000   0.0000   0.0000   0.0000   0.0000
     0.0000   0.0000   0.0000   0.0000   0.0000

          k =-0.7071 0.0000 0.0000 (  4328 PWs)   bands (ev):

   -63.6985 -63.6956 -63.6956 -63.6956 -63.6956 -63.6926 -63.3384 -30.7081
   -30.7053 -30.6965 -30.6965 -30.6840 -30.6840 -30.6831 -30.6792 -30.6774
   -30.6774 -30.6770 -30.6767 -30.6747 -30.6747 -30.6582 -30.6582 -30.6528
   -30.6522 -30.3230 -30.3215 -30.3215 -26.9927  -9.6580  -9.5820  -9.5820
    -7.9775  -7.7502  -7.6939  -7.4832  -7.2975  -6.2810  -6.2810  -6.2455
     4.5885   4.6969   4.6969   4.9378   5.1811   5.1811   5.6238   5.8498
     5.9340   5.9340   6.1453   6.1453   6.1789   6.4505   6.8806   7.1241
     7.3973   7.4519   7.4519   7.5645   7.5645   7.6045   7.9727   7.9727
    16.2438  16.2467  16.2875  17.0342  17.0342  17.6665  17.6846  17.9967
    17.9967  19.1086  19.7689  19.8188  19.8188

     occupation numbers 
     1.0000   1.0000   1.0000   1.0000   1.0000   1.0000   1.0000   1.0000
     1.0000   1.0000   1.0000   1.0000   1.0000   1.0000   1.0000   1.0000
     1.0000   1.0000   1.0000   1.0000   1.0000   1.0000   1.0000   1.0000
     1.0000   1.0000   1.0000   1.0000   1.0000   1.0000   1.0000   1.0000
     1.0000   1.0000   1.0000   1.0000   1.0000   1.0000   1.0000   1.0000
     1.0000   1.0000   1.0000   1.0000   1.0000   1.0000   1.0000   1.0000
     1.0000   1.0000   1.0000   1.0000   1.0000   1.0000   1.0000   1.0000
     1.0000   1.0000   1.0000   1.0000   1.0000   1.0000   1.0000   1.0000
     0.0000   0.0000   0.0000   0.0000   0.0000   0.0000   0.0000   0.0000
     0.0000   0.0000   0.0000   0.0000   0.0000

          k =-0.7071 0.3536 0.0000 (  4348 PWs)   bands (ev):

   -63.6976 -63.6976 -63.6956 -63.6956 -63.6935 -63.6935 -63.3384 -30.7034
   -30.7014 -30.7014 -30.6954 -30.6933 -30.6880 -30.6825 -30.6825 -30.6808
   -30.6796 -30.6746 -30.6746 -30.6664 -30.6630 -30.6615 -30.6565 -30.6556
   -30.6556 -30.3222 -30.3222 -30.3215 -26.9927  -9.6202  -9.6202  -9.5994
    -7.7291  -7.7231  -7.7231  -7.6764  -7.3681  -6.2618  -6.2618  -6.2513
     4.7450   4.7450   4.9281   5.0670   5.1696   5.1696   5.2478   5.3826
     5.5150   6.0534   6.0534   6.0564   6.9814   6.9897   7.0475   7.0475
     7.0689   7.2272   7.4909   7.4909   7.5276   7.7930   7.7930   7.9021
    16.5841  16.6351  16.6351  16.7071  16.7071  17.0293  17.1340  18.7053
    19.0998  19.1737  19.1737  19.3764  19.5726

     occupation numbers 
     1.0000   1.0000   1.0000   1.0000   1.0000   1.0000   1.0000   1.0000
     1.0000   1.0000   1.0000   1.0000   1.0000   1.0000   1.0000   1.0000
     1.0000   1.0000   1.0000   1.0000   1.0000   1.0000   1.0000   1.0000
     1.0000   1.0000   1.0000   1.0000   1.0000   1.0000   1.0000   1.0000
     1.0000   1.0000   1.0000   1.0000   1.0000   1.0000   1.0000   1.0000
     1.0000   1.0000   1.0000   1.0000   1.0000   1.0000   1.0000   1.0000
     1.0000   1.0000   1.0000   1.0000   1.0000   1.0000   1.0000   1.0000
     1.0000   1.0000   1.0000   1.0000   1.0000   1.0000   1.0000   1.0000
     0.0000   0.0000   0.0000   0.0000   0.0000   0.0000   0.0000   0.0000
     0.0000   0.0000   0.0000   0.0000   0.0000

     the Fermi energy is     9.5503 ev

!    total energy              =   -1210.49321478 Ry
     Harris-Foulkes estimate   =   -1210.49321478 Ry
     estimated scf accuracy    <          7.3E-11 Ry

     The total energy is the sum of the following terms:

     one-electron contribution =    -618.86527271 Ry
     hartree contribution      =     353.49621520 Ry
     xc contribution           =    -188.23514251 Ry
     ewald contribution        =    -756.88901476 Ry
     smearing contrib. (-TS)   =      -0.00000000 Ry

     convergence has been achieved in  15 iterations

     Forces acting on atoms (Ry/au):

     atom    1 type  1   force =  -0.11156178E-29 -0.11156178E-29  0.37187260E-30
     atom    2 type  3   force =   0.00000000E+00  0.00000000E+00  0.00000000E+00
     atom    3 type  2   force =  -0.11156178E-29  0.11156178E-29  0.33468534E-29
     atom    4 type  3   force =   0.69388939E-17 -0.69388939E-17  0.77127055E-01
     atom    5 type  2   force =  -0.30679489E-29 -0.92968149E-31  0.30679489E-29
     atom    6 type  3   force =   0.00000000E+00  0.77127055E-01  0.00000000E+00
     atom    7 type  2   force =  -0.29749808E-29 -0.14874904E-29  0.14874904E-29
     atom    8 type  3   force =  -0.77127055E-01  0.00000000E+00  0.00000000E+00
     atom    9 type  2   force =   0.13945222E-29  0.27890445E-30 -0.27890445E-30
     atom   10 type  3   force =   0.77127055E-01  0.00000000E+00  0.00000000E+00
     atom   11 type  2   force =  -0.83671334E-30 -0.21382674E-29  0.10226496E-29
     atom   12 type  3   force =   0.00000000E+00 -0.77127055E-01  0.00000000E+00
     atom   13 type  2   force =  -0.74374519E-30  0.74374519E-30  0.00000000E+00
     atom   14 type  3   force =   0.69388939E-17 -0.69388939E-17 -0.77127055E-01
     atom   15 type  2   force =   0.00000000E+00  0.00000000E+00  0.00000000E+00
     atom   16 type  3   force =   0.00000000E+00  0.00000000E+00  0.00000000E+00
     The non-local contrib.  to forces
     atom    1 type  1   force =   0.15231902E-26  0.15231902E-26 -0.15231902E-26
     atom    2 type  3   force =   0.63887226E-20  0.63887226E-20 -0.31943613E-20
     atom    3 type  2   force =  -0.53311656E-26  0.38079754E-26  0.53311656E-26
     atom    4 type  3   force =  -0.13060031E-16  0.14695544E-16  0.17318016E+00
     atom    5 type  2   force =  -0.43791717E-26  0.17135889E-26  0.43791717E-26
     atom    6 type  3   force =   0.27755576E-16  0.17318016E+00 -0.27755576E-16
     atom    7 type  2   force =   0.76159508E-27  0.76159508E-27 -0.76159508E-27
     atom    8 type  3   force =  -0.17318016E+00  0.00000000E+00  0.00000000E+00
     atom    9 type  2   force =   0.76159508E-27 -0.76159508E-27  0.22847852E-26
     atom   10 type  3   force =   0.17318016E+00 -0.27755576E-16  0.27755576E-16
     atom   11 type  2   force =   0.30463803E-26  0.38079754E-27 -0.30463803E-26
     atom   12 type  3   force =  -0.27755576E-16 -0.17318016E+00  0.27755576E-16
     atom   13 type  2   force =   0.00000000E+00  0.00000000E+00  0.30463803E-26
     atom   14 type  3   force =  -0.81775649E-18 -0.81775649E-18 -0.17318016E+00
     atom   15 type  2   force =   0.00000000E+00  0.00000000E+00  0.00000000E+00
     atom   16 type  3   force =  -0.31943613E-20 -0.31943613E-20  0.31943613E-20
     The ionic contribution  to forces
     atom    1 type  1   force =  -0.14010789E-13 -0.14010788E-13 -0.50909735E-13
     atom    2 type  3   force =   0.14977291E-13  0.14977291E-13  0.62717914E-14
     atom    3 type  2   force =  -0.60309248E-14 -0.60309244E-14 -0.52535081E-13
     atom    4 type  3   force =   0.12890275E-14  0.12890273E-14  0.31360110E-13
     atom    5 type  2   force =  -0.22670724E-13 -0.18695674E-13 -0.46900754E-13
     atom    6 type  3   force =   0.11198216E-13  0.39760526E-15  0.51380685E-14
     atom    7 type  2   force =   0.24357595E-13 -0.20852032E-13  0.26740121E-13
     atom    8 type  3   force =  -0.42104366E-13 -0.49073537E-14  0.48037082E-14
     atom    9 type  2   force =  -0.18695674E-13 -0.22670724E-13 -0.46900754E-13
     atom   10 type  3   force =   0.39760595E-15  0.11198216E-13  0.51380683E-14
     atom   11 type  2   force =  -0.20852032E-13  0.24357595E-13  0.26740121E-13
     atom   12 type  3   force =  -0.49073539E-14 -0.42104366E-13  0.48037082E-14
     atom   13 type  2   force =   0.13601307E-13  0.13601308E-13  0.37026054E-13
     atom   14 type  3   force =   0.12819518E-13  0.12819518E-13 -0.46182951E-13
     atom   15 type  2   force =   0.45449092E-13  0.45449093E-13  0.70285317E-13
     atom   16 type  3   force =   0.51822102E-14  0.51822102E-14  0.25122210E-13
     The local contribution  to forces
     atom    1 type  1   force =  -0.43204757E-14 -0.40551231E-14 -0.51922822E-15
     atom    2 type  3   force =  -0.51167404E-13 -0.51198629E-13 -0.56551985E-13
     atom    3 type  2   force =  -0.17153227E-12 -0.17292569E-12  0.25403821E-14
     atom    4 type  3   force =  -0.10747653E-12 -0.10791455E-12 -0.94247179E-01
     atom    5 type  2   force =  -0.17186045E-12  0.24106418E-14 -0.17198576E-12
     atom    6 type  3   force =  -0.10372259E-12 -0.94247179E-01 -0.10622059E-12
     atom    7 type  2   force =  -0.38542483E-12 -0.17666058E-12 -0.16258810E-12
     atom    8 type  3   force =   0.94247179E-01 -0.93862418E-13 -0.10881573E-12
     atom    9 type  2   force =   0.19724903E-14 -0.17092429E-12 -0.17361920E-12
     atom   10 type  3   force =  -0.94247179E-01 -0.10327156E-12 -0.10675488E-12
     atom   11 type  2   force =  -0.17434597E-12 -0.38543562E-12 -0.16198160E-12
     atom   12 type  3   force =  -0.94368957E-13  0.94247179E-01 -0.10937085E-12
     atom   13 type  2   force =  -0.17464497E-12 -0.17572429E-12 -0.32963461E-12
     atom   14 type  3   force =  -0.11259743E-12 -0.11192870E-12  0.94247179E-01
     atom   15 type  2   force =  -0.34870248E-12 -0.34976312E-12 -0.33041232E-12
     atom   16 type  3   force =  -0.83613672E-13 -0.83485302E-13 -0.11686485E-12
     The core correction contribution to forces
     atom    1 type  1   force =   0.29791718E-15  0.20013993E-15  0.12621735E-15
     atom    2 type  3   force =  -0.37339923E-15 -0.38597597E-15 -0.35041414E-15
     atom    3 type  2   force =   0.00000000E+00  0.00000000E+00  0.00000000E+00
     atom    4 type  3   force =  -0.69237151E-15 -0.70950190E-15 -0.18038392E-02
     atom    5 type  2   force =   0.00000000E+00  0.00000000E+00  0.00000000E+00
     atom    6 type  3   force =  -0.71004400E-15 -0.18038392E-02 -0.70901401E-15
     atom    7 type  2   force =   0.00000000E+00  0.00000000E+00  0.00000000E+00
     atom    8 type  3   force =   0.18038392E-02 -0.62298257E-15 -0.69117888E-15
     atom    9 type  2   force =   0.00000000E+00  0.00000000E+00  0.00000000E+00
     atom   10 type  3   force =  -0.18038392E-02 -0.72245812E-15 -0.68293895E-15
     atom   11 type  2   force =   0.00000000E+00  0.00000000E+00  0.00000000E+00
     atom   12 type  3   force =  -0.62569307E-15  0.18038392E-02 -0.70299669E-15
     atom   13 type  2   force =   0.00000000E+00  0.00000000E+00  0.00000000E+00
     atom   14 type  3   force =  -0.77314457E-15 -0.75178579E-15  0.18038392E-02
     atom   15 type  2   force =   0.00000000E+00  0.00000000E+00  0.00000000E+00
     atom   16 type  3   force =  -0.41633363E-15 -0.43845136E-15 -0.63414985E-15
     The Hubbard contrib.    to forces
     atom    1 type  1   force =   0.00000000E+00  0.00000000E+00  0.00000000E+00
     atom    2 type  3   force =   0.00000000E+00  0.00000000E+00  0.00000000E+00
     atom    3 type  2   force =   0.00000000E+00  0.00000000E+00  0.00000000E+00
     atom    4 type  3   force =   0.00000000E+00  0.00000000E+00  0.00000000E+00
     atom    5 type  2   force =   0.00000000E+00  0.00000000E+00  0.00000000E+00
     atom    6 type  3   force =   0.00000000E+00  0.00000000E+00  0.00000000E+00
     atom    7 type  2   force =   0.00000000E+00  0.00000000E+00  0.00000000E+00
     atom    8 type  3   force =   0.00000000E+00  0.00000000E+00  0.00000000E+00
     atom    9 type  2   force =   0.00000000E+00  0.00000000E+00  0.00000000E+00
     atom   10 type  3   force =   0.00000000E+00  0.00000000E+00  0.00000000E+00
     atom   11 type  2   force =   0.00000000E+00  0.00000000E+00  0.00000000E+00
     atom   12 type  3   force =   0.00000000E+00  0.00000000E+00  0.00000000E+00
     atom   13 type  2   force =   0.00000000E+00  0.00000000E+00  0.00000000E+00
     atom   14 type  3   force =   0.00000000E+00  0.00000000E+00  0.00000000E+00
     atom   15 type  2   force =   0.00000000E+00  0.00000000E+00  0.00000000E+00
     atom   16 type  3   force =   0.00000000E+00  0.00000000E+00  0.00000000E+00
     The SCF correction term to forces
     atom    1 type  1   force =  -0.21610441E-15 -0.49753393E-15 -0.14350785E-15
     atom    2 type  3   force =  -0.60307348E-15 -0.40114251E-15  0.14646703E-15
     atom    3 type  2   force =  -0.13004836E-14 -0.17642160E-14  0.81957770E-15
     atom    4 type  3   force =  -0.25573460E-16 -0.29458197E-15 -0.20856402E-05
     atom    5 type  2   force =  -0.16520847E-15 -0.15987613E-14 -0.86188221E-15
     atom    6 type  3   force =  -0.20674094E-15 -0.20856402E-05  0.22957526E-15
     atom    7 type  2   force =   0.30801118E-15 -0.21118636E-14 -0.12254722E-14
     atom    8 type  3   force =   0.20856402E-05 -0.82717458E-15  0.20536571E-15
     atom    9 type  2   force =  -0.18291985E-14 -0.12738511E-14  0.23575314E-14
     atom   10 type  3   force =  -0.20856402E-05 -0.26207199E-17  0.16419202E-15
     atom   11 type  2   force =  -0.91204021E-16 -0.19300111E-14  0.14401808E-14
     atom   12 type  3   force =  -0.56965454E-15  0.20856402E-05  0.11468974E-15
     atom   13 type  2   force =   0.74009709E-15 -0.24151909E-14  0.22242627E-14
     atom   14 type  3   force =  -0.47810214E-15 -0.44456238E-15  0.20856402E-05
     atom   15 type  2   force =   0.62586898E-15  0.19445015E-14  0.28192138E-14
     atom   16 type  3   force =  -0.46007230E-16 -0.38873919E-15 -0.54169875E-17

     Total force =     0.188922     Total SCF correction =     0.000005


     entering subroutine stress ...

          total   stress  (Ry/bohr**3)                   (kbar)     P=  112.69
   0.0007660702  -0.0000000000  -0.0000000000        112.69     -0.00     -0.00
  -0.0000000000   0.0007660702  -0.0000000000         -0.00    112.69     -0.00
  -0.0000000000  -0.0000000000   0.0007660702         -0.00     -0.00    112.69

     kinetic stress (kbar)  24626.34      0.00      0.00
                                0.00  24626.34      0.00
                                0.00      0.00  24626.34

     local   stress (kbar)  -2913.68     -0.00     -0.00
                               -0.00  -2913.68      0.00
                               -0.00      0.00  -2913.68

     nonloc. stress (kbar)   6541.24      0.00     -0.00
                                0.00   6541.24      0.00
                                0.00      0.00   6541.24

     hartree stress (kbar)  17101.71     -0.00     -0.00
                               -0.00  17101.71      0.00
                               -0.00      0.00  17101.71

     exc-cor stress (kbar)  -8064.32     -0.00      0.00
                               -0.00  -8064.32      0.00
                                0.00      0.00  -8064.32

     corecor stress (kbar)   -561.24     -0.00      0.00
                               -0.00   -561.24      0.00
                                0.00      0.00   -561.24

     ewald   stress (kbar) -36617.36     -0.00      0.00
                               -0.00 -36617.36      0.00
                                0.00      0.00 -36617.36

     hubbard stress (kbar)      0.00      0.00      0.00
                                0.00      0.00      0.00
                                0.00      0.00      0.00

     london  stress (kbar)      0.00      0.00      0.00
                                0.00      0.00      0.00
                                0.00      0.00      0.00

     XDM     stress (kbar)      0.00      0.00      0.00
                                0.00      0.00      0.00
                                0.00      0.00      0.00

     dft-nl  stress (kbar)      0.00      0.00      0.00
                                0.00      0.00      0.00
                                0.00      0.00      0.00



     Writing output data file MgO_rocksalt.relax.in.up_1.00.super.222.sub1.save

     init_run     :      3.36s CPU      3.54s WALL (       1 calls)
     electrons    :    157.81s CPU    186.45s WALL (       1 calls)
     forces       :      1.78s CPU      1.83s WALL (       1 calls)
     stress       :      4.50s CPU      4.59s WALL (       1 calls)

     Called by init_run:
     wfcinit      :      2.53s CPU      2.67s WALL (       1 calls)
     potinit      :      0.08s CPU      0.10s WALL (       1 calls)

     Called by electrons:
     c_bands      :    134.64s CPU    161.84s WALL (      15 calls)
     sum_band     :     18.39s CPU     19.40s WALL (      15 calls)
     v_of_rho     :      0.62s CPU      0.72s WALL (      16 calls)
     v_h          :      0.04s CPU      0.04s WALL (      16 calls)
     v_xc         :      0.66s CPU      0.75s WALL (      18 calls)
     newd         :      3.56s CPU      3.75s WALL (      16 calls)
     mix_rho      :      0.73s CPU      0.87s WALL (      15 calls)

     Called by c_bands:
     init_us_2    :      0.68s CPU      0.76s WALL (     264 calls)
     cegterg      :    130.71s CPU    157.62s WALL (     120 calls)

     Called by sum_band:
     sum_band:bec :      0.18s CPU      0.17s WALL (     120 calls)
     addusdens    :      3.54s CPU      3.69s WALL (      15 calls)

     Called by *egterg:
     h_psi        :     66.32s CPU     71.24s WALL (     454 calls)
     s_psi        :      7.72s CPU      7.34s WALL (     454 calls)
     g_psi        :      0.08s CPU      0.09s WALL (     326 calls)
     cdiaghg      :     23.96s CPU     40.32s WALL (     446 calls)
     cegterg:over :     16.43s CPU     19.12s WALL (     326 calls)
     cegterg:upda :      3.83s CPU      4.50s WALL (     326 calls)
     cegterg:last :      1.96s CPU      1.94s WALL (     120 calls)

     Called by h_psi:
     h_psi:vloc   :     43.93s CPU     47.45s WALL (     454 calls)
     h_psi:vnl    :     22.29s CPU     23.67s WALL (     454 calls)
     add_vuspsi   :      7.94s CPU      8.00s WALL (     454 calls)

     General routines
     calbec       :     20.28s CPU     22.02s WALL (     590 calls)
     fft          :      0.89s CPU      1.02s WALL (     277 calls)
     ffts         :      0.46s CPU      0.49s WALL (     375 calls)
     fftw         :     50.19s CPU     53.93s WALL (   53960 calls)
     interpolate  :      0.11s CPU      0.12s WALL (      31 calls)

     Parallel routines
     fft_scatter  :     28.60s CPU     30.99s WALL (   54612 calls)

     PWSCF        :  2m48.20s CPU     3m17.27s WALL


   This run was terminated on:  11:13:22  21Aug2017            

=------------------------------------------------------------------------------=
   JOB DONE.
=------------------------------------------------------------------------------=
