
     Program PWSCF v.5.1 starts on 18Aug2017 at 20: 2: 0 

     This program is part of the open-source Quantum ESPRESSO suite
     for quantum simulation of materials; please cite
         "P. Giannozzi et al., J. Phys.:Condens. Matter 21 395502 (2009);
          URL http://www.quantum-espresso.org", 
     in publications or presentations arising from this work. More details at
     http://www.quantum-espresso.org/quote

     Parallel version (MPI), running on     8 processors
     R & G space division:  proc/nbgrp/npool/nimage =       8
     Reading input from /tmp/MgO_rocksalt.relax.in.up_1.00.super.444.a.01.5890/MgO_rocksalt.relax.in.up_1.00.super.444.a.01.t
Warning: card &IONS ignored
Warning: card   ION_DYNAMICS='BFGS', ignored
Warning: card / ignored
Warning: card &CELL ignored
Warning: card  CELL_DYNAMICS = 'BFGS' ignored
Warning: card / ignored
     Message from routine read_cards :
     DEPRECATED: no units specified in CELL_PARAMETERS card

     Current dimensions of program PWSCF are:
     Max number of different atomic species (ntypx) = 10
     Max number of k-points (npk) =  40000
     Max angular momentum in pseudopotentials (lmaxx) =  3
 kfg - two_fermi_energies  F

     Subspace diagonalization in iterative solution of the eigenvalue problem:
     a serial algorithm will be used


     Parallelization info
     --------------------
     sticks:   dense  smooth     PW     G-vecs:    dense   smooth      PW
     Min         875     701    186                48179    34465    4731
     Max         876     702    187                48180    34484    4734
     Sum        7001    5611   1495               385435   275791   37867



     bravais-lattice index     =            0
     lattice parameter (alat)  =    22.559434639  a.u.
     unit-cell volume          =    8068.9183 (a.u.)^3
     number of atoms/cell      =          128
     number of atomic types    =            2
     number of electrons       =      1024.00
     number of Kohn-Sham states=          614
     kinetic-energy cutoff     =      40.0000  Ry
     charge density cutoff     =     200.0000  Ry
     convergence threshold     =      1.0E-10
     mixing beta               =       0.3000
     number of iterations used =            8  local-TF  mixing
     Exchange-correlation      = SLA  PW   PSX  PSC ( 1  4 10  8 0)
     A smooth kinetic-energy cutoff is imposed at      39.5000 Ry
     height of the smooth step-function =             800.0000 Ry
     width of the smooth step-function  =               1.0000 Ry


     celldm(1)=  22.559435  celldm(2)=   0.000000  celldm(3)=   0.000000
     celldm(4)=   0.000000  celldm(5)=   0.000000  celldm(6)=   0.000000

     crystal axes: (cart. coord. in units of alat)
               a(1) = (   0.000125843691   0.700181112704   0.713965260763 )  
               a(2) = (   0.705528067560  -0.002036218252   0.712933270375 )  
               a(3) = (   0.698035398980   0.702060804783   0.000494702269 )  

     reciprocal axes: (cart. coord. in units 2 pi/alat)
               b(1) = ( -0.712187  0.707605  0.706810 )  
               b(2) = (  0.712723 -0.709127  0.695310 )  
               b(3) = (  0.712347  0.716611 -0.702901 )  


     PseudoPot. # 1 for Mg read from file:
     /users/kfg/psuedo/gbrv_1.5/mg.pbesol.UPF
     MD5 check sum: 4059f37963cf5867752dbf5ab2400678
     Pseudo is Ultrasoft, Zval = 10.0
     Generated by new atomic code, or converted to UPF format
     Using radial grid of  821 points,  7 beta functions with: 
                l(1) =   0
                l(2) =   0
                l(3) =   0
                l(4) =   1
                l(5) =   1
                l(6) =   2
                l(7) =   2
     Q(r) pseudized with  8 coefficients,  rinner =    1.200   1.200   1.200
                                                       1.200   1.200

     PseudoPot. # 2 for O  read from file:
     /users/kfg/psuedo/gbrv_1.5/o.pbesol.UPF
     MD5 check sum: 501638753501ef6325af9037351f7734
     Pseudo is Ultrasoft + core correction, Zval =  6.0
     Generated by new atomic code, or converted to UPF format
     Using radial grid of  737 points,  5 beta functions with: 
                l(1) =   0
                l(2) =   0
                l(3) =   1
                l(4) =   1
                l(5) =   2
     Q(r) pseudized with  8 coefficients,  rinner =    0.900   0.900   0.900
                                                       0.900   0.900

     atomic species   valence    mass     pseudopotential
        Mg            10.00    24.30500     Mg( 1.00)
        O              6.00    15.99940     O ( 1.00)

     No symmetry found


                                    s                        frac. trans.

      isym =  1     identity                                     

 cryst.   s( 1) = (     1          0          0      )
                  (     0          1          0      )
                  (     0          0          1      )

 cart.    s( 1) = (  1.0000000  0.0000000  0.0000000 )
                  (  0.0000000  1.0000000  0.0000000 )
                  ( -0.0000000 -0.0000000  1.0000000 )


     point group C_1 (1)    
     there are  1 classes
     the character table:

       E    
A      1.00

     the symmetry operations in each class:
     E        1

   Cartesian axes

     site n.     atom                  positions (alat units)
         1           Mg  tau(   1) = (   -0.00457657912   -0.00250878953   -0.00803561488  )
         2           O   tau(   2) = (    0.16849692905    0.17402349167    0.17089475285  )
         3           Mg  tau(   3) = (    0.16741109762    0.17073023818   -0.00317857933  )
         4           O   tau(   4) = (    0.34818017367    0.34904217440    0.17297132073  )
         5           Mg  tau(   5) = (    0.35522986432    0.34997654085    0.00755266695  )
         6           O   tau(   6) = (    0.52372384769    0.52248183975    0.17794438718  )
         7           Mg  tau(   7) = (    0.52811722422    0.51947109741   -0.00801766413  )
         8           O   tau(   8) = (    0.69805268687    0.70164141371    0.17043774632  )
         9           Mg  tau(   9) = (    0.17355208200    0.00302750927    0.16981562014  )
        10           O   tau(  10) = (    0.34757066480    0.18086587213    0.35487472458  )
        11           Mg  tau(  11) = (    0.34539732639    0.17004254716    0.17734182954  )
        12           O   tau(  12) = (    0.52145179044    0.35418630031    0.35549729288  )
        13           Mg  tau(  13) = (    0.52503697704    0.35684497743    0.17378964194  )
        14           O   tau(  14) = (    0.70493812462    0.52690445741    0.35437664181  )
        15           Mg  tau(  15) = (    0.70552430742    0.51933313303    0.17363742092  )
        16           O   tau(  16) = (    0.87040794532    0.70393432755    0.36471237149  )
        17           Mg  tau(  17) = (    0.34541587103   -0.00299134175    0.34868004057  )
        18           O   tau(  18) = (    0.52703025460    0.17232546881    0.52944089822  )
        19           Mg  tau(  19) = (    0.52832901615    0.18254592594    0.35545700621  )
        20           O   tau(  20) = (    0.70953215852    0.34694984416    0.53239394817  )
        21           Mg  tau(  21) = (    0.70682651727    0.34905201162    0.36122350850  )
        22           O   tau(  22) = (    0.88584355679    0.53086185191    0.53177943983  )
        23           Mg  tau(  23) = (    0.87843069166    0.52662706712    0.34874404986  )
        24           O   tau(  24) = (    1.04491540309    0.70706274907    0.54183873380  )
        25           Mg  tau(  25) = (    0.53029473207   -0.00630959623    0.53349809548  )
        26           O   tau(  26) = (    0.70410485537    0.17027729695    0.71467825551  )
        27           Mg  tau(  27) = (    0.69607854174    0.18252036459    0.53233438319  )
        28           O   tau(  28) = (    0.87131385960    0.34757553759    0.71957355404  )
        29           Mg  tau(  29) = (    0.88037342717    0.34614926841    0.54108908778  )
        30           O   tau(  30) = (    1.05731808862    0.52971192402    0.70823877715  )
        31           Mg  tau(  31) = (    1.06087855335    0.53162715763    0.52862566260  )
        32           O   tau(  32) = (    1.22155666152    0.69458854096    0.72093318231  )
        33           Mg  tau(  33) = (    0.00597615031    0.17138788835    0.18106345034  )
        34           O   tau(  34) = (    0.18390431895    0.35304287700    0.36469438985  )
        35           Mg  tau(  35) = (    0.18147895795    0.35885193467    0.18123208401  )
        36           O   tau(  36) = (    0.35417112030    0.53243584280    0.34979078235  )
        37           Mg  tau(  37) = (    0.35389468209    0.53281438754    0.17390823962  )
        38           O   tau(  38) = (    0.51760922788    0.69515136311    0.36025485437  )
        39           Mg  tau(  39) = (    0.52044627319    0.70478741478    0.17115642117  )
        40           O   tau(  40) = (    0.70007409861    0.87748936005    0.35911858137  )
        41           Mg  tau(  41) = (    0.18411675369    0.18215572081    0.34807280239  )
        42           O   tau(  42) = (    0.35187384931    0.35126072244    0.53615768552  )
        43           Mg  tau(  43) = (    0.35542387158    0.34965316574    0.35539634985  )
        44           O   tau(  44) = (    0.51816163591    0.53192935216    0.53629492406  )
        45           Mg  tau(  45) = (    0.53211798119    0.53225524422    0.36135119628  )
        46           O   tau(  46) = (    0.69563021904    0.70391499350    0.53359576981  )
        47           Mg  tau(  47) = (    0.70214430267    0.70527947378    0.35597157270  )
        48           O   tau(  48) = (    0.88315275196    0.88236137548    0.54044978861  )
        49           Mg  tau(  49) = (    0.34527970891    0.16805111412    0.52601176712  )
        50           O   tau(  50) = (    0.53272596273    0.35597670604    0.71599184529  )
        51           Mg  tau(  51) = (    0.53198466077    0.34868076444    0.53822788864  )
        52           O   tau(  52) = (    0.69781854409    0.52120489620    0.70996966654  )
        53           Mg  tau(  53) = (    0.69878540441    0.52265008857    0.53388405722  )
        54           O   tau(  54) = (    0.87669014788    0.69423624135    0.72014905728  )
        55           Mg  tau(  55) = (    0.87992537477    0.69582857668    0.53957042748  )
        56           O   tau(  56) = (    1.04448588625    0.87761820983    0.70848852256  )
        57           Mg  tau(  57) = (    0.53051397809    0.17158242473    0.71937909485  )
        58           O   tau(  58) = (    0.69773258583    0.35025041392    0.89282576371  )
        59           Mg  tau(  59) = (    0.70215244901    0.34911753178    0.70988221139  )
        60           O   tau(  60) = (    0.87319669703    0.52501589751    0.88593293428  )
        61           Mg  tau(  61) = (    0.88641991306    0.53223691480    0.71117809307  )
        62           O   tau(  62) = (    1.05004610611    0.70497802264    0.89596839335  )
        63           Mg  tau(  63) = (    1.05202712576    0.70200339552    0.71205143209  )
        64           O   tau(  64) = (    1.22789968556    0.87208505954    0.89296473909  )
        65           Mg  tau(  65) = (    0.00199826549    0.34439900635    0.35524388500  )
        66           O   tau(  66) = (    0.17952852895    0.53108568797    0.52808162528  )
        67           Mg  tau(  67) = (    0.17267954278    0.52034899541    0.36027524564  )
        68           O   tau(  68) = (    0.35495413109    0.69199051503    0.53489251514  )
        69           Mg  tau(  69) = (    0.34441875310    0.70322451997    0.36466844982  )
        70           O   tau(  70) = (    0.52978125002    0.87548072687    0.54421213935  )
        71           Mg  tau(  71) = (    0.52821615612    0.87812975005    0.36312043300  )
        72           O   tau(  72) = (    0.69728163200    1.05291361209    0.53196792339  )
        73           Mg  tau(  73) = (    0.17853237035    0.34095681167    0.53839396533  )
        74           O   tau(  74) = (    0.34346952923    0.53023125055    0.71619529622  )
        75           Mg  tau(  75) = (    0.35078657342    0.52454942780    0.53421691077  )
        76           O   tau(  76) = (    0.53314405701    0.70027847219    0.70497299553  )
        77           Mg  tau(  77) = (    0.52422083532    0.70594624884    0.53283491280  )
        78           O   tau(  78) = (    0.69677929812    0.87501707126    0.71998323662  )
        79           Mg  tau(  79) = (    0.70658385082    0.86804074038    0.52815941194  )
        80           O   tau(  80) = (    0.87505394067    1.05001384520    0.70600362485  )
        81           Mg  tau(  81) = (    0.34961905934    0.35698640041    0.70992697858  )
        82           O   tau(  82) = (    0.52619568875    0.51959947424    0.88384271155  )
        83           Mg  tau(  83) = (    0.53577235776    0.53150960794    0.70606091423  )
        84           O   tau(  84) = (    0.70224719545    0.70579545978    0.90088193794  )
        85           Mg  tau(  85) = (    0.70858373966    0.70540570138    0.71338573202  )
        86           O   tau(  86) = (    0.87619545623    0.87043429918    0.89583786003  )
        87           Mg  tau(  87) = (    0.88028322484    0.88032328641    0.71285618218  )
        88           O   tau(  88) = (    1.04594233864    1.04568350339    0.88735701713  )
        89           Mg  tau(  89) = (    0.53721656756    0.35469408799    0.89794919539  )
        90           O   tau(  90) = (    0.69662010401    0.52616538713    1.06697316982  )
        91           Mg  tau(  91) = (    0.70547534196    0.51854797491    0.89554049517  )
        92           O   tau(  92) = (    0.87041445816    0.70388568322    1.07421406435  )
        93           Mg  tau(  93) = (    0.88240046588    0.70082124236    0.89021429480  )
        94           O   tau(  94) = (    1.06074173915    0.88157076894    1.07573509186  )
        95           Mg  tau(  95) = (    1.05809584930    0.87345255559    0.88718085659  )
        96           O   tau(  96) = (    1.23054003823    1.04209040729    1.07888573503  )
        97           Mg  tau(  97) = (   -0.00485011638    0.52014730665    0.52884895196  )
        98           O   tau(  98) = (    0.17716343261    0.70110525122    0.72130006766  )
        99           Mg  tau(  99) = (    0.17495319057    0.70247967999    0.52891936852  )
       100           O   tau( 100) = (    0.35754656154    0.87272961956    0.72135308831  )
       101           Mg  tau( 101) = (    0.35411673850    0.87276982089    0.53870855391  )
       102           O   tau( 102) = (    0.52419186210    1.04545534763    0.70727505835  )
       103           Mg  tau( 103) = (    0.52572493036    1.04845290115    0.54243550440  )
       104           O   tau( 104) = (    0.69401860961    1.23170755030    0.70796664147  )
       105           Mg  tau( 105) = (    0.18213981619    0.52600960067    0.71780490840  )
       106           O   tau( 106) = (    0.36034667555    0.69378041347    0.89071156893  )
       107           Mg  tau( 107) = (    0.35500372005    0.70337126162    0.71468499991  )
       108           O   tau( 108) = (    0.53341563382    0.86755904544    0.89807827544  )
       109           Mg  tau( 109) = (    0.52862952606    0.87595550312    0.71962579731  )
       110           O   tau( 110) = (    0.70020859753    1.05886479574    0.89152396103  )
       111           Mg  tau( 111) = (    0.70528641782    1.05029137898    0.71642092411  )
       112           O   tau( 112) = (    0.87865911943    1.22556373611    0.89189023272  )
       113           Mg  tau( 113) = (    0.35131488677    0.51613069662    0.88498944454  )
       114           O   tau( 114) = (    0.53485812780    0.69203779846    1.06816529932  )
       115           Mg  tau( 115) = (    0.52633591594    0.69985209247    0.88714119764  )
       116           O   tau( 116) = (    0.69892795479    0.87968742669    1.07229457680  )
       117           Mg  tau( 117) = (    0.69730328284    0.88315235235    0.89178086997  )
       118           O   tau( 118) = (    0.87670974247    1.04800817402    1.07805227555  )
       119           Mg  tau( 119) = (    0.87857811915    1.04401100258    0.89944533749  )
       120           O   tau( 120) = (    1.05970773401    1.22087528400    1.07195203336  )
       121           Mg  tau( 121) = (    0.52298770166    0.53181740538    1.07668429939  )
       122           O   tau( 122) = (    0.69897941140    0.70588889239    1.24532151029  )
       123           Mg  tau( 123) = (    0.69583246855    0.69320273227    1.07368548165  )
       124           O   tau( 124) = (    0.87216541697    0.88037825881    1.25212197035  )
       125           Mg  tau( 125) = (    0.87712381838    0.88339110970    1.06950692724  )
       126           O   tau( 126) = (    1.04840612235    1.05700044124    1.25180978738  )
       127           Mg  tau( 127) = (    1.04441722048    1.04565290361    1.07068479116  )
       128           O   tau( 128) = (    1.22704965680    1.22713700739    1.25573276256  )

   Crystallographic axes

     site n.     atom                  positions (cryst. coord.)
         1           Mg  tau(   1) = (   -0.00419550815   -0.00707003032    0.00059030486  )
         2           O   tau(   2) = (    0.12392880085    0.11551185952    0.12461327104  )
         3           Mg  tau(   3) = (   -0.00066500752   -0.00396167983    0.24383614050  )
         4           O   tau(   4) = (    0.12127265125    0.12090973145    0.37657073478  )
         5           Mg  tau(   5) = (   -0.00000646694    0.01025433653    0.49853509350  )
         6           O   tau(   6) = (    0.12249460227    0.12649092376    0.62241189507  )
         7           Mg  tau(   7) = (   -0.01420458578    0.00245585847    0.75409690606  )
         8           O   tau(   8) = (    0.11980839493    0.11847286691    0.88025861983  )
         9           Mg  tau(   9) = (   -0.00143178178    0.23962225661    0.00643525320  )
        10           O   tau(  10) = (    0.13127550114    0.36621291938    0.12775949674  )
        11           Mg  tau(  11) = (   -0.00031737044    0.24889859315    0.24324328412  )
        12           O   tau(  12) = (    0.13052214773    0.36766878305    0.37538886913  )
        13           Mg  tau(  13) = (    0.00141730523    0.24199549401    0.50757051283  )
        14           O   tau(  14) = (    0.12126979817    0.37518551005    0.63065419940  )
        15           Mg  tau(  15) = (   -0.01225349897    0.25530248717    0.75268787199  )
        16           O   tau(  16) = (    0.13599704469    0.37476963817    0.86812263853  )
        17           Mg  tau(  17) = (   -0.00166665055    0.49074796634   -0.00117527505  )
        18           O   tau(  18) = (    0.12080869702    0.62155181746    0.12677408489  )
        19           Mg  tau(  19) = (    0.00414220118    0.49425708955    0.25731681499  )
        20           O   tau(  20) = (    0.11648562852    0.62984765418    0.37984076684  )
        21           Mg  tau(  21) = (   -0.00108495168    0.50741201308    0.49973574014  )
        22           O   tau(  22) = (    0.12062174483    0.62466470641    0.63766091915  )
        23           Mg  tau(  23) = (   -0.00646674072    0.49511799730    0.75800147439  )
        24           O   tau(  24) = (    0.13912356995    0.62008448783    0.87017203674  )
        25           Mg  tau(  25) = (   -0.00505163409    0.75337437844   -0.00176409618  )
        26           O   tau(  26) = (    0.12417688724    0.87800684787    0.12124134956  )
        27           Mg  tau(  27) = (    0.00967387554    0.73681885517    0.25246705478  )
        28           O   tau(  28) = (    0.13401005885    0.87485743616    0.36396509307  )
        29           Mg  tau(  29) = (    0.00039408640    0.75822372316    0.49485349869  )
        30           O   tau(  30) = (    0.12240943745    0.87038802148    0.63495276312  )
        31           Mg  tau(  31) = (   -0.00572342328    0.74668066084    0.76511178467  )
        32           O   tau(  32) = (    0.13108099407    0.87935281744    0.86117705877  )
        33           Mg  tau(  33) = (    0.24499629542    0.00861890268   -0.00019420030  )
        34           O   tau(  34) = (    0.37661044602    0.13429652935    0.12765391870  )
        35           Mg  tau(  35) = (    0.25277525245    0.00088533514    0.25904491270  )
        36           O   tau(  36) = (    0.37175406570    0.11807467255    0.38797365039  )
        37           Mg  tau(  37) = (    0.24790323306   -0.00468372602    0.51167603495  )
        38           O   tau(  38) = (    0.37789007789    0.12645067591    0.61364677552  )
        39           Mg  tau(  39) = (    0.24903139738   -0.00984255971    0.75549053395  )
        40           O   tau(  40) = (    0.37616120687    0.12640683551    0.87508913101  )
        41           Mg  tau(  41) = (    0.24379022348    0.24407140872    0.01702900011  )
        42           O   tau(  42) = (    0.37691573394    0.37449627817    0.12550764836  )
        43           Mg  tau(  43) = (    0.24548599146    0.25248120941    0.25394184765  )
        44           O   tau(  44) = (    0.38642684374    0.36499193264    0.37333486811  )
        45           Mg  tau(  45) = (    0.25306591994    0.25306767448    0.50647830701  )
        46           O   tau(  46) = (    0.37982622192    0.36764156567    0.62489807475  )
        47           Mg  tau(  47) = (    0.25060590457    0.24781278638    0.75536840965  )
        48           O   tau(  48) = (    0.37738924448    0.37951781830    0.88153808224  )
        49           Mg  tau(  49) = (    0.24480070184    0.49266073150   -0.00334807028  )
        50           O   tau(  50) = (    0.37856094619    0.62509008809    0.13131099291  )
        51           Mg  tau(  51) = (    0.24828087518    0.50613438651    0.25050506149  )
        52           O   tau(  52) = (    0.37364399273    0.62140041274    0.37155148771  )
        53           Mg  tau(  53) = (    0.24951893529    0.49863055939    0.49704663910  )
        54           O   tau(  54) = (    0.37588679019    0.63326305938    0.61581115083  )
        55           Mg  tau(  55) = (    0.24707463904    0.50888153727    0.74618575955  )
        56           O   tau(  56) = (    0.37790514326    0.61470625240    0.87494963119  )
        57           Mg  tau(  57) = (    0.25205210144    0.75662763945   -0.00478453872  )
        58           O   tau(  58) = (    0.38198149588    0.86970924623    0.12045267642  )
        59           Mg  tau(  59) = (    0.24872573359    0.74646021127    0.25138054365  )
        60           O   tau(  60) = (    0.37581133044    0.86604307997    0.37552780746  )
        61           Mg  tau(  61) = (    0.24798506417    0.74883812144    0.51295735644  )
        62           O   tau(  62) = (    0.38429683076    0.87144958367    0.62341480772  )
        63           Mg  tau(  63) = (    0.25078673671    0.74709153745    0.75196976813  )
        64           O   tau(  64) = (    0.37375467065    0.87762143883    0.87197023818  )
        65           Mg  tau(  65) = (    0.49336534149    0.00420642649   -0.00147782388  )
        66           O   tau(  66) = (    0.62119458353    0.11852772715    0.13727916576  )
        67           Mg  tau(  67) = (    0.49986774713    0.00458247090    0.24265757293  )
        68           O   tau(  68) = (    0.61492990058    0.13419141199    0.37276180955  )
        69           Mg  tau(  69) = (    0.51006619575    0.00035773038    0.49295805938  )
        70           O   tau(  70) = (    0.62684618165    0.13515699498    0.62223966368  )
        71           Mg  tau(  71) = (    0.50183782466    0.00624809988    0.75031265453  )
        72           O   tau(  72) = (    0.62445273011    0.12020249442    0.87731484083  )
        73           Mg  tau(  73) = (    0.49465673945    0.25981346651   -0.00692740231  )
        74           O   tau(  74) = (    0.63679404843    0.36677555705    0.12122442908  )
        75           Mg  tau(  75) = (    0.49893828882    0.24948827563    0.25027785763  )
        76           O   tau(  76) = (    0.61410463412    0.37357300404    0.38608433982  )
        77           Mg  tau(  77) = (    0.50280123470    0.24350466840    0.50478555004  )
        78           O   tau(  78) = (    0.63182112073    0.37672462182    0.61731825294  )
        79           Mg  tau(  79) = (    0.48431893384    0.25528258063    0.75413636230  )
        80           O   tau(  80) = (    0.61880398496    0.36997005982    0.87954250977  )
        81           Mg  tau(  81) = (    0.50539498614    0.48965258057    0.00586190848  )
        82           O   tau(  82) = (    0.61763072223    0.62111497978    0.12593045070  )
        83           Mg  tau(  83) = (    0.49358003724    0.49588119154    0.26625031523  )
        84           O   tau(  84) = (    0.63604592324    0.62640199488    0.37279336335  )
        85           Mg  tau(  85) = (    0.49873310271    0.50082654735    0.50881916823  )
        86           O   tau(  86) = (    0.62509637749    0.63012197579    0.61823233109  )
        87           Mg  tau(  87) = (    0.49984931193    0.49879383919    0.75684882065  )
        88           O   tau(  88) = (    0.62221780496    0.62093382656    0.87069766750  )
        89           Mg  tau(  89) = (    0.50306451449    0.75571699949    0.00569269954  )
        90           O   tau(  90) = (    0.63034127813    0.86525684316    0.12331436366  )
        91           Mg  tau(  91) = (    0.49747422012    0.75777098721    0.24466386369  )
        92           O   tau(  92) = (    0.63744099140    0.86813258950    0.36938288854  )
        93           Mg  tau(  93) = (    0.49668339643    0.75091144249    0.50505871622  )
        94           O   tau(  94) = (    0.62869840040    0.87883962305    0.63122386216  )
        95           Mg  tau(  95) = (    0.49156622913    0.75160698070    0.75605645345  )
        96           O   tau(  96) = (    0.62358174628    0.88822073877    0.86499467490  )
        97           Mg  tau(  97) = (    0.74530888553   -0.00459298752   -0.00244031634  )
        98           O   tau(  98) = (    0.87975444118    0.13062343621    0.12161878991  )
        99           Mg  tau(  99) = (    0.74632446574   -0.00569077474    0.25625386896  )
       100           O   tau( 100) = (    0.87276774543    0.13752013750    0.37306476541  )
       101           Mg  tau( 101) = (    0.74614385330    0.00805249439    0.49903139685  )
       102           O   tau( 102) = (    0.86635630469    0.12401910133    0.62544661827  )
       103           Mg  tau( 103) = (    0.75087528642    0.00837147470    0.74455268004  )
       104           O   tau( 104) = (    0.87768979498    0.11346303665    0.87940640517  )
       105           Mg  tau( 105) = (    0.74984133885    0.25590498832    0.00214502230  )
       106           O   tau( 106) = (    0.86385246673    0.38417018180    0.12778022335  )
       107           Mg  tau( 107) = (    0.75002681344    0.25116792610    0.25457636193  )
       108           O   tau( 108) = (    0.86876858080    0.38941153900    0.37041894231  )
       109           Mg  tau( 109) = (    0.75198653401    0.25596637617    0.49846101081  )
       110           O   tau( 110) = (    0.88071713332    0.36807147399    0.63093219873  )
       111           Mg  tau( 111) = (    0.74726957855    0.25601925245    0.75148568537  )
       112           O   tau( 112) = (    0.87184296554    0.37730132014    0.87725168823  )
       113           Mg  tau( 113) = (    0.74053448526    0.49973050885   -0.00193715825  )
       114           O   tau( 114) = (    0.86376076401    0.63316968252    0.12611172233  )
       115           Mg  tau( 115) = (    0.74740992890    0.49568646303    0.25288280078  )
       116           O   tau( 116) = (    0.88261287874    0.61990983941    0.37455563549  )
       117           Mg  tau( 117) = (    0.75863282514    0.49078179249    0.50276459410  )
       118           O   tau( 118) = (    0.87917328880    0.63126171128    0.61777131849  )
       119           Mg  tau( 119) = (    0.74877303834    0.51124060889    0.74178085051  )
       120           O   tau( 120) = (    0.86685450454    0.63486239783    0.87629568075  )
       121           Mg  tau( 121) = (    0.76486327183    0.74424924934   -0.00314781489  )
       122           O   tau( 122) = (    0.88189269840    0.86349908621    0.12842556305  )
       123           Mg  tau( 123) = (    0.75384302831    0.75091198727    0.23773596455  )
       124           O   tau( 124) = (    0.88682814351    0.86792614804    0.37205499551  )
       125           Mg  tau( 125) = (    0.75635457697    0.74234950793    0.50610645630  )
       126           O   tau( 126) = (    0.88606997544    0.86807243498    0.62438831772  )
       127           Mg  tau( 127) = (    0.75286025468    0.74733822283    0.74072802949  )
       128           O   tau( 128) = (    0.88200474237    0.87747514616    0.87080872797  )

     number of k points=     8  gaussian smearing, width (Ry)=  0.0050
                       cart. coord. in units 2pi/alat
        k(    1) = (   0.0000000   0.0000000   0.0000000), wk =   0.2500000
        k(    2) = (  -0.3561735  -0.3583054   0.3514506), wk =   0.2500000
        k(    3) = (  -0.3563616   0.3545633  -0.3476551), wk =   0.2500000
        k(    4) = (  -0.7125351  -0.0037421   0.0037954), wk =   0.2500000
        k(    5) = (   0.3560933  -0.3538025  -0.3534051), wk =   0.2500000
        k(    6) = (  -0.0000802  -0.7121079  -0.0019545), wk =   0.2500000
        k(    7) = (  -0.0002683   0.0007608  -0.7010602), wk =   0.2500000
        k(    8) = (  -0.3564418  -0.3575446  -0.3496097), wk =   0.2500000

                       cryst. coord.
        k(    1) = (   0.0000000   0.0000000   0.0000000), wk =   0.2500000
        k(    2) = (   0.0000000   0.0000000  -0.5000000), wk =   0.2500000
        k(    3) = (  -0.0000000  -0.5000000  -0.0000000), wk =   0.2500000
        k(    4) = (  -0.0000000  -0.5000000  -0.5000000), wk =   0.2500000
        k(    5) = (  -0.5000000   0.0000000   0.0000000), wk =   0.2500000
        k(    6) = (  -0.5000000   0.0000000  -0.5000000), wk =   0.2500000
        k(    7) = (  -0.5000000  -0.5000000   0.0000000), wk =   0.2500000
        k(    8) = (  -0.5000000  -0.5000000  -0.5000000), wk =   0.2500000

     Dense  grid:   385435 G-vectors     FFT dimensions: ( 108, 108, 108)

     Smooth grid:   275791 G-vectors     FFT dimensions: (  96,  96,  90)

     Largest allocated arrays     est. size (Mb)     dimensions
        Kohn-Sham Wavefunctions        40.39 Mb     (    4311,  614)
        NL pseudopotentials           134.72 Mb     (    4311, 2048)
        Each V/rho on FFT grid          2.49 Mb     (  163296)
        Each G-vector array             0.37 Mb     (   48179)
        G-vector shells                 0.36 Mb     (   47108)
     Largest temporary arrays     est. size (Mb)     dimensions
        Auxiliary wavefunctions       161.56 Mb     (    4311, 2456)
        Each subspace H/S matrix       92.04 Mb     (    2456, 2456)
        Each <psi_i|beta_j> matrix     19.19 Mb     (    2048,  614)
        Arrays for rho mixing          19.93 Mb     (  163296,    8)

     Check: negative/imaginary core charge=   -0.000003    0.000000

     Initial potential from superposition of free atoms

     starting charge 1004.78535, renormalised to 1024.00000
     Starting wfc are  576 randomized atomic wfcs +   38 random wfc

     total cpu time spent up to now is      622.4 secs

     Self-consistent Calculation

     iteration #  1     ecut=    40.00 Ry     beta=0.30
     Davidson diagonalization with overlap
     ethr =  1.00E-02,  avg # of iterations =  5.1

     total cpu time spent up to now is     3675.0 secs

     total energy              =  -10089.65680656 Ry
     Harris-Foulkes estimate   =  -10094.18497765 Ry
     estimated scf accuracy    <      22.72007546 Ry

     iteration #  2     ecut=    40.00 Ry     beta=0.30
     Davidson diagonalization with overlap
     ethr =  2.22E-03,  avg # of iterations =  1.0

     total cpu time spent up to now is     5306.0 secs

     total energy              =  -10085.22543213 Ry
     Harris-Foulkes estimate   =  -10090.19174580 Ry
     estimated scf accuracy    <      10.68835484 Ry

     iteration #  3     ecut=    40.00 Ry     beta=0.30
     Davidson diagonalization with overlap
     ethr =  1.04E-03,  avg # of iterations =  2.0

     total cpu time spent up to now is     7291.9 secs

     total energy              =  -10086.16303858 Ry
     Harris-Foulkes estimate   =  -10086.82426208 Ry
     estimated scf accuracy    <       1.29631727 Ry

     iteration #  4     ecut=    40.00 Ry     beta=0.30
     Davidson diagonalization with overlap
     ethr =  1.27E-04,  avg # of iterations =  7.3

     total cpu time spent up to now is     9863.8 secs

     total energy              =  -10086.11079007 Ry
     Harris-Foulkes estimate   =  -10086.24528487 Ry
     estimated scf accuracy    <       0.22566321 Ry

     iteration #  5     ecut=    40.00 Ry     beta=0.30
     Davidson diagonalization with overlap
     ethr =  2.20E-05,  avg # of iterations =  6.5

     total cpu time spent up to now is    12759.4 secs

     total energy              =  -10086.12789496 Ry
     Harris-Foulkes estimate   =  -10086.13577629 Ry
     estimated scf accuracy    <       0.03421028 Ry

     iteration #  6     ecut=    40.00 Ry     beta=0.30
     Davidson diagonalization with overlap
     ethr =  3.34E-06,  avg # of iterations =  6.4

     total cpu time spent up to now is    15820.1 secs

     total energy              =  -10086.12807551 Ry
     Harris-Foulkes estimate   =  -10086.13274114 Ry
     estimated scf accuracy    <       0.01549845 Ry

     iteration #  7     ecut=    40.00 Ry     beta=0.30
     Davidson diagonalization with overlap
     ethr =  1.51E-06,  avg # of iterations =  2.0

     total cpu time spent up to now is    17787.8 secs

     total energy              =  -10086.12892659 Ry
     Harris-Foulkes estimate   =  -10086.13002544 Ry
     estimated scf accuracy    <       0.00372453 Ry

     iteration #  8     ecut=    40.00 Ry     beta=0.30
     Davidson diagonalization with overlap
     ethr =  3.64E-07,  avg # of iterations =  2.0

     total cpu time spent up to now is    19399.1 secs

     total energy              =  -10086.12868694 Ry
     Harris-Foulkes estimate   =  -10086.12917697 Ry
     estimated scf accuracy    <       0.00160677 Ry

     iteration #  9     ecut=    40.00 Ry     beta=0.30
     Davidson diagonalization with overlap
     ethr =  1.57E-07,  avg # of iterations =  6.4

     total cpu time spent up to now is    22187.5 secs

     total energy              =  -10086.12854447 Ry
     Harris-Foulkes estimate   =  -10086.12895113 Ry
     estimated scf accuracy    <       0.00097286 Ry

     iteration # 10     ecut=    40.00 Ry     beta=0.30
     Davidson diagonalization with overlap
     ethr =  9.50E-08,  avg # of iterations =  2.0

     total cpu time spent up to now is    24151.6 secs

     total energy              =  -10086.12863113 Ry
     Harris-Foulkes estimate   =  -10086.12895241 Ry
     estimated scf accuracy    <       0.00085982 Ry

     iteration # 11     ecut=    40.00 Ry     beta=0.30
     Davidson diagonalization with overlap
     ethr =  8.40E-08,  avg # of iterations =  2.0

     total cpu time spent up to now is    26040.5 secs

     total energy              =  -10086.12871085 Ry
     Harris-Foulkes estimate   =  -10086.12873786 Ry
     estimated scf accuracy    <       0.00007733 Ry

     iteration # 12     ecut=    40.00 Ry     beta=0.30
     Davidson diagonalization with overlap
     ethr =  7.55E-09,  avg # of iterations =  2.0

     total cpu time spent up to now is    27983.3 secs

     total energy              =  -10086.12870479 Ry
     Harris-Foulkes estimate   =  -10086.12872581 Ry
     estimated scf accuracy    <       0.00003877 Ry

     iteration # 13     ecut=    40.00 Ry     beta=0.30
     Davidson diagonalization with overlap
     ethr =  3.79E-09,  avg # of iterations =  2.0

     total cpu time spent up to now is    29901.4 secs

     total energy              =  -10086.12871022 Ry
     Harris-Foulkes estimate   =  -10086.12871070 Ry
     estimated scf accuracy    <       0.00000348 Ry

     iteration # 14     ecut=    40.00 Ry     beta=0.30
     Davidson diagonalization with overlap
     ethr =  3.40E-10,  avg # of iterations =  1.0

     total cpu time spent up to now is    31506.7 secs

     total energy              =  -10086.12871026 Ry
     Harris-Foulkes estimate   =  -10086.12871037 Ry
     estimated scf accuracy    <       0.00000193 Ry

     iteration # 15     ecut=    40.00 Ry     beta=0.30
     Davidson diagonalization with overlap
     ethr =  1.88E-10,  avg # of iterations =  2.0

     total cpu time spent up to now is    33206.3 secs

     total energy              =  -10086.12871025 Ry
     Harris-Foulkes estimate   =  -10086.12871038 Ry
     estimated scf accuracy    <       0.00000092 Ry

     iteration # 16     ecut=    40.00 Ry     beta=0.30
     Davidson diagonalization with overlap
     ethr =  9.01E-11,  avg # of iterations =  1.0

     total cpu time spent up to now is    34837.7 secs

     total energy              =  -10086.12871006 Ry
     Harris-Foulkes estimate   =  -10086.12871027 Ry
     estimated scf accuracy    <       0.00000055 Ry

     iteration # 17     ecut=    40.00 Ry     beta=0.30
     Davidson diagonalization with overlap
     ethr =  5.32E-11,  avg # of iterations =  2.0

     total cpu time spent up to now is    36549.8 secs

     total energy              =  -10086.12871007 Ry
     Harris-Foulkes estimate   =  -10086.12871010 Ry
     estimated scf accuracy    <       0.00000018 Ry

     iteration # 18     ecut=    40.00 Ry     beta=0.30
     Davidson diagonalization with overlap
     ethr =  1.73E-11,  avg # of iterations =  2.0

     total cpu time spent up to now is    38298.3 secs

     total energy              =  -10086.12871005 Ry
     Harris-Foulkes estimate   =  -10086.12871008 Ry
     estimated scf accuracy    <       0.00000009 Ry

     iteration # 19     ecut=    40.00 Ry     beta=0.30
     Davidson diagonalization with overlap
     ethr =  8.98E-12,  avg # of iterations =  2.0

     total cpu time spent up to now is    40297.0 secs

     total energy              =  -10086.12871006 Ry
     Harris-Foulkes estimate   =  -10086.12871006 Ry
     estimated scf accuracy    <       0.00000002 Ry

     iteration # 20     ecut=    40.00 Ry     beta=0.30
     Davidson diagonalization with overlap
     ethr =  1.68E-12,  avg # of iterations =  1.0

     total cpu time spent up to now is    41895.9 secs

     total energy              =  -10086.12871006 Ry
     Harris-Foulkes estimate   =  -10086.12871006 Ry
     estimated scf accuracy    <       0.00000001 Ry

     iteration # 21     ecut=    40.00 Ry     beta=0.30
     Davidson diagonalization with overlap
     ethr =  9.81E-13,  avg # of iterations =  2.0

     total cpu time spent up to now is    43820.2 secs

     total energy              =  -10086.12871006 Ry
     Harris-Foulkes estimate   =  -10086.12871006 Ry
     estimated scf accuracy    <          1.0E-09 Ry

     iteration # 22     ecut=    40.00 Ry     beta=0.30
     Davidson diagonalization with overlap
     ethr =  1.02E-13,  avg # of iterations =  2.0

     total cpu time spent up to now is    46049.4 secs

     total energy              =  -10086.12871006 Ry
     Harris-Foulkes estimate   =  -10086.12871006 Ry
     estimated scf accuracy    <          4.2E-10 Ry

     iteration # 23     ecut=    40.00 Ry     beta=0.30
     Davidson diagonalization with overlap
     ethr =  1.00E-13,  avg # of iterations =  1.0

     total cpu time spent up to now is    47663.0 secs

     total energy              =  -10086.12871006 Ry
     Harris-Foulkes estimate   =  -10086.12871006 Ry
     estimated scf accuracy    <          1.8E-10 Ry

     iteration # 24     ecut=    40.00 Ry     beta=0.30
     Davidson diagonalization with overlap
     ethr =  1.00E-13,  avg # of iterations =  1.0

     total cpu time spent up to now is    49254.6 secs

     End of self-consistent calculation

          k = 0.0000 0.0000 0.0000 ( 34529 PWs)   bands (ev):

   -65.0116 -64.8232 -64.7819 -64.7206 -64.6350 -64.5922 -64.5831 -64.5810
   -64.5207 -64.5163 -64.4754 -64.4379 -64.4332 -64.4228 -64.4028 -64.3914
   -64.3688 -64.3482 -64.3443 -64.3418 -64.3222 -64.2964 -64.2686 -64.2471
   -64.2326 -64.2069 -64.2020 -64.1967 -64.1840 -64.1787 -64.1769 -64.1763
   -64.1653 -64.1354 -64.1273 -64.1119 -64.0932 -64.0902 -64.0900 -64.0818
   -64.0794 -64.0714 -64.0637 -64.0320 -64.0190 -64.0070 -63.9834 -63.9740
   -63.9645 -63.9243 -63.9237 -63.8970 -63.8958 -63.8887 -63.8524 -63.8454
   -63.8427 -63.8254 -63.8222 -63.7276 -63.7200 -63.6371 -63.6299 -63.3632
   -32.0031 -31.9977 -31.9677 -31.8267 -31.8106 -31.7933 -31.7876 -31.7620
   -31.7490 -31.7158 -31.6992 -31.6917 -31.6184 -31.6137 -31.6033 -31.5830
   -31.5819 -31.5767 -31.5748 -31.5685 -31.5682 -31.5629 -31.5588 -31.5487
   -31.5173 -31.5078 -31.5038 -31.4956 -31.4893 -31.4865 -31.4587 -31.4551
   -31.4503 -31.4290 -31.4288 -31.4193 -31.4182 -31.4165 -31.4112 -31.4063
   -31.4038 -31.3995 -31.3971 -31.3888 -31.3854 -31.3792 -31.3759 -31.3684
   -31.3658 -31.3515 -31.3457 -31.3433 -31.3391 -31.3379 -31.3323 -31.3292
   -31.3257 -31.3229 -31.3197 -31.3128 -31.3122 -31.3031 -31.2957 -31.2936
   -31.2822 -31.2737 -31.2651 -31.2560 -31.2467 -31.2422 -31.2333 -31.2267
   -31.2236 -31.2204 -31.2085 -31.2017 -31.1993 -31.1980 -31.1940 -31.1897
   -31.1874 -31.1852 -31.1828 -31.1816 -31.1785 -31.1762 -31.1738 -31.1709
   -31.1652 -31.1612 -31.1567 -31.1544 -31.1534 -31.1516 -31.1497 -31.1459
   -31.1410 -31.1368 -31.1341 -31.1329 -31.1284 -31.1221 -31.1150 -31.1141
   -31.1089 -31.1036 -31.0988 -31.0978 -31.0965 -31.0895 -31.0875 -31.0861
   -31.0823 -31.0762 -31.0753 -31.0729 -31.0713 -31.0690 -31.0683 -31.0683
   -31.0633 -31.0630 -31.0606 -31.0574 -31.0559 -31.0525 -31.0455 -31.0440
   -31.0335 -31.0259 -31.0198 -31.0125 -31.0090 -30.9975 -30.9969 -30.9926
   -30.9900 -30.9868 -30.9771 -30.9767 -30.9683 -30.9659 -30.9616 -30.9611
   -30.9508 -30.9444 -30.9400 -30.9267 -30.9261 -30.9171 -30.9138 -30.9062
   -30.8935 -30.8925 -30.8912 -30.8842 -30.8802 -30.8789 -30.8785 -30.8751
   -30.8733 -30.8710 -30.8582 -30.8453 -30.8395 -30.8355 -30.8331 -30.8224
   -30.8210 -30.8208 -30.8190 -30.8167 -30.8126 -30.8105 -30.8043 -30.7995
   -30.7898 -30.7300 -30.7190 -30.7111 -30.7060 -30.7045 -30.6928 -30.6446
   -30.6370 -30.6320 -30.6232 -30.6094 -30.5959 -30.3696 -30.3549 -30.3439
    -9.6134  -9.2630  -9.1744  -9.0757  -9.0607  -9.0473  -9.0400  -8.9274
    -8.8894  -8.8694  -8.8226  -8.7589  -8.7271  -8.7000  -8.6495  -8.5852
    -8.5498  -8.5224  -8.4673  -8.4640  -8.4299  -8.4179  -8.3846  -8.3758
    -8.3380  -8.3030  -8.2696  -8.2469  -8.2085  -8.1885  -8.1720  -8.1410
    -8.1300  -8.1177  -8.0883  -8.0554  -8.0419  -8.0147  -8.0019  -7.9965
    -7.9703  -7.9563  -7.9409  -7.9212  -7.9068  -7.8987  -7.8763  -7.8654
    -7.8399  -7.8039  -7.7831  -7.7707  -7.7513  -7.7097  -7.6911  -7.6703
    -7.6211  -7.6042  -7.5563  -7.5109  -7.4903  -7.4723  -7.3693  -7.0401
     2.9126   2.9420   2.9482   2.9595   3.3569   3.4182   3.4614   3.4909
     3.5282   3.5647   3.6217   3.6318   3.6463   3.6852   3.7075   3.7315
     3.7521   3.7597   3.7885   3.7986   3.8092   3.8182   3.8379   3.8519
     3.8764   3.8959   3.9018   3.9614   3.9655   3.9920   4.0343   4.0678
     4.0738   4.0918   4.1409   4.1627   4.1929   4.2142   4.2359   4.2499
     4.2931   4.3050   4.3168   4.5697   4.5966   4.6001   4.6318   4.6428
     4.6517   4.6696   4.7206   4.7464   4.7554   4.7692   4.8019   4.8580
     4.8739   4.8898   4.9233   4.9619   4.9766   5.0134   5.0375   5.0589
     5.0948   5.1130   5.1273   5.1701   5.1994   5.3724   5.3888   5.3923
     5.4474   5.4663   5.4937   5.5118   5.5280   5.5433   5.5755   5.5831
     5.5889   5.6116   5.6188   5.6373   5.6543   5.6590   5.6746   5.7026
     5.7153   5.7267   5.7419   5.7556   5.7699   5.7793   5.7935   5.8243
     5.8376   5.8409   5.8585   5.8619   5.8964   5.9102   5.9129   5.9442
     5.9857   5.9984   6.0220   6.0480   6.0807   6.1588   6.1957   6.2268
     6.2579   6.2821   6.3020   6.3234   6.3439   6.4472   6.4700   6.4973
     6.5135   6.5318   6.5446   6.5469   6.5778   6.5945   6.6061   6.6165
     6.6455   6.6657   6.6694   6.6749   6.7060   6.7229   6.7399   6.7457
     6.7715   6.7863   6.7937   6.8152   6.8278   6.8283   6.8444   6.8729
     6.8801   6.8995   6.9130   6.9292   6.9372   6.9699   6.9728   6.9814
     6.9989   7.0138   7.0346   7.0528   7.0662   7.0938   7.1000   7.1138
     7.1279   7.1424   7.1482   7.1632   7.1865   7.1970   7.2091   7.2407
     7.2447   7.2552   7.2807   7.3017   7.3320   7.3517   7.3714   7.3981
     7.4269   7.4410   7.4586   7.4761   7.4984   7.5237   7.5733   7.5812
     7.6088   7.6425   7.6594   7.6780   7.7505   7.9048   7.9227   7.9450
    12.2331  14.2354  14.3018  14.4762  14.5103  14.5264  14.5822  14.6645
    14.7754  15.1779  15.2419  15.2863  15.3165  15.3801  15.4222  15.5043
    15.6090  15.6311  15.8316  16.2915  16.3214  16.4156  16.4577  16.5351
    16.5470  16.5938  16.6601  16.6694  16.7257  16.7372  16.7755  16.8566
    16.8838  16.8917  16.9211  16.9645  16.9701  17.0173  17.0310  17.0776
    17.1179  17.1430  17.1501  17.1899  17.2272  17.2388  17.2758  17.2917
    17.3274  17.3729  17.3910  17.4259  17.4495  17.4799  17.4872  17.5298
    17.5602  17.5916  17.6274  17.6728  17.7494  18.1582  18.3116  18.3854
    18.4257  18.4769  18.4916  18.5405  18.5649  18.5815  18.6071  18.6634
    18.7187  18.7322  18.7421  18.7698  18.8191  18.8346  18.8686  18.8897
    18.9325  18.9466  18.9497  18.9802  19.0078  19.0323  19.0437  19.0702
    19.0876  19.0988  19.1338  19.1806  19.1859  19.2103  19.2253  19.2720
    19.3070  19.3158  19.3284  19.3774  19.4004  19.4207

     occupation numbers 
     1.0000   1.0000   1.0000   1.0000   1.0000   1.0000   1.0000   1.0000
     1.0000   1.0000   1.0000   1.0000   1.0000   1.0000   1.0000   1.0000
     1.0000   1.0000   1.0000   1.0000   1.0000   1.0000   1.0000   1.0000
     1.0000   1.0000   1.0000   1.0000   1.0000   1.0000   1.0000   1.0000
     1.0000   1.0000   1.0000   1.0000   1.0000   1.0000   1.0000   1.0000
     1.0000   1.0000   1.0000   1.0000   1.0000   1.0000   1.0000   1.0000
     1.0000   1.0000   1.0000   1.0000   1.0000   1.0000   1.0000   1.0000
     1.0000   1.0000   1.0000   1.0000   1.0000   1.0000   1.0000   1.0000
     1.0000   1.0000   1.0000   1.0000   1.0000   1.0000   1.0000   1.0000
     1.0000   1.0000   1.0000   1.0000   1.0000   1.0000   1.0000   1.0000
     1.0000   1.0000   1.0000   1.0000   1.0000   1.0000   1.0000   1.0000
     1.0000   1.0000   1.0000   1.0000   1.0000   1.0000   1.0000   1.0000
     1.0000   1.0000   1.0000   1.0000   1.0000   1.0000   1.0000   1.0000
     1.0000   1.0000   1.0000   1.0000   1.0000   1.0000   1.0000   1.0000
     1.0000   1.0000   1.0000   1.0000   1.0000   1.0000   1.0000   1.0000
     1.0000   1.0000   1.0000   1.0000   1.0000   1.0000   1.0000   1.0000
     1.0000   1.0000   1.0000   1.0000   1.0000   1.0000   1.0000   1.0000
     1.0000   1.0000   1.0000   1.0000   1.0000   1.0000   1.0000   1.0000
     1.0000   1.0000   1.0000   1.0000   1.0000   1.0000   1.0000   1.0000
     1.0000   1.0000   1.0000   1.0000   1.0000   1.0000   1.0000   1.0000
     1.0000   1.0000   1.0000   1.0000   1.0000   1.0000   1.0000   1.0000
     1.0000   1.0000   1.0000   1.0000   1.0000   1.0000   1.0000   1.0000
     1.0000   1.0000   1.0000   1.0000   1.0000   1.0000   1.0000   1.0000
     1.0000   1.0000   1.0000   1.0000   1.0000   1.0000   1.0000   1.0000
     1.0000   1.0000   1.0000   1.0000   1.0000   1.0000   1.0000   1.0000
     1.0000   1.0000   1.0000   1.0000   1.0000   1.0000   1.0000   1.0000
     1.0000   1.0000   1.0000   1.0000   1.0000   1.0000   1.0000   1.0000
     1.0000   1.0000   1.0000   1.0000   1.0000   1.0000   1.0000   1.0000
     1.0000   1.0000   1.0000   1.0000   1.0000   1.0000   1.0000   1.0000
     1.0000   1.0000   1.0000   1.0000   1.0000   1.0000   1.0000   1.0000
     1.0000   1.0000   1.0000   1.0000   1.0000   1.0000   1.0000   1.0000
     1.0000   1.0000   1.0000   1.0000   1.0000   1.0000   1.0000   1.0000
     1.0000   1.0000   1.0000   1.0000   1.0000   1.0000   1.0000   1.0000
     1.0000   1.0000   1.0000   1.0000   1.0000   1.0000   1.0000   1.0000
     1.0000   1.0000   1.0000   1.0000   1.0000   1.0000   1.0000   1.0000
     1.0000   1.0000   1.0000   1.0000   1.0000   1.0000   1.0000   1.0000
     1.0000   1.0000   1.0000   1.0000   1.0000   1.0000   1.0000   1.0000
     1.0000   1.0000   1.0000   1.0000   1.0000   1.0000   1.0000   1.0000
     1.0000   1.0000   1.0000   1.0000   1.0000   1.0000   1.0000   1.0000
     1.0000   1.0000   1.0000   1.0000   1.0000   1.0000   1.0000   1.0000
     1.0000   1.0000   1.0000   1.0000   1.0000   1.0000   1.0000   1.0000
     1.0000   1.0000   1.0000   1.0000   1.0000   1.0000   1.0000   1.0000
     1.0000   1.0000   1.0000   1.0000   1.0000   1.0000   1.0000   1.0000
     1.0000   1.0000   1.0000   1.0000   1.0000   1.0000   1.0000   1.0000
     1.0000   1.0000   1.0000   1.0000   1.0000   1.0000   1.0000   1.0000
     1.0000   1.0000   1.0000   1.0000   1.0000   1.0000   1.0000   1.0000
     1.0000   1.0000   1.0000   1.0000   1.0000   1.0000   1.0000   1.0000
     1.0000   1.0000   1.0000   1.0000   1.0000   1.0000   1.0000   1.0000
     1.0000   1.0000   1.0000   1.0000   1.0000   1.0000   1.0000   1.0000
     1.0000   1.0000   1.0000   1.0000   1.0000   1.0000   1.0000   1.0000
     1.0000   1.0000   1.0000   1.0000   1.0000   1.0000   1.0000   1.0000
     1.0000   1.0000   1.0000   1.0000   1.0000   1.0000   1.0000   1.0000
     1.0000   1.0000   1.0000   1.0000   1.0000   1.0000   1.0000   1.0000
     1.0000   1.0000   1.0000   1.0000   1.0000   1.0000   1.0000   1.0000
     1.0000   1.0000   1.0000   1.0000   1.0000   1.0000   1.0000   1.0000
     1.0000   1.0000   1.0000   1.0000   1.0000   1.0000   1.0000   1.0000
     1.0000   1.0000   1.0000   1.0000   1.0000   1.0000   1.0000   1.0000
     1.0000   1.0000   1.0000   1.0000   1.0000   1.0000   1.0000   1.0000
     1.0000   1.0000   1.0000   1.0000   1.0000   1.0000   1.0000   1.0000
     1.0000   1.0000   1.0000   1.0000   1.0000   1.0000   1.0000   1.0000
     1.0000   1.0000   1.0000   1.0000   1.0000   1.0000   1.0000   1.0000
     1.0000   1.0000   1.0000   1.0000   1.0000   1.0000   1.0000   1.0000
     1.0000   1.0000   1.0000   1.0000   1.0000   1.0000   1.0000   1.0000
     1.0000   1.0000   1.0000   1.0000   1.0000   1.0000   1.0000   1.0000
     0.0000   0.0000   0.0000   0.0000   0.0000   0.0000   0.0000   0.0000
     0.0000   0.0000   0.0000   0.0000   0.0000   0.0000   0.0000   0.0000
     0.0000   0.0000   0.0000   0.0000   0.0000   0.0000   0.0000   0.0000
     0.0000   0.0000   0.0000   0.0000   0.0000   0.0000   0.0000   0.0000
     0.0000   0.0000   0.0000   0.0000   0.0000   0.0000   0.0000   0.0000
     0.0000   0.0000   0.0000   0.0000   0.0000   0.0000   0.0000   0.0000
     0.0000   0.0000   0.0000   0.0000   0.0000   0.0000   0.0000   0.0000
     0.0000   0.0000   0.0000   0.0000   0.0000   0.0000   0.0000   0.0000
     0.0000   0.0000   0.0000   0.0000   0.0000   0.0000   0.0000   0.0000
     0.0000   0.0000   0.0000   0.0000   0.0000   0.0000   0.0000   0.0000
     0.0000   0.0000   0.0000   0.0000   0.0000   0.0000   0.0000   0.0000
     0.0000   0.0000   0.0000   0.0000   0.0000   0.0000   0.0000   0.0000
     0.0000   0.0000   0.0000   0.0000   0.0000   0.0000

          k =-0.3562-0.3583 0.3515 ( 34452 PWs)   bands (ev):

   -65.0116 -64.8232 -64.7819 -64.7206 -64.6350 -64.5922 -64.5831 -64.5810
   -64.5207 -64.5163 -64.4754 -64.4379 -64.4332 -64.4228 -64.4028 -64.3914
   -64.3688 -64.3482 -64.3443 -64.3418 -64.3222 -64.2964 -64.2686 -64.2471
   -64.2326 -64.2069 -64.2020 -64.1967 -64.1840 -64.1787 -64.1769 -64.1763
   -64.1653 -64.1354 -64.1273 -64.1119 -64.0932 -64.0902 -64.0900 -64.0818
   -64.0794 -64.0714 -64.0637 -64.0320 -64.0190 -64.0070 -63.9834 -63.9740
   -63.9645 -63.9243 -63.9237 -63.8970 -63.8958 -63.8887 -63.8524 -63.8454
   -63.8427 -63.8254 -63.8222 -63.7276 -63.7200 -63.6371 -63.6299 -63.3632
   -32.0031 -31.9977 -31.9677 -31.8267 -31.8106 -31.7933 -31.7876 -31.7620
   -31.7490 -31.7158 -31.6992 -31.6917 -31.6184 -31.6137 -31.6033 -31.5831
   -31.5819 -31.5767 -31.5749 -31.5685 -31.5682 -31.5629 -31.5588 -31.5487
   -31.5173 -31.5078 -31.5037 -31.4956 -31.4893 -31.4865 -31.4587 -31.4552
   -31.4503 -31.4289 -31.4288 -31.4194 -31.4182 -31.4165 -31.4112 -31.4063
   -31.4038 -31.3995 -31.3971 -31.3888 -31.3854 -31.3792 -31.3759 -31.3684
   -31.3658 -31.3516 -31.3457 -31.3433 -31.3391 -31.3380 -31.3324 -31.3292
   -31.3257 -31.3229 -31.3197 -31.3128 -31.3122 -31.3031 -31.2957 -31.2936
   -31.2822 -31.2737 -31.2651 -31.2560 -31.2467 -31.2422 -31.2333 -31.2267
   -31.2236 -31.2205 -31.2086 -31.2019 -31.1993 -31.1980 -31.1938 -31.1898
   -31.1873 -31.1855 -31.1826 -31.1815 -31.1789 -31.1761 -31.1735 -31.1707
   -31.1652 -31.1611 -31.1568 -31.1546 -31.1534 -31.1514 -31.1497 -31.1459
   -31.1410 -31.1368 -31.1341 -31.1329 -31.1284 -31.1221 -31.1150 -31.1141
   -31.1089 -31.1036 -31.0992 -31.0978 -31.0965 -31.0895 -31.0876 -31.0861
   -31.0819 -31.0762 -31.0753 -31.0730 -31.0712 -31.0689 -31.0684 -31.0683
   -31.0633 -31.0630 -31.0605 -31.0574 -31.0558 -31.0525 -31.0458 -31.0440
   -31.0335 -31.0259 -31.0198 -31.0125 -31.0090 -30.9976 -30.9969 -30.9926
   -30.9900 -30.9868 -30.9770 -30.9767 -30.9684 -30.9659 -30.9616 -30.9611
   -30.9508 -30.9444 -30.9401 -30.9267 -30.9260 -30.9170 -30.9138 -30.9062
   -30.8935 -30.8925 -30.8912 -30.8842 -30.8802 -30.8790 -30.8785 -30.8751
   -30.8733 -30.8710 -30.8582 -30.8453 -30.8395 -30.8355 -30.8331 -30.8224
   -30.8210 -30.8208 -30.8190 -30.8167 -30.8126 -30.8105 -30.8043 -30.7995
   -30.7898 -30.7300 -30.7190 -30.7111 -30.7060 -30.7045 -30.6928 -30.6446
   -30.6370 -30.6320 -30.6232 -30.6094 -30.5959 -30.3696 -30.3549 -30.3439
    -9.5175  -9.4078  -9.2179  -9.1632  -9.0921  -9.0383  -8.9801  -8.9115
    -8.8531  -8.8232  -8.7624  -8.7141  -8.6920  -8.6704  -8.6279  -8.6128
    -8.5753  -8.5272  -8.4960  -8.4620  -8.4374  -8.4004  -8.3806  -8.3498
    -8.3213  -8.2964  -8.2852  -8.2493  -8.2336  -8.2113  -8.1773  -8.1606
    -8.1413  -8.1089  -8.0855  -8.0779  -8.0672  -8.0476  -8.0366  -8.0045
    -7.9869  -7.9455  -7.9318  -7.9198  -7.8880  -7.8839  -7.8665  -7.8623
    -7.8487  -7.8079  -7.7683  -7.7538  -7.7403  -7.7189  -7.6979  -7.6592
    -7.6205  -7.5964  -7.5432  -7.5187  -7.5062  -7.4598  -7.3694  -7.0399
     3.0770   3.1320   3.1468   3.2504   3.2733   3.2803   3.4009   3.4640
     3.5195   3.5504   3.5889   3.6380   3.6676   3.6974   3.7064   3.7182
     3.7356   3.7643   3.7739   3.8283   3.8422   3.8564   3.8717   3.8910
     3.9007   3.9302   3.9357   3.9773   3.9894   4.0093   4.0272   4.0563
     4.0729   4.1027   4.1240   4.1350   4.1582   4.1703   4.1856   4.2040
     4.2146   4.2537   4.2687   4.2890   4.3225   4.3311   4.3510   4.3553
     4.4161   4.4623   4.4856   4.4982   4.5351   4.5488   4.5837   4.6017
     4.9645   4.9855   5.0101   5.0305   5.0600   5.0852   5.0960   5.1156
     5.1646   5.1787   5.1902   5.2314   5.2851   5.2990   5.3062   5.3252
     5.3668   5.3998   5.4026   5.4192   5.4281   5.4463   5.4699   5.4992
     5.6810   5.6978   5.7284   5.7411   5.7954   5.7981   5.8118   5.8368
     5.8720   5.8843   5.9181   5.9380   5.9610   5.9706   5.9929   6.0198
     6.0669   6.0750   6.0880   6.1357   6.1740   6.1956   6.2048   6.2167
     6.2438   6.2621   6.2720   6.2916   6.3089   6.3138   6.3254   6.3313
     6.3573   6.3768   6.4020   6.4033   6.4252   6.4320   6.4568   6.4781
     6.4936   6.4957   6.5243   6.5289   6.5515   6.5653   6.5731   6.6048
     6.6138   6.6203   6.6360   6.6493   6.6558   6.6692   6.6940   6.7093
     6.7231   6.7380   6.7562   6.7801   6.7881   6.8069   6.8110   6.8233
     6.8377   6.8502   6.8558   6.8569   6.8840   6.8873   6.8960   6.9160
     6.9252   6.9456   6.9598   6.9651   6.9824   6.9923   7.0129   7.0163
     7.0555   7.0827   7.0919   7.0943   7.1195   7.1414   7.1603   7.1756
     7.1874   7.2112   7.2248   7.2294   7.2498   7.2872   7.2936   7.3159
     7.3336   7.3699   7.4121   7.4212   7.4379   7.4657   7.4808   7.5488
     7.5561   7.5687   7.5955   7.6432   7.6556   7.6917   7.9010   7.9124
    13.0455  13.1985  14.4253  14.5161  14.5711  14.7078  14.7730  14.8251
    15.1004  15.1952  15.3256  15.3605  15.4470  15.4986  15.5760  15.6702
    15.8017  15.9187  15.9860  16.0495  16.0849  16.1369  16.2889  16.3720
    16.4381  16.4607  16.5418  16.6079  16.6531  16.6985  16.7161  16.7628
    16.7765  16.8274  16.8807  16.9037  16.9235  16.9536  16.9974  17.0547
    17.1235  17.1458  17.1782  17.2056  17.2608  17.3093  17.3236  17.3578
    17.4431  17.4580  17.6063  17.6240  17.6303  17.7181  17.7268  17.7614
    17.8113  17.9106  17.9361  17.9598  17.9777  18.0109  18.0541  18.0721
    18.0975  18.1520  18.1695  18.2088  18.2184  18.2553  18.3187  18.3382
    18.3757  18.4626  18.4675  18.5905  18.6401  18.6844  18.7565  18.8016
    18.8260  18.8484  18.8935  18.9675  19.0027  19.0156  19.0635  19.0832
    19.1408  19.1711  19.1900  19.2214  19.2470  19.2584  19.2962  19.3201
    19.3702  19.3864  19.4086  19.4300  19.4633  19.5135

     occupation numbers 
     1.0000   1.0000   1.0000   1.0000   1.0000   1.0000   1.0000   1.0000
     1.0000   1.0000   1.0000   1.0000   1.0000   1.0000   1.0000   1.0000
     1.0000   1.0000   1.0000   1.0000   1.0000   1.0000   1.0000   1.0000
     1.0000   1.0000   1.0000   1.0000   1.0000   1.0000   1.0000   1.0000
     1.0000   1.0000   1.0000   1.0000   1.0000   1.0000   1.0000   1.0000
     1.0000   1.0000   1.0000   1.0000   1.0000   1.0000   1.0000   1.0000
     1.0000   1.0000   1.0000   1.0000   1.0000   1.0000   1.0000   1.0000
     1.0000   1.0000   1.0000   1.0000   1.0000   1.0000   1.0000   1.0000
     1.0000   1.0000   1.0000   1.0000   1.0000   1.0000   1.0000   1.0000
     1.0000   1.0000   1.0000   1.0000   1.0000   1.0000   1.0000   1.0000
     1.0000   1.0000   1.0000   1.0000   1.0000   1.0000   1.0000   1.0000
     1.0000   1.0000   1.0000   1.0000   1.0000   1.0000   1.0000   1.0000
     1.0000   1.0000   1.0000   1.0000   1.0000   1.0000   1.0000   1.0000
     1.0000   1.0000   1.0000   1.0000   1.0000   1.0000   1.0000   1.0000
     1.0000   1.0000   1.0000   1.0000   1.0000   1.0000   1.0000   1.0000
     1.0000   1.0000   1.0000   1.0000   1.0000   1.0000   1.0000   1.0000
     1.0000   1.0000   1.0000   1.0000   1.0000   1.0000   1.0000   1.0000
     1.0000   1.0000   1.0000   1.0000   1.0000   1.0000   1.0000   1.0000
     1.0000   1.0000   1.0000   1.0000   1.0000   1.0000   1.0000   1.0000
     1.0000   1.0000   1.0000   1.0000   1.0000   1.0000   1.0000   1.0000
     1.0000   1.0000   1.0000   1.0000   1.0000   1.0000   1.0000   1.0000
     1.0000   1.0000   1.0000   1.0000   1.0000   1.0000   1.0000   1.0000
     1.0000   1.0000   1.0000   1.0000   1.0000   1.0000   1.0000   1.0000
     1.0000   1.0000   1.0000   1.0000   1.0000   1.0000   1.0000   1.0000
     1.0000   1.0000   1.0000   1.0000   1.0000   1.0000   1.0000   1.0000
     1.0000   1.0000   1.0000   1.0000   1.0000   1.0000   1.0000   1.0000
     1.0000   1.0000   1.0000   1.0000   1.0000   1.0000   1.0000   1.0000
     1.0000   1.0000   1.0000   1.0000   1.0000   1.0000   1.0000   1.0000
     1.0000   1.0000   1.0000   1.0000   1.0000   1.0000   1.0000   1.0000
     1.0000   1.0000   1.0000   1.0000   1.0000   1.0000   1.0000   1.0000
     1.0000   1.0000   1.0000   1.0000   1.0000   1.0000   1.0000   1.0000
     1.0000   1.0000   1.0000   1.0000   1.0000   1.0000   1.0000   1.0000
     1.0000   1.0000   1.0000   1.0000   1.0000   1.0000   1.0000   1.0000
     1.0000   1.0000   1.0000   1.0000   1.0000   1.0000   1.0000   1.0000
     1.0000   1.0000   1.0000   1.0000   1.0000   1.0000   1.0000   1.0000
     1.0000   1.0000   1.0000   1.0000   1.0000   1.0000   1.0000   1.0000
     1.0000   1.0000   1.0000   1.0000   1.0000   1.0000   1.0000   1.0000
     1.0000   1.0000   1.0000   1.0000   1.0000   1.0000   1.0000   1.0000
     1.0000   1.0000   1.0000   1.0000   1.0000   1.0000   1.0000   1.0000
     1.0000   1.0000   1.0000   1.0000   1.0000   1.0000   1.0000   1.0000
     1.0000   1.0000   1.0000   1.0000   1.0000   1.0000   1.0000   1.0000
     1.0000   1.0000   1.0000   1.0000   1.0000   1.0000   1.0000   1.0000
     1.0000   1.0000   1.0000   1.0000   1.0000   1.0000   1.0000   1.0000
     1.0000   1.0000   1.0000   1.0000   1.0000   1.0000   1.0000   1.0000
     1.0000   1.0000   1.0000   1.0000   1.0000   1.0000   1.0000   1.0000
     1.0000   1.0000   1.0000   1.0000   1.0000   1.0000   1.0000   1.0000
     1.0000   1.0000   1.0000   1.0000   1.0000   1.0000   1.0000   1.0000
     1.0000   1.0000   1.0000   1.0000   1.0000   1.0000   1.0000   1.0000
     1.0000   1.0000   1.0000   1.0000   1.0000   1.0000   1.0000   1.0000
     1.0000   1.0000   1.0000   1.0000   1.0000   1.0000   1.0000   1.0000
     1.0000   1.0000   1.0000   1.0000   1.0000   1.0000   1.0000   1.0000
     1.0000   1.0000   1.0000   1.0000   1.0000   1.0000   1.0000   1.0000
     1.0000   1.0000   1.0000   1.0000   1.0000   1.0000   1.0000   1.0000
     1.0000   1.0000   1.0000   1.0000   1.0000   1.0000   1.0000   1.0000
     1.0000   1.0000   1.0000   1.0000   1.0000   1.0000   1.0000   1.0000
     1.0000   1.0000   1.0000   1.0000   1.0000   1.0000   1.0000   1.0000
     1.0000   1.0000   1.0000   1.0000   1.0000   1.0000   1.0000   1.0000
     1.0000   1.0000   1.0000   1.0000   1.0000   1.0000   1.0000   1.0000
     1.0000   1.0000   1.0000   1.0000   1.0000   1.0000   1.0000   1.0000
     1.0000   1.0000   1.0000   1.0000   1.0000   1.0000   1.0000   1.0000
     1.0000   1.0000   1.0000   1.0000   1.0000   1.0000   1.0000   1.0000
     1.0000   1.0000   1.0000   1.0000   1.0000   1.0000   1.0000   1.0000
     1.0000   1.0000   1.0000   1.0000   1.0000   1.0000   1.0000   1.0000
     1.0000   1.0000   1.0000   1.0000   1.0000   1.0000   1.0000   1.0000
     0.0000   0.0000   0.0000   0.0000   0.0000   0.0000   0.0000   0.0000
     0.0000   0.0000   0.0000   0.0000   0.0000   0.0000   0.0000   0.0000
     0.0000   0.0000   0.0000   0.0000   0.0000   0.0000   0.0000   0.0000
     0.0000   0.0000   0.0000   0.0000   0.0000   0.0000   0.0000   0.0000
     0.0000   0.0000   0.0000   0.0000   0.0000   0.0000   0.0000   0.0000
     0.0000   0.0000   0.0000   0.0000   0.0000   0.0000   0.0000   0.0000
     0.0000   0.0000   0.0000   0.0000   0.0000   0.0000   0.0000   0.0000
     0.0000   0.0000   0.0000   0.0000   0.0000   0.0000   0.0000   0.0000
     0.0000   0.0000   0.0000   0.0000   0.0000   0.0000   0.0000   0.0000
     0.0000   0.0000   0.0000   0.0000   0.0000   0.0000   0.0000   0.0000
     0.0000   0.0000   0.0000   0.0000   0.0000   0.0000   0.0000   0.0000
     0.0000   0.0000   0.0000   0.0000   0.0000   0.0000   0.0000   0.0000
     0.0000   0.0000   0.0000   0.0000   0.0000   0.0000

          k =-0.3564 0.3546-0.3477 ( 34492 PWs)   bands (ev):

   -65.0116 -64.8232 -64.7819 -64.7206 -64.6350 -64.5922 -64.5831 -64.5810
   -64.5207 -64.5163 -64.4754 -64.4379 -64.4332 -64.4228 -64.4028 -64.3914
   -64.3688 -64.3482 -64.3443 -64.3418 -64.3222 -64.2964 -64.2686 -64.2471
   -64.2326 -64.2069 -64.2020 -64.1967 -64.1840 -64.1787 -64.1769 -64.1763
   -64.1653 -64.1354 -64.1273 -64.1119 -64.0932 -64.0902 -64.0900 -64.0818
   -64.0794 -64.0714 -64.0637 -64.0320 -64.0190 -64.0070 -63.9834 -63.9740
   -63.9645 -63.9243 -63.9237 -63.8970 -63.8958 -63.8887 -63.8524 -63.8454
   -63.8427 -63.8254 -63.8222 -63.7276 -63.7200 -63.6371 -63.6299 -63.3632
   -32.0031 -31.9977 -31.9677 -31.8267 -31.8106 -31.7933 -31.7876 -31.7620
   -31.7490 -31.7158 -31.6992 -31.6917 -31.6184 -31.6137 -31.6033 -31.5830
   -31.5819 -31.5767 -31.5748 -31.5685 -31.5682 -31.5629 -31.5588 -31.5487
   -31.5173 -31.5078 -31.5038 -31.4956 -31.4893 -31.4865 -31.4587 -31.4551
   -31.4503 -31.4290 -31.4288 -31.4194 -31.4182 -31.4165 -31.4112 -31.4063
   -31.4038 -31.3995 -31.3971 -31.3888 -31.3854 -31.3792 -31.3759 -31.3684
   -31.3658 -31.3516 -31.3457 -31.3433 -31.3391 -31.3380 -31.3323 -31.3292
   -31.3258 -31.3229 -31.3198 -31.3128 -31.3122 -31.3031 -31.2957 -31.2936
   -31.2822 -31.2737 -31.2651 -31.2560 -31.2467 -31.2422 -31.2333 -31.2267
   -31.2236 -31.2205 -31.2085 -31.2019 -31.1992 -31.1980 -31.1938 -31.1897
   -31.1873 -31.1855 -31.1826 -31.1815 -31.1789 -31.1762 -31.1735 -31.1707
   -31.1652 -31.1612 -31.1568 -31.1546 -31.1534 -31.1514 -31.1497 -31.1459
   -31.1410 -31.1368 -31.1341 -31.1330 -31.1284 -31.1221 -31.1150 -31.1141
   -31.1089 -31.1036 -31.0988 -31.0977 -31.0964 -31.0895 -31.0876 -31.0861
   -31.0823 -31.0762 -31.0753 -31.0729 -31.0713 -31.0690 -31.0683 -31.0683
   -31.0633 -31.0631 -31.0605 -31.0574 -31.0559 -31.0525 -31.0455 -31.0440
   -31.0335 -31.0259 -31.0198 -31.0125 -31.0090 -30.9974 -30.9971 -30.9926
   -30.9901 -30.9868 -30.9770 -30.9767 -30.9683 -30.9659 -30.9616 -30.9611
   -30.9509 -30.9444 -30.9401 -30.9267 -30.9260 -30.9170 -30.9138 -30.9062
   -30.8935 -30.8925 -30.8912 -30.8842 -30.8802 -30.8790 -30.8785 -30.8751
   -30.8733 -30.8710 -30.8582 -30.8453 -30.8395 -30.8355 -30.8331 -30.8224
   -30.8210 -30.8208 -30.8190 -30.8167 -30.8126 -30.8105 -30.8043 -30.7995
   -30.7898 -30.7300 -30.7190 -30.7111 -30.7060 -30.7045 -30.6928 -30.6446
   -30.6370 -30.6320 -30.6232 -30.6094 -30.5959 -30.3696 -30.3549 -30.3439
    -9.5266  -9.3848  -9.2695  -9.1166  -9.0686  -9.0450  -8.9798  -8.9138
    -8.8800  -8.8281  -8.7875  -8.7273  -8.6836  -8.6438  -8.6073  -8.5944
    -8.5647  -8.5393  -8.5177  -8.4613  -8.4442  -8.3970  -8.3649  -8.3487
    -8.3339  -8.3040  -8.2798  -8.2422  -8.2360  -8.2169  -8.1890  -8.1643
    -8.1466  -8.1242  -8.1029  -8.0803  -8.0548  -8.0396  -8.0130  -8.0024
    -7.9774  -7.9449  -7.9288  -7.9078  -7.8922  -7.8913  -7.8829  -7.8636
    -7.8165  -7.8014  -7.7761  -7.7633  -7.7506  -7.6997  -7.6936  -7.6839
    -7.6223  -7.5960  -7.5535  -7.5085  -7.4900  -7.4730  -7.3692  -7.0396
     3.1095   3.1308   3.1372   3.2437   3.2818   3.2884   3.3621   3.4754
     3.4922   3.5697   3.5789   3.6049   3.6570   3.6661   3.6990   3.7236
     3.7491   3.7979   3.8042   3.8154   3.8254   3.8548   3.8732   3.8916
     3.9175   3.9228   3.9348   3.9625   3.9734   4.0063   4.0132   4.0274
     4.0621   4.0851   4.1033   4.1441   4.1649   4.1860   4.2010   4.2165
     4.2229   4.2345   4.2816   4.3010   4.3160   4.3295   4.3505   4.3746
     4.4276   4.4396   4.4734   4.4999   4.5418   4.5519   4.6159   4.6500
     4.9850   5.0201   5.0483   5.0592   5.0887   5.0985   5.1242   5.1364
     5.1600   5.1842   5.2012   5.2309   5.2709   5.2880   5.3033   5.3308
     5.3588   5.3714   5.3947   5.4113   5.4502   5.4645   5.5043   5.5487
     5.6370   5.7119   5.7212   5.7309   5.7841   5.8003   5.8234   5.8371
     5.8601   5.9054   5.9163   5.9366   5.9440   5.9676   5.9780   5.9935
     6.0185   6.0449   6.0707   6.0999   6.1467   6.1635   6.2070   6.2191
     6.2564   6.2817   6.2922   6.2968   6.3047   6.3143   6.3266   6.3470
     6.3644   6.3902   6.3967   6.4021   6.4134   6.4392   6.4448   6.4672
     6.4822   6.4878   6.4970   6.5161   6.5218   6.5403   6.5479   6.5593
     6.5953   6.6167   6.6390   6.6450   6.6597   6.6753   6.6889   6.7047
     6.7204   6.7231   6.7465   6.7609   6.7651   6.7761   6.7916   6.8043
     6.8326   6.8570   6.8701   6.8857   6.8923   6.9007   6.9071   6.9206
     6.9241   6.9423   6.9635   6.9668   6.9771   6.9967   7.0130   7.0401
     7.0497   7.0702   7.0899   7.0918   7.1204   7.1582   7.1612   7.1839
     7.1924   7.2284   7.2401   7.2474   7.2772   7.2812   7.3096   7.3200
     7.3560   7.3657   7.3766   7.3916   7.4237   7.4670   7.4854   7.5312
     7.5530   7.5630   7.6259   7.6931   7.7070   7.7772   7.8699   7.9207
    13.0396  13.2134  14.3872  14.5442  14.6406  14.6688  14.7384  14.8163
    15.1253  15.1838  15.3604  15.4115  15.4744  15.4873  15.5707  15.6244
    15.7940  15.8777  15.9285  15.9612  16.0942  16.1103  16.2964  16.3818
    16.5009  16.5615  16.5852  16.6189  16.6581  16.6953  16.7458  16.7660
    16.7915  16.8481  16.8895  16.9215  16.9737  16.9950  17.0322  17.0687
    17.0943  17.1073  17.1647  17.2183  17.2787  17.2943  17.3242  17.3572
    17.4282  17.4880  17.5210  17.5652  17.6192  17.6855  17.7144  17.7606
    17.7915  17.8264  17.8704  17.8778  17.9346  17.9612  18.0138  18.0443
    18.0802  18.1265  18.1748  18.2000  18.2400  18.2637  18.2835  18.3253
    18.3663  18.3895  18.4109  18.4689  18.6172  18.7087  18.7907  18.8494
    18.8952  18.9477  18.9604  19.0119  19.0385  19.0645  19.1042  19.1198
    19.1516  19.1806  19.2092  19.2557  19.2581  19.2729  19.3191  19.3279
    19.3635  19.3789  19.4224  19.4614  19.4834  19.5277

     occupation numbers 
     1.0000   1.0000   1.0000   1.0000   1.0000   1.0000   1.0000   1.0000
     1.0000   1.0000   1.0000   1.0000   1.0000   1.0000   1.0000   1.0000
     1.0000   1.0000   1.0000   1.0000   1.0000   1.0000   1.0000   1.0000
     1.0000   1.0000   1.0000   1.0000   1.0000   1.0000   1.0000   1.0000
     1.0000   1.0000   1.0000   1.0000   1.0000   1.0000   1.0000   1.0000
     1.0000   1.0000   1.0000   1.0000   1.0000   1.0000   1.0000   1.0000
     1.0000   1.0000   1.0000   1.0000   1.0000   1.0000   1.0000   1.0000
     1.0000   1.0000   1.0000   1.0000   1.0000   1.0000   1.0000   1.0000
     1.0000   1.0000   1.0000   1.0000   1.0000   1.0000   1.0000   1.0000
     1.0000   1.0000   1.0000   1.0000   1.0000   1.0000   1.0000   1.0000
     1.0000   1.0000   1.0000   1.0000   1.0000   1.0000   1.0000   1.0000
     1.0000   1.0000   1.0000   1.0000   1.0000   1.0000   1.0000   1.0000
     1.0000   1.0000   1.0000   1.0000   1.0000   1.0000   1.0000   1.0000
     1.0000   1.0000   1.0000   1.0000   1.0000   1.0000   1.0000   1.0000
     1.0000   1.0000   1.0000   1.0000   1.0000   1.0000   1.0000   1.0000
     1.0000   1.0000   1.0000   1.0000   1.0000   1.0000   1.0000   1.0000
     1.0000   1.0000   1.0000   1.0000   1.0000   1.0000   1.0000   1.0000
     1.0000   1.0000   1.0000   1.0000   1.0000   1.0000   1.0000   1.0000
     1.0000   1.0000   1.0000   1.0000   1.0000   1.0000   1.0000   1.0000
     1.0000   1.0000   1.0000   1.0000   1.0000   1.0000   1.0000   1.0000
     1.0000   1.0000   1.0000   1.0000   1.0000   1.0000   1.0000   1.0000
     1.0000   1.0000   1.0000   1.0000   1.0000   1.0000   1.0000   1.0000
     1.0000   1.0000   1.0000   1.0000   1.0000   1.0000   1.0000   1.0000
     1.0000   1.0000   1.0000   1.0000   1.0000   1.0000   1.0000   1.0000
     1.0000   1.0000   1.0000   1.0000   1.0000   1.0000   1.0000   1.0000
     1.0000   1.0000   1.0000   1.0000   1.0000   1.0000   1.0000   1.0000
     1.0000   1.0000   1.0000   1.0000   1.0000   1.0000   1.0000   1.0000
     1.0000   1.0000   1.0000   1.0000   1.0000   1.0000   1.0000   1.0000
     1.0000   1.0000   1.0000   1.0000   1.0000   1.0000   1.0000   1.0000
     1.0000   1.0000   1.0000   1.0000   1.0000   1.0000   1.0000   1.0000
     1.0000   1.0000   1.0000   1.0000   1.0000   1.0000   1.0000   1.0000
     1.0000   1.0000   1.0000   1.0000   1.0000   1.0000   1.0000   1.0000
     1.0000   1.0000   1.0000   1.0000   1.0000   1.0000   1.0000   1.0000
     1.0000   1.0000   1.0000   1.0000   1.0000   1.0000   1.0000   1.0000
     1.0000   1.0000   1.0000   1.0000   1.0000   1.0000   1.0000   1.0000
     1.0000   1.0000   1.0000   1.0000   1.0000   1.0000   1.0000   1.0000
     1.0000   1.0000   1.0000   1.0000   1.0000   1.0000   1.0000   1.0000
     1.0000   1.0000   1.0000   1.0000   1.0000   1.0000   1.0000   1.0000
     1.0000   1.0000   1.0000   1.0000   1.0000   1.0000   1.0000   1.0000
     1.0000   1.0000   1.0000   1.0000   1.0000   1.0000   1.0000   1.0000
     1.0000   1.0000   1.0000   1.0000   1.0000   1.0000   1.0000   1.0000
     1.0000   1.0000   1.0000   1.0000   1.0000   1.0000   1.0000   1.0000
     1.0000   1.0000   1.0000   1.0000   1.0000   1.0000   1.0000   1.0000
     1.0000   1.0000   1.0000   1.0000   1.0000   1.0000   1.0000   1.0000
     1.0000   1.0000   1.0000   1.0000   1.0000   1.0000   1.0000   1.0000
     1.0000   1.0000   1.0000   1.0000   1.0000   1.0000   1.0000   1.0000
     1.0000   1.0000   1.0000   1.0000   1.0000   1.0000   1.0000   1.0000
     1.0000   1.0000   1.0000   1.0000   1.0000   1.0000   1.0000   1.0000
     1.0000   1.0000   1.0000   1.0000   1.0000   1.0000   1.0000   1.0000
     1.0000   1.0000   1.0000   1.0000   1.0000   1.0000   1.0000   1.0000
     1.0000   1.0000   1.0000   1.0000   1.0000   1.0000   1.0000   1.0000
     1.0000   1.0000   1.0000   1.0000   1.0000   1.0000   1.0000   1.0000
     1.0000   1.0000   1.0000   1.0000   1.0000   1.0000   1.0000   1.0000
     1.0000   1.0000   1.0000   1.0000   1.0000   1.0000   1.0000   1.0000
     1.0000   1.0000   1.0000   1.0000   1.0000   1.0000   1.0000   1.0000
     1.0000   1.0000   1.0000   1.0000   1.0000   1.0000   1.0000   1.0000
     1.0000   1.0000   1.0000   1.0000   1.0000   1.0000   1.0000   1.0000
     1.0000   1.0000   1.0000   1.0000   1.0000   1.0000   1.0000   1.0000
     1.0000   1.0000   1.0000   1.0000   1.0000   1.0000   1.0000   1.0000
     1.0000   1.0000   1.0000   1.0000   1.0000   1.0000   1.0000   1.0000
     1.0000   1.0000   1.0000   1.0000   1.0000   1.0000   1.0000   1.0000
     1.0000   1.0000   1.0000   1.0000   1.0000   1.0000   1.0000   1.0000
     1.0000   1.0000   1.0000   1.0000   1.0000   1.0000   1.0000   1.0000
     1.0000   1.0000   1.0000   1.0000   1.0000   1.0000   1.0000   1.0000
     0.0000   0.0000   0.0000   0.0000   0.0000   0.0000   0.0000   0.0000
     0.0000   0.0000   0.0000   0.0000   0.0000   0.0000   0.0000   0.0000
     0.0000   0.0000   0.0000   0.0000   0.0000   0.0000   0.0000   0.0000
     0.0000   0.0000   0.0000   0.0000   0.0000   0.0000   0.0000   0.0000
     0.0000   0.0000   0.0000   0.0000   0.0000   0.0000   0.0000   0.0000
     0.0000   0.0000   0.0000   0.0000   0.0000   0.0000   0.0000   0.0000
     0.0000   0.0000   0.0000   0.0000   0.0000   0.0000   0.0000   0.0000
     0.0000   0.0000   0.0000   0.0000   0.0000   0.0000   0.0000   0.0000
     0.0000   0.0000   0.0000   0.0000   0.0000   0.0000   0.0000   0.0000
     0.0000   0.0000   0.0000   0.0000   0.0000   0.0000   0.0000   0.0000
     0.0000   0.0000   0.0000   0.0000   0.0000   0.0000   0.0000   0.0000
     0.0000   0.0000   0.0000   0.0000   0.0000   0.0000   0.0000   0.0000
     0.0000   0.0000   0.0000   0.0000   0.0000   0.0000

          k =-0.7125-0.0037 0.0038 ( 34450 PWs)   bands (ev):

   -65.0116 -64.8232 -64.7819 -64.7206 -64.6350 -64.5922 -64.5831 -64.5810
   -64.5207 -64.5163 -64.4754 -64.4379 -64.4332 -64.4228 -64.4028 -64.3914
   -64.3688 -64.3482 -64.3443 -64.3418 -64.3222 -64.2964 -64.2686 -64.2471
   -64.2326 -64.2069 -64.2020 -64.1967 -64.1840 -64.1787 -64.1769 -64.1763
   -64.1653 -64.1354 -64.1273 -64.1119 -64.0932 -64.0902 -64.0900 -64.0818
   -64.0794 -64.0714 -64.0637 -64.0320 -64.0190 -64.0070 -63.9834 -63.9740
   -63.9645 -63.9243 -63.9237 -63.8970 -63.8958 -63.8887 -63.8524 -63.8454
   -63.8427 -63.8254 -63.8222 -63.7276 -63.7200 -63.6371 -63.6299 -63.3632
   -32.0031 -31.9977 -31.9677 -31.8267 -31.8106 -31.7933 -31.7876 -31.7620
   -31.7490 -31.7158 -31.6992 -31.6917 -31.6184 -31.6137 -31.6033 -31.5831
   -31.5819 -31.5767 -31.5749 -31.5685 -31.5682 -31.5629 -31.5588 -31.5487
   -31.5173 -31.5078 -31.5037 -31.4956 -31.4893 -31.4865 -31.4587 -31.4552
   -31.4503 -31.4289 -31.4288 -31.4194 -31.4182 -31.4165 -31.4112 -31.4063
   -31.4038 -31.3995 -31.3971 -31.3888 -31.3854 -31.3792 -31.3759 -31.3684
   -31.3658 -31.3516 -31.3457 -31.3433 -31.3391 -31.3379 -31.3323 -31.3292
   -31.3258 -31.3229 -31.3198 -31.3128 -31.3123 -31.3031 -31.2957 -31.2936
   -31.2822 -31.2737 -31.2651 -31.2560 -31.2467 -31.2422 -31.2333 -31.2267
   -31.2236 -31.2205 -31.2086 -31.2017 -31.1993 -31.1980 -31.1939 -31.1898
   -31.1874 -31.1852 -31.1828 -31.1816 -31.1785 -31.1761 -31.1738 -31.1708
   -31.1652 -31.1611 -31.1567 -31.1544 -31.1533 -31.1516 -31.1497 -31.1459
   -31.1411 -31.1368 -31.1341 -31.1330 -31.1283 -31.1221 -31.1150 -31.1141
   -31.1089 -31.1036 -31.0991 -31.0977 -31.0965 -31.0895 -31.0876 -31.0860
   -31.0819 -31.0762 -31.0753 -31.0730 -31.0711 -31.0689 -31.0684 -31.0683
   -31.0633 -31.0631 -31.0606 -31.0574 -31.0558 -31.0525 -31.0458 -31.0440
   -31.0336 -31.0259 -31.0198 -31.0125 -31.0090 -30.9973 -30.9971 -30.9926
   -30.9901 -30.9868 -30.9770 -30.9767 -30.9683 -30.9659 -30.9616 -30.9611
   -30.9508 -30.9444 -30.9401 -30.9267 -30.9260 -30.9171 -30.9138 -30.9062
   -30.8935 -30.8925 -30.8912 -30.8842 -30.8802 -30.8790 -30.8785 -30.8751
   -30.8733 -30.8710 -30.8582 -30.8453 -30.8395 -30.8355 -30.8331 -30.8224
   -30.8210 -30.8208 -30.8190 -30.8167 -30.8126 -30.8105 -30.8043 -30.7995
   -30.7898 -30.7300 -30.7190 -30.7111 -30.7060 -30.7045 -30.6928 -30.6446
   -30.6370 -30.6320 -30.6232 -30.6094 -30.5959 -30.3696 -30.3549 -30.3439
    -9.4818  -9.3874  -9.3070  -9.1711  -9.1407  -9.0539  -8.9423  -8.8637
    -8.8497  -8.7940  -8.7571  -8.7277  -8.6806  -8.6479  -8.6235  -8.5889
    -8.5524  -8.5303  -8.5032  -8.4670  -8.4377  -8.4120  -8.3974  -8.3599
    -8.3457  -8.3060  -8.2815  -8.2488  -8.2389  -8.2112  -8.2007  -8.1662
    -8.1397  -8.1135  -8.1060  -8.0699  -8.0600  -8.0485  -8.0167  -7.9953
    -7.9759  -7.9552  -7.9266  -7.9205  -7.9051  -7.8803  -7.8702  -7.8516
    -7.8187  -7.8136  -7.7728  -7.7575  -7.7494  -7.7104  -7.6960  -7.6788
    -7.6192  -7.5949  -7.5440  -7.5089  -7.5075  -7.4589  -7.3701  -7.0395
     3.2341   3.2569   3.2732   3.2936   3.3406   3.3719   3.4049   3.4357
     3.4676   3.4908   3.5126   3.5306   3.5918   3.6121   3.6562   3.6752
     3.7191   3.7477   3.7736   3.7995   3.8146   3.8282   3.8408   3.8943
     3.9109   3.9303   3.9464   3.9650   3.9796   4.0023   4.0250   4.0353
     4.0738   4.1038   4.1046   4.1203   4.1378   4.1666   4.1771   4.1894
     4.2167   4.2455   4.2594   4.2841   4.2917   4.3350   4.3900   4.4117
     4.4559   4.5310   4.5480   4.5787   4.6076   4.6290   4.6467   4.6686
     4.7271   4.7385   4.7875   4.8333   4.8700   4.9159   4.9279   4.9798
     4.9920   5.0180   5.0507   5.0638   5.1283   5.1468   5.5297   5.5498
     5.5933   5.6008   5.6212   5.6416   5.6684   5.6767   5.6956   5.7146
     5.7222   5.7364   5.7857   5.7900   5.8217   5.8342   5.8482   5.8704
     5.8819   5.9024   5.9224   5.9425   5.9657   5.9959   6.0071   6.0466
     6.1221   6.1361   6.1542   6.1623   6.1976   6.2395   6.2436   6.2746
     6.2871   6.2976   6.3055   6.3294   6.3421   6.3457   6.3548   6.3697
     6.3912   6.4063   6.4246   6.4288   6.4469   6.4613   6.4753   6.4838
     6.4937   6.5053   6.5136   6.5233   6.5471   6.5558   6.5589   6.5694
     6.5899   6.6029   6.6204   6.6228   6.6343   6.6543   6.6721   6.6913
     6.6962   6.7101   6.7237   6.7452   6.7602   6.7713   6.7835   6.8063
     6.8253   6.8265   6.8365   6.8569   6.8738   6.8761   6.8931   6.9195
     6.9256   6.9327   6.9501   6.9556   6.9746   6.9896   7.0060   7.0134
[...]
     atom   77 type  1   force =   0.00000000E+00  0.00000000E+00  0.00000000E+00
     atom   78 type  2   force =   0.00000000E+00  0.00000000E+00  0.00000000E+00
     atom   79 type  1   force =   0.00000000E+00  0.00000000E+00  0.00000000E+00
     atom   80 type  2   force =   0.00000000E+00  0.00000000E+00  0.00000000E+00
     atom   81 type  1   force =   0.00000000E+00  0.00000000E+00  0.00000000E+00
     atom   82 type  2   force =   0.00000000E+00  0.00000000E+00  0.00000000E+00
     atom   83 type  1   force =   0.00000000E+00  0.00000000E+00  0.00000000E+00
     atom   84 type  2   force =   0.00000000E+00  0.00000000E+00  0.00000000E+00
     atom   85 type  1   force =   0.00000000E+00  0.00000000E+00  0.00000000E+00
     atom   86 type  2   force =   0.00000000E+00  0.00000000E+00  0.00000000E+00
     atom   87 type  1   force =   0.00000000E+00  0.00000000E+00  0.00000000E+00
     atom   88 type  2   force =   0.00000000E+00  0.00000000E+00  0.00000000E+00
     atom   89 type  1   force =   0.00000000E+00  0.00000000E+00  0.00000000E+00
     atom   90 type  2   force =   0.00000000E+00  0.00000000E+00  0.00000000E+00
     atom   91 type  1   force =   0.00000000E+00  0.00000000E+00  0.00000000E+00
     atom   92 type  2   force =   0.00000000E+00  0.00000000E+00  0.00000000E+00
     atom   93 type  1   force =   0.00000000E+00  0.00000000E+00  0.00000000E+00
     atom   94 type  2   force =   0.00000000E+00  0.00000000E+00  0.00000000E+00
     atom   95 type  1   force =   0.00000000E+00  0.00000000E+00  0.00000000E+00
     atom   96 type  2   force =   0.00000000E+00  0.00000000E+00  0.00000000E+00
     atom   97 type  1   force =   0.00000000E+00  0.00000000E+00  0.00000000E+00
     atom   98 type  2   force =   0.00000000E+00  0.00000000E+00  0.00000000E+00
     atom   99 type  1   force =   0.00000000E+00  0.00000000E+00  0.00000000E+00
     atom  100 type  2   force =   0.00000000E+00  0.00000000E+00  0.00000000E+00
     atom  101 type  1   force =   0.00000000E+00  0.00000000E+00  0.00000000E+00
     atom  102 type  2   force =   0.00000000E+00  0.00000000E+00  0.00000000E+00
     atom  103 type  1   force =   0.00000000E+00  0.00000000E+00  0.00000000E+00
     atom  104 type  2   force =   0.00000000E+00  0.00000000E+00  0.00000000E+00
     atom  105 type  1   force =   0.00000000E+00  0.00000000E+00  0.00000000E+00
     atom  106 type  2   force =   0.00000000E+00  0.00000000E+00  0.00000000E+00
     atom  107 type  1   force =   0.00000000E+00  0.00000000E+00  0.00000000E+00
     atom  108 type  2   force =   0.00000000E+00  0.00000000E+00  0.00000000E+00
     atom  109 type  1   force =   0.00000000E+00  0.00000000E+00  0.00000000E+00
     atom  110 type  2   force =   0.00000000E+00  0.00000000E+00  0.00000000E+00
     atom  111 type  1   force =   0.00000000E+00  0.00000000E+00  0.00000000E+00
     atom  112 type  2   force =   0.00000000E+00  0.00000000E+00  0.00000000E+00
     atom  113 type  1   force =   0.00000000E+00  0.00000000E+00  0.00000000E+00
     atom  114 type  2   force =   0.00000000E+00  0.00000000E+00  0.00000000E+00
     atom  115 type  1   force =   0.00000000E+00  0.00000000E+00  0.00000000E+00
     atom  116 type  2   force =   0.00000000E+00  0.00000000E+00  0.00000000E+00
     atom  117 type  1   force =   0.00000000E+00  0.00000000E+00  0.00000000E+00
     atom  118 type  2   force =   0.00000000E+00  0.00000000E+00  0.00000000E+00
     atom  119 type  1   force =   0.00000000E+00  0.00000000E+00  0.00000000E+00
     atom  120 type  2   force =   0.00000000E+00  0.00000000E+00  0.00000000E+00
     atom  121 type  1   force =   0.00000000E+00  0.00000000E+00  0.00000000E+00
     atom  122 type  2   force =   0.00000000E+00  0.00000000E+00  0.00000000E+00
     atom  123 type  1   force =   0.00000000E+00  0.00000000E+00  0.00000000E+00
     atom  124 type  2   force =   0.00000000E+00  0.00000000E+00  0.00000000E+00
     atom  125 type  1   force =   0.00000000E+00  0.00000000E+00  0.00000000E+00
     atom  126 type  2   force =   0.00000000E+00  0.00000000E+00  0.00000000E+00
     atom  127 type  1   force =   0.00000000E+00  0.00000000E+00  0.00000000E+00
     atom  128 type  2   force =   0.00000000E+00  0.00000000E+00  0.00000000E+00
     The SCF correction term to forces
     atom    1 type  1   force =   0.20705374E-05 -0.17856116E-05 -0.10943469E-05
     atom    2 type  2   force =   0.22365783E-05  0.30306794E-07 -0.46252218E-06
     atom    3 type  1   force =   0.26362286E-06  0.10605537E-05  0.54126005E-05
     atom    4 type  2   force =  -0.16853641E-05 -0.19806087E-05  0.26902570E-06
     atom    5 type  1   force =  -0.46215721E-06 -0.39613805E-05  0.40865962E-05
     atom    6 type  2   force =  -0.54883872E-07 -0.16285044E-05  0.19140152E-06
     atom    7 type  1   force =   0.30016949E-05 -0.13113993E-05  0.87825532E-07
     atom    8 type  2   force =   0.31599913E-05 -0.70799042E-06 -0.75543888E-06
     atom    9 type  1   force =   0.18964720E-05  0.24744235E-05 -0.14906565E-05
     atom   10 type  2   force =  -0.22992124E-05  0.11314684E-05 -0.83985995E-06
     atom   11 type  1   force =  -0.34187453E-05  0.60838683E-06 -0.16982188E-05
     atom   12 type  2   force =  -0.11579683E-05  0.43564548E-07 -0.19837573E-06
     atom   13 type  1   force =  -0.18654168E-05  0.13714460E-05 -0.32304362E-06
     atom   14 type  2   force =   0.82191459E-06  0.30609852E-06  0.75670051E-06
     atom   15 type  1   force =   0.15131255E-05 -0.19446564E-05 -0.75557329E-07
     atom   16 type  2   force =   0.26202425E-06  0.83664897E-07  0.35017254E-06
     atom   17 type  1   force =  -0.59571679E-05  0.35546863E-05 -0.18559149E-05
     atom   18 type  2   force =   0.13662090E-06  0.13885182E-07 -0.62480753E-06
     atom   19 type  1   force =  -0.69132127E-06  0.28202844E-05  0.11184073E-05
     atom   20 type  2   force =  -0.86390565E-07  0.33969667E-06  0.10010742E-05
     atom   21 type  1   force =  -0.40238933E-06  0.49525071E-06  0.66772914E-06
     atom   22 type  2   force =  -0.15293992E-05  0.17966623E-05 -0.31212979E-06
     atom   23 type  1   force =  -0.36708696E-05  0.39304560E-05 -0.67581086E-07
     atom   24 type  2   force =  -0.19272055E-05  0.18047918E-05  0.85434780E-07
     atom   25 type  1   force =   0.18780854E-05  0.24540991E-05  0.56065618E-06
     atom   26 type  2   force =   0.19267649E-05  0.12262780E-05 -0.19473005E-06
     atom   27 type  1   force =  -0.23494772E-05 -0.52407685E-07 -0.60654199E-06
     atom   28 type  2   force =  -0.13280227E-05 -0.66439604E-06  0.20108545E-05
     atom   29 type  1   force =  -0.18431781E-05  0.12305348E-05  0.37247391E-05
     atom   30 type  2   force =  -0.87462137E-07 -0.20656071E-06  0.32288021E-06
     atom   31 type  1   force =  -0.32248440E-05  0.13261351E-05  0.13260551E-05
     atom   32 type  2   force =  -0.15269440E-07 -0.83258386E-06 -0.10497884E-05
     atom   33 type  1   force =   0.68368855E-05  0.17266591E-05 -0.21170837E-05
     atom   34 type  2   force =   0.12408313E-05 -0.10386719E-05 -0.22685633E-06
     atom   35 type  1   force =   0.18231876E-05 -0.23974823E-05 -0.23848592E-05
     atom   36 type  2   force =   0.25421932E-06 -0.57087503E-06  0.62447707E-06
     atom   37 type  1   force =   0.65887021E-06 -0.23308786E-05  0.27077845E-05
     atom   38 type  2   force =  -0.56580058E-06 -0.17635968E-05  0.37073514E-05
     atom   39 type  1   force =  -0.11666397E-05 -0.16125125E-05 -0.15638341E-05
     atom   40 type  2   force =   0.13578664E-05  0.94951152E-06  0.19049691E-05
     atom   41 type  1   force =   0.45573834E-05  0.11661338E-06 -0.20878272E-05
     atom   42 type  2   force =  -0.92950130E-06 -0.53060009E-06 -0.14611278E-05
     atom   43 type  1   force =  -0.19854852E-05 -0.16840660E-05 -0.13842706E-05
     atom   44 type  2   force =   0.53452334E-06  0.24988539E-05  0.70622188E-06
     atom   45 type  1   force =  -0.84747681E-06  0.78629756E-06  0.17972446E-05
     atom   46 type  2   force =  -0.16547800E-05 -0.23554394E-06 -0.15772027E-06
     atom   47 type  1   force =   0.44101236E-05 -0.24978069E-05  0.45955072E-05
     atom   48 type  2   force =   0.11434228E-05  0.46508535E-06 -0.13910955E-05
     atom   49 type  1   force =  -0.19454944E-05 -0.71829722E-06 -0.11836853E-05
     atom   50 type  2   force =   0.21068029E-05  0.15963481E-05 -0.26184676E-06
     atom   51 type  1   force =   0.17681967E-07 -0.52710894E-06  0.45054054E-06
     atom   52 type  2   force =  -0.14593977E-05 -0.16973380E-05 -0.13799071E-05
     atom   53 type  1   force =  -0.15490308E-06  0.20681524E-05  0.10543553E-05
     atom   54 type  2   force =   0.49471039E-06 -0.86301781E-06 -0.12354808E-05
     atom   55 type  1   force =   0.50523265E-06 -0.20289481E-05 -0.46285412E-05
     atom   56 type  2   force =  -0.64935944E-06 -0.22882822E-06 -0.89737877E-06
     atom   57 type  1   force =   0.30859993E-06  0.13403125E-05 -0.20041275E-05
     atom   58 type  2   force =   0.13137998E-05  0.61100091E-06 -0.12748703E-05
     atom   59 type  1   force =   0.20146332E-05  0.26381047E-05  0.11231541E-05
     atom   60 type  2   force =   0.89378783E-07 -0.25126510E-05 -0.37662108E-06
     atom   61 type  1   force =  -0.19563913E-05 -0.26817981E-05 -0.96208823E-06
     atom   62 type  2   force =  -0.82133421E-06  0.19002044E-07  0.22172175E-06
     atom   63 type  1   force =   0.16422602E-06  0.12689286E-05 -0.20087021E-05
     atom   64 type  2   force =  -0.72842205E-06  0.10220232E-05 -0.54840479E-06
     atom   65 type  1   force =   0.22285405E-06 -0.44066349E-06  0.22165893E-05
     atom   66 type  2   force =   0.81053394E-07 -0.28074732E-06 -0.55442272E-06
     atom   67 type  1   force =   0.24202363E-05 -0.24496388E-05  0.27468542E-05
     atom   68 type  2   force =   0.26146768E-05 -0.12200958E-05  0.78864000E-06
     atom   69 type  1   force =   0.95631033E-06 -0.36626836E-05  0.17514315E-05
     atom   70 type  2   force =   0.10802760E-05 -0.11223889E-05  0.19478221E-05
     atom   71 type  1   force =  -0.35954987E-06  0.24727199E-05  0.54592743E-05
     atom   72 type  2   force =  -0.56766705E-06 -0.18786195E-06 -0.26800546E-07
     atom   73 type  1   force =  -0.97507297E-06 -0.14332305E-05 -0.22516583E-05
     atom   74 type  2   force =  -0.27562801E-06  0.18023080E-05  0.31614612E-06
     atom   75 type  1   force =   0.30465629E-06  0.18510100E-05 -0.17454179E-05
     atom   76 type  2   force =  -0.10381605E-05  0.70321150E-06 -0.27960052E-05
     atom   77 type  1   force =   0.10375601E-05  0.61508621E-06  0.31541968E-05
     atom   78 type  2   force =  -0.27687926E-05  0.45065748E-06 -0.14295324E-05
     atom   79 type  1   force =  -0.28327370E-05 -0.52744752E-06  0.63873308E-07
     atom   80 type  2   force =  -0.49807789E-06  0.61669350E-07 -0.10640603E-05
     atom   81 type  1   force =  -0.11466138E-06 -0.60157131E-06 -0.18948110E-07
     atom   82 type  2   force =   0.14440698E-06 -0.83267598E-06 -0.24631117E-05
     atom   83 type  1   force =   0.38179402E-05  0.16634193E-05 -0.22839907E-05
     atom   84 type  2   force =   0.43486287E-08  0.47126155E-06  0.18594589E-06
     atom   85 type  1   force =  -0.47533786E-05 -0.92026629E-06 -0.38528044E-05
     atom   86 type  2   force =   0.70200278E-06  0.57597081E-06  0.24148614E-06
     atom   87 type  1   force =   0.28521230E-05  0.21633406E-05 -0.17390836E-05
     atom   88 type  2   force =  -0.11428149E-05 -0.97354840E-07 -0.59888338E-06
     atom   89 type  1   force =   0.31183670E-05  0.22665071E-05 -0.14230386E-05
     atom   90 type  2   force =   0.99215766E-06 -0.79215876E-06  0.96445792E-06
     atom   91 type  1   force =   0.98097583E-06 -0.40338881E-05 -0.21192258E-05
     atom   92 type  2   force =  -0.29608955E-08 -0.71955046E-06  0.62887788E-06
     atom   93 type  1   force =   0.11911091E-05  0.99852076E-06  0.12870108E-05
     atom   94 type  2   force =   0.86997160E-06 -0.42412824E-07 -0.85129476E-07
     atom   95 type  1   force =  -0.26250050E-05  0.91054286E-06 -0.16208230E-05
     atom   96 type  2   force =   0.17650299E-05 -0.12937452E-05  0.14126484E-05
     atom   97 type  1   force =   0.16120662E-05 -0.28891985E-05  0.22501475E-05
     atom   98 type  2   force =   0.10008655E-05  0.47742328E-06  0.23425264E-05
     atom   99 type  1   force =  -0.58808392E-06 -0.34928378E-05 -0.74454741E-06
     atom  100 type  2   force =   0.10771908E-05 -0.11074730E-05  0.24883958E-05
     atom  101 type  1   force =   0.54437210E-05 -0.18133366E-05  0.31718842E-05
     atom  102 type  2   force =   0.35823804E-06 -0.15444245E-05 -0.92996788E-06
     atom  103 type  1   force =   0.48215209E-05 -0.47242360E-05  0.13247990E-05
     atom  104 type  2   force =  -0.27541380E-06 -0.41732799E-06 -0.48376302E-06
     atom  105 type  1   force =   0.26973862E-06  0.25392742E-05  0.13258148E-05
     atom  106 type  2   force =  -0.20037517E-05  0.21544403E-05 -0.17788642E-05
     atom  107 type  1   force =   0.13708325E-05  0.28581269E-05  0.16692464E-05
     atom  108 type  2   force =  -0.16708942E-05  0.37121618E-06 -0.14469616E-05
     atom  109 type  1   force =  -0.23577531E-05 -0.16009398E-05 -0.34023146E-05
     atom  110 type  2   force =  -0.83876050E-07  0.13066600E-05 -0.11071907E-06
     atom  111 type  1   force =  -0.15449276E-05  0.11588883E-05 -0.23883181E-05
     atom  112 type  2   force =  -0.25735694E-06  0.12241256E-05 -0.18466725E-07
     atom  113 type  1   force =  -0.24810034E-05  0.96942040E-06 -0.27488550E-05
     atom  114 type  2   force =   0.71041765E-06  0.88290961E-06  0.73613121E-06
     atom  115 type  1   force =  -0.28779192E-05  0.22180260E-05 -0.39217675E-05
     atom  116 type  2   force =  -0.62509490E-06  0.72755388E-06  0.85813372E-06
     atom  117 type  1   force =  -0.12609782E-05  0.48094741E-06 -0.21220473E-07
     atom  118 type  2   force =  -0.13399882E-05  0.61995032E-06 -0.75347950E-06
     atom  119 type  1   force =   0.11614727E-05  0.31866525E-06  0.77609939E-07
     atom  120 type  2   force =  -0.15686573E-05  0.72393659E-06 -0.44372400E-06
     atom  121 type  1   force =   0.10635013E-05 -0.12163715E-06  0.28462671E-06
     atom  122 type  2   force =  -0.23844560E-06  0.99531141E-07  0.17286440E-06
     atom  123 type  1   force =   0.11523829E-05  0.25769921E-06  0.19967537E-05
     atom  124 type  2   force =  -0.15140569E-05  0.22944754E-06  0.15756370E-05
     atom  125 type  1   force =  -0.19108443E-05 -0.18441988E-06 -0.21243709E-05
     atom  126 type  2   force =   0.44455570E-06 -0.31025459E-06  0.11796023E-05
     atom  127 type  1   force =   0.29015887E-06 -0.18730922E-05 -0.10148596E-05
     atom  128 type  2   force =   0.18744601E-05 -0.57327667E-06  0.18114391E-05

     Total force =     0.601977     Total SCF correction =     0.000035


     entering subroutine stress ...

          total   stress  (Ry/bohr**3)                   (kbar)     P=   31.24
   0.0003133293   0.0000523780  -0.0000478083         46.09      7.71     -7.03
   0.0000523780   0.0002936849   0.0000137918          7.71     43.20      2.03
  -0.0000478083   0.0000137918   0.0000300312         -7.03      2.03      4.42

     kinetic stress (kbar)  24205.43      8.90     -7.64
                                8.90  24207.05      2.94
                               -7.64      2.94  24183.96

     local   stress (kbar)  -4836.26     79.23     15.62
                               79.23  -4736.19     27.51
                               15.62     27.51  -2266.01

     nonloc. stress (kbar)   6587.68     -1.02      0.32
                               -1.02   6586.81     -0.09
                                0.32     -0.09   6570.32

     hartree stress (kbar)  19161.31    -31.90     -6.00
                              -31.90  19134.35    -10.63
                               -6.00    -10.63  18207.01

     exc-cor stress (kbar)  -8586.14     -0.09      0.03
                               -0.09  -8586.26     -0.02
                                0.03     -0.02  -8587.84

     corecor stress (kbar)   -315.87     -0.03      0.02
                               -0.03   -315.88     -0.01
                                0.02     -0.01   -315.74

     ewald   stress (kbar) -36170.05    -47.39     -9.39
                              -47.39 -36246.69    -17.68
                               -9.39    -17.68 -37787.28

     hubbard stress (kbar)      0.00      0.00      0.00
                                0.00      0.00      0.00
                                0.00      0.00      0.00

     london  stress (kbar)      0.00      0.00      0.00
                                0.00      0.00      0.00
                                0.00      0.00      0.00

     XDM     stress (kbar)      0.00      0.00      0.00
                                0.00      0.00      0.00
                                0.00      0.00      0.00

     dft-nl  stress (kbar)      0.00      0.00      0.00
                                0.00      0.00      0.00
                                0.00      0.00      0.00



     Writing output data file MgO_rocksalt.relax.in.up_1.00.super.444.a.011.save

     init_run     :    735.12s CPU    621.30s WALL (       1 calls)
     electrons    :  57511.19s CPU  48632.49s WALL (       1 calls)
     forces       :    556.67s CPU    407.63s WALL (       1 calls)
     stress       :   2314.06s CPU   2312.05s WALL (       1 calls)

     Called by init_run:
     wfcinit      :    699.44s CPU    584.98s WALL (       1 calls)
     potinit      :      6.31s CPU      6.44s WALL (       1 calls)

     Called by electrons:
     c_bands      :  50931.76s CPU  42625.25s WALL (      24 calls)
     sum_band     :   5984.23s CPU   5390.02s WALL (      24 calls)
     v_of_rho     :     16.27s CPU     18.23s WALL (      25 calls)
     v_h          :      0.77s CPU      1.01s WALL (      25 calls)
     v_xc         :     16.80s CPU     18.65s WALL (      27 calls)
     newd         :    575.06s CPU    592.42s WALL (      25 calls)
     mix_rho      :     19.41s CPU     22.00s WALL (      24 calls)

     Called by c_bands:
     init_us_2    :     51.80s CPU     53.70s WALL (     408 calls)
     cegterg      :  50261.32s CPU  41932.77s WALL (     192 calls)

     Called by sum_band:
     sum_band:bec :     22.66s CPU     23.24s WALL (     192 calls)
     addusdens    :    512.55s CPU    523.87s WALL (      24 calls)

     Called by *egterg:
     h_psi        :  21632.90s CPU  18737.68s WALL (     709 calls)
     s_psi        :   5401.29s CPU   3439.53s WALL (     709 calls)
     g_psi        :     10.50s CPU     11.40s WALL (     509 calls)
     cdiaghg      :  11266.78s CPU  10701.47s WALL (     701 calls)
     cegterg:over :   5536.74s CPU   4186.99s WALL (     509 calls)
     cegterg:upda :   2182.47s CPU   1440.13s WALL (     509 calls)
     cegterg:last :   1597.20s CPU   1012.99s WALL (     192 calls)

     Called by h_psi:
     h_psi:vloc   :   8843.65s CPU  10161.27s WALL (     709 calls)
     h_psi:vnl    :  12772.25s CPU   8558.76s WALL (     709 calls)
     add_vuspsi   :   5425.89s CPU   3469.00s WALL (     709 calls)

     General routines
     calbec       :  11237.41s CPU   7917.44s WALL (     917 calls)
     fft          :    231.26s CPU    237.74s WALL (     421 calls)
     ffts         :     14.28s CPU     16.10s WALL (     612 calls)
     fftw         :  10194.95s CPU  11847.71s WALL (  652642 calls)
     interpolate  :      4.61s CPU      5.31s WALL (      49 calls)

     Parallel routines
     fft_scatter  :   5686.10s CPU   6598.35s WALL (  653675 calls)

     PWSCF        :    16h58m CPU       14h26m WALL


   This run was terminated on:  10:28:42  19Aug2017            

=------------------------------------------------------------------------------=
   JOB DONE.
=------------------------------------------------------------------------------=
