
     Program PWSCF v.5.1 starts on 18Aug2017 at 20: 3: 9 

     This program is part of the open-source Quantum ESPRESSO suite
     for quantum simulation of materials; please cite
         "P. Giannozzi et al., J. Phys.:Condens. Matter 21 395502 (2009);
          URL http://www.quantum-espresso.org", 
     in publications or presentations arising from this work. More details at
     http://www.quantum-espresso.org/quote

     Parallel version (MPI), running on     8 processors
     R & G space division:  proc/nbgrp/npool/nimage =       8
     Reading input from /tmp/MgO_rocksalt.relax.in.up_1.00.super.444.01.23645/MgO_rocksalt.relax.in.up_1.00.super.444.01.t
Warning: card &IONS ignored
Warning: card   ION_DYNAMICS='BFGS', ignored
Warning: card / ignored
Warning: card &CELL ignored
Warning: card  CELL_DYNAMICS = 'BFGS' ignored
Warning: card / ignored
     Message from routine read_cards :
     DEPRECATED: no units specified in CELL_PARAMETERS card

     Current dimensions of program PWSCF are:
     Max number of different atomic species (ntypx) = 10
     Max number of k-points (npk) =  40000
     Max angular momentum in pseudopotentials (lmaxx) =  3
 kfg - two_fermi_energies  F

     Subspace diagonalization in iterative solution of the eigenvalue problem:
     a serial algorithm will be used


     Parallelization info
     --------------------
     sticks:   dense  smooth     PW     G-vecs:    dense   smooth      PW
     Min         874     701    186                48415    34660    4751
     Max         875     702    187                48418    34666    4753
     Sum        6997    5611   1495               387335   277305   38013



     bravais-lattice index     =            0
     lattice parameter (alat)  =    22.550292335  a.u.
     unit-cell volume          =    8108.5189 (a.u.)^3
     number of atoms/cell      =          128
     number of atomic types    =            2
     number of electrons       =      1024.00
     number of Kohn-Sham states=          614
     kinetic-energy cutoff     =      40.0000  Ry
     charge density cutoff     =     200.0000  Ry
     convergence threshold     =      1.0E-10
     mixing beta               =       0.3000
     number of iterations used =            8  local-TF  mixing
     Exchange-correlation      = SLA  PW   PSX  PSC ( 1  4 10  8 0)
     A smooth kinetic-energy cutoff is imposed at      39.5000 Ry
     height of the smooth step-function =             800.0000 Ry
     width of the smooth step-function  =               1.0000 Ry


     celldm(1)=  22.550292  celldm(2)=   0.000000  celldm(3)=   0.000000
     celldm(4)=   0.000000  celldm(5)=   0.000000  celldm(6)=   0.000000

     crystal axes: (cart. coord. in units of alat)
               a(1) = (   0.000000000000   0.707106781187   0.707106781187 )  
               a(2) = (   0.707106781187   0.000000000000   0.707106781187 )  
               a(3) = (   0.707106781187   0.707106781187  -0.000000000000 )  

     reciprocal axes: (cart. coord. in units 2 pi/alat)
               b(1) = ( -0.707107  0.707107  0.707107 )  
               b(2) = (  0.707107 -0.707107  0.707107 )  
               b(3) = (  0.707107  0.707107 -0.707107 )  


     PseudoPot. # 1 for Mg read from file:
     /users/kfg/psuedo/gbrv_1.5/mg.pbesol.UPF
     MD5 check sum: 4059f37963cf5867752dbf5ab2400678
     Pseudo is Ultrasoft, Zval = 10.0
     Generated by new atomic code, or converted to UPF format
     Using radial grid of  821 points,  7 beta functions with: 
                l(1) =   0
                l(2) =   0
                l(3) =   0
                l(4) =   1
                l(5) =   1
                l(6) =   2
                l(7) =   2
     Q(r) pseudized with  8 coefficients,  rinner =    1.200   1.200   1.200
                                                       1.200   1.200

     PseudoPot. # 2 for O  read from file:
     /users/kfg/psuedo/gbrv_1.5/o.pbesol.UPF
     MD5 check sum: 501638753501ef6325af9037351f7734
     Pseudo is Ultrasoft + core correction, Zval =  6.0
     Generated by new atomic code, or converted to UPF format
     Using radial grid of  737 points,  5 beta functions with: 
                l(1) =   0
                l(2) =   0
                l(3) =   1
                l(4) =   1
                l(5) =   2
     Q(r) pseudized with  8 coefficients,  rinner =    0.900   0.900   0.900
                                                       0.900   0.900

     atomic species   valence    mass     pseudopotential
        Mg            10.00    24.30500     Mg( 1.00)
        O              6.00    15.99940     O ( 1.00)

     No symmetry found


                                    s                        frac. trans.

      isym =  1     identity                                     

 cryst.   s( 1) = (     1          0          0      )
                  (     0          1          0      )
                  (     0          0          1      )

 cart.    s( 1) = (  1.0000000  0.0000000  0.0000000 )
                  (  0.0000000  1.0000000  0.0000000 )
                  (  0.0000000  0.0000000  1.0000000 )


     point group C_1 (1)    
     there are  1 classes
     the character table:

       E    
A      1.00

     the symmetry operations in each class:
     E        1

   Cartesian axes

     site n.     atom                  positions (alat units)
         1           Mg  tau(   1) = (   -0.00028276687   -0.00112421789    0.00098909216  )
         2           O   tau(   2) = (    0.17679255153    0.17490155086    0.17693803077  )
         3           Mg  tau(   3) = (    0.17709981551    0.17738046665   -0.00212932158  )
         4           O   tau(   4) = (    0.35369303507    0.35240812496    0.17572854584  )
         5           Mg  tau(   5) = (    0.35448929261    0.35154649365    0.00155755047  )
         6           O   tau(   6) = (    0.52824747041    0.53208312668    0.17780038460  )
         7           Mg  tau(   7) = (    0.53103534518    0.52814341148    0.00046334859  )
         8           O   tau(   8) = (    0.70573554408    0.70882791530    0.17524199325  )
         9           Mg  tau(   9) = (    0.17889690153   -0.00138585565    0.17508471050  )
        10           O   tau(  10) = (    0.35207784084    0.17836076222    0.35290686974  )
        11           Mg  tau(  11) = (    0.35319901095    0.17611673952    0.17469899412  )
        12           O   tau(  12) = (    0.53009519005    0.35417512162    0.35470188213  )
        13           Mg  tau(  13) = (    0.53230713537    0.35560151494    0.17873369084  )
        14           O   tau(  14) = (    0.70742658833    0.53089818356    0.35533184072  )
        15           Mg  tau(  15) = (    0.70550762162    0.53185468652    0.17506662964  )
        16           O   tau(  16) = (    0.88519911782    0.70510214932    0.35516423145  )
        17           Mg  tau(  17) = (    0.35390082385   -0.00121304189    0.35520240996  )
        18           O   tau(  18) = (    0.53094920360    0.17558164071    0.53012758440  )
        19           Mg  tau(  19) = (    0.53000275952    0.17575205661    0.35563840080  )
        20           O   tau(  20) = (    0.70659874317    0.35140937383    0.53001125144  )
        21           Mg  tau(  21) = (    0.70710559399    0.35435516267    0.35388298781  )
        22           O   tau(  22) = (    0.88518521741    0.52944136913    0.53039633917  )
        23           Mg  tau(  23) = (    0.88582736319    0.53151153606    0.35448637431  )
        24           O   tau(  24) = (    1.06083037541    0.70815759422    0.52841194908  )
        25           Mg  tau(  25) = (    0.52971194178    0.00197222954    0.52821658857  )
        26           O   tau(  26) = (    0.70673340669    0.17563373386    0.70591461801  )
        27           Mg  tau(  27) = (    0.70541391663    0.17820309089    0.52990878053  )
        28           O   tau(  28) = (    0.88365817746    0.35293013741    0.70603704501  )
        29           Mg  tau(  29) = (    0.88348515891    0.35347839781    0.53198703948  )
        30           O   tau(  30) = (    1.06028161191    0.53242330864    0.70738834162  )
        31           Mg  tau(  31) = (    1.06001313913    0.52979356344    0.52975548287  )
        32           O   tau(  32) = (    1.23536955419    0.70733382782    0.70587847237  )
        33           Mg  tau(  33) = (   -0.00121384833    0.17775097040    0.17778222164  )
        34           O   tau(  34) = (    0.17676352031    0.35153199646    0.35360433297  )
        35           Mg  tau(  35) = (    0.17755874243    0.35342341818    0.17557607666  )
        36           O   tau(  36) = (    0.35135837147    0.53245332435    0.35352197738  )
        37           Mg  tau(  37) = (    0.35350884189    0.52851414724    0.17891684193  )
        38           O   tau(  38) = (    0.52862349515    0.70558266239    0.35338679647  )
        39           Mg  tau(  39) = (    0.53026509772    0.70564597102    0.17815098925  )
        40           O   tau(  40) = (    0.70521234543    0.88540405783    0.35395253219  )
        41           Mg  tau(  41) = (    0.17552946688    0.17543985019    0.35457392360  )
        42           O   tau(  42) = (    0.35303291517    0.35350811801    0.53190900963  )
        43           Mg  tau(  43) = (    0.35538832131    0.35471244810    0.35224738188  )
        44           O   tau(  44) = (    0.52972058790    0.52870107072    0.53163830525  )
        45           Mg  tau(  45) = (    0.52903314047    0.53027615856    0.35520797158  )
        46           O   tau(  46) = (    0.70542907164    0.70599572729    0.52840692070  )
        47           Mg  tau(  47) = (    0.70841860842    0.70637313708    0.35390783411  )
        48           O   tau(  48) = (    0.88604861269    0.88243861629    0.53173719835  )
        49           Mg  tau(  49) = (    0.35404828819    0.17612272307    0.53089931784  )
        50           O   tau(  50) = (    0.53002106682    0.35534995690    0.70638693180  )
        51           Mg  tau(  51) = (    0.53140233543    0.35287769281    0.52996134944  )
        52           O   tau(  52) = (    0.70682126335    0.53138207275    0.70611161698  )
        53           Mg  tau(  53) = (    0.70906556337    0.53014971751    0.52967027348  )
        54           O   tau(  54) = (    0.88583081796    0.70639184702    0.70505271413  )
        55           Mg  tau(  55) = (    0.88228439373    0.70758561644    0.52943433922  )
        56           O   tau(  56) = (    1.06070851409    0.88174410302    0.70879920744  )
        57           Mg  tau(  57) = (    0.53146195336    0.17858475779    0.70657523669  )
        58           O   tau(  58) = (    0.70682781115    0.35193040247    0.88189847381  )
        59           Mg  tau(  59) = (    0.70679208295    0.35150599078    0.70757650521  )
        60           O   tau(  60) = (    0.88355620691    0.52843419368    0.88486892289  )
        61           Mg  tau(  61) = (    0.88415503737    0.53149097876    0.70514912384  )
        62           O   tau(  62) = (    1.06155027695    0.70752027265    0.88331459999  )
        63           Mg  tau(  63) = (    1.06283590838    0.70604328437    0.70638785611  )
        64           O   tau(  64) = (    1.23641646796    0.88503029773    0.88411424443  )
        65           Mg  tau(  65) = (   -0.00188865249    0.35311110684    0.35186977976  )
        66           O   tau(  66) = (    0.17709799608    0.53020430394    0.52974275069  )
        67           Mg  tau(  67) = (    0.17643689826    0.53225748884    0.35476760211  )
        68           O   tau(  68) = (    0.35552191894    0.70714700506    0.53013163565  )
        69           Mg  tau(  69) = (    0.35167379503    0.70545123924    0.35506477119  )
        70           O   tau(  70) = (    0.53045235831    0.88421456564    0.53138550326  )
        71           Mg  tau(  71) = (    0.52939839414    0.88411006522    0.35442023396  )
        72           O   tau(  72) = (    0.70895882510    1.06257686764    0.52947962463  )
        73           Mg  tau(  73) = (    0.17552884227    0.35405322474    0.52961586852  )
        74           O   tau(  74) = (    0.35376353502    0.53226520619    0.70743071703  )
        75           Mg  tau(  75) = (    0.35495684223    0.52824687435    0.53135319366  )
        76           O   tau(  76) = (    0.52924004705    0.70564189553    0.70561836662  )
        77           Mg  tau(  77) = (    0.53133164197    0.70638544158    0.53176639614  )
        78           O   tau(  78) = (    0.70706937948    0.88331451455    0.70863743610  )
        79           Mg  tau(  79) = (    0.70774832566    0.88377427115    0.53073641945  )
        80           O   tau(  80) = (    0.88568173609    1.05876269345    0.70883506178  )
        81           Mg  tau(  81) = (    0.35573622723    0.35392932198    0.70557226268  )
        82           O   tau(  82) = (    0.52936240827    0.53179200011    0.88303020480  )
        83           Mg  tau(  83) = (    0.52926249303    0.53017361886    0.70609687357  )
        84           O   tau(  84) = (    0.70763006801    0.70490194376    0.88492487521  )
        85           Mg  tau(  85) = (    0.70590383852    0.70894438539    0.70864661156  )
        86           O   tau(  86) = (    0.88569754423    0.88580873535    0.88439123089  )
        87           Mg  tau(  87) = (    0.88238379224    0.88284795475    0.70731562267  )
        88           O   tau(  88) = (    1.05845789661    1.06197993086    0.88238729922  )
        89           Mg  tau(  89) = (    0.53250342116    0.35416766180    0.88328688992  )
        90           O   tau(  90) = (    0.70649503918    0.52967821752    1.06022592749  )
        91           Mg  tau(  91) = (    0.70851331543    0.53111192626    0.88326646790  )
        92           O   tau(  92) = (    0.88251010744    0.70585452264    1.05919479801  )
        93           Mg  tau(  93) = (    0.88598179640    0.70808679246    0.88214009025  )
        94           O   tau(  94) = (    1.06239596378    0.88339034443    1.06179650630  )
        95           Mg  tau(  95) = (    1.06237206752    0.88523008697    0.88284736697  )
        96           O   tau(  96) = (    1.23802206588    1.05979405849    1.05980339697  )
        97           Mg  tau(  97) = (   -0.00213258741    0.52958430894    0.53017190795  )
        98           O   tau(  98) = (    0.17884285553    0.70844297191    0.70577274606  )
        99           Mg  tau(  99) = (    0.17857126141    0.70769425012    0.53146170126  )
       100           O   tau( 100) = (    0.35558533843    0.88265748123    0.70577999269  )
       101           Mg  tau( 101) = (    0.35466523515    0.88243636243    0.53080869063  )
       102           O   tau( 102) = (    0.53159138159    1.06001036076    0.70861607536  )
       103           Mg  tau( 103) = (    0.53067824892    1.05997505592    0.52979700767  )
       104           O   tau( 104) = (    0.70637784092    1.23762844896    0.70903686388  )
       105           Mg  tau( 105) = (    0.17648991102    0.53041041648    0.70579627552  )
       106           O   tau( 106) = (    0.35187990243    0.70824865009    0.88418276752  )
       107           Mg  tau( 107) = (    0.35482719354    0.70789459721    0.70846206624  )
       108           O   tau( 108) = (    0.53110132216    0.88414501614    0.88265368204  )
       109           Mg  tau( 109) = (    0.52851575152    0.88583661387    0.70809103551  )
       110           O   tau( 110) = (    0.70705954622    1.05978576734    0.88501161905  )
       111           Mg  tau( 111) = (    0.70567146901    1.06268696191    0.70688193706  )
       112           O   tau( 112) = (    0.88168248180    1.23614970870    0.88454235937  )
       113           Mg  tau( 113) = (    0.35573939735    0.53013673182    0.88401577033  )
       114           O   tau( 114) = (    0.52840700978    0.70716043254    1.06267072119  )
       115           Mg  tau( 115) = (    0.53208947532    0.70882738820    0.88183515976  )
       116           O   tau( 116) = (    0.70664331691    0.88371528663    1.06217527138  )
       117           Mg  tau( 117) = (    0.70852361829    0.88240776517    0.88289631219  )
       118           O   tau( 118) = (    0.88178751133    1.05953679526    1.06084449019  )
       119           Mg  tau( 119) = (    0.88200343970    1.05908886728    0.88286318639  )
       120           O   tau( 120) = (    1.06121596202    1.23873113505    1.06188586535  )
       121           Mg  tau( 121) = (    0.53174969603    0.52837073437    1.06213242357  )
       122           O   tau( 122) = (    0.70520679012    0.70840048995    1.23777226551  )
       123           Mg  tau( 123) = (    0.70804613394    0.70620110204    1.06252837030  )
       124           O   tau( 124) = (    0.88432561178    0.88287249099    1.23710526893  )
       125           Mg  tau( 125) = (    0.88467185931    0.88606754163    1.05847274973  )
       126           O   tau( 126) = (    1.06264645674    1.06203172494    1.23880699485  )
       127           Mg  tau( 127) = (    1.06024585199    1.06124412871    1.05975401368  )
       128           O   tau( 128) = (    1.23824450816    1.23662347826    1.23647601203  )

   Crystallographic axes

     site n.     atom                  positions (cryst. coord.)
         1           Mg  tau(   1) = (    0.00010439805    0.00129438950   -0.00169428224  )
         2           O   tau(   2) = (    0.12377694201    0.12645122081    0.12357120330  )
         3           Mg  tau(   3) = (   -0.00130720740   -0.00170410806    0.25216106904  )
         4           O   tau(   4) = (    0.12335027775    0.12516741507    0.37503007205  )
         5           Mg  tau(   5) = (   -0.00097951860    0.00318222760    0.49814133772  )
         6           O   tau(   6) = (    0.12843607620    0.12301163909    0.62404309785  )
         7           Mg  tau(   7) = (   -0.00171726899    0.00237254285    0.74862484439  )
         8           O   tau(   8) = (    0.12610143843    0.12172816512    0.87633261277  )
         9           Mg  tau(   9) = (   -0.00367557405    0.25128274620    0.00171567820  )
        10           O   tau(  10) = (    0.12670631642    0.37237936503    0.12553389251  )
        11           Mg  tau(  11) = (   -0.00168523155    0.24874691836    0.25075191314  )
        12           O   tau(  12) = (    0.12641783282    0.37520637950    0.37446142763  )
        13           Mg  tau(  13) = (    0.00143406234    0.25133354730    0.50146242289  )
        14           O   tau(  14) = (    0.12643312206    0.37608198624    0.62437028937  )
        15           Mg  tau(  15) = (    0.00099963299    0.24658196896    0.75115647789  )
        16           O   tau(  16) = (    0.12379124879    0.37848682419    0.87337377363  )
        17           Mg  tau(  17) = (    0.00006261022    0.50226945534   -0.00177811051  )
        18           O   tau(  18) = (    0.12357399629    0.62613962336    0.12473594130  )
        19           Mg  tau(  19) = (    0.00098125059    0.50196739912    0.24756969149  )
        20           O   tau(  20) = (    0.12361773833    0.62593136167    0.37335016408  )
        21           Mg  tau(  21) = (    0.00080083837    0.49966528248    0.50033303857  )
        22           O   tau(  22) = (    0.12349796066    0.62659573563    0.62524520405  )
        23           Mg  tau(  23) = (    0.00012059507    0.50119884316    0.75155022779  )
        24           O   tau(  24) = (    0.12426635733    0.62302098758    0.87721971671  )
        25           Mg  tau(  25) = (    0.00033720249    0.74667386094    0.00245195128  )
        26           O   tau(  26) = (    0.12361283319    0.87470119348    0.12477077525  )
        27           Mg  tau(  27) = (    0.00190774212    0.74749644212    0.25010948587  )
        28           O   tau(  28) = (    0.12396218621    0.87452497838    0.37515640068  )
        29           Mg  tau(  29) = (    0.00140026827    0.75094301797    0.49849367591  )
        30           O   tau(  30) = (    0.12694690755    0.87345127904    0.62601335646  )
        31           Mg  tau(  31) = (   -0.00032816318    0.74951555180    0.74956940586  )
        32           O   tau(  32) = (    0.12575381168    0.87250909733    0.87456728075  )
        33           Mg  tau(  33) = (    0.25225825142   -0.00083622242   -0.00088041835  )
        34           O   tau(  34) = (    0.37361599632    0.12645604708    0.12352532068  )
        35           Mg  tau(  35) = (    0.24850613922   -0.00020407037    0.25131005204  )
        36           O   tau(  36) = (    0.37803125672    0.12192431828    0.37497145590  )
        37           Mg  tau(  37) = (    0.25026075036    0.00276587404    0.49717112458  )
        38           O   tau(  38) = (    0.37501122731    0.12475317302    0.62283334321  )
        39           Mg  tau(  39) = (    0.24998477738    0.00195876777    0.74794932508  )
        40           O   tau(  40) = (    0.37769701749    0.12286745398    0.87445340928  )
        41           Mg  tau(  41) = (    0.25065825724    0.25078499438   -0.00254884172  )
        42           O   tau(  42) = (    0.37645248684    0.37578044854    0.12348348806  )
        43           Mg  tau(  43) = (    0.24859859785    0.24955442691    0.25304055700  )
        44           O   tau(  44) = (    0.37520414326    0.37664595829    0.37249208139  )
        45           Mg  tau(  45) = (    0.25204891195    0.25029101891    0.49787482328  )
        46           O   tau(  46) = (    0.37404080290    0.37323943080    0.62438792961  )
        47           Mg  tau(  47) = (    0.24880426276    0.25169699607    0.75015820779  )
        48           O   tau(  48) = (    0.37344232583    0.37854763169    0.87451433329  )
        49           Mg  tau(  49) = (    0.24959013413    0.50121488142   -0.00051499052  )
        50           O   tau(  50) = (    0.37597986331    0.62300211592    0.12656086512  )
        51           Mg  tau(  51) = (    0.24850327855    0.50097524937    0.25054114047  )
        52           O   tau(  52) = (    0.37524207128    0.62335055400    0.37624566280  )
        53           Mg  tau(  53) = (    0.24802083430    0.50104605004    0.50172408628  )
        54           O   tau(  54) = (    0.37166504209    0.62543006842    0.62732388831  )
        55           Mg  tau(  55) = (    0.25083592137    0.49789730154    0.74984125394  )
        56           O   tau(  56) = (    0.37464977742    0.62774367474    0.87232469161  )
        57           Mg  tau(  57) = (    0.25010228337    0.74914599919    0.00245470313  )
        58           O   tau(  58) = (    0.37264602685    0.87454675545    0.12505872134  )
        59           Mg  tau(  59) = (    0.24910694001    0.75155735007    0.24799759941  )
        60           O   tau(  60) = (    0.37458763214    0.87680599954    0.37273117139  )
        61           Mg  tau(  61) = (    0.24924457989    0.74798687454    0.50239717055  )
        62           O   tau(  62) = (    0.37426072679    0.87493476036    0.62632403845  )
        63           Mg  tau(  63) = (    0.24720115929    0.75178212712    0.75129482909  )
        64           O   tau(  64) = (    0.37669563379    0.87363072136    0.87492621637  )
        65           Mg  tau(  65) = (    0.49983224451   -0.00221322978   -0.00045772819  )
        66           O   tau(  66) = (    0.62426855607    0.12490082652    0.12555356140  )
        67           Mg  tau(  67) = (    0.50246172969   -0.00074457529    0.25026402971  )
        68           O   tau(  68) = (    0.62349615732    0.12622319166    0.37656072783  )
        69           Mg  tau(  69) = (    0.50122713731    0.00091027764    0.49643157282  )
        70           O   tau(  70) = (    0.62589394851    0.12559863705    0.62457428227  )
        71           Mg  tau(  71) = (    0.50143197881   -0.00020607717    0.74888846606  )
        72           O   tau(  72) = (    0.62444434891    0.12435291724    0.87826626838  )
        73           Mg  tau(  73) = (    0.50073077350    0.24825917060   -0.00002390127  )
        74           O   tau(  74) = (    0.62644879937    0.37400931509    0.12628787401  )
        75           Mg  tau(  75) = (    0.49825800326    0.25318888962    0.24879589072  )
        76           O   tau(  76) = (    0.62368247524    0.37421258869    0.37424586360  )
        77           Mg  tau(  77) = (    0.49979735349    0.25223389594    0.49918251825  )
        78           O   tau(  78) = (    0.62570646663    0.37645820631    0.62348889969  )
        79           Mg  tau(  79) = (    0.49975646094    0.25081818150    0.75008909940  )
        80           O   tau(  80) = (    0.62360879757    0.37883536028    0.87370776284  )
        81           Mg  tau(  81) = (    0.49763725661    0.50019260651    0.00289439066  )
        82           O   tau(  82) = (    0.62611462667    0.62267866494    0.12595283225  )
        83           Mg  tau(  83) = (    0.49993015073    0.49864162423    0.24984857148  )
        84           O   tau(  84) = (    0.62380730494    0.62766545526    0.37307458406  )
        85           Mg  tau(  85) = (    0.50323881581    0.49893883319    0.49935994897  )
        86           O   tau(  86) = (    0.62543766058    0.62528041259    0.62728506662  )
        87           Mg  tau(  87) = (    0.50047588568    0.49981946077    0.74805966544  )
        88           O   tau(  88) = (    0.62643249721    0.62145158862    0.87543392398  )
        89           Mg  tau(  89) = (    0.49847572483    0.75068057436    0.00239298585  )
        90           O   tau(  90) = (    0.62466456930    0.87472131654    0.12441354961  )
        91           Mg  tau(  91) = (    0.49912198377    0.75000543432    0.25198370548  )
        92           O   tau(  92) = (    0.62404946232    0.87387818622    0.37417957666  )
        93           Mg  tau(  93) = (    0.49797647614    0.74955800340    0.50340946909  )
        94           O   tau(  94) = (    0.62422742253    0.87737959716    0.62507518344  )
        95           Mg  tau(  95) = (    0.49900906426    0.74952565561    0.75289533056  )
        96           O   tau(  96) = (    0.62336793611    0.87542040134    0.87540719474  )
        97           Mg  tau(  97) = (    0.75086877439   -0.00109247177   -0.00192346227  )
        98           O   tau(  98) = (    0.87354052832    0.12457286110    0.12834913073  )
        99           Mg  tau(  99) = (    0.74994662630    0.00165371950    0.25088418023  )
       100           O   tau( 100) = (    0.87175810521    0.12636553251    0.37650807568  )
       101           Mg  tau( 101) = (    0.74852896767    0.00214788165    0.49942450400  )
       102           O   tau( 102) = (    0.87471587562    0.12741858867    0.62436515282  )
       103           Mg  tau( 103) = (    0.74889241827    0.00035369529    0.75013868159  )
       104           O   tau( 104) = (    0.87701568201    0.12571386711    0.87325525569  )
       105           Mg  tau( 105) = (    0.74933292197    0.24881374315    0.00078068264  )
       106           O   tau( 106) = (    0.87720238879    0.37322087264    0.12441245770  )
       107           Mg  tau( 107) = (    0.75061468661    0.25130197590    0.25049945349  )
       108           O   tau( 108) = (    0.87376999407    0.37449081395    0.37659987885  )
       109           Mg  tau( 109) = (    0.75335997773    0.24803196808    0.49940217564  )
       110           O   tau( 110) = (    0.87521282011    0.37638261441    0.62355058527  )
       111           Mg  tau( 111) = (    0.75228908722    0.24739293518    0.75057722687  )
       112           O   tau( 112) = (    0.87611208041    0.37481972071    0.87206760276  )
       113           Mg  tau( 113) = (    0.74841108370    0.50177600805    0.00131547235  )
       114           O   tau( 114) = (    0.87781943052    0.62502391573    0.12225644396  )
       115           Mg  tau( 115) = (    0.74852419804    0.49857904467    0.25390910773  )
       116           O   tau( 116) = (    0.87628012775    0.62586254666    0.37348201588  )
       117           Mg  tau( 117) = (    0.74725662883    0.50134731003    0.50065640022  )
       118           O   tau( 118) = (    0.87581805682    0.62444260878    0.62259324888  )
       119           Mg  tau( 119) = (    0.74949685265    0.49906023927    0.74828098722  )
       120           O   tau( 120) = (    0.87638887885    0.62534451362    0.87544149248  )
       121           Mg  tau( 121) = (    0.74865175253    0.75343032593   -0.00142269401  )
       122           O   tau( 122) = (    0.87749544931    0.87297887570    0.12433413116  )
       123           Mg  tau( 123) = (    0.75001638128    0.75262565041    0.24870279500  )
       124           O   tau( 124) = (    0.87373801314    0.87579303627    0.37483223746  )
       125           Mg  tau( 125) = (    0.74944015547    0.74746636261    0.50364857908  )
       126           O   tau( 126) = (    0.87553414561    0.87640350767    0.62640552347  )
       127           Mg  tau( 127) = (    0.75006513770    0.74865336123    0.75076070211  )
       128           O   tau( 128) = (    0.87317433165    0.87546681411    0.87567536286  )

     number of k points=     8  gaussian smearing, width (Ry)=  0.0050
                       cart. coord. in units 2pi/alat
        k(    1) = (   0.0000000   0.0000000   0.0000000), wk =   0.2500000
        k(    2) = (  -0.3535534  -0.3535534   0.3535534), wk =   0.2500000
        k(    3) = (  -0.7071068   0.0000000   0.0000000), wk =   0.2500000
        k(    4) = (   0.3535534   0.3535534   0.3535534), wk =   0.2500000
        k(    5) = (   0.3535534  -0.3535534  -0.3535534), wk =   0.2500000
        k(    6) = (  -0.3535534   0.3535534  -0.3535534), wk =   0.2500000
        k(    7) = (   0.0000000  -0.7071068   0.0000000), wk =   0.2500000
        k(    8) = (   0.0000000   0.0000000  -0.7071068), wk =   0.2500000

                       cryst. coord.
        k(    1) = (   0.0000000   0.0000000   0.0000000), wk =   0.2500000
        k(    2) = (   0.0000000   0.0000000  -0.5000000), wk =   0.2500000
        k(    3) = (   0.0000000  -0.5000000  -0.5000000), wk =   0.2500000
        k(    4) = (   0.5000000   0.5000000   0.5000000), wk =   0.2500000
        k(    5) = (  -0.5000000   0.0000000   0.0000000), wk =   0.2500000
        k(    6) = (   0.0000000  -0.5000000   0.0000000), wk =   0.2500000
        k(    7) = (  -0.5000000   0.0000000  -0.5000000), wk =   0.2500000
        k(    8) = (  -0.5000000  -0.5000000   0.0000000), wk =   0.2500000

     Dense  grid:   387335 G-vectors     FFT dimensions: ( 108, 108, 108)

     Smooth grid:   277305 G-vectors     FFT dimensions: (  96,  96,  96)

     Largest allocated arrays     est. size (Mb)     dimensions
        Kohn-Sham Wavefunctions        40.65 Mb     (    4339,  614)
        NL pseudopotentials           135.59 Mb     (    4339, 2048)
        Each V/rho on FFT grid          2.49 Mb     (  163296)
        Each G-vector array             0.37 Mb     (   48418)
        G-vector shells                 0.01 Mb     (    1718)
     Largest temporary arrays     est. size (Mb)     dimensions
        Auxiliary wavefunctions       162.61 Mb     (    4339, 2456)
        Each subspace H/S matrix       92.04 Mb     (    2456, 2456)
        Each <psi_i|beta_j> matrix     19.19 Mb     (    2048,  614)
        Arrays for rho mixing          19.93 Mb     (  163296,    8)

     Check: negative/imaginary core charge=   -0.000003    0.000000

     Initial potential from superposition of free atoms

     starting charge 1004.78535, renormalised to 1024.00000
     Starting wfc are  576 randomized atomic wfcs +   38 random wfc

     total cpu time spent up to now is      306.0 secs

     per-process dynamical memory:   578.8 Mb

     Self-consistent Calculation

     iteration #  1     ecut=    40.00 Ry     beta=0.30
     Davidson diagonalization with overlap
     ethr =  1.00E-02,  avg # of iterations =  6.3

     total cpu time spent up to now is     2185.9 secs

     total energy              =  -10090.15160058 Ry
     Harris-Foulkes estimate   =  -10094.56691277 Ry
     estimated scf accuracy    <      22.12508307 Ry

     iteration #  2     ecut=    40.00 Ry     beta=0.30
     Davidson diagonalization with overlap
     ethr =  2.16E-03,  avg # of iterations =  1.1

     total cpu time spent up to now is     3000.1 secs

     total energy              =  -10085.82318028 Ry
     Harris-Foulkes estimate   =  -10090.67392484 Ry
     estimated scf accuracy    <      10.41196150 Ry

     iteration #  3     ecut=    40.00 Ry     beta=0.30
     Davidson diagonalization with overlap
     ethr =  1.02E-03,  avg # of iterations =  4.3

     total cpu time spent up to now is     4316.3 secs

     total energy              =  -10086.71325613 Ry
     Harris-Foulkes estimate   =  -10087.37386124 Ry
     estimated scf accuracy    <       1.26900030 Ry

     iteration #  4     ecut=    40.00 Ry     beta=0.30
     Davidson diagonalization with overlap
     ethr =  1.24E-04,  avg # of iterations =  5.8

     total cpu time spent up to now is     5606.9 secs

     total energy              =  -10086.66899626 Ry
     Harris-Foulkes estimate   =  -10086.79555636 Ry
     estimated scf accuracy    <       0.20307442 Ry

     iteration #  5     ecut=    40.00 Ry     beta=0.30
     Davidson diagonalization with overlap
     ethr =  1.98E-05,  avg # of iterations =  9.1

     total cpu time spent up to now is     7638.4 secs

     total energy              =  -10086.68579562 Ry
     Harris-Foulkes estimate   =  -10086.69200557 Ry
     estimated scf accuracy    <       0.02676211 Ry

     iteration #  6     ecut=    40.00 Ry     beta=0.30
     Davidson diagonalization with overlap
     ethr =  2.61E-06,  avg # of iterations =  8.3

     total cpu time spent up to now is     9519.6 secs

     total energy              =  -10086.68476598 Ry
     Harris-Foulkes estimate   =  -10086.69024829 Ry
     estimated scf accuracy    <       0.01170929 Ry

     iteration #  7     ecut=    40.00 Ry     beta=0.30
     Davidson diagonalization with overlap
     ethr =  1.14E-06,  avg # of iterations =  2.0

     total cpu time spent up to now is    10637.4 secs

     total energy              =  -10086.68693720 Ry
     Harris-Foulkes estimate   =  -10086.68891839 Ry
     estimated scf accuracy    <       0.00378787 Ry

     iteration #  8     ecut=    40.00 Ry     beta=0.30
     Davidson diagonalization with overlap
     ethr =  3.70E-07,  avg # of iterations =  2.0

     total cpu time spent up to now is    11672.9 secs

     total energy              =  -10086.68772701 Ry
     Harris-Foulkes estimate   =  -10086.68801488 Ry
     estimated scf accuracy    <       0.00058097 Ry

     iteration #  9     ecut=    40.00 Ry     beta=0.30
     Davidson diagonalization with overlap
     ethr =  5.67E-08,  avg # of iterations =  2.0

     total cpu time spent up to now is    12746.0 secs

     total energy              =  -10086.68780932 Ry
     Harris-Foulkes estimate   =  -10086.68790579 Ry
     estimated scf accuracy    <       0.00020978 Ry

     iteration # 10     ecut=    40.00 Ry     beta=0.30
     Davidson diagonalization with overlap
     ethr =  2.05E-08,  avg # of iterations =  3.0

     total cpu time spent up to now is    13996.5 secs

     total energy              =  -10086.68773010 Ry
     Harris-Foulkes estimate   =  -10086.68804337 Ry
     estimated scf accuracy    <       0.00073477 Ry

     iteration # 11     ecut=    40.00 Ry     beta=0.30
     Davidson diagonalization with overlap
     ethr =  2.05E-08,  avg # of iterations =  3.0

     total cpu time spent up to now is    15162.3 secs

     total energy              =  -10086.68784373 Ry
     Harris-Foulkes estimate   =  -10086.68784363 Ry
     estimated scf accuracy    <       0.00000625 Ry

     iteration # 12     ecut=    40.00 Ry     beta=0.30
     Davidson diagonalization with overlap
     ethr =  6.11E-10,  avg # of iterations =  2.0

     total cpu time spent up to now is    16155.2 secs

     total energy              =  -10086.68784028 Ry
     Harris-Foulkes estimate   =  -10086.68784429 Ry
     estimated scf accuracy    <       0.00000735 Ry

     iteration # 13     ecut=    40.00 Ry     beta=0.30
     Davidson diagonalization with overlap
     ethr =  6.11E-10,  avg # of iterations =  2.0

     total cpu time spent up to now is    17170.9 secs

     total energy              =  -10086.68784200 Ry
     Harris-Foulkes estimate   =  -10086.68784310 Ry
     estimated scf accuracy    <       0.00000374 Ry

     iteration # 14     ecut=    40.00 Ry     beta=0.30
     Davidson diagonalization with overlap
     ethr =  3.65E-10,  avg # of iterations =  2.0

     total cpu time spent up to now is    18151.9 secs

     total energy              =  -10086.68784238 Ry
     Harris-Foulkes estimate   =  -10086.68784244 Ry
     estimated scf accuracy    <       0.00000031 Ry

     iteration # 15     ecut=    40.00 Ry     beta=0.30
     Davidson diagonalization with overlap
     ethr =  3.01E-11,  avg # of iterations =  2.0

     total cpu time spent up to now is    19128.7 secs

     total energy              =  -10086.68784243 Ry
     Harris-Foulkes estimate   =  -10086.68784242 Ry
     estimated scf accuracy    <       0.00000007 Ry

     iteration # 16     ecut=    40.00 Ry     beta=0.30
     Davidson diagonalization with overlap
     ethr =  7.13E-12,  avg # of iterations =  1.0

     total cpu time spent up to now is    19889.1 secs

     total energy              =  -10086.68784243 Ry
     Harris-Foulkes estimate   =  -10086.68784243 Ry
     estimated scf accuracy    <       0.00000005 Ry

     iteration # 17     ecut=    40.00 Ry     beta=0.30
     Davidson diagonalization with overlap
     ethr =  4.47E-12,  avg # of iterations =  1.0

     total cpu time spent up to now is    20665.6 secs

     total energy              =  -10086.68784243 Ry
     Harris-Foulkes estimate   =  -10086.68784243 Ry
     estimated scf accuracy    <       0.00000002 Ry

     iteration # 18     ecut=    40.00 Ry     beta=0.30
     Davidson diagonalization with overlap
     ethr =  2.42E-12,  avg # of iterations =  1.0

     total cpu time spent up to now is    21423.6 secs

     total energy              =  -10086.68784243 Ry
     Harris-Foulkes estimate   =  -10086.68784243 Ry
     estimated scf accuracy    <       0.00000001 Ry

     iteration # 19     ecut=    40.00 Ry     beta=0.30
     Davidson diagonalization with overlap
     ethr =  1.40E-12,  avg # of iterations =  2.0

     total cpu time spent up to now is    22364.9 secs

     total energy              =  -10086.68784243 Ry
     Harris-Foulkes estimate   =  -10086.68784243 Ry
     estimated scf accuracy    <          2.9E-09 Ry

     iteration # 20     ecut=    40.00 Ry     beta=0.30
     Davidson diagonalization with overlap
     ethr =  2.82E-13,  avg # of iterations =  1.0

     total cpu time spent up to now is    23133.7 secs

     total energy              =  -10086.68784243 Ry
     Harris-Foulkes estimate   =  -10086.68784243 Ry
     estimated scf accuracy    <          2.0E-09 Ry

     iteration # 21     ecut=    40.00 Ry     beta=0.30
     Davidson diagonalization with overlap
     ethr =  1.98E-13,  avg # of iterations =  1.1

     total cpu time spent up to now is    23912.5 secs

     total energy              =  -10086.68784243 Ry
     Harris-Foulkes estimate   =  -10086.68784243 Ry
     estimated scf accuracy    <          1.2E-09 Ry

     iteration # 22     ecut=    40.00 Ry     beta=0.30
     Davidson diagonalization with overlap
     ethr =  1.13E-13,  avg # of iterations =  1.3

     total cpu time spent up to now is    24694.9 secs

     total energy              =  -10086.68784243 Ry
     Harris-Foulkes estimate   =  -10086.68784243 Ry
     estimated scf accuracy    <          5.7E-10 Ry

     iteration # 23     ecut=    40.00 Ry     beta=0.30
     Davidson diagonalization with overlap
     ethr =  1.00E-13,  avg # of iterations =  1.0

     total cpu time spent up to now is    25474.2 secs

     total energy              =  -10086.68784243 Ry
     Harris-Foulkes estimate   =  -10086.68784243 Ry
     estimated scf accuracy    <          3.9E-10 Ry

     iteration # 24     ecut=    40.00 Ry     beta=0.30
     Davidson diagonalization with overlap
     ethr =  1.00E-13,  avg # of iterations =  1.0

     total cpu time spent up to now is    26229.0 secs

     End of self-consistent calculation

          k = 0.0000 0.0000 0.0000 ( 34621 PWs)   bands (ev):

   -64.4380 -64.4164 -64.3962 -64.3755 -64.3660 -64.3645 -64.3459 -64.3444
   -64.3439 -64.3421 -64.3404 -64.3374 -64.3246 -64.3223 -64.3222 -64.3146
   -64.3142 -64.3102 -64.3012 -64.3001 -64.2921 -64.2882 -64.2859 -64.2812
   -64.2791 -64.2744 -64.2711 -64.2689 -64.2636 -64.2614 -64.2573 -64.2525
   -64.2470 -64.2450 -64.2439 -64.2399 -64.2395 -64.2387 -64.2366 -64.2355
   -64.2319 -64.2303 -64.2281 -64.2272 -64.2224 -64.2211 -64.2205 -64.2086
   -64.2061 -64.2026 -64.1991 -64.1918 -64.1903 -64.1811 -64.1751 -64.1689
   -64.1472 -64.1418 -64.1231 -64.1091 -64.1082 -64.0837 -64.0834 -63.9791
   -31.4289 -31.4247 -31.4194 -31.4053 -31.4025 -31.4001 -31.3876 -31.3829
   -31.3760 -31.3707 -31.3675 -31.3612 -31.3591 -31.3558 -31.3540 -31.3506
   -31.3489 -31.3441 -31.3406 -31.3394 -31.3390 -31.3338 -31.3329 -31.3313
   -31.3294 -31.3288 -31.3273 -31.3260 -31.3245 -31.3229 -31.3225 -31.3216
   -31.3201 -31.3181 -31.3171 -31.3143 -31.3138 -31.3132 -31.3128 -31.3096
   -31.3091 -31.3079 -31.3073 -31.3035 -31.3031 -31.3020 -31.3017 -31.3007
   -31.2998 -31.2989 -31.2976 -31.2967 -31.2946 -31.2939 -31.2924 -31.2900
   -31.2880 -31.2854 -31.2830 -31.2813 -31.2799 -31.2790 -31.2767 -31.2766
   -31.2749 -31.2745 -31.2729 -31.2725 -31.2714 -31.2686 -31.2656 -31.2629
   -31.2621 -31.2611 -31.2594 -31.2587 -31.2575 -31.2554 -31.2536 -31.2528
   -31.2517 -31.2514 -31.2499 -31.2488 -31.2479 -31.2459 -31.2453 -31.2448
   -31.2434 -31.2427 -31.2420 -31.2406 -31.2397 -31.2383 -31.2369 -31.2361
   -31.2353 -31.2325 -31.2319 -31.2312 -31.2291 -31.2284 -31.2265 -31.2253
   -31.2244 -31.2239 -31.2235 -31.2226 -31.2220 -31.2211 -31.2199 -31.2189
   -31.2180 -31.2167 -31.2165 -31.2160 -31.2157 -31.2153 -31.2147 -31.2138
   -31.2136 -31.2127 -31.2115 -31.2108 -31.2104 -31.2100 -31.2093 -31.2074
   -31.2070 -31.2051 -31.2045 -31.2033 -31.2027 -31.2014 -31.2008 -31.1973
   -31.1965 -31.1949 -31.1945 -31.1944 -31.1934 -31.1930 -31.1915 -31.1903
   -31.1895 -31.1847 -31.1845 -31.1827 -31.1805 -31.1801 -31.1783 -31.1765
   -31.1761 -31.1741 -31.1711 -31.1696 -31.1685 -31.1678 -31.1668 -31.1634
   -31.1623 -31.1616 -31.1551 -31.1520 -31.1490 -31.1469 -31.1442 -31.1424
   -31.1351 -31.1292 -31.1264 -31.1230 -31.1206 -31.1128 -31.1103 -31.1048
   -31.1011 -31.0939 -31.0920 -31.0907 -31.0892 -31.0872 -31.0859 -31.0695
   -31.0683 -31.0650 -31.0644 -31.0582 -31.0566 -30.9643 -30.9605 -30.9590
    -9.5042  -8.9655  -8.9432  -8.9163  -8.9048  -8.8957  -8.8722  -8.8597
    -8.8287  -8.7655  -8.7476  -8.7294  -8.7235  -8.7053  -8.6879  -8.3424
    -8.3231  -8.3023  -8.2863  -8.2786  -8.2746  -8.2594  -8.2572  -8.2551
    -8.2497  -8.2364  -8.2033  -8.1915  -8.1743  -8.1689  -8.1616  -8.1582
    -8.1464  -8.1313  -8.1111  -8.1082  -8.0959  -8.0828  -8.0800  -8.0621
    -8.0559  -8.0472  -8.0417  -8.0334  -8.0328  -8.0263  -8.0163  -8.0096
    -7.9958  -7.9947  -7.9750  -7.9712  -7.9507  -7.9448  -7.9321  -7.9135
    -7.9085  -7.8932  -7.8545  -7.8393  -7.8302  -7.8065  -7.7811  -7.7677
     2.9828   2.9857   2.9864   2.9869   3.5299   3.5342   3.5379   3.7274
     3.7304   3.7411   3.7447   3.7526   3.7624   3.7652   3.7792   3.7832
     3.7850   3.7892   3.7967   3.7990   3.8083   3.8118   3.8174   3.8220
     3.8334   3.8371   3.8398   3.8527   3.8588   3.8705   3.9021   4.0812
     4.0981   4.1071   4.1111   4.1140   4.1176   4.1221   4.1295   4.1335
     4.1372   4.1535   4.1663   4.6356   4.6389   4.6597   4.6635   4.6656
     4.6722   4.6771   4.6791   4.6813   4.6852   4.6984   4.7087   4.9231
     4.9354   4.9453   4.9490   4.9516   4.9666   4.9717   4.9854   4.9860
     4.9978   5.0079   5.0096   5.0212   5.0317   5.5664   5.5850   5.5960
     5.6010   5.6051   5.6102   5.6142   5.6204   5.6266   5.6295   5.6372
     5.6465   5.6648   5.6698   5.6722   5.6782   5.6863   5.6908   5.6979
     5.7032   5.7058   5.7070   5.7170   5.7194   5.7246   5.7292   5.7338
     5.7363   5.7423   5.7470   5.7532   5.7605   5.7646   5.7695   5.7765
     5.7921   5.8537   5.8658   5.8717   5.8762   5.8800   5.8861   6.2841
     6.2904   6.2911   6.2925   6.2937   6.2988   6.5626   6.5678   6.5704
     6.5771   6.5806   6.5824   6.5915   6.5985   6.6001   6.6044   6.6057
     6.6153   6.6173   6.6258   6.6345   6.6413   6.6468   6.6490   6.6592
     6.6664   6.6679   6.6755   6.6770   6.6950   6.8543   6.8640   6.8764
     6.8777   6.8811   6.8870   6.8977   6.9028   6.9058   6.9124   6.9209
     6.9402   6.9505   6.9567   6.9605   6.9733   6.9787   6.9840   6.9864
     6.9964   7.0017   7.0056   7.0082   7.0165   7.0190   7.0217   7.0294
     7.0318   7.0492   7.0513   7.0575   7.0600   7.2572   7.2638   7.2713
     7.2785   7.2827   7.2913   7.3018   7.3166   7.3207   7.3272   7.3398
     7.3476   7.3560   7.3643   7.3707   7.3869   7.6578   7.6595   7.6621
    12.2540  14.5337  14.5531  14.5605  14.5906  14.6047  14.6079  14.6616
    14.7014  15.3635  15.3684  15.3725  15.3763  15.5222  15.5722  15.5842
    15.5963  15.6203  15.6707  16.5647  16.5758  16.5812  16.8623  16.8748
    16.9083  16.9317  16.9405  16.9511  16.9621  16.9771  16.9842  17.0030
    17.0111  17.0317  17.0654  17.0782  17.0982  17.1104  17.1179  17.1302
    17.1430  17.1526  17.1565  17.1585  17.1769  17.1913  17.2012  17.2024
    17.2099  17.2286  17.2384  17.2502  17.2544  17.2673  17.2711  17.2775
    17.2875  17.3095  17.4876  17.4947  17.4985  18.5672  18.5779  18.6051
    18.6072  18.6232  18.6403  18.8967  18.9125  18.9306  18.9350  18.9601
    18.9669  18.9793  18.9866  18.9905  18.9966  19.0034  19.0086  19.0261
    19.0381  19.0413  19.0470  19.0561  19.0748  19.0798  19.0890  19.0979
    19.1043  19.1106  19.1171  19.1251  19.1269  19.1387  19.1432  19.1524
    19.1586  19.1719  19.1792  19.1986  19.2064  19.2220

     occupation numbers 
     1.0000   1.0000   1.0000   1.0000   1.0000   1.0000   1.0000   1.0000
     1.0000   1.0000   1.0000   1.0000   1.0000   1.0000   1.0000   1.0000
     1.0000   1.0000   1.0000   1.0000   1.0000   1.0000   1.0000   1.0000
     1.0000   1.0000   1.0000   1.0000   1.0000   1.0000   1.0000   1.0000
     1.0000   1.0000   1.0000   1.0000   1.0000   1.0000   1.0000   1.0000
     1.0000   1.0000   1.0000   1.0000   1.0000   1.0000   1.0000   1.0000
     1.0000   1.0000   1.0000   1.0000   1.0000   1.0000   1.0000   1.0000
     1.0000   1.0000   1.0000   1.0000   1.0000   1.0000   1.0000   1.0000
     1.0000   1.0000   1.0000   1.0000   1.0000   1.0000   1.0000   1.0000
     1.0000   1.0000   1.0000   1.0000   1.0000   1.0000   1.0000   1.0000
     1.0000   1.0000   1.0000   1.0000   1.0000   1.0000   1.0000   1.0000
     1.0000   1.0000   1.0000   1.0000   1.0000   1.0000   1.0000   1.0000
     1.0000   1.0000   1.0000   1.0000   1.0000   1.0000   1.0000   1.0000
     1.0000   1.0000   1.0000   1.0000   1.0000   1.0000   1.0000   1.0000
     1.0000   1.0000   1.0000   1.0000   1.0000   1.0000   1.0000   1.0000
     1.0000   1.0000   1.0000   1.0000   1.0000   1.0000   1.0000   1.0000
     1.0000   1.0000   1.0000   1.0000   1.0000   1.0000   1.0000   1.0000
     1.0000   1.0000   1.0000   1.0000   1.0000   1.0000   1.0000   1.0000
     1.0000   1.0000   1.0000   1.0000   1.0000   1.0000   1.0000   1.0000
     1.0000   1.0000   1.0000   1.0000   1.0000   1.0000   1.0000   1.0000
     1.0000   1.0000   1.0000   1.0000   1.0000   1.0000   1.0000   1.0000
     1.0000   1.0000   1.0000   1.0000   1.0000   1.0000   1.0000   1.0000
     1.0000   1.0000   1.0000   1.0000   1.0000   1.0000   1.0000   1.0000
     1.0000   1.0000   1.0000   1.0000   1.0000   1.0000   1.0000   1.0000
     1.0000   1.0000   1.0000   1.0000   1.0000   1.0000   1.0000   1.0000
     1.0000   1.0000   1.0000   1.0000   1.0000   1.0000   1.0000   1.0000
     1.0000   1.0000   1.0000   1.0000   1.0000   1.0000   1.0000   1.0000
     1.0000   1.0000   1.0000   1.0000   1.0000   1.0000   1.0000   1.0000
     1.0000   1.0000   1.0000   1.0000   1.0000   1.0000   1.0000   1.0000
     1.0000   1.0000   1.0000   1.0000   1.0000   1.0000   1.0000   1.0000
     1.0000   1.0000   1.0000   1.0000   1.0000   1.0000   1.0000   1.0000
     1.0000   1.0000   1.0000   1.0000   1.0000   1.0000   1.0000   1.0000
     1.0000   1.0000   1.0000   1.0000   1.0000   1.0000   1.0000   1.0000
     1.0000   1.0000   1.0000   1.0000   1.0000   1.0000   1.0000   1.0000
     1.0000   1.0000   1.0000   1.0000   1.0000   1.0000   1.0000   1.0000
     1.0000   1.0000   1.0000   1.0000   1.0000   1.0000   1.0000   1.0000
     1.0000   1.0000   1.0000   1.0000   1.0000   1.0000   1.0000   1.0000
     1.0000   1.0000   1.0000   1.0000   1.0000   1.0000   1.0000   1.0000
     1.0000   1.0000   1.0000   1.0000   1.0000   1.0000   1.0000   1.0000
     1.0000   1.0000   1.0000   1.0000   1.0000   1.0000   1.0000   1.0000
     1.0000   1.0000   1.0000   1.0000   1.0000   1.0000   1.0000   1.0000
     1.0000   1.0000   1.0000   1.0000   1.0000   1.0000   1.0000   1.0000
     1.0000   1.0000   1.0000   1.0000   1.0000   1.0000   1.0000   1.0000
     1.0000   1.0000   1.0000   1.0000   1.0000   1.0000   1.0000   1.0000
     1.0000   1.0000   1.0000   1.0000   1.0000   1.0000   1.0000   1.0000
     1.0000   1.0000   1.0000   1.0000   1.0000   1.0000   1.0000   1.0000
     1.0000   1.0000   1.0000   1.0000   1.0000   1.0000   1.0000   1.0000
     1.0000   1.0000   1.0000   1.0000   1.0000   1.0000   1.0000   1.0000
     1.0000   1.0000   1.0000   1.0000   1.0000   1.0000   1.0000   1.0000
     1.0000   1.0000   1.0000   1.0000   1.0000   1.0000   1.0000   1.0000
     1.0000   1.0000   1.0000   1.0000   1.0000   1.0000   1.0000   1.0000
     1.0000   1.0000   1.0000   1.0000   1.0000   1.0000   1.0000   1.0000
     1.0000   1.0000   1.0000   1.0000   1.0000   1.0000   1.0000   1.0000
     1.0000   1.0000   1.0000   1.0000   1.0000   1.0000   1.0000   1.0000
     1.0000   1.0000   1.0000   1.0000   1.0000   1.0000   1.0000   1.0000
     1.0000   1.0000   1.0000   1.0000   1.0000   1.0000   1.0000   1.0000
     1.0000   1.0000   1.0000   1.0000   1.0000   1.0000   1.0000   1.0000
     1.0000   1.0000   1.0000   1.0000   1.0000   1.0000   1.0000   1.0000
     1.0000   1.0000   1.0000   1.0000   1.0000   1.0000   1.0000   1.0000
     1.0000   1.0000   1.0000   1.0000   1.0000   1.0000   1.0000   1.0000
     1.0000   1.0000   1.0000   1.0000   1.0000   1.0000   1.0000   1.0000
     1.0000   1.0000   1.0000   1.0000   1.0000   1.0000   1.0000   1.0000
     1.0000   1.0000   1.0000   1.0000   1.0000   1.0000   1.0000   1.0000
     1.0000   1.0000   1.0000   1.0000   1.0000   1.0000   1.0000   1.0000
     0.0000   0.0000   0.0000   0.0000   0.0000   0.0000   0.0000   0.0000
     0.0000   0.0000   0.0000   0.0000   0.0000   0.0000   0.0000   0.0000
     0.0000   0.0000   0.0000   0.0000   0.0000   0.0000   0.0000   0.0000
     0.0000   0.0000   0.0000   0.0000   0.0000   0.0000   0.0000   0.0000
     0.0000   0.0000   0.0000   0.0000   0.0000   0.0000   0.0000   0.0000
     0.0000   0.0000   0.0000   0.0000   0.0000   0.0000   0.0000   0.0000
     0.0000   0.0000   0.0000   0.0000   0.0000   0.0000   0.0000   0.0000
     0.0000   0.0000   0.0000   0.0000   0.0000   0.0000   0.0000   0.0000
     0.0000   0.0000   0.0000   0.0000   0.0000   0.0000   0.0000   0.0000
     0.0000   0.0000   0.0000   0.0000   0.0000   0.0000   0.0000   0.0000
     0.0000   0.0000   0.0000   0.0000   0.0000   0.0000   0.0000   0.0000
     0.0000   0.0000   0.0000   0.0000   0.0000   0.0000   0.0000   0.0000
     0.0000   0.0000   0.0000   0.0000   0.0000   0.0000

          k =-0.3536-0.3536 0.3536 ( 34640 PWs)   bands (ev):

   -64.4380 -64.4164 -64.3962 -64.3755 -64.3660 -64.3645 -64.3459 -64.3444
   -64.3439 -64.3421 -64.3404 -64.3374 -64.3246 -64.3223 -64.3222 -64.3146
   -64.3142 -64.3102 -64.3012 -64.3001 -64.2921 -64.2882 -64.2859 -64.2812
   -64.2791 -64.2744 -64.2711 -64.2689 -64.2636 -64.2614 -64.2573 -64.2525
   -64.2470 -64.2450 -64.2439 -64.2399 -64.2395 -64.2387 -64.2366 -64.2355
   -64.2319 -64.2303 -64.2281 -64.2272 -64.2224 -64.2211 -64.2205 -64.2086
   -64.2061 -64.2026 -64.1991 -64.1918 -64.1903 -64.1811 -64.1751 -64.1689
   -64.1472 -64.1418 -64.1231 -64.1091 -64.1082 -64.0837 -64.0834 -63.9791
   -31.4289 -31.4246 -31.4194 -31.4053 -31.4024 -31.4001 -31.3876 -31.3829
   -31.3761 -31.3707 -31.3674 -31.3612 -31.3589 -31.3557 -31.3539 -31.3503
   -31.3489 -31.3439 -31.3404 -31.3395 -31.3381 -31.3342 -31.3329 -31.3316
   -31.3295 -31.3289 -31.3274 -31.3263 -31.3246 -31.3229 -31.3228 -31.3218
   -31.3208 -31.3202 -31.3167 -31.3145 -31.3138 -31.3130 -31.3122 -31.3101
   -31.3095 -31.3080 -31.3073 -31.3040 -31.3032 -31.3019 -31.3016 -31.3006
   -31.3001 -31.2990 -31.2980 -31.2952 -31.2943 -31.2937 -31.2924 -31.2895
   -31.2879 -31.2853 -31.2826 -31.2811 -31.2794 -31.2784 -31.2765 -31.2759
   -31.2753 -31.2740 -31.2731 -31.2724 -31.2714 -31.2685 -31.2669 -31.2634
   -31.2622 -31.2610 -31.2593 -31.2586 -31.2568 -31.2553 -31.2538 -31.2532
   -31.2517 -31.2514 -31.2499 -31.2491 -31.2479 -31.2459 -31.2453 -31.2447
   -31.2435 -31.2430 -31.2424 -31.2413 -31.2401 -31.2387 -31.2379 -31.2361
   -31.2350 -31.2330 -31.2320 -31.2310 -31.2291 -31.2288 -31.2274 -31.2259
   -31.2243 -31.2238 -31.2235 -31.2225 -31.2220 -31.2208 -31.2197 -31.2184
   -31.2171 -31.2169 -31.2163 -31.2157 -31.2155 -31.2147 -31.2142 -31.2136
   -31.2130 -31.2125 -31.2115 -31.2108 -31.2103 -31.2100 -31.2091 -31.2076
   -31.2068 -31.2049 -31.2043 -31.2028 -31.2027 -31.2014 -31.2008 -31.1974
   -31.1967 -31.1952 -31.1949 -31.1944 -31.1936 -31.1930 -31.1916 -31.1903
   -31.1894 -31.1846 -31.1843 -31.1827 -31.1808 -31.1801 -31.1781 -31.1767
   -31.1761 -31.1735 -31.1712 -31.1696 -31.1685 -31.1677 -31.1672 -31.1634
   -31.1625 -31.1617 -31.1551 -31.1520 -31.1490 -31.1471 -31.1443 -31.1425
   -31.1348 -31.1291 -31.1264 -31.1230 -31.1206 -31.1130 -31.1102 -31.1048
   -31.1009 -31.0939 -31.0922 -31.0908 -31.0892 -31.0872 -31.0860 -31.0696
   -31.0683 -31.0650 -31.0645 -31.0582 -31.0566 -30.9643 -30.9605 -30.9590
    -9.3522  -9.3197  -8.9790  -8.9659  -8.9442  -8.9327  -8.9240  -8.8998
    -8.6605  -8.6426  -8.6277  -8.6126  -8.6104  -8.5683  -8.4376  -8.4296
    -8.4107  -8.3964  -8.3891  -8.3708  -8.3486  -8.3335  -8.2800  -8.2551
    -8.2527  -8.2387  -8.2179  -8.2065  -8.2012  -8.1943  -8.1834  -8.1687
    -8.1582  -8.1563  -8.1462  -8.1355  -8.1177  -8.1034  -8.1018  -8.0680
    -8.0559  -8.0308  -8.0284  -8.0167  -8.0065  -7.9957  -7.9804  -7.9639
    -7.9574  -7.9526  -7.9436  -7.9350  -7.9292  -7.9166  -7.9116  -7.9075
    -7.8940  -7.8744  -7.8665  -7.8572  -7.8485  -7.8195  -7.7923  -7.7874
     3.2296   3.2356   3.2437   3.2651   3.2724   3.2801   3.5184   3.5495
     3.7082   3.7181   3.7245   3.7443   3.7482   3.7589   3.8209   3.8401
     3.8510   3.8592   3.8677   3.8710   3.8757   3.8800   3.8872   3.8940
     3.9038   3.9079   3.9112   3.9240   3.9261   3.9381   3.9415   3.9566
     4.0902   4.0963   4.1024   4.1092   4.1126   4.1169   4.1216   4.1274
     4.1395   4.1420   4.1471   4.1572   4.2272   4.2485   4.2521   4.2639
     4.2696   4.2879   4.4308   4.4348   4.4465   4.4504   4.4550   4.4690
     5.1013   5.1062   5.1129   5.1170   5.1244   5.1287   5.1384   5.1436
     5.1599   5.1609   5.1636   5.1714   5.2377   5.2436   5.2537   5.2668
     5.2680   5.2849   5.3462   5.3482   5.3568   5.3695   5.3754   5.3904
     5.8449   5.8544   5.8694   5.8712   5.8782   5.8832   5.8878   5.8947
     5.9004   5.9053   5.9092   5.9181   5.9212   5.9317   5.9353   5.9409
     5.9469   5.9613   6.2153   6.2221   6.2292   6.2331   6.2390   6.2453
     6.2538   6.2591   6.2668   6.2793   6.2858   6.2910   6.3657   6.3671
     6.3682   6.3869   6.4049   6.4095   6.4156   6.4319   6.4338   6.4411
     6.4515   6.4535   6.4669   6.4727   6.4824   6.4976   6.5109   6.5223
     6.6079   6.6165   6.6317   6.6383   6.6444   6.6522   6.6595   6.6636
     6.6703   6.6763   6.6812   6.6906   6.7032   6.7094   6.7240   6.7364
     6.7397   6.7445   6.7471   6.7581   6.7686   6.7728   6.7762   6.7796
     6.7859   6.7864   6.7936   6.7943   6.8135   6.8259   6.8393   6.8548
     6.8724   6.8729   6.8799   6.9100   6.9132   6.9193   7.0596   7.0642
     7.0809   7.0967   7.1284   7.1341   7.1413   7.1488   7.1511   7.1603
     7.1668   7.1791   7.1845   7.1924   7.1998   7.2291   7.2310   7.2368
     7.2546   7.2631   7.2769   7.2947   7.5373   7.5419   7.5744   7.5780
    13.1586  13.1812  14.7031  14.7135  14.7251  14.7704  14.7851  14.8258
    15.2734  15.2970  15.5087  15.5159  15.5426  15.5816  15.5958  15.6032
    16.0182  16.0449  16.0472  16.0689  16.0794  16.0964  16.6018  16.6167
    16.6520  16.6938  16.7222  16.7269  16.8887  16.8989  16.9313  16.9385
    16.9688  16.9751  16.9845  17.0009  17.0136  17.0166  17.0309  17.0434
    17.0604  17.0765  17.0899  17.1027  17.1041  17.1334  17.3643  17.3794
    17.4060  17.4463  17.4582  17.5096  17.8947  17.9055  17.9421  17.9477
    17.9533  17.9622  17.9972  18.0028  18.0177  18.0203  18.0405  18.0513
    18.0680  18.0895  18.0964  18.1042  18.1062  18.1219  18.1350  18.1448
    18.1486  18.1756  18.2039  18.2408  18.9884  19.0245  19.0574  19.0723
    19.0750  19.0976  19.1049  19.1125  19.1184  19.1335  19.1507  19.1684
    19.1821  19.1892  19.2060  19.2231  19.2248  19.2396  19.2534  19.2646
    19.2715  19.2870  19.2960  19.3243  19.4895  19.5165

     occupation numbers 
     1.0000   1.0000   1.0000   1.0000   1.0000   1.0000   1.0000   1.0000
     1.0000   1.0000   1.0000   1.0000   1.0000   1.0000   1.0000   1.0000
     1.0000   1.0000   1.0000   1.0000   1.0000   1.0000   1.0000   1.0000
     1.0000   1.0000   1.0000   1.0000   1.0000   1.0000   1.0000   1.0000
     1.0000   1.0000   1.0000   1.0000   1.0000   1.0000   1.0000   1.0000
     1.0000   1.0000   1.0000   1.0000   1.0000   1.0000   1.0000   1.0000
     1.0000   1.0000   1.0000   1.0000   1.0000   1.0000   1.0000   1.0000
     1.0000   1.0000   1.0000   1.0000   1.0000   1.0000   1.0000   1.0000
     1.0000   1.0000   1.0000   1.0000   1.0000   1.0000   1.0000   1.0000
     1.0000   1.0000   1.0000   1.0000   1.0000   1.0000   1.0000   1.0000
     1.0000   1.0000   1.0000   1.0000   1.0000   1.0000   1.0000   1.0000
     1.0000   1.0000   1.0000   1.0000   1.0000   1.0000   1.0000   1.0000
     1.0000   1.0000   1.0000   1.0000   1.0000   1.0000   1.0000   1.0000
     1.0000   1.0000   1.0000   1.0000   1.0000   1.0000   1.0000   1.0000
     1.0000   1.0000   1.0000   1.0000   1.0000   1.0000   1.0000   1.0000
     1.0000   1.0000   1.0000   1.0000   1.0000   1.0000   1.0000   1.0000
     1.0000   1.0000   1.0000   1.0000   1.0000   1.0000   1.0000   1.0000
     1.0000   1.0000   1.0000   1.0000   1.0000   1.0000   1.0000   1.0000
     1.0000   1.0000   1.0000   1.0000   1.0000   1.0000   1.0000   1.0000
     1.0000   1.0000   1.0000   1.0000   1.0000   1.0000   1.0000   1.0000
     1.0000   1.0000   1.0000   1.0000   1.0000   1.0000   1.0000   1.0000
     1.0000   1.0000   1.0000   1.0000   1.0000   1.0000   1.0000   1.0000
     1.0000   1.0000   1.0000   1.0000   1.0000   1.0000   1.0000   1.0000
     1.0000   1.0000   1.0000   1.0000   1.0000   1.0000   1.0000   1.0000
     1.0000   1.0000   1.0000   1.0000   1.0000   1.0000   1.0000   1.0000
     1.0000   1.0000   1.0000   1.0000   1.0000   1.0000   1.0000   1.0000
     1.0000   1.0000   1.0000   1.0000   1.0000   1.0000   1.0000   1.0000
     1.0000   1.0000   1.0000   1.0000   1.0000   1.0000   1.0000   1.0000
     1.0000   1.0000   1.0000   1.0000   1.0000   1.0000   1.0000   1.0000
     1.0000   1.0000   1.0000   1.0000   1.0000   1.0000   1.0000   1.0000
     1.0000   1.0000   1.0000   1.0000   1.0000   1.0000   1.0000   1.0000
     1.0000   1.0000   1.0000   1.0000   1.0000   1.0000   1.0000   1.0000
     1.0000   1.0000   1.0000   1.0000   1.0000   1.0000   1.0000   1.0000
     1.0000   1.0000   1.0000   1.0000   1.0000   1.0000   1.0000   1.0000
     1.0000   1.0000   1.0000   1.0000   1.0000   1.0000   1.0000   1.0000
     1.0000   1.0000   1.0000   1.0000   1.0000   1.0000   1.0000   1.0000
     1.0000   1.0000   1.0000   1.0000   1.0000   1.0000   1.0000   1.0000
     1.0000   1.0000   1.0000   1.0000   1.0000   1.0000   1.0000   1.0000
     1.0000   1.0000   1.0000   1.0000   1.0000   1.0000   1.0000   1.0000
     1.0000   1.0000   1.0000   1.0000   1.0000   1.0000   1.0000   1.0000
     1.0000   1.0000   1.0000   1.0000   1.0000   1.0000   1.0000   1.0000
     1.0000   1.0000   1.0000   1.0000   1.0000   1.0000   1.0000   1.0000
     1.0000   1.0000   1.0000   1.0000   1.0000   1.0000   1.0000   1.0000
     1.0000   1.0000   1.0000   1.0000   1.0000   1.0000   1.0000   1.0000
     1.0000   1.0000   1.0000   1.0000   1.0000   1.0000   1.0000   1.0000
     1.0000   1.0000   1.0000   1.0000   1.0000   1.0000   1.0000   1.0000
     1.0000   1.0000   1.0000   1.0000   1.0000   1.0000   1.0000   1.0000
     1.0000   1.0000   1.0000   1.0000   1.0000   1.0000   1.0000   1.0000
     1.0000   1.0000   1.0000   1.0000   1.0000   1.0000   1.0000   1.0000
     1.0000   1.0000   1.0000   1.0000   1.0000   1.0000   1.0000   1.0000
     1.0000   1.0000   1.0000   1.0000   1.0000   1.0000   1.0000   1.0000
     1.0000   1.0000   1.0000   1.0000   1.0000   1.0000   1.0000   1.0000
     1.0000   1.0000   1.0000   1.0000   1.0000   1.0000   1.0000   1.0000
     1.0000   1.0000   1.0000   1.0000   1.0000   1.0000   1.0000   1.0000
     1.0000   1.0000   1.0000   1.0000   1.0000   1.0000   1.0000   1.0000
     1.0000   1.0000   1.0000   1.0000   1.0000   1.0000   1.0000   1.0000
     1.0000   1.0000   1.0000   1.0000   1.0000   1.0000   1.0000   1.0000
     1.0000   1.0000   1.0000   1.0000   1.0000   1.0000   1.0000   1.0000
     1.0000   1.0000   1.0000   1.0000   1.0000   1.0000   1.0000   1.0000
     1.0000   1.0000   1.0000   1.0000   1.0000   1.0000   1.0000   1.0000
     1.0000   1.0000   1.0000   1.0000   1.0000   1.0000   1.0000   1.0000
     1.0000   1.0000   1.0000   1.0000   1.0000   1.0000   1.0000   1.0000
     1.0000   1.0000   1.0000   1.0000   1.0000   1.0000   1.0000   1.0000
     1.0000   1.0000   1.0000   1.0000   1.0000   1.0000   1.0000   1.0000
     0.0000   0.0000   0.0000   0.0000   0.0000   0.0000   0.0000   0.0000
     0.0000   0.0000   0.0000   0.0000   0.0000   0.0000   0.0000   0.0000
     0.0000   0.0000   0.0000   0.0000   0.0000   0.0000   0.0000   0.0000
     0.0000   0.0000   0.0000   0.0000   0.0000   0.0000   0.0000   0.0000
     0.0000   0.0000   0.0000   0.0000   0.0000   0.0000   0.0000   0.0000
     0.0000   0.0000   0.0000   0.0000   0.0000   0.0000   0.0000   0.0000
     0.0000   0.0000   0.0000   0.0000   0.0000   0.0000   0.0000   0.0000
     0.0000   0.0000   0.0000   0.0000   0.0000   0.0000   0.0000   0.0000
     0.0000   0.0000   0.0000   0.0000   0.0000   0.0000   0.0000   0.0000
     0.0000   0.0000   0.0000   0.0000   0.0000   0.0000   0.0000   0.0000
     0.0000   0.0000   0.0000   0.0000   0.0000   0.0000   0.0000   0.0000
     0.0000   0.0000   0.0000   0.0000   0.0000   0.0000   0.0000   0.0000
     0.0000   0.0000   0.0000   0.0000   0.0000   0.0000

          k =-0.7071 0.0000 0.0000 ( 34708 PWs)   bands (ev):

   -64.4380 -64.4164 -64.3962 -64.3755 -64.3660 -64.3645 -64.3459 -64.3444
   -64.3439 -64.3421 -64.3404 -64.3374 -64.3246 -64.3223 -64.3222 -64.3146
   -64.3142 -64.3102 -64.3012 -64.3001 -64.2921 -64.2882 -64.2859 -64.2812
   -64.2791 -64.2744 -64.2711 -64.2689 -64.2636 -64.2614 -64.2573 -64.2525
   -64.2470 -64.2450 -64.2439 -64.2399 -64.2395 -64.2387 -64.2366 -64.2355
   -64.2319 -64.2303 -64.2281 -64.2272 -64.2224 -64.2211 -64.2205 -64.2086
   -64.2061 -64.2026 -64.1991 -64.1918 -64.1903 -64.1811 -64.1751 -64.1689
   -64.1472 -64.1418 -64.1231 -64.1091 -64.1082 -64.0837 -64.0834 -63.9791
   -31.4289 -31.4247 -31.4194 -31.4053 -31.4024 -31.4001 -31.3875 -31.3828
   -31.3758 -31.3706 -31.3673 -31.3611 -31.3591 -31.3560 -31.3540 -31.3504
   -31.3488 -31.3442 -31.3403 -31.3393 -31.3383 -31.3342 -31.3330 -31.3314
   -31.3296 -31.3290 -31.3275 -31.3261 -31.3245 -31.3229 -31.3226 -31.3217
   -31.3213 -31.3199 -31.3166 -31.3143 -31.3138 -31.3131 -31.3127 -31.3097
   -31.3081 -31.3076 -31.3073 -31.3032 -31.3028 -31.3020 -31.3018 -31.3014
   -31.3006 -31.2991 -31.2980 -31.2971 -31.2945 -31.2935 -31.2929 -31.2899
   -31.2880 -31.2852 -31.2829 -31.2805 -31.2796 -31.2781 -31.2768 -31.2758
   -31.2751 -31.2737 -31.2731 -31.2724 -31.2713 -31.2680 -31.2654 -31.2645
   -31.2621 -31.2609 -31.2596 -31.2589 -31.2574 -31.2557 -31.2541 -31.2530
   -31.2521 -31.2508 -31.2501 -31.2495 -31.2481 -31.2462 -31.2453 -31.2449
   -31.2439 -31.2435 -31.2416 -31.2406 -31.2398 -31.2387 -31.2382 -31.2365
   -31.2344 -31.2321 -31.2315 -31.2305 -31.2291 -31.2284 -31.2268 -31.2256
   -31.2243 -31.2237 -31.2230 -31.2229 -31.2215 -31.2208 -31.2195 -31.2191
   -31.2187 -31.2172 -31.2159 -31.2156 -31.2154 -31.2147 -31.2144 -31.2141
   -31.2136 -31.2121 -31.2116 -31.2108 -31.2106 -31.2094 -31.2092 -31.2072
   -31.2067 -31.2055 -31.2048 -31.2031 -31.2025 -31.2015 -31.2008 -31.1968
   -31.1962 -31.1952 -31.1947 -31.1940 -31.1931 -31.1928 -31.1917 -31.1911
   -31.1887 -31.1848 -31.1845 -31.1829 -31.1808 -31.1801 -31.1785 -31.1767
   -31.1762 -31.1732 -31.1713 -31.1695 -31.1685 -31.1678 -31.1669 -31.1635
   -31.1624 -31.1617 -31.1553 -31.1520 -31.1491 -31.1471 -31.1443 -31.1426
   -31.1350 -31.1293 -31.1264 -31.1230 -31.1206 -31.1130 -31.1102 -31.1048
   -31.1009 -31.0939 -31.0921 -31.0907 -31.0892 -31.0872 -31.0859 -31.0696
   -31.0683 -31.0650 -31.0645 -31.0583 -31.0566 -30.9643 -30.9605 -30.9590
    -9.3085  -9.2582  -9.1060  -9.0871  -9.0706  -9.0421  -8.6407  -8.6378
    -8.6146  -8.6136  -8.6085  -8.5679  -8.5557  -8.5287  -8.4941  -8.4809
    -8.4776  -8.4741  -8.4579  -8.4418  -8.4267  -8.4157  -8.2636  -8.2589
    -8.2537  -8.2416  -8.2232  -8.2104  -8.1973  -8.1813  -8.1697  -8.1527
    -8.1454  -8.1352  -8.1236  -8.1085  -8.0952  -8.0909  -8.0770  -8.0676
    -8.0511  -8.0418  -8.0244  -8.0155  -7.9998  -7.9891  -7.9838  -7.9776
    -7.9678  -7.9670  -7.9592  -7.9372  -7.9324  -7.9223  -7.9123  -7.9000
    -7.8967  -7.8788  -7.8724  -7.8520  -7.8344  -7.8263  -7.7857  -7.7814
     3.3888   3.3928   3.4019   3.4045   3.4436   3.4463   3.4536   3.4620
     3.5934   3.5965   3.5988   3.6019   3.6100   3.6184   3.6241   3.6301
     3.8055   3.8141   3.8631   3.8656   3.8702   3.9054   3.9386   3.9417
     3.9470   3.9673   3.9688   3.9791   3.9901   3.9939   4.0035   4.0071
     4.0208   4.0254   4.0327   4.0418   4.0461   4.0548   4.1056   4.1291
     4.1488   4.1705   4.2136   4.2234   4.2361   4.2432   4.2470   4.2605
     4.2673   4.2860   4.5804   4.5888   4.5994   4.6008   4.6163   4.6175
     4.6210   4.6360   4.8710   4.8844   4.8944   4.9129   4.9154   4.9188
     4.9337   4.9391   4.9514   4.9676   4.9745   4.9824   5.6573   5.6647
     5.6721   5.6790   5.6843   5.6904   5.6951   5.6984   5.7123   5.7224
     5.7483   5.7589   5.7632   5.7687   5.7872   5.7885   5.8857   5.8986
     5.9076   5.9223   5.9311   5.9517   5.9650   5.9796   6.0413   6.0430
     6.0984   6.1195   6.3304   6.3369   6.3438   6.3561   6.3599   6.3694
     6.3699   6.3745   6.3749   6.3932   6.3956   6.4025   6.4094   6.4151
     6.4196   6.4263   6.4272   6.4307   6.4340   6.4399   6.4430   6.4515
     6.4520   6.4567   6.4677   6.4726   6.4772   6.4812   6.4880   6.4949
     6.4980   6.5058   6.5097   6.5171   6.5229   6.5302   6.5343   6.5420
     6.5475   6.5525   6.5745   6.6130   6.6383   6.6482   6.6574   6.6624
     6.6668   6.6726   6.6912   6.6977   6.7726   6.7745   6.7812   6.7896
     6.7925   6.8016   6.8152   6.8162   6.9061   6.9146   6.9216   6.9353
     6.9436   6.9487   6.9609   6.9633   6.9758   6.9833   6.9900   6.9947
     7.0007   7.0082   7.0231   7.0272   7.0304   7.0379   7.0438   7.0513
     7.0640   7.0707   7.0716   7.0805   7.1152   7.1394   7.1676   7.1795
     7.3866   7.3917   7.4315   7.4413   7.4800   7.4818   7.4949   7.5006
    13.4391  13.4954  14.2140  14.2271  14.2515  14.2867  15.7424  15.7550
    15.7658  15.7681  15.7860  15.7927  15.7996  15.8319  15.9304  15.9390
    15.9588  15.9858  15.9942  16.0108  16.0242  16.0286  16.0393  16.0545
    16.0631  16.0777  16.1018  16.1164  16.1261  16.1636  17.0481  17.0703
    17.1125  17.1198  17.1311  17.1398  17.1442  17.1593  17.1679  17.1784
    17.2148  17.2293  17.4194  17.4324  17.4941  17.5049  17.5344  17.5482
    17.5839  17.6067  17.7191  17.7390  17.7508  17.7578  17.7806  17.7992
    17.7994  17.8234  17.8274  17.8372  17.8519  17.8636  17.8888  17.9093
    17.9170  17.9374  18.1631  18.1926  18.2147  18.2244  18.2520  18.2645
    18.2773  18.2977  18.3359  18.3686  18.3842  18.4525  18.8848  18.8931
    18.9105  18.9322  18.9577  18.9619  18.9726  19.0083  19.1172  19.1257
    19.1678  19.1785  19.1929  19.2183  19.2306  19.2414  19.2533  19.2801
    19.2871  19.3059  19.3764  19.3870  19.3960  19.4088

     occupation numbers 
     1.0000   1.0000   1.0000   1.0000   1.0000   1.0000   1.0000   1.0000
     1.0000   1.0000   1.0000   1.0000   1.0000   1.0000   1.0000   1.0000
     1.0000   1.0000   1.0000   1.0000   1.0000   1.0000   1.0000   1.0000
     1.0000   1.0000   1.0000   1.0000   1.0000   1.0000   1.0000   1.0000
     1.0000   1.0000   1.0000   1.0000   1.0000   1.0000   1.0000   1.0000
     1.0000   1.0000   1.0000   1.0000   1.0000   1.0000   1.0000   1.0000
     1.0000   1.0000   1.0000   1.0000   1.0000   1.0000   1.0000   1.0000
     1.0000   1.0000   1.0000   1.0000   1.0000   1.0000   1.0000   1.0000
     1.0000   1.0000   1.0000   1.0000   1.0000   1.0000   1.0000   1.0000
     1.0000   1.0000   1.0000   1.0000   1.0000   1.0000   1.0000   1.0000
     1.0000   1.0000   1.0000   1.0000   1.0000   1.0000   1.0000   1.0000
     1.0000   1.0000   1.0000   1.0000   1.0000   1.0000   1.0000   1.0000
     1.0000   1.0000   1.0000   1.0000   1.0000   1.0000   1.0000   1.0000
     1.0000   1.0000   1.0000   1.0000   1.0000   1.0000   1.0000   1.0000
     1.0000   1.0000   1.0000   1.0000   1.0000   1.0000   1.0000   1.0000
     1.0000   1.0000   1.0000   1.0000   1.0000   1.0000   1.0000   1.0000
     1.0000   1.0000   1.0000   1.0000   1.0000   1.0000   1.0000   1.0000
     1.0000   1.0000   1.0000   1.0000   1.0000   1.0000   1.0000   1.0000
     1.0000   1.0000   1.0000   1.0000   1.0000   1.0000   1.0000   1.0000
     1.0000   1.0000   1.0000   1.0000   1.0000   1.0000   1.0000   1.0000
     1.0000   1.0000   1.0000   1.0000   1.0000   1.0000   1.0000   1.0000
     1.0000   1.0000   1.0000   1.0000   1.0000   1.0000   1.0000   1.0000
     1.0000   1.0000   1.0000   1.0000   1.0000   1.0000   1.0000   1.0000
     1.0000   1.0000   1.0000   1.0000   1.0000   1.0000   1.0000   1.0000
     1.0000   1.0000   1.0000   1.0000   1.0000   1.0000   1.0000   1.0000
     1.0000   1.0000   1.0000   1.0000   1.0000   1.0000   1.0000   1.0000
     1.0000   1.0000   1.0000   1.0000   1.0000   1.0000   1.0000   1.0000
     1.0000   1.0000   1.0000   1.0000   1.0000   1.0000   1.0000   1.0000
     1.0000   1.0000   1.0000   1.0000   1.0000   1.0000   1.0000   1.0000
     1.0000   1.0000   1.0000   1.0000   1.0000   1.0000   1.0000   1.0000
     1.0000   1.0000   1.0000   1.0000   1.0000   1.0000   1.0000   1.0000
     1.0000   1.0000   1.0000   1.0000   1.0000   1.0000   1.0000   1.0000
     1.0000   1.0000   1.0000   1.0000   1.0000   1.0000   1.0000   1.0000
     1.0000   1.0000   1.0000   1.0000   1.0000   1.0000   1.0000   1.0000
     1.0000   1.0000   1.0000   1.0000   1.0000   1.0000   1.0000   1.0000
     1.0000   1.0000   1.0000   1.0000   1.0000   1.0000   1.0000   1.0000
     1.0000   1.0000   1.0000   1.0000   1.0000   1.0000   1.0000   1.0000
     1.0000   1.0000   1.0000   1.0000   1.0000   1.0000   1.0000   1.0000
     1.0000   1.0000   1.0000   1.0000   1.0000   1.0000   1.0000   1.0000
     1.0000   1.0000   1.0000   1.0000   1.0000   1.0000   1.0000   1.0000
     1.0000   1.0000   1.0000   1.0000   1.0000   1.0000   1.0000   1.0000
     1.0000   1.0000   1.0000   1.0000   1.0000   1.0000   1.0000   1.0000
     1.0000   1.0000   1.0000   1.0000   1.0000   1.0000   1.0000   1.0000
     1.0000   1.0000   1.0000   1.0000   1.0000   1.0000   1.0000   1.0000
     1.0000   1.0000   1.0000   1.0000   1.0000   1.0000   1.0000   1.0000
     1.0000   1.0000   1.0000   1.0000   1.0000   1.0000   1.0000   1.0000
     1.0000   1.0000   1.0000   1.0000   1.0000   1.0000   1.0000   1.0000
     1.0000   1.0000   1.0000   1.0000   1.0000   1.0000   1.0000   1.0000
     1.0000   1.0000   1.0000   1.0000   1.0000   1.0000   1.0000   1.0000
     1.0000   1.0000   1.0000   1.0000   1.0000   1.0000   1.0000   1.0000
     1.0000   1.0000   1.0000   1.0000   1.0000   1.0000   1.0000   1.0000
     1.0000   1.0000   1.0000   1.0000   1.0000   1.0000   1.0000   1.0000
     1.0000   1.0000   1.0000   1.0000   1.0000   1.0000   1.0000   1.0000
     1.0000   1.0000   1.0000   1.0000   1.0000   1.0000   1.0000   1.0000
     1.0000   1.0000   1.0000   1.0000   1.0000   1.0000   1.0000   1.0000
     1.0000   1.0000   1.0000   1.0000   1.0000   1.0000   1.0000   1.0000
     1.0000   1.0000   1.0000   1.0000   1.0000   1.0000   1.0000   1.0000
     1.0000   1.0000   1.0000   1.0000   1.0000   1.0000   1.0000   1.0000
     1.0000   1.0000   1.0000   1.0000   1.0000   1.0000   1.0000   1.0000
     1.0000   1.0000   1.0000   1.0000   1.0000   1.0000   1.0000   1.0000
     1.0000   1.0000   1.0000   1.0000   1.0000   1.0000   1.0000   1.0000
     1.0000   1.0000   1.0000   1.0000   1.0000   1.0000   1.0000   1.0000
     1.0000   1.0000   1.0000   1.0000   1.0000   1.0000   1.0000   1.0000
     1.0000   1.0000   1.0000   1.0000   1.0000   1.0000   1.0000   1.0000
     0.0000   0.0000   0.0000   0.0000   0.0000   0.0000   0.0000   0.0000
     0.0000   0.0000   0.0000   0.0000   0.0000   0.0000   0.0000   0.0000
     0.0000   0.0000   0.0000   0.0000   0.0000   0.0000   0.0000   0.0000
     0.0000   0.0000   0.0000   0.0000   0.0000   0.0000   0.0000   0.0000
     0.0000   0.0000   0.0000   0.0000   0.0000   0.0000   0.0000   0.0000
     0.0000   0.0000   0.0000   0.0000   0.0000   0.0000   0.0000   0.0000
     0.0000   0.0000   0.0000   0.0000   0.0000   0.0000   0.0000   0.0000
     0.0000   0.0000   0.0000   0.0000   0.0000   0.0000   0.0000   0.0000
     0.0000   0.0000   0.0000   0.0000   0.0000   0.0000   0.0000   0.0000
     0.0000   0.0000   0.0000   0.0000   0.0000   0.0000   0.0000   0.0000
     0.0000   0.0000   0.0000   0.0000   0.0000   0.0000   0.0000   0.0000
     0.0000   0.0000   0.0000   0.0000   0.0000   0.0000   0.0000   0.0000
     0.0000   0.0000   0.0000   0.0000   0.0000   0.0000

          k = 0.3536 0.3536 0.3536 ( 34640 PWs)   bands (ev):

   -64.4380 -64.4164 -64.3962 -64.3755 -64.3660 -64.3645 -64.3459 -64.3444
   -64.3439 -64.3421 -64.3404 -64.3374 -64.3246 -64.3223 -64.3222 -64.3146
   -64.3142 -64.3102 -64.3012 -64.3001 -64.2921 -64.2882 -64.2859 -64.2812
   -64.2791 -64.2744 -64.2711 -64.2689 -64.2636 -64.2614 -64.2573 -64.2525
   -64.2470 -64.2450 -64.2439 -64.2399 -64.2395 -64.2387 -64.2366 -64.2355
   -64.2319 -64.2303 -64.2281 -64.2272 -64.2224 -64.2211 -64.2205 -64.2086
   -64.2061 -64.2026 -64.1991 -64.1918 -64.1903 -64.1811 -64.1751 -64.1689
   -64.1472 -64.1418 -64.1231 -64.1091 -64.1082 -64.0837 -64.0834 -63.9791
   -31.4288 -31.4247 -31.4194 -31.4054 -31.4025 -31.4005 -31.3875 -31.3829
   -31.3760 -31.3705 -31.3674 -31.3611 -31.3592 -31.3558 -31.3540 -31.3507
   -31.3489 -31.3443 -31.3403 -31.3392 -31.3386 -31.3339 -31.3330 -31.3312
   -31.3291 -31.3289 -31.3276 -31.3261 -31.3245 -31.3229 -31.3226 -31.3216
   -31.3200 -31.3179 -31.3167 -31.3143 -31.3138 -31.3132 -31.3129 -31.3094
   -31.3082 -31.3077 -31.3071 -31.3033 -31.3031 -31.3023 -31.3020 -31.3015
   -31.3005 -31.2990 -31.2980 -31.2974 -31.2969 -31.2945 -31.2927 -31.2903
   -31.2880 -31.2854 -31.2829 -31.2807 -31.2793 -31.2783 -31.2764 -31.2755
   -31.2752 -31.2737 -31.2731 -31.2725 -31.2718 -31.2680 -31.2653 -31.2634
   -31.2633 -31.2614 -31.2596 -31.2588 -31.2576 -31.2550 -31.2544 -31.2532
   -31.2518 -31.2510 -31.2502 -31.2487 -31.2484 -31.2460 -31.2454 -31.2451
   -31.2438 -31.2423 -31.2417 -31.2404 -31.2387 -31.2382 -31.2368 -31.2362
   -31.2351 -31.2319 -31.2313 -31.2311 -31.2293 -31.2282 -31.2266 -31.2253
   -31.2242 -31.2239 -31.2232 -31.2223 -31.2221 -31.2204 -31.2197 -31.2193
   -31.2182 -31.2168 -31.2164 -31.2161 -31.2155 -31.2153 -31.2147 -31.2138
   -31.2134 -31.2131 -31.2121 -31.2110 -31.2104 -31.2101 -31.2095 -31.2077
   -31.2064 -31.2049 -31.2047 -31.2037 -31.2029 -31.2014 -31.2007 -31.1965
   -31.1965 -31.1949 -31.1947 -31.1944 -31.1931 -31.1928 -31.1918 -31.1913
   -31.1886 -31.1849 -31.1841 -31.1829 -31.1806 -31.1801 -31.1784 -31.1765
   -31.1762 -31.1732 -31.1713 -31.1695 -31.1686 -31.1681 -31.1668 -31.1636
   -31.1624 -31.1617 -31.1552 -31.1520 -31.1487 -31.1470 -31.1442 -31.1425
   -31.1351 -31.1293 -31.1264 -31.1231 -31.1206 -31.1128 -31.1102 -31.1048
   -31.1011 -31.0939 -31.0920 -31.0907 -31.0892 -31.0872 -31.0859 -31.0696
   -31.0683 -31.0650 -31.0645 -31.0582 -31.0566 -30.9643 -30.9605 -30.9590
    -9.3494  -9.3230  -8.9800  -8.9584  -8.9557  -8.9351  -8.9148  -8.8989
    -8.6615  -8.6363  -8.6316  -8.6211  -8.5964  -8.5844  -8.4483  -8.4194
    -8.4089  -8.3908  -8.3753  -8.3682  -8.3497  -8.3479  -8.2726  -8.2589
    -8.2453  -8.2381  -8.2262  -8.2204  -8.1944  -8.1886  -8.1836  -8.1727
    -8.1699  -8.1501  -8.1380  -8.1346  -8.1185  -8.1113  -8.0932  -8.0666
    -8.0546  -8.0484  -8.0247  -8.0046  -7.9971  -7.9894  -7.9843  -7.9753
    -7.9678  -7.9542  -7.9509  -7.9414  -7.9221  -7.9168  -7.9058  -7.8918
    -7.8849  -7.8740  -7.8712  -7.8607  -7.8507  -7.8286  -7.7930  -7.7825
     3.2296   3.2413   3.2474   3.2602   3.2710   3.2777   3.5169   3.5472
     3.7119   3.7159   3.7285   3.7432   3.7517   3.7588   3.8194   3.8363
     3.8468   3.8580   3.8628   3.8703   3.8824   3.8857   3.8886   3.8947
     3.8993   3.9053   3.9082   3.9189   3.9263   3.9384   3.9565   3.9584
     4.0845   4.0948   4.0951   4.0991   4.1082   4.1169   4.1267   4.1283
     4.1415   4.1427   4.1518   4.1645   4.2307   4.2436   4.2500   4.2665
     4.2757   4.2863   4.4246   4.4341   4.4419   4.4568   4.4614   4.4694
     5.0947   5.1109   5.1214   5.1251   5.1287   5.1329   5.1381   5.1464
     5.1494   5.1533   5.1626   5.1760   5.2258   5.2401   5.2484   5.2583
     5.2706   5.2854   5.3445   5.3582   5.3604   5.3695   5.3775   5.3909
     5.8303   5.8585   5.8672   5.8711   5.8778   5.8838   5.8873   5.8965
     5.9031   5.9052   5.9129   5.9169   5.9209   5.9263   5.9341   5.9414
     5.9578   5.9607   6.2120   6.2222   6.2286   6.2324   6.2443   6.2505
     6.2555   6.2603   6.2660   6.2757   6.2888   6.2916   6.3602   6.3681
     6.3714   6.3828   6.3934   6.4136   6.4202   6.4252   6.4342   6.4411
     6.4500   6.4542   6.4675   6.4717   6.4754   6.4999   6.5127   6.5286
     6.6052   6.6221   6.6316   6.6371   6.6428   6.6564   6.6588   6.6654
     6.6749   6.6788   6.6861   6.6948   6.7002   6.7022   6.7235   6.7294
     6.7341   6.7386   6.7529   6.7563   6.7629   6.7652   6.7774   6.7793
     6.7889   6.7956   6.8008   6.8049   6.8070   6.8203   6.8399   6.8553
[...]
     atom   77 type  1   force =   0.00000000E+00  0.00000000E+00  0.00000000E+00
     atom   78 type  2   force =   0.00000000E+00  0.00000000E+00  0.00000000E+00
     atom   79 type  1   force =   0.00000000E+00  0.00000000E+00  0.00000000E+00
     atom   80 type  2   force =   0.00000000E+00  0.00000000E+00  0.00000000E+00
     atom   81 type  1   force =   0.00000000E+00  0.00000000E+00  0.00000000E+00
     atom   82 type  2   force =   0.00000000E+00  0.00000000E+00  0.00000000E+00
     atom   83 type  1   force =   0.00000000E+00  0.00000000E+00  0.00000000E+00
     atom   84 type  2   force =   0.00000000E+00  0.00000000E+00  0.00000000E+00
     atom   85 type  1   force =   0.00000000E+00  0.00000000E+00  0.00000000E+00
     atom   86 type  2   force =   0.00000000E+00  0.00000000E+00  0.00000000E+00
     atom   87 type  1   force =   0.00000000E+00  0.00000000E+00  0.00000000E+00
     atom   88 type  2   force =   0.00000000E+00  0.00000000E+00  0.00000000E+00
     atom   89 type  1   force =   0.00000000E+00  0.00000000E+00  0.00000000E+00
     atom   90 type  2   force =   0.00000000E+00  0.00000000E+00  0.00000000E+00
     atom   91 type  1   force =   0.00000000E+00  0.00000000E+00  0.00000000E+00
     atom   92 type  2   force =   0.00000000E+00  0.00000000E+00  0.00000000E+00
     atom   93 type  1   force =   0.00000000E+00  0.00000000E+00  0.00000000E+00
     atom   94 type  2   force =   0.00000000E+00  0.00000000E+00  0.00000000E+00
     atom   95 type  1   force =   0.00000000E+00  0.00000000E+00  0.00000000E+00
     atom   96 type  2   force =   0.00000000E+00  0.00000000E+00  0.00000000E+00
     atom   97 type  1   force =   0.00000000E+00  0.00000000E+00  0.00000000E+00
     atom   98 type  2   force =   0.00000000E+00  0.00000000E+00  0.00000000E+00
     atom   99 type  1   force =   0.00000000E+00  0.00000000E+00  0.00000000E+00
     atom  100 type  2   force =   0.00000000E+00  0.00000000E+00  0.00000000E+00
     atom  101 type  1   force =   0.00000000E+00  0.00000000E+00  0.00000000E+00
     atom  102 type  2   force =   0.00000000E+00  0.00000000E+00  0.00000000E+00
     atom  103 type  1   force =   0.00000000E+00  0.00000000E+00  0.00000000E+00
     atom  104 type  2   force =   0.00000000E+00  0.00000000E+00  0.00000000E+00
     atom  105 type  1   force =   0.00000000E+00  0.00000000E+00  0.00000000E+00
     atom  106 type  2   force =   0.00000000E+00  0.00000000E+00  0.00000000E+00
     atom  107 type  1   force =   0.00000000E+00  0.00000000E+00  0.00000000E+00
     atom  108 type  2   force =   0.00000000E+00  0.00000000E+00  0.00000000E+00
     atom  109 type  1   force =   0.00000000E+00  0.00000000E+00  0.00000000E+00
     atom  110 type  2   force =   0.00000000E+00  0.00000000E+00  0.00000000E+00
     atom  111 type  1   force =   0.00000000E+00  0.00000000E+00  0.00000000E+00
     atom  112 type  2   force =   0.00000000E+00  0.00000000E+00  0.00000000E+00
     atom  113 type  1   force =   0.00000000E+00  0.00000000E+00  0.00000000E+00
     atom  114 type  2   force =   0.00000000E+00  0.00000000E+00  0.00000000E+00
     atom  115 type  1   force =   0.00000000E+00  0.00000000E+00  0.00000000E+00
     atom  116 type  2   force =   0.00000000E+00  0.00000000E+00  0.00000000E+00
     atom  117 type  1   force =   0.00000000E+00  0.00000000E+00  0.00000000E+00
     atom  118 type  2   force =   0.00000000E+00  0.00000000E+00  0.00000000E+00
     atom  119 type  1   force =   0.00000000E+00  0.00000000E+00  0.00000000E+00
     atom  120 type  2   force =   0.00000000E+00  0.00000000E+00  0.00000000E+00
     atom  121 type  1   force =   0.00000000E+00  0.00000000E+00  0.00000000E+00
     atom  122 type  2   force =   0.00000000E+00  0.00000000E+00  0.00000000E+00
     atom  123 type  1   force =   0.00000000E+00  0.00000000E+00  0.00000000E+00
     atom  124 type  2   force =   0.00000000E+00  0.00000000E+00  0.00000000E+00
     atom  125 type  1   force =   0.00000000E+00  0.00000000E+00  0.00000000E+00
     atom  126 type  2   force =   0.00000000E+00  0.00000000E+00  0.00000000E+00
     atom  127 type  1   force =   0.00000000E+00  0.00000000E+00  0.00000000E+00
     atom  128 type  2   force =   0.00000000E+00  0.00000000E+00  0.00000000E+00
     The SCF correction term to forces
     atom    1 type  1   force =   0.54991381E-05 -0.32250894E-05  0.15737247E-05
     atom    2 type  2   force =  -0.41277271E-06  0.11335337E-06 -0.86024789E-06
     atom    3 type  1   force =   0.15564491E-05  0.76920964E-06  0.19524529E-05
     atom    4 type  2   force =   0.23049023E-05 -0.21131172E-06 -0.73455871E-06
     atom    5 type  1   force =   0.34761257E-05 -0.15641826E-05  0.41219406E-07
     atom    6 type  2   force =   0.16251829E-05 -0.38797737E-05  0.97858044E-07
     atom    7 type  1   force =   0.39789355E-05 -0.89210396E-05  0.20100649E-05
     atom    8 type  2   force =   0.17616792E-05 -0.93990598E-06  0.47707382E-06
     atom    9 type  1   force =  -0.35531167E-05  0.50103869E-08 -0.13373541E-06
     atom   10 type  2   force =   0.26983890E-06  0.17736730E-05 -0.20383048E-05
     atom   11 type  1   force =   0.24472134E-05  0.37170470E-05 -0.23076903E-05
     atom   12 type  2   force =  -0.15809942E-06  0.75003930E-06 -0.19597007E-05
     atom   13 type  1   force =  -0.26784141E-06 -0.61556192E-06 -0.28696078E-05
     atom   14 type  2   force =  -0.57597805E-06  0.14220292E-07 -0.98239642E-06
     atom   15 type  1   force =  -0.22854968E-05 -0.20111002E-05 -0.57922931E-06
     atom   16 type  2   force =  -0.20508633E-05 -0.14522019E-06 -0.62299836E-06
     atom   17 type  1   force =  -0.22612210E-05 -0.44502686E-06 -0.50313439E-05
     atom   18 type  2   force =   0.11222169E-05  0.32535114E-05 -0.10506733E-05
     atom   19 type  1   force =   0.96323179E-06  0.49445191E-05 -0.69661800E-05
     atom   20 type  2   force =  -0.62825371E-07  0.13928145E-05  0.53795533E-06
     atom   21 type  1   force =  -0.37136644E-05  0.13823071E-05 -0.21901146E-05
     atom   22 type  2   force =  -0.13077493E-05 -0.51215792E-06  0.65009332E-07
     atom   23 type  1   force =  -0.15547727E-05 -0.33394860E-06  0.14246228E-06
     atom   24 type  2   force =  -0.24700475E-05 -0.14194018E-05 -0.12905924E-05
     atom   25 type  1   force =   0.34265793E-05 -0.37929154E-05 -0.85706846E-06
     atom   26 type  2   force =   0.21061778E-05  0.45354551E-06  0.10107860E-05
     atom   27 type  1   force =   0.34094758E-05  0.15252805E-05  0.36980646E-06
     atom   28 type  2   force =   0.62644648E-06  0.70871003E-07  0.48153524E-07
     atom   29 type  1   force =   0.20634704E-05  0.83725046E-06  0.12778831E-05
     atom   30 type  2   force =   0.22418705E-06 -0.47765111E-05  0.56401486E-06
     atom   31 type  1   force =  -0.38451299E-06 -0.61064841E-05 -0.59603798E-06
     atom   32 type  2   force =   0.35720144E-05 -0.20896738E-05  0.12018341E-05
     atom   33 type  1   force =   0.29111186E-05 -0.30329999E-06  0.93000802E-06
     atom   34 type  2   force =  -0.35628900E-06  0.69360774E-06 -0.32108489E-08
     atom   35 type  1   force =   0.11368185E-05 -0.78491294E-06 -0.11917607E-05
     atom   36 type  2   force =   0.46905585E-06 -0.21430498E-05 -0.92577667E-07
     atom   37 type  1   force =   0.13627159E-05 -0.60913884E-05  0.10112468E-05
     atom   38 type  2   force =   0.20747350E-05 -0.32402949E-06  0.84336451E-06
     atom   39 type  1   force =   0.52505378E-05 -0.29282906E-05  0.23156059E-05
     atom   40 type  2   force =  -0.25566850E-06 -0.96365551E-07  0.14374781E-05
     atom   41 type  1   force =  -0.33581661E-05 -0.69135686E-06 -0.77571463E-06
     atom   42 type  2   force =   0.19350846E-06  0.11761955E-05 -0.16740479E-05
     atom   43 type  1   force =   0.19572442E-05  0.22732562E-05 -0.24415895E-05
     atom   44 type  2   force =   0.12384681E-05 -0.92776123E-06 -0.67266566E-06
     atom   45 type  1   force =   0.11441785E-05 -0.39259542E-05 -0.20782910E-05
     atom   46 type  2   force =   0.70489562E-06  0.12760855E-05  0.13759336E-05
     atom   47 type  1   force =   0.85644009E-06  0.11869176E-05 -0.79020382E-08
     atom   48 type  2   force =  -0.38228306E-05  0.55144240E-06  0.25831013E-06
     atom   49 type  1   force =  -0.23007236E-05  0.49167347E-05 -0.31545545E-05
     atom   50 type  2   force =   0.16838219E-05  0.15109142E-05  0.16377857E-06
     atom   51 type  1   force =   0.72611970E-06  0.24329520E-05 -0.23062121E-05
     atom   52 type  2   force =   0.16922138E-06  0.63578659E-06  0.44348344E-06
     atom   53 type  1   force =   0.24182411E-06  0.69491472E-06  0.14382243E-05
     atom   54 type  2   force =  -0.49424650E-05 -0.12609779E-06  0.28479026E-07
     atom   55 type  1   force =  -0.69888650E-05 -0.13050512E-05  0.12818878E-07
     atom   56 type  2   force =  -0.15644926E-05  0.22673862E-05 -0.24718354E-06
     atom   57 type  1   force =   0.41965578E-05  0.38904385E-05  0.13534101E-05
     atom   58 type  2   force =  -0.17331820E-06  0.90207325E-06  0.33423774E-07
     atom   59 type  1   force =   0.16480602E-05  0.31087145E-05 -0.14465944E-06
     atom   60 type  2   force =  -0.10503935E-05 -0.20104499E-06 -0.32646185E-06
     atom   61 type  1   force =  -0.38986021E-05 -0.25966804E-05  0.76088913E-06
     atom   62 type  2   force =  -0.12045884E-05 -0.16930055E-05  0.18540344E-05
     atom   63 type  1   force =  -0.46001841E-05 -0.28712709E-05  0.53974950E-06
     atom   64 type  2   force =   0.23118502E-05  0.16599234E-05  0.15551442E-05
     atom   65 type  1   force =  -0.15872340E-05 -0.14699209E-07  0.23387335E-05
     atom   66 type  2   force =  -0.13361175E-05 -0.24119972E-06  0.48566543E-06
     atom   67 type  1   force =  -0.93001932E-06 -0.16540692E-05  0.36904338E-06
     atom   68 type  2   force =  -0.63271890E-06 -0.41118579E-07  0.57166725E-06
     atom   69 type  1   force =  -0.11831865E-05 -0.11467159E-05  0.16321117E-05
     atom   70 type  2   force =   0.21097905E-05  0.23526727E-05  0.16744654E-05
     atom   71 type  1   force =   0.36835081E-05  0.28147238E-05  0.41327054E-05
     atom   72 type  2   force =  -0.17433987E-05 -0.11168454E-05  0.17725537E-05
     atom   73 type  1   force =  -0.37581223E-05  0.51453058E-06  0.96641781E-06
     atom   74 type  2   force =  -0.59697162E-06  0.10788482E-06  0.17164652E-07
     atom   75 type  1   force =  -0.13986310E-05 -0.24478827E-06 -0.19413960E-05
     atom   76 type  2   force =   0.26424399E-05  0.18159774E-05  0.94308224E-06
     atom   77 type  1   force =   0.37581791E-05  0.25233704E-05  0.11349179E-05
     atom   78 type  2   force =  -0.18604597E-05  0.69825795E-06 -0.67117452E-06
     atom   79 type  1   force =  -0.21360890E-05  0.16221331E-05  0.33238996E-05
     atom   80 type  2   force =  -0.33646541E-05  0.66077383E-06 -0.12044594E-05
     atom   81 type  1   force =  -0.71868740E-06  0.28567093E-05 -0.34668594E-06
     atom   82 type  2   force =   0.16637991E-05 -0.30968086E-06  0.44237261E-06
     atom   83 type  1   force =   0.40241197E-05  0.75737977E-06  0.18039727E-05
     atom   84 type  2   force =  -0.21297266E-06  0.65053443E-06 -0.14214845E-05
     atom   85 type  1   force =  -0.37768433E-06  0.20431872E-05  0.38561712E-08
     atom   86 type  2   force =  -0.31848238E-05 -0.85426133E-06 -0.56113045E-06
     atom   87 type  1   force =  -0.85071355E-05  0.47207328E-06 -0.73606032E-06
     atom   88 type  2   force =   0.12637606E-05  0.14500402E-05  0.12564520E-05
     atom   89 type  1   force =   0.88954210E-06  0.36388995E-05  0.28341422E-05
     atom   90 type  2   force =  -0.63982854E-09 -0.87197477E-06 -0.41338081E-06
     atom   91 type  1   force =  -0.15391428E-05  0.57658863E-06 -0.14505644E-05
     atom   92 type  2   force =  -0.11635489E-05 -0.29532306E-06 -0.39749781E-07
     atom   93 type  1   force =  -0.71681851E-05 -0.13567421E-05 -0.29273209E-06
     atom   94 type  2   force =   0.37242820E-06  0.14929542E-05  0.15693826E-05
     atom   95 type  1   force =  -0.13461708E-05  0.25367934E-05  0.38557669E-05
     atom   96 type  2   force =   0.29047738E-06  0.37272806E-06  0.12118879E-05
     atom   97 type  1   force =   0.23311146E-05 -0.36277619E-05  0.29773932E-05
     atom   98 type  2   force =  -0.13028860E-05 -0.27948724E-06  0.46531132E-06
     atom   99 type  1   force =  -0.87197163E-06 -0.18520468E-05  0.33521915E-06
     atom  100 type  2   force =   0.90339632E-06  0.21800989E-05  0.30523292E-06
     atom  101 type  1   force =   0.18818126E-05  0.43809562E-05  0.29252750E-05
     atom  102 type  2   force =   0.94494101E-06 -0.97945149E-06  0.30936187E-06
     atom  103 type  1   force =   0.22693756E-05 -0.24597108E-05  0.30759592E-05
     atom  104 type  2   force =   0.14686454E-06 -0.19217831E-05  0.41677314E-07
     atom  105 type  1   force =  -0.42761146E-05  0.28418221E-06 -0.51537040E-06
     atom  106 type  2   force =   0.37369447E-06  0.32598921E-06 -0.24610238E-06
     atom  107 type  1   force =  -0.34399819E-06  0.23152694E-05  0.25162507E-06
     atom  108 type  2   force =   0.11654377E-05  0.20694334E-05 -0.15172550E-05
     atom  109 type  1   force =   0.40971493E-05  0.33365745E-05 -0.17911747E-06
     atom  110 type  2   force =  -0.30204656E-05  0.12035909E-06 -0.20184996E-05
     atom  111 type  1   force =  -0.35771715E-05 -0.18151376E-05 -0.12298519E-05
     atom  112 type  2   force =  -0.15011193E-05  0.68545496E-06 -0.31570031E-06
     atom  113 type  1   force =  -0.93210179E-07  0.74602655E-06  0.15688252E-05
     atom  114 type  2   force =   0.14424487E-05 -0.77154227E-06 -0.35906128E-05
     atom  115 type  1   force =   0.31409642E-05  0.15214693E-05 -0.16825770E-05
     atom  116 type  2   force =  -0.30847502E-06  0.25695358E-06 -0.22662372E-05
     atom  117 type  1   force =  -0.33881590E-05 -0.53743092E-06 -0.31153593E-05
     atom  118 type  2   force =   0.25270485E-06  0.12210902E-05  0.97143044E-06
     atom  119 type  1   force =  -0.37411284E-05  0.20115234E-05 -0.63873997E-06
     atom  120 type  2   force =   0.29644395E-06 -0.19135708E-05 -0.52429788E-06
     atom  121 type  1   force =   0.40101317E-06 -0.40776524E-05 -0.27968458E-05
     atom  122 type  2   force =   0.26794844E-05 -0.15798358E-05  0.67579609E-06
     atom  123 type  1   force =   0.78088742E-06 -0.48173849E-06 -0.46717597E-05
     atom  124 type  2   force =   0.42883835E-06  0.59310451E-06  0.78191816E-06
     atom  125 type  1   force =  -0.17393776E-05 -0.20357746E-05  0.13589662E-05
     atom  126 type  2   force =   0.12004482E-05 -0.65132913E-06  0.87594394E-06
     atom  127 type  1   force =   0.29166795E-05  0.17739647E-05  0.35298345E-05
     atom  128 type  2   force =   0.11440564E-05 -0.41710278E-05  0.60995013E-06

     Total force =     0.151034     Total SCF correction =     0.000042


     entering subroutine stress ...

          total   stress  (Ry/bohr**3)                   (kbar)     P=   -1.06
  -0.0000071802   0.0000002962  -0.0000002107         -1.06      0.04     -0.03
   0.0000002962  -0.0000069735   0.0000001922          0.04     -1.03      0.03
  -0.0000002107   0.0000001922  -0.0000074093         -0.03      0.03     -1.09

     kinetic stress (kbar)  24052.46     -0.00      0.01
                               -0.00  24052.43      0.02
                                0.01      0.02  24052.59

     local   stress (kbar)  -3799.88     -4.69      4.20
                               -4.69  -3803.22     -9.31
                                4.20     -9.31  -3788.03

     nonloc. stress (kbar)   6544.64      0.01     -0.01
                                0.01   6544.64      0.05
                               -0.01      0.05   6544.62

     hartree stress (kbar)  18663.39      1.85     -1.71
                                1.85  18664.95      3.80
                               -1.71      3.80  18658.61

     exc-cor stress (kbar)  -8540.30      0.00     -0.00
                                0.00  -8540.30      0.00
                               -0.00      0.00  -8540.31

     corecor stress (kbar)   -314.20     -0.00      0.00
                               -0.00   -314.20     -0.00
                                0.00     -0.00   -314.20

     ewald   stress (kbar) -36607.17      2.88     -2.52
                                2.88 -36605.33      5.47
                               -2.52      5.47 -36614.37

     hubbard stress (kbar)      0.00      0.00      0.00
                                0.00      0.00      0.00
                                0.00      0.00      0.00

     london  stress (kbar)      0.00      0.00      0.00
                                0.00      0.00      0.00
                                0.00      0.00      0.00

     XDM     stress (kbar)      0.00      0.00      0.00
                                0.00      0.00      0.00
                                0.00      0.00      0.00

     dft-nl  stress (kbar)      0.00      0.00      0.00
                                0.00      0.00      0.00
                                0.00      0.00      0.00



     Writing output data file MgO_rocksalt.relax.in.up_1.00.super.444.011.save

     init_run     :    387.69s CPU    305.70s WALL (       1 calls)
     electrons    :  33988.23s CPU  25923.60s WALL (       1 calls)
     forces       :    375.80s CPU    256.31s WALL (       1 calls)
     stress       :   2104.19s CPU   2084.54s WALL (       1 calls)

     Called by init_run:
     wfcinit      :    354.41s CPU    272.22s WALL (       1 calls)
     potinit      :      0.52s CPU      0.53s WALL (       1 calls)

     Called by electrons:
     c_bands      :  29834.17s CPU  22386.64s WALL (      24 calls)
     sum_band     :   3556.81s CPU   2936.04s WALL (      24 calls)
     v_of_rho     :     10.29s CPU     10.34s WALL (      25 calls)
     v_h          :      0.71s CPU      0.72s WALL (      25 calls)
     v_xc         :     10.30s CPU     10.36s WALL (      27 calls)
     newd         :    600.67s CPU    603.72s WALL (      25 calls)
     mix_rho      :     16.37s CPU     16.52s WALL (      24 calls)

     Called by c_bands:
     init_us_2    :     54.16s CPU     54.75s WALL (     408 calls)
     cegterg      :  29549.22s CPU  22096.33s WALL (     192 calls)

     Called by sum_band:
     sum_band:bec :     16.54s CPU     16.60s WALL (     192 calls)
     addusdens    :    416.36s CPU    418.52s WALL (      24 calls)

     Called by *egterg:
     h_psi        :  11965.82s CPU   9249.40s WALL (     721 calls)
     s_psi        :   3002.85s CPU   1669.26s WALL (     721 calls)
     g_psi        :     14.68s CPU     14.98s WALL (     521 calls)
     cdiaghg      :   9530.78s CPU   7986.29s WALL (     713 calls)
     cegterg:over :   2295.25s CPU   1366.28s WALL (     521 calls)
     cegterg:upda :   1109.44s CPU    625.13s WALL (     521 calls)
     cegterg:last :    824.41s CPU    447.65s WALL (     192 calls)

     Called by h_psi:
     h_psi:vloc   :   5411.63s CPU   5466.59s WALL (     721 calls)
     h_psi:vnl    :   6536.62s CPU   3764.94s WALL (     721 calls)
     add_vuspsi   :   2990.16s CPU   1663.28s WALL (     721 calls)

     General routines
     calbec       :   5613.52s CPU   3476.57s WALL (     929 calls)
     fft          :    107.71s CPU    108.01s WALL (     421 calls)
     ffts         :      8.26s CPU      8.39s WALL (     606 calls)
     fftw         :   5788.87s CPU   5846.93s WALL (  656040 calls)
     interpolate  :      2.31s CPU      2.34s WALL (      49 calls)

     Parallel routines
     fft_scatter  :   3455.64s CPU   3496.59s WALL (  657067 calls)

     PWSCF        :    10h14m CPU        7h56m WALL


   This run was terminated on:   3:59:36  19Aug2017            

=------------------------------------------------------------------------------=
   JOB DONE.
=------------------------------------------------------------------------------=
