
     Program PWSCF v.5.1 starts on  8Dec2017 at  0:20:29 

     This program is part of the open-source Quantum ESPRESSO suite
     for quantum simulation of materials; please cite
         "P. Giannozzi et al., J. Phys.:Condens. Matter 21 395502 (2009);
          URL http://www.quantum-espresso.org", 
     in publications or presentations arising from this work. More details at
     http://www.quantum-espresso.org/quote

     Parallel version (MPI), running on    16 processors
     R & G space division:  proc/nbgrp/npool/nimage =      16
     Waiting for input...
     Reading input from standard input
Warning: card &IONS ignored
Warning: card   ION_DYNAMICS='BFGS', ignored
Warning: card / ignored
Warning: card &CELL ignored
Warning: card  CELL_DYNAMICS = 'BFGS' ignored
Warning: card / ignored

     Current dimensions of program PWSCF are:
     Max number of different atomic species (ntypx) = 10
     Max number of k-points (npk) =  40000
     Max angular momentum in pseudopotentials (lmaxx) =  3
 kfg - two_fermi_energies  F

     Subspace diagonalization in iterative solution of the eigenvalue problem:
     a serial algorithm will be used


     Parallelization info
     --------------------
     sticks:   dense  smooth     PW     G-vecs:    dense   smooth      PW
     Min         125     100     29                 3795     2703     423
     Max         126     101     30                 3797     2728     426
     Sum        2015    1611    465                60745    43457    6787



     bravais-lattice index     =            0
     lattice parameter (alat)  =    11.889415804  a.u.
     unit-cell volume          =    1272.4084 (a.u.)^3
     number of atoms/cell      =           16
     number of atomic types    =            3
     number of electrons       =       128.00
     number of Kohn-Sham states=           64
     kinetic-energy cutoff     =      40.0000  Ry
     charge density cutoff     =     200.0000  Ry
     convergence threshold     =      1.0E-10
     mixing beta               =       0.3000
     number of iterations used =            8  local-TF  mixing
     Exchange-correlation      = SLA  PW   PSX  PSC ( 1  4 10  8 0)
     A smooth kinetic-energy cutoff is imposed at      39.5000 Ry
     height of the smooth step-function =             800.0000 Ry
     width of the smooth step-function  =               1.0000 Ry


     celldm(1)=  11.889416  celldm(2)=   0.000000  celldm(3)=   0.000000
     celldm(4)=   0.000000  celldm(5)=   0.000000  celldm(6)=   0.000000

     crystal axes: (cart. coord. in units of alat)
               a(1) = (   0.011657650178   0.687803086818   0.725803701393 )  
               a(2) = (   0.743763788315  -0.005095797929   0.742557149501 )  
               a(3) = (   0.742237698656   0.703030445266  -0.003569708270 )  

     reciprocal axes: (cart. coord. in units 2 pi/alat)
               b(1) = ( -0.689515  0.731501  0.695656 )  
               b(2) = (  0.677225 -0.711624  0.663489 )  
               b(3) = (  0.679489  0.701598 -0.675779 )  


     PseudoPot. # 1 for Ca read from file:
     /users/kfg/psuedo/gbrv_1.5/ca.pbesol.UPF
     MD5 check sum: 0533207b58cddeaa036efa5b63902087
     Pseudo is Ultrasoft + core correction, Zval = 10.0
     Generated by new atomic code, or converted to UPF format
     Using radial grid of  845 points,  6 beta functions with: 
                l(1) =   0
                l(2) =   0
                l(3) =   1
                l(4) =   1
                l(5) =   2
                l(6) =   2
     Q(r) pseudized with  8 coefficients,  rinner =    1.500   1.500   1.500
                                                       1.500   1.500

     PseudoPot. # 2 for Mg read from file:
     /users/kfg/psuedo/gbrv_1.5/mg.pbesol.UPF
     MD5 check sum: 4059f37963cf5867752dbf5ab2400678
     Pseudo is Ultrasoft, Zval = 10.0
     Generated by new atomic code, or converted to UPF format
     Using radial grid of  821 points,  7 beta functions with: 
                l(1) =   0
                l(2) =   0
                l(3) =   0
                l(4) =   1
                l(5) =   1
                l(6) =   2
                l(7) =   2
     Q(r) pseudized with  8 coefficients,  rinner =    1.200   1.200   1.200
                                                       1.200   1.200

     PseudoPot. # 3 for O  read from file:
     /users/kfg/psuedo/gbrv_1.5/o.pbesol.UPF
     MD5 check sum: 501638753501ef6325af9037351f7734
     Pseudo is Ultrasoft + core correction, Zval =  6.0
     Generated by new atomic code, or converted to UPF format
     Using radial grid of  737 points,  5 beta functions with: 
                l(1) =   0
                l(2) =   0
                l(3) =   1
                l(4) =   1
                l(5) =   2
     Q(r) pseudized with  8 coefficients,  rinner =    0.900   0.900   0.900
                                                       0.900   0.900

     atomic species   valence    mass     pseudopotential
        Ca            10.00    40.07800     Ca( 1.00)
        Mg            10.00    40.07800     Mg( 1.00)
        O              6.00    15.99940     O ( 1.00)

     No symmetry found


                                    s                        frac. trans.

      isym =  1     identity                                     

 cryst.   s( 1) = (     1          0          0      )
                  (     0          1          0      )
                  (     0          0          1      )

 cart.    s( 1) = (  1.0000000  0.0000000  0.0000000 )
                  (  0.0000000  1.0000000  0.0000000 )
                  ( -0.0000000 -0.0000000  1.0000000 )


     point group C_1 (1)    
     there are  1 classes
     the character table:

       E    
A      1.00

     the symmetry operations in each class:
     E        1

   Cartesian axes

     site n.     atom                  positions (alat units)
         1           Mg  tau(   1) = (    0.01271647991    0.01230395370    0.01408260059  )
         2           O   tau(   2) = (    0.39970835355    0.34439324689    0.37785509254  )
         3           Mg  tau(   3) = (    0.37366791029    0.37939349451    0.01384485711  )
         4           O   tau(   4) = (    0.76329725925    0.68125644527    0.36312868751  )
         5           Ca  tau(   5) = (    0.35804036815    0.00408472110    0.36980300436  )
         6           O   tau(   6) = (    0.74107358269    0.35752992827    0.75801360215  )
         7           Mg  tau(   7) = (    0.74035650457    0.31182321336    0.32534181440  )
         8           O   tau(   8) = (    1.12606977035    0.70356565691    0.72226697528  )
         9           Ca  tau(   9) = (   -0.04095479941    0.31310522296    0.38226202921  )
        10           O   tau(  10) = (    0.38101259360    0.70606668753    0.72642390517  )
        11           Ca  tau(  11) = (    0.39029859505    0.68773248208    0.34437529907  )
        12           O   tau(  12) = (    0.75064600226    1.06102952217    0.72999179951  )
        13           Ca  tau(  13) = (    0.41031014166    0.35057224348    0.71096606494  )
        14           O   tau(  14) = (    0.72808973819    0.66368097769    1.08849732192  )
        15           Ca  tau(  15) = (    0.73634929690    0.69655103027    0.73918785231  )
        16           O   tau(  16) = (    1.11527302589    1.04133757874    1.12270594965  )

   Crystallographic axes

     site n.     atom                  positions (cryst. coord.)
         1           Mg  tau(   1) = (    0.01002878865    0.00919977249    0.00775642381  )
         2           O   tau(   2) = (    0.23917603886    0.27631648761    0.25787685765  )
         3           Mg  tau(   3) = (    0.02950826580   -0.00774243066    0.51072918216  )
         4           O   tau(   4) = (    0.22464721580    0.27305718495    0.75122613051  )
         5           Ca  tau(   5) = (    0.01336922329    0.48492721417   -0.00375457546  )
         6           O   tau(   6) = (    0.27786840935    0.75038004520    0.24214451140  )
         7           Mg  tau(   7) = (   -0.05606223568    0.49534761703    0.50197994389  )
         8           O   tau(   8) = (    0.24066581812    0.74114421732    0.77068025877  )
         9           Ca  tau(   9) = (    0.52319849993    0.00307762358   -0.06647882418  )
        10           O   tau(  10) = (    0.75911541760    0.23755110305    0.26336736015  )
        11           Ca  tau(  11) = (    0.47352681814    0.00340197499    0.51499421268  )
        12           O   tau(  12) = (    0.76638525315    0.23764320883    0.76115958383  )
        13           Ca  tau(  13) = (    0.46811641448    0.50011450313    0.04430648952  )
        14           O   tau(  14) = (    0.74067365023    0.74299473951    0.22478330328  )
        15           Ca  tau(  15) = (    0.51602393279    0.49343433178    0.48951310770  )
        16           O   tau(  16) = (    0.77375848947    0.75915240700    0.72971603428  )

     number of k points=    36
                       cart. coord. in units 2pi/alat
        k(    1) = (   0.0000000   0.0000000   0.0000000), wk =   0.0312500
        k(    2) = (   0.1698723   0.1753996  -0.1689447), wk =   0.0625000
        k(    3) = (  -0.3397447  -0.3507992   0.3378894), wk =   0.0312500
        k(    4) = (   0.1693063  -0.1779061   0.1658722), wk =   0.0625000
        k(    5) = (   0.3391786  -0.0025065  -0.0030726), wk =   0.0625000
        k(    6) = (  -0.1704384  -0.5287053   0.5037616), wk =   0.0625000
        k(    7) = (  -0.0005661  -0.3533057   0.3348169), wk =   0.0625000
        k(    8) = (  -0.3386125   0.3558121  -0.3317443), wk =   0.0312500
        k(    9) = (  -0.1687402   0.5312117  -0.5006890), wk =   0.0625000
        k(   10) = (  -0.6783572   0.0050129   0.0061451), wk =   0.0312500
        k(   11) = (  -0.1723788   0.1828753   0.1739139), wk =   0.0625000
        k(   12) = (  -0.0025065   0.3582749   0.0049692), wk =   0.0625000
        k(   13) = (  -0.5121235  -0.1679239   0.5118033), wk =   0.0625000
        k(   14) = (  -0.3422512   0.0074757   0.3428586), wk =   0.0625000
        k(   15) = (  -0.0030726   0.0049692   0.3397861), wk =   0.0625000
        k(   16) = (   0.1667998   0.1803688   0.1708414), wk =   0.0625000
        k(   17) = (  -0.3428173  -0.3458300   0.6776755), wk =   0.0625000
        k(   18) = (  -0.1729449  -0.1704304   0.5087308), wk =   0.0625000
        k(   19) = (  -0.5109914   0.5386874  -0.1578304), wk =   0.0625000
        k(   20) = (  -0.3411190   0.7140870  -0.3267751), wk =   0.0625000
        k(   21) = (  -0.8507360   0.1878882   0.1800590), wk =   0.0625000
        k(   22) = (  -0.6808637   0.3632878   0.0111143), wk =   0.0625000
        k(   23) = (  -0.3416851   0.3607813   0.0080418), wk =   0.0625000
        k(   24) = (  -0.1718127   0.5361809  -0.1609030), wk =   0.0625000
        k(   25) = (  -0.6814298   0.0099821   0.3459312), wk =   0.0625000
        k(   26) = (  -0.5115574   0.1853817   0.1769865), wk =   0.0625000
        k(   27) = (   0.3447576  -0.3657505  -0.3478278), wk =   0.0312500
        k(   28) = (   0.5146300  -0.1903509  -0.5167725), wk =   0.0625000
        k(   29) = (   0.0050129  -0.7165497  -0.0099384), wk =   0.0312500
        k(   30) = (   0.5140639  -0.5436566  -0.1819557), wk =   0.0625000
        k(   31) = (   0.6839363  -0.3682570  -0.3509004), wk =   0.0625000
        k(   32) = (   0.1743192  -0.8944558   0.1559338), wk =   0.0625000
        k(   33) = (   0.3441916  -0.7190562  -0.0130110), wk =   0.0625000
        k(   34) = (   0.0061451  -0.0099384  -0.6795721), wk =   0.0312500
        k(   35) = (   0.1760175   0.1654612  -0.8485168), wk =   0.0625000
        k(   36) = (  -0.3335996  -0.3607376  -0.3416827), wk =   0.0312500

                       cryst. coord.
        k(    1) = (   0.0000000   0.0000000   0.0000000), wk =   0.0312500
        k(    2) = (   0.0000000  -0.0000000   0.2500000), wk =   0.0625000
        k(    3) = (  -0.0000000   0.0000000  -0.5000000), wk =   0.0312500
        k(    4) = (  -0.0000000   0.2500000  -0.0000000), wk =   0.0625000
        k(    5) = (  -0.0000000   0.2500000   0.2500000), wk =   0.0625000
        k(    6) = (  -0.0000000   0.2500000  -0.5000000), wk =   0.0625000
        k(    7) = (  -0.0000000   0.2500000  -0.2500000), wk =   0.0625000
        k(    8) = (   0.0000000  -0.5000000   0.0000000), wk =   0.0312500
        k(    9) = (   0.0000000  -0.5000000   0.2500000), wk =   0.0625000
        k(   10) = (   0.0000000  -0.5000000  -0.5000000), wk =   0.0312500
        k(   11) = (   0.2500000   0.0000000  -0.0000000), wk =   0.0625000
        k(   12) = (   0.2500000   0.0000000   0.2500000), wk =   0.0625000
        k(   13) = (   0.2500000  -0.0000000  -0.5000000), wk =   0.0625000
        k(   14) = (   0.2500000   0.0000000  -0.2500000), wk =   0.0625000
        k(   15) = (   0.2500000   0.2500000  -0.0000000), wk =   0.0625000
        k(   16) = (   0.2500000   0.2500000   0.2500000), wk =   0.0625000
        k(   17) = (   0.2500000   0.2500000  -0.5000000), wk =   0.0625000
        k(   18) = (   0.2500000   0.2500000  -0.2500000), wk =   0.0625000
        k(   19) = (   0.2500000  -0.5000000  -0.0000000), wk =   0.0625000
        k(   20) = (   0.2500000  -0.5000000   0.2500000), wk =   0.0625000
        k(   21) = (   0.2500000  -0.5000000  -0.5000000), wk =   0.0625000
        k(   22) = (   0.2500000  -0.5000000  -0.2500000), wk =   0.0625000
        k(   23) = (   0.2500000  -0.2500000  -0.0000000), wk =   0.0625000
        k(   24) = (   0.2500000  -0.2500000   0.2500000), wk =   0.0625000
        k(   25) = (   0.2500000  -0.2500000  -0.5000000), wk =   0.0625000
        k(   26) = (   0.2500000  -0.2500000  -0.2500000), wk =   0.0625000
        k(   27) = (  -0.5000000  -0.0000000   0.0000000), wk =   0.0312500
        k(   28) = (  -0.5000000  -0.0000000   0.2500000), wk =   0.0625000
        k(   29) = (  -0.5000000  -0.0000000  -0.5000000), wk =   0.0312500
        k(   30) = (  -0.5000000   0.2500000   0.0000000), wk =   0.0625000
        k(   31) = (  -0.5000000   0.2500000   0.2500000), wk =   0.0625000
        k(   32) = (  -0.5000000   0.2500000  -0.5000000), wk =   0.0625000
        k(   33) = (  -0.5000000   0.2500000  -0.2500000), wk =   0.0625000
        k(   34) = (  -0.5000000  -0.5000000   0.0000000), wk =   0.0312500
        k(   35) = (  -0.5000000  -0.5000000   0.2500000), wk =   0.0625000
        k(   36) = (  -0.5000000  -0.5000000  -0.5000000), wk =   0.0312500

     Dense  grid:    60745 G-vectors     FFT dimensions: (  54,  60,  60)

     Smooth grid:    43457 G-vectors     FFT dimensions: (  48,  54,  50)

     Largest allocated arrays     est. size (Mb)     dimensions
        Kohn-Sham Wavefunctions         0.35 Mb     (     355,   64)
        NL pseudopotentials             1.36 Mb     (     355,  251)
        Each V/rho on FFT grid          0.20 Mb     (   12960)
        Each G-vector array             0.03 Mb     (    3797)
        G-vector shells                 0.03 Mb     (    3753)
     Largest temporary arrays     est. size (Mb)     dimensions
        Auxiliary wavefunctions         1.39 Mb     (     355,  256)
        Each subspace H/S matrix        1.00 Mb     (     256,  256)
        Each <psi_i|beta_j> matrix      0.25 Mb     (     251,   64)
        Arrays for rho mixing           1.58 Mb     (   12960,    8)

     Check: negative/imaginary core charge=   -0.000003    0.000000

     Initial potential from superposition of free atoms

     starting charge  127.07343, renormalised to  128.00000
     Starting wfc are   97 randomized atomic wfcs

     total cpu time spent up to now is       25.2 secs

     Self-consistent Calculation

     iteration #  1     ecut=    40.00 Ry     beta=0.30
     Davidson diagonalization with overlap
     ethr =  1.00E-02,  avg # of iterations =  2.0

     total cpu time spent up to now is       66.8 secs

     total energy              =   -1009.60485187 Ry
     Harris-Foulkes estimate   =   -1010.27064395 Ry
     estimated scf accuracy    <       3.42186347 Ry

     iteration #  2     ecut=    40.00 Ry     beta=0.30
     Davidson diagonalization with overlap
     ethr =  2.67E-03,  avg # of iterations =  1.9

     total cpu time spent up to now is      106.1 secs

     total energy              =   -1009.16796501 Ry
     Harris-Foulkes estimate   =   -1009.72582185 Ry
     estimated scf accuracy    <       1.41064664 Ry

     iteration #  3     ecut=    40.00 Ry     beta=0.30
     Davidson diagonalization with overlap
     ethr =  1.10E-03,  avg # of iterations =  2.0

     total cpu time spent up to now is      142.5 secs

     total energy              =   -1009.39071438 Ry
     Harris-Foulkes estimate   =   -1009.43194723 Ry
     estimated scf accuracy    <       0.17052930 Ry

     iteration #  4     ecut=    40.00 Ry     beta=0.30
     Davidson diagonalization with overlap
     ethr =  1.33E-04,  avg # of iterations =  2.0

     total cpu time spent up to now is      178.1 secs

     total energy              =   -1009.34948337 Ry
     Harris-Foulkes estimate   =   -1009.40777941 Ry
     estimated scf accuracy    <       0.10575551 Ry

     iteration #  5     ecut=    40.00 Ry     beta=0.30
     Davidson diagonalization with overlap
     ethr =  8.26E-05,  avg # of iterations =  2.1

     total cpu time spent up to now is      216.3 secs

     total energy              =   -1009.36764266 Ry
     Harris-Foulkes estimate   =   -1009.36862810 Ry
     estimated scf accuracy    <       0.01613508 Ry

     iteration #  6     ecut=    40.00 Ry     beta=0.30
     Davidson diagonalization with overlap
     ethr =  1.26E-05,  avg # of iterations =  1.0

     total cpu time spent up to now is      245.1 secs

     total energy              =   -1009.36418514 Ry
     Harris-Foulkes estimate   =   -1009.36806553 Ry
     estimated scf accuracy    <       0.00855449 Ry

     iteration #  7     ecut=    40.00 Ry     beta=0.30
     Davidson diagonalization with overlap
     ethr =  6.68E-06,  avg # of iterations =  2.0

     total cpu time spent up to now is      279.9 secs

     total energy              =   -1009.36525258 Ry
     Harris-Foulkes estimate   =   -1009.36532973 Ry
     estimated scf accuracy    <       0.00036011 Ry

     iteration #  8     ecut=    40.00 Ry     beta=0.30
     Davidson diagonalization with overlap
     ethr =  2.81E-07,  avg # of iterations =  2.0

     total cpu time spent up to now is      317.3 secs

     total energy              =   -1009.36524847 Ry
     Harris-Foulkes estimate   =   -1009.36529077 Ry
     estimated scf accuracy    <       0.00013427 Ry

     iteration #  9     ecut=    40.00 Ry     beta=0.30
     Davidson diagonalization with overlap
     ethr =  1.05E-07,  avg # of iterations =  2.0

     total cpu time spent up to now is      353.4 secs

     total energy              =   -1009.36525606 Ry
     Harris-Foulkes estimate   =   -1009.36526885 Ry
     estimated scf accuracy    <       0.00005228 Ry

     iteration # 10     ecut=    40.00 Ry     beta=0.30
     Davidson diagonalization with overlap
     ethr =  4.08E-08,  avg # of iterations =  2.0

     total cpu time spent up to now is      385.3 secs

     total energy              =   -1009.36525100 Ry
     Harris-Foulkes estimate   =   -1009.36525823 Ry
     estimated scf accuracy    <       0.00001938 Ry

     iteration # 11     ecut=    40.00 Ry     beta=0.30
     Davidson diagonalization with overlap
     ethr =  1.51E-08,  avg # of iterations =  2.0

     total cpu time spent up to now is      420.2 secs

     total energy              =   -1009.36525271 Ry
     Harris-Foulkes estimate   =   -1009.36525343 Ry
     estimated scf accuracy    <       0.00000392 Ry

     iteration # 12     ecut=    40.00 Ry     beta=0.30
     Davidson diagonalization with overlap
     ethr =  3.06E-09,  avg # of iterations =  2.0

     total cpu time spent up to now is      454.7 secs

     total energy              =   -1009.36525174 Ry
     Harris-Foulkes estimate   =   -1009.36525302 Ry
     estimated scf accuracy    <       0.00000266 Ry

     iteration # 13     ecut=    40.00 Ry     beta=0.30
     Davidson diagonalization with overlap
     ethr =  2.08E-09,  avg # of iterations =  2.0

     total cpu time spent up to now is      492.3 secs

     total energy              =   -1009.36525219 Ry
     Harris-Foulkes estimate   =   -1009.36525219 Ry
     estimated scf accuracy    <       0.00000009 Ry

     iteration # 14     ecut=    40.00 Ry     beta=0.30
     Davidson diagonalization with overlap
     ethr =  6.90E-11,  avg # of iterations =  2.0

     total cpu time spent up to now is      527.2 secs

     total energy              =   -1009.36525219 Ry
     Harris-Foulkes estimate   =   -1009.36525220 Ry
     estimated scf accuracy    <       0.00000004 Ry

     iteration # 15     ecut=    40.00 Ry     beta=0.30
     Davidson diagonalization with overlap
     ethr =  3.35E-11,  avg # of iterations =  2.0

     total cpu time spent up to now is      562.5 secs

     total energy              =   -1009.36525219 Ry
     Harris-Foulkes estimate   =   -1009.36525220 Ry
     estimated scf accuracy    <       0.00000002 Ry

     iteration # 16     ecut=    40.00 Ry     beta=0.30
     Davidson diagonalization with overlap
     ethr =  1.43E-11,  avg # of iterations =  2.0

     total cpu time spent up to now is      600.1 secs

     total energy              =   -1009.36525219 Ry
     Harris-Foulkes estimate   =   -1009.36525219 Ry
     estimated scf accuracy    <          3.6E-09 Ry

     iteration # 17     ecut=    40.00 Ry     beta=0.30
     Davidson diagonalization with overlap
     ethr =  2.79E-12,  avg # of iterations =  2.0

     total cpu time spent up to now is      634.1 secs

     total energy              =   -1009.36525219 Ry
     Harris-Foulkes estimate   =   -1009.36525219 Ry
     estimated scf accuracy    <          1.7E-09 Ry

     iteration # 18     ecut=    40.00 Ry     beta=0.30
     Davidson diagonalization with overlap
     ethr =  1.34E-12,  avg # of iterations =  2.1

     total cpu time spent up to now is      670.0 secs

     total energy              =   -1009.36525219 Ry
     Harris-Foulkes estimate   =   -1009.36525219 Ry
     estimated scf accuracy    <          3.7E-10 Ry

     iteration # 19     ecut=    40.00 Ry     beta=0.30
     Davidson diagonalization with overlap
     ethr =  2.93E-13,  avg # of iterations =  2.0

     total cpu time spent up to now is      703.3 secs

     total energy              =   -1009.36525219 Ry
     Harris-Foulkes estimate   =   -1009.36525219 Ry
     estimated scf accuracy    <          2.1E-10 Ry

     iteration # 20     ecut=    40.00 Ry     beta=0.30
     Davidson diagonalization with overlap
     ethr =  1.63E-13,  avg # of iterations =  2.0

     total cpu time spent up to now is      737.6 secs

     End of self-consistent calculation

          k = 0.0000 0.0000 0.0000 (  5431 PWs)   bands (ev):

   -64.9467 -64.9418 -64.8922 -31.9381 -31.9350 -31.9130 -31.9088 -31.8998
   -31.8830 -31.8729 -31.8547 -31.8223 -29.0205 -28.7422 -28.5579 -28.5198
   -27.9772 -11.3094 -11.2498 -11.1528 -10.9634 -10.3215 -10.2759 -10.1474
   -10.0041  -9.8656  -9.8447  -9.7300  -9.5874  -9.4372  -9.3382  -9.2080
    -7.9346  -7.4106  -7.3019  -7.0930  -6.3185  -6.1795  -5.9442  -5.9069
     4.3385   4.3474   4.4184   5.2570   5.7953   5.8225   6.0401   6.4921
     6.5480   6.6781   6.7568   6.8128   6.9025   6.9583   6.9674   7.0997
     7.2063   7.3472   7.4268   7.5090   7.6117   7.9031   7.9974   8.0887

     occupation numbers 
     1.0000   1.0000   1.0000   1.0000   1.0000   1.0000   1.0000   1.0000
     1.0000   1.0000   1.0000   1.0000   1.0000   1.0000   1.0000   1.0000
     1.0000   1.0000   1.0000   1.0000   1.0000   1.0000   1.0000   1.0000
     1.0000   1.0000   1.0000   1.0000   1.0000   1.0000   1.0000   1.0000
     1.0000   1.0000   1.0000   1.0000   1.0000   1.0000   1.0000   1.0000
     1.0000   1.0000   1.0000   1.0000   1.0000   1.0000   1.0000   1.0000
     1.0000   1.0000   1.0000   1.0000   1.0000   1.0000   1.0000   1.0000
     1.0000   1.0000   1.0000   1.0000   1.0000   1.0000   1.0000   1.0000

          k = 0.1699 0.1754-0.1689 (  5423 PWs)   bands (ev):

   -64.9467 -64.9418 -64.8922 -31.9379 -31.9351 -31.9121 -31.9089 -31.8999
   -31.8821 -31.8744 -31.8548 -31.8226 -29.0172 -28.7359 -28.5713 -28.5163
   -27.9777 -11.1955 -11.1177 -11.0170 -10.8616 -10.5061 -10.2885 -10.2546
   -10.1427  -9.9870  -9.9076  -9.8204  -9.6732  -9.4973  -9.3346  -9.2176
    -7.6280  -7.2224  -7.1147  -6.9404  -6.4219  -6.3000  -6.0921  -6.0268
     4.5504   4.6196   4.7430   5.5147   5.7275   5.7879   5.9331   6.3957
     6.4485   6.5563   6.6199   6.7154   6.7827   6.8374   6.9793   7.1206
     7.1898   7.2702   7.4040   7.4844   7.5531   7.6637   7.7702   7.9747

     occupation numbers 
     1.0000   1.0000   1.0000   1.0000   1.0000   1.0000   1.0000   1.0000
     1.0000   1.0000   1.0000   1.0000   1.0000   1.0000   1.0000   1.0000
     1.0000   1.0000   1.0000   1.0000   1.0000   1.0000   1.0000   1.0000
     1.0000   1.0000   1.0000   1.0000   1.0000   1.0000   1.0000   1.0000
     1.0000   1.0000   1.0000   1.0000   1.0000   1.0000   1.0000   1.0000
     1.0000   1.0000   1.0000   1.0000   1.0000   1.0000   1.0000   1.0000
     1.0000   1.0000   1.0000   1.0000   1.0000   1.0000   1.0000   1.0000
     1.0000   1.0000   1.0000   1.0000   1.0000   1.0000   1.0000   1.0000

          k =-0.3397-0.3508 0.3379 (  5426 PWs)   bands (ev):

   -64.9466 -64.9418 -64.8922 -31.9378 -31.9351 -31.9108 -31.9093 -31.9000
   -31.8806 -31.8765 -31.8548 -31.8229 -29.0140 -28.7285 -28.5845 -28.5140
   -27.9781 -10.9576 -10.8948 -10.8477 -10.7189 -10.6387 -10.5111 -10.4574
   -10.4152 -10.1330  -9.9530  -9.8614  -9.6572  -9.5491  -9.3323  -9.2220
    -7.3071  -6.9597  -6.8632  -6.7196  -6.6366  -6.4612  -6.3017  -6.2122
     4.9425   5.1059   5.2100   5.4228   5.6496   5.8556   5.9875   6.1688
     6.2485   6.3068   6.3990   6.4697   6.5311   6.7341   6.9657   7.1395
     7.2028   7.3192   7.3842   7.4301   7.5074   7.5879   7.6023   7.8649

     occupation numbers 
     1.0000   1.0000   1.0000   1.0000   1.0000   1.0000   1.0000   1.0000
     1.0000   1.0000   1.0000   1.0000   1.0000   1.0000   1.0000   1.0000
     1.0000   1.0000   1.0000   1.0000   1.0000   1.0000   1.0000   1.0000
     1.0000   1.0000   1.0000   1.0000   1.0000   1.0000   1.0000   1.0000
     1.0000   1.0000   1.0000   1.0000   1.0000   1.0000   1.0000   1.0000
     1.0000   1.0000   1.0000   1.0000   1.0000   1.0000   1.0000   1.0000
     1.0000   1.0000   1.0000   1.0000   1.0000   1.0000   1.0000   1.0000
     1.0000   1.0000   1.0000   1.0000   1.0000   1.0000   1.0000   1.0000

          k = 0.1693-0.1779 0.1659 (  5433 PWs)   bands (ev):

   -64.9467 -64.9418 -64.8922 -31.9380 -31.9351 -31.9130 -31.9083 -31.9001
   -31.8829 -31.8728 -31.8550 -31.8226 -29.0171 -28.7409 -28.5623 -28.5194
   -27.9785 -11.2250 -11.1046 -11.0453 -10.8823 -10.4759 -10.3684 -10.1838
   -10.1142 -10.0139  -9.8316  -9.7784  -9.6448  -9.4992  -9.4024  -9.2267
    -7.6441  -7.3096  -7.0807  -6.9190  -6.3783  -6.2866  -6.0944  -6.0570
     4.5342   4.6281   4.7549   5.4976   5.7045   5.7961   5.8709   6.4238
     6.4477   6.5288   6.5920   6.7491   6.8159   6.8675   6.9535   7.1554
     7.1910   7.3126   7.3871   7.4582   7.5245   7.6602   7.8224   7.9807

     occupation numbers 
     1.0000   1.0000   1.0000   1.0000   1.0000   1.0000   1.0000   1.0000
     1.0000   1.0000   1.0000   1.0000   1.0000   1.0000   1.0000   1.0000
     1.0000   1.0000   1.0000   1.0000   1.0000   1.0000   1.0000   1.0000
     1.0000   1.0000   1.0000   1.0000   1.0000   1.0000   1.0000   1.0000
     1.0000   1.0000   1.0000   1.0000   1.0000   1.0000   1.0000   1.0000
     1.0000   1.0000   1.0000   1.0000   1.0000   1.0000   1.0000   1.0000
     1.0000   1.0000   1.0000   1.0000   1.0000   1.0000   1.0000   1.0000
     1.0000   1.0000   1.0000   1.0000   1.0000   1.0000   1.0000   1.0000

          k = 0.3392-0.0025-0.0031 (  5430 PWs)   bands (ev):

   -64.9467 -64.9418 -64.8922 -31.9380 -31.9351 -31.9120 -31.9087 -31.9002
   -31.8822 -31.8744 -31.8550 -31.8223 -29.0172 -28.7407 -28.5558 -28.5254
   -27.9791 -11.2491 -11.1027 -11.0415 -10.8929 -10.4270 -10.2993 -10.1485
   -10.1042  -9.9921  -9.8707  -9.8143  -9.6505  -9.5671  -9.4333  -9.2388
    -7.6361  -7.3065  -7.0694  -6.9295  -6.3847  -6.2739  -6.1701  -5.9585
     4.6132   4.6641   4.7174   5.4624   5.5323   5.9115   6.1079   6.3535
     6.5033   6.5524   6.6724   6.7344   6.8423   6.9043   6.9352   6.9983
     7.1021   7.1827   7.3202   7.3641   7.4435   7.6736   7.8891   7.9870

     occupation numbers 
     1.0000   1.0000   1.0000   1.0000   1.0000   1.0000   1.0000   1.0000
     1.0000   1.0000   1.0000   1.0000   1.0000   1.0000   1.0000   1.0000
     1.0000   1.0000   1.0000   1.0000   1.0000   1.0000   1.0000   1.0000
     1.0000   1.0000   1.0000   1.0000   1.0000   1.0000   1.0000   1.0000
     1.0000   1.0000   1.0000   1.0000   1.0000   1.0000   1.0000   1.0000
     1.0000   1.0000   1.0000   1.0000   1.0000   1.0000   1.0000   1.0000
     1.0000   1.0000   1.0000   1.0000   1.0000   1.0000   1.0000   1.0000
     1.0000   1.0000   1.0000   1.0000   1.0000   1.0000   1.0000   1.0000

          k =-0.1704-0.5287 0.5038 (  5427 PWs)   bands (ev):

   -64.9466 -64.9418 -64.8922 -31.9378 -31.9351 -31.9108 -31.9090 -31.9003
   -31.8808 -31.8765 -31.8550 -31.8226 -29.0140 -28.7338 -28.5716 -28.5200
   -27.9796 -11.0915 -10.9138 -10.8439 -10.7699 -10.5957 -10.4449 -10.3623
   -10.2899 -10.1039  -9.9282  -9.8345  -9.7262  -9.5710  -9.4359  -9.2395
    -7.3447  -7.0871  -6.8945  -6.7139  -6.5338  -6.4232  -6.3461  -6.0993
     4.8846   4.9696   5.1111   5.5477   5.7238   5.8938   6.0433   6.1252
     6.2467   6.3251   6.4706   6.5829   6.6575   6.7530   6.9074   7.0355
     7.1550   7.2287   7.2755   7.3882   7.4397   7.5962   7.7000   7.8676

     occupation numbers 
     1.0000   1.0000   1.0000   1.0000   1.0000   1.0000   1.0000   1.0000
     1.0000   1.0000   1.0000   1.0000   1.0000   1.0000   1.0000   1.0000
     1.0000   1.0000   1.0000   1.0000   1.0000   1.0000   1.0000   1.0000
     1.0000   1.0000   1.0000   1.0000   1.0000   1.0000   1.0000   1.0000
     1.0000   1.0000   1.0000   1.0000   1.0000   1.0000   1.0000   1.0000
     1.0000   1.0000   1.0000   1.0000   1.0000   1.0000   1.0000   1.0000
     1.0000   1.0000   1.0000   1.0000   1.0000   1.0000   1.0000   1.0000
     1.0000   1.0000   1.0000   1.0000   1.0000   1.0000   1.0000   1.0000

          k =-0.0006-0.3533 0.3348 (  5428 PWs)   bands (ev):

   -64.9467 -64.9418 -64.8922 -31.9379 -31.9351 -31.9121 -31.9083 -31.9002
   -31.8820 -31.8743 -31.8551 -31.8229 -29.0139 -28.7340 -28.5761 -28.5160
   -27.9789 -11.0295 -10.9224 -10.8478 -10.7389 -10.6949 -10.5147 -10.3466
   -10.3196 -10.1416  -9.9030  -9.8049  -9.6838  -9.5148  -9.4258  -9.2326
    -7.3489  -7.0922  -6.8934  -6.7115  -6.5201  -6.4339  -6.2843  -6.1942
     4.8406   4.9612   5.0958   5.5256   5.6455   5.8528   5.9922   6.1550
     6.2240   6.3297   6.4731   6.6297   6.7578   6.8620   6.8836   7.0619
     7.1752   7.2373   7.3087   7.3991   7.5194   7.6147   7.6974   7.8647

     occupation numbers 
     1.0000   1.0000   1.0000   1.0000   1.0000   1.0000   1.0000   1.0000
     1.0000   1.0000   1.0000   1.0000   1.0000   1.0000   1.0000   1.0000
     1.0000   1.0000   1.0000   1.0000   1.0000   1.0000   1.0000   1.0000
     1.0000   1.0000   1.0000   1.0000   1.0000   1.0000   1.0000   1.0000
     1.0000   1.0000   1.0000   1.0000   1.0000   1.0000   1.0000   1.0000
     1.0000   1.0000   1.0000   1.0000   1.0000   1.0000   1.0000   1.0000
     1.0000   1.0000   1.0000   1.0000   1.0000   1.0000   1.0000   1.0000
     1.0000   1.0000   1.0000   1.0000   1.0000   1.0000   1.0000   1.0000

          k =-0.3386 0.3558-0.3317 (  5426 PWs)   bands (ev):

   -64.9467 -64.9418 -64.8922 -31.9380 -31.9351 -31.9129 -31.9077 -31.9005
   -31.8828 -31.8727 -31.8554 -31.8229 -29.0137 -28.7394 -28.5669 -28.5190
   -27.9797 -11.0762 -10.9353 -10.8082 -10.7416 -10.6849 -10.5246 -10.4834
   -10.2551 -10.0362  -9.8915  -9.7517  -9.6789  -9.5833  -9.4213  -9.2323
    -7.3462  -7.2039  -6.7015  -6.6619  -6.5431  -6.3912  -6.3653  -6.2894
     4.9121   5.1845   5.2135   5.3630   5.5844   5.8230   5.9066   6.1927
     6.2584   6.3031   6.3814   6.3995   6.6443   6.8427   6.9861   7.0770
     7.1449   7.3221   7.3877   7.4768   7.5156   7.5800   7.6998   7.8673

     occupation numbers 
     1.0000   1.0000   1.0000   1.0000   1.0000   1.0000   1.0000   1.0000
     1.0000   1.0000   1.0000   1.0000   1.0000   1.0000   1.0000   1.0000
     1.0000   1.0000   1.0000   1.0000   1.0000   1.0000   1.0000   1.0000
     1.0000   1.0000   1.0000   1.0000   1.0000   1.0000   1.0000   1.0000
     1.0000   1.0000   1.0000   1.0000   1.0000   1.0000   1.0000   1.0000
     1.0000   1.0000   1.0000   1.0000   1.0000   1.0000   1.0000   1.0000
     1.0000   1.0000   1.0000   1.0000   1.0000   1.0000   1.0000   1.0000
     1.0000   1.0000   1.0000   1.0000   1.0000   1.0000   1.0000   1.0000

          k =-0.1687 0.5312-0.5007 (  5424 PWs)   bands (ev):

   -64.9467 -64.9418 -64.8922 -31.9379 -31.9351 -31.9120 -31.9080 -31.9005
   -31.8822 -31.8743 -31.8553 -31.8226 -29.0138 -28.7390 -28.5617 -28.5238
   -27.9804 -11.1206 -10.9244 -10.8764 -10.7944 -10.5654 -10.4802 -10.3700
   -10.2168 -10.0523  -9.8380  -9.8104  -9.7525  -9.6008  -9.4848  -9.2416
    -7.3600  -7.1936  -6.8590  -6.6298  -6.5172  -6.4119  -6.3731  -6.1187
     4.8591   4.9946   5.1480   5.4853   5.6867   5.8640   5.9922   6.1225
     6.2689   6.3609   6.4772   6.5854   6.7015   6.8419   6.9014   6.9922
     7.1313   7.1759   7.2818   7.3635   7.5041   7.6091   7.7335   7.8621

     occupation numbers 
     1.0000   1.0000   1.0000   1.0000   1.0000   1.0000   1.0000   1.0000
     1.0000   1.0000   1.0000   1.0000   1.0000   1.0000   1.0000   1.0000
     1.0000   1.0000   1.0000   1.0000   1.0000   1.0000   1.0000   1.0000
     1.0000   1.0000   1.0000   1.0000   1.0000   1.0000   1.0000   1.0000
     1.0000   1.0000   1.0000   1.0000   1.0000   1.0000   1.0000   1.0000
     1.0000   1.0000   1.0000   1.0000   1.0000   1.0000   1.0000   1.0000
     1.0000   1.0000   1.0000   1.0000   1.0000   1.0000   1.0000   1.0000
     1.0000   1.0000   1.0000   1.0000   1.0000   1.0000   1.0000   1.0000

          k =-0.6784 0.0050 0.0061 (  5434 PWs)   bands (ev):

   -64.9466 -64.9418 -64.8922 -31.9379 -31.9352 -31.9108 -31.9087 -31.9005
   -31.8809 -31.8765 -31.8552 -31.8224 -29.0139 -28.7389 -28.5530 -28.5319
   -27.9811 -11.1715 -10.9445 -10.8869 -10.8035 -10.4644 -10.3671 -10.3120
   -10.1666 -10.1039  -9.9098  -9.8392  -9.7925  -9.6226  -9.5177  -9.2460
    -7.3772  -7.1944  -6.9646  -6.5334  -6.5219  -6.4579  -6.3758  -6.0040
     4.8025   4.8948   5.0257   5.5900   5.8226   5.9600   6.1105   6.2027
     6.3616   6.3994   6.5172   6.5997   6.6591   6.7178   6.8427   6.9091
     7.0039   7.0280   7.1472   7.3897   7.4478   7.7476   7.8055   7.8630

     occupation numbers 
     1.0000   1.0000   1.0000   1.0000   1.0000   1.0000   1.0000   1.0000
     1.0000   1.0000   1.0000   1.0000   1.0000   1.0000   1.0000   1.0000
     1.0000   1.0000   1.0000   1.0000   1.0000   1.0000   1.0000   1.0000
     1.0000   1.0000   1.0000   1.0000   1.0000   1.0000   1.0000   1.0000
     1.0000   1.0000   1.0000   1.0000   1.0000   1.0000   1.0000   1.0000
     1.0000   1.0000   1.0000   1.0000   1.0000   1.0000   1.0000   1.0000
     1.0000   1.0000   1.0000   1.0000   1.0000   1.0000   1.0000   1.0000
     1.0000   1.0000   1.0000   1.0000   1.0000   1.0000   1.0000   1.0000

          k =-0.1724 0.1829 0.1739 (  5445 PWs)   bands (ev):

   -64.9467 -64.9418 -64.8922 -31.9381 -31.9351 -31.9130 -31.9089 -31.8999
   -31.8830 -31.8729 -31.8547 -31.8223 -29.0200 -28.7407 -28.5565 -28.5195
   -27.9810 -11.2483 -11.1844 -11.1125 -10.9614 -10.3544 -10.2545 -10.0893
   -10.0183  -9.8783  -9.8475  -9.7446  -9.6368  -9.5787  -9.4745  -9.4051
    -7.6987  -7.2858  -7.1043  -6.9001  -6.3340  -6.2946  -6.1007  -6.0571
     4.5954   4.6467   4.7424   5.5022   5.6432   5.7532   5.8739   6.5106
     6.5466   6.5998   6.6653   6.6979   6.7640   6.8235   6.9536   7.1262
     7.2150   7.2455   7.3738   7.4334   7.5444   7.6227   7.7719   7.8445

     occupation numbers 
     1.0000   1.0000   1.0000   1.0000   1.0000   1.0000   1.0000   1.0000
     1.0000   1.0000   1.0000   1.0000   1.0000   1.0000   1.0000   1.0000
     1.0000   1.0000   1.0000   1.0000   1.0000   1.0000   1.0000   1.0000
     1.0000   1.0000   1.0000   1.0000   1.0000   1.0000   1.0000   1.0000
     1.0000   1.0000   1.0000   1.0000   1.0000   1.0000   1.0000   1.0000
     1.0000   1.0000   1.0000   1.0000   1.0000   1.0000   1.0000   1.0000
     1.0000   1.0000   1.0000   1.0000   1.0000   1.0000   1.0000   1.0000
     1.0000   1.0000   1.0000   1.0000   1.0000   1.0000   1.0000   1.0000

          k =-0.0025 0.3583 0.0050 (  5441 PWs)   bands (ev):

   -64.9467 -64.9418 -64.8922 -31.9379 -31.9351 -31.9121 -31.9090 -31.8999
   -31.8821 -31.8744 -31.8548 -31.8226 -29.0170 -28.7361 -28.5690 -28.5162
   -27.9801 -11.1239 -11.1000 -11.0154 -10.8861 -10.5711 -10.2816 -10.1873
   -10.1156  -9.9903  -9.9032  -9.8103  -9.6904  -9.5380  -9.4142  -9.3206
    -7.5342  -7.2597  -7.0861  -6.6919  -6.3972  -6.3203  -6.2732  -6.0662
     4.6788   4.7082   4.8144   5.5222   5.5889   5.8605   5.9493   6.3369
     6.3920   6.5344   6.6892   6.7653   6.8716   6.8967   6.9918   7.0859
     7.1520   7.2327   7.2917   7.3367   7.4318   7.5601   7.8044   7.9069

     occupation numbers 
     1.0000   1.0000   1.0000   1.0000   1.0000   1.0000   1.0000   1.0000
     1.0000   1.0000   1.0000   1.0000   1.0000   1.0000   1.0000   1.0000
     1.0000   1.0000   1.0000   1.0000   1.0000   1.0000   1.0000   1.0000
     1.0000   1.0000   1.0000   1.0000   1.0000   1.0000   1.0000   1.0000
     1.0000   1.0000   1.0000   1.0000   1.0000   1.0000   1.0000   1.0000
     1.0000   1.0000   1.0000   1.0000   1.0000   1.0000   1.0000   1.0000
     1.0000   1.0000   1.0000   1.0000   1.0000   1.0000   1.0000   1.0000
     1.0000   1.0000   1.0000   1.0000   1.0000   1.0000   1.0000   1.0000

          k =-0.5121-0.1679 0.5118 (  5434 PWs)   bands (ev):

   -64.9466 -64.9418 -64.8922 -31.9378 -31.9352 -31.9108 -31.9093 -31.9000
   -31.8806 -31.8765 -31.8548 -31.8229 -29.0137 -28.7289 -28.5818 -28.5141
   -27.9805 -10.9545 -10.9208 -10.8177 -10.7276 -10.6370 -10.4722 -10.4038
   -10.3528 -10.1489  -9.9586  -9.8643  -9.6765  -9.5585  -9.4194  -9.3231
    -7.2849  -6.9714  -6.8472  -6.7231  -6.5958  -6.4802  -6.2854  -6.1718
     4.9121   5.0035   5.1170   5.6080   5.6945   5.8769   6.0442   6.0890
     6.2515   6.3609   6.4217   6.4972   6.7149   6.8792   6.9131   7.0748
     7.1400   7.2361   7.3242   7.3621   7.4522   7.5720   7.6147   7.7228

     occupation numbers 
     1.0000   1.0000   1.0000   1.0000   1.0000   1.0000   1.0000   1.0000
     1.0000   1.0000   1.0000   1.0000   1.0000   1.0000   1.0000   1.0000
     1.0000   1.0000   1.0000   1.0000   1.0000   1.0000   1.0000   1.0000
     1.0000   1.0000   1.0000   1.0000   1.0000   1.0000   1.0000   1.0000
     1.0000   1.0000   1.0000   1.0000   1.0000   1.0000   1.0000   1.0000
     1.0000   1.0000   1.0000   1.0000   1.0000   1.0000   1.0000   1.0000
     1.0000   1.0000   1.0000   1.0000   1.0000   1.0000   1.0000   1.0000
     1.0000   1.0000   1.0000   1.0000   1.0000   1.0000   1.0000   1.0000

          k =-0.3423 0.0075 0.3429 (  5427 PWs)   bands (ev):

   -64.9467 -64.9418 -64.8922 -31.9380 -31.9351 -31.9121 -31.9090 -31.9000
   -31.8822 -31.8744 -31.8548 -31.8226 -29.0168 -28.7343 -28.5696 -28.5163
   -27.9815 -11.1768 -11.0294 -10.9692 -10.8454 -10.4421 -10.3005 -10.2420
   -10.1242 -10.0295  -9.9462  -9.8665  -9.7007  -9.6030  -9.4556  -9.3603
    -7.4740  -7.0561  -6.9449  -6.7417  -6.5525  -6.3880  -6.3243  -6.0095
     4.8576   4.9333   5.0131   5.4627   5.5636   5.7598   6.0759   6.2454
     6.3587   6.4692   6.5909   6.6627   6.7878   6.8791   6.9658   6.9825
     7.0595   7.1615   7.3099   7.3789   7.4104   7.4879   7.6965   7.8576

     occupation numbers 
     1.0000   1.0000   1.0000   1.0000   1.0000   1.0000   1.0000   1.0000
     1.0000   1.0000   1.0000   1.0000   1.0000   1.0000   1.0000   1.0000
     1.0000   1.0000   1.0000   1.0000   1.0000   1.0000   1.0000   1.0000
     1.0000   1.0000   1.0000   1.0000   1.0000   1.0000   1.0000   1.0000
     1.0000   1.0000   1.0000   1.0000   1.0000   1.0000   1.0000   1.0000
     1.0000   1.0000   1.0000   1.0000   1.0000   1.0000   1.0000   1.0000
     1.0000   1.0000   1.0000   1.0000   1.0000   1.0000   1.0000   1.0000
     1.0000   1.0000   1.0000   1.0000   1.0000   1.0000   1.0000   1.0000

          k =-0.0031 0.0050 0.3398 (  5428 PWs)   bands (ev):

   -64.9467 -64.9418 -64.8922 -31.9381 -31.9351 -31.9130 -31.9082 -31.9002
   -31.8829 -31.8728 -31.8550 -31.8226 -29.0170 -28.7398 -28.5629 -28.5191
   -27.9793 -11.2381 -11.1231 -11.0172 -10.8588 -10.4269 -10.3243 -10.1902
   -10.0931 -10.0437  -9.8550  -9.8074  -9.6598  -9.5187  -9.4285  -9.2760
    -7.5998  -7.2151  -7.0873  -6.9734  -6.4701  -6.3347  -6.0361  -5.9819
     4.5753   4.6467   4.7459   5.5049   5.5713   5.8825   6.1138   6.3187
     6.4948   6.5547   6.6989   6.7190   6.7810   6.8899   6.9558   6.9803
     7.1934   7.2308   7.3099   7.4434   7.4915   7.5428   7.8670   7.9501

     occupation numbers 
     1.0000   1.0000   1.0000   1.0000   1.0000   1.0000   1.0000   1.0000
     1.0000   1.0000   1.0000   1.0000   1.0000   1.0000   1.0000   1.0000
     1.0000   1.0000   1.0000   1.0000   1.0000   1.0000   1.0000   1.0000
     1.0000   1.0000   1.0000   1.0000   1.0000   1.0000   1.0000   1.0000
     1.0000   1.0000   1.0000   1.0000   1.0000   1.0000   1.0000   1.0000
     1.0000   1.0000   1.0000   1.0000   1.0000   1.0000   1.0000   1.0000
     1.0000   1.0000   1.0000   1.0000   1.0000   1.0000   1.0000   1.0000
     1.0000   1.0000   1.0000   1.0000   1.0000   1.0000   1.0000   1.0000

          k = 0.1668 0.1804 0.1708 (  5436 PWs)   bands (ev):

   -64.9467 -64.9418 -64.8922 -31.9380 -31.9351 -31.9120 -31.9087 -31.9002
   -31.8822 -31.8744 -31.8549 -31.8223 -29.0172 -28.7415 -28.5563 -28.5245
   -27.9786 -11.2221 -11.1679 -11.0307 -10.9002 -10.4298 -10.3464 -10.1849
   -10.0845 -10.0023  -9.8533  -9.7957  -9.6252  -9.4820  -9.3829  -9.2599
    -7.6386  -7.2527  -7.1986  -6.9193  -6.4279  -6.3007  -6.0838  -5.9789
     4.5755   4.6199   4.7316   5.5227   5.7277   5.7873   5.9203   6.4396
     6.4880   6.5529   6.6079   6.6697   6.8054   6.8556   6.9734   7.1382
     7.1700   7.2667   7.3683   7.4843   7.5356   7.5743   7.8258   7.9152

     occupation numbers 
     1.0000   1.0000   1.0000   1.0000   1.0000   1.0000   1.0000   1.0000
     1.0000   1.0000   1.0000   1.0000   1.0000   1.0000   1.0000   1.0000
     1.0000   1.0000   1.0000   1.0000   1.0000   1.0000   1.0000   1.0000
     1.0000   1.0000   1.0000   1.0000   1.0000   1.0000   1.0000   1.0000
     1.0000   1.0000   1.0000   1.0000   1.0000   1.0000   1.0000   1.0000
     1.0000   1.0000   1.0000   1.0000   1.0000   1.0000   1.0000   1.0000
     1.0000   1.0000   1.0000   1.0000   1.0000   1.0000   1.0000   1.0000
     1.0000   1.0000   1.0000   1.0000   1.0000   1.0000   1.0000   1.0000

          k =-0.3428-0.3458 0.6777 (  5435 PWs)   bands (ev):

   -64.9466 -64.9418 -64.8922 -31.9378 -31.9351 -31.9108 -31.9090 -31.9003
   -31.8808 -31.8765 -31.8550 -31.8226 -29.0140 -28.7347 -28.5716 -28.5195
   -27.9790 -11.0347 -10.9855 -10.8572 -10.7920 -10.6794 -10.4526 -10.3033
   -10.2810 -10.1099  -9.9017  -9.8107  -9.7126  -9.5250  -9.3805  -9.2632
    -7.3486  -7.0962  -7.0075  -6.6862  -6.5462  -6.3888  -6.3119  -6.1267
     4.8585   4.9810   5.0760   5.5616   5.6798   5.8530   5.9998   6.0468
     6.2133   6.4445   6.5186   6.6218   6.7541   6.8234   6.9989   7.0632
     7.1442   7.2216   7.2878   7.3418   7.4749   7.5657   7.6716   7.8004

     occupation numbers 
     1.0000   1.0000   1.0000   1.0000   1.0000   1.0000   1.0000   1.0000
     1.0000   1.0000   1.0000   1.0000   1.0000   1.0000   1.0000   1.0000
     1.0000   1.0000   1.0000   1.0000   1.0000   1.0000   1.0000   1.0000
     1.0000   1.0000   1.0000   1.0000   1.0000   1.0000   1.0000   1.0000
     1.0000   1.0000   1.0000   1.0000   1.0000   1.0000   1.0000   1.0000
     1.0000   1.0000   1.0000   1.0000   1.0000   1.0000   1.0000   1.0000
     1.0000   1.0000   1.0000   1.0000   1.0000   1.0000   1.0000   1.0000
     1.0000   1.0000   1.0000   1.0000   1.0000   1.0000   1.0000   1.0000

          k =-0.1729-0.1704 0.5087 (  5438 PWs)   bands (ev):

   -64.9467 -64.9418 -64.8922 -31.9380 -31.9351 -31.9121 -31.9083 -31.9003
   -31.8821 -31.8743 -31.8551 -31.8229 -29.0137 -28.7329 -28.5767 -28.5159
   -27.9798 -11.0675 -10.9333 -10.8238 -10.6862 -10.6160 -10.5142 -10.3874
   -10.3117 -10.1176  -9.9322  -9.8288  -9.6994  -9.5730  -9.4047  -9.2735
    -7.3284  -6.9996  -6.8737  -6.7760  -6.6504  -6.4445  -6.2182  -6.1321
     4.8881   4.9689   5.0730   5.5184   5.7595   5.8843   6.0811   6.1434
     6.1991   6.3384   6.5006   6.6002   6.7261   6.7457   6.8785   7.0458
     7.1294   7.2493   7.3229   7.3662   7.5164   7.5834   7.6063   7.7899

     occupation numbers 
     1.0000   1.0000   1.0000   1.0000   1.0000   1.0000   1.0000   1.0000
     1.0000   1.0000   1.0000   1.0000   1.0000   1.0000   1.0000   1.0000
     1.0000   1.0000   1.0000   1.0000   1.0000   1.0000   1.0000   1.0000
     1.0000   1.0000   1.0000   1.0000   1.0000   1.0000   1.0000   1.0000
     1.0000   1.0000   1.0000   1.0000   1.0000   1.0000   1.0000   1.0000
     1.0000   1.0000   1.0000   1.0000   1.0000   1.0000   1.0000   1.0000
     1.0000   1.0000   1.0000   1.0000   1.0000   1.0000   1.0000   1.0000
     1.0000   1.0000   1.0000   1.0000   1.0000   1.0000   1.0000   1.0000

          k =-0.5110 0.5387-0.1578 (  5427 PWs)   bands (ev):

   -64.9467 -64.9418 -64.8922 -31.9381 -31.9351 -31.9129 -31.9076 -31.9005
   -31.8829 -31.8727 -31.8554 -31.8229 -29.0136 -28.7383 -28.5674 -28.5189
   -27.9806 -11.1120 -10.9200 -10.8729 -10.6996 -10.5921 -10.5061 -10.4324
   -10.2390 -10.0963  -9.8951  -9.7789  -9.6813  -9.5254  -9.4620  -9.3381
    -7.3523  -7.0472  -6.9298  -6.7508  -6.5325  -6.4249  -6.2419  -6.1599
     4.8881   4.9682   5.0492   5.6195   5.6884   5.8263   6.0463   6.1362
     6.2631   6.3473   6.4096   6.5320   6.7043   6.8303   6.8987   7.0907
     7.1664   7.2678   7.3183   7.4129   7.4841   7.5559   7.6950   7.7315

     occupation numbers 
     1.0000   1.0000   1.0000   1.0000   1.0000   1.0000   1.0000   1.0000
     1.0000   1.0000   1.0000   1.0000   1.0000   1.0000   1.0000   1.0000
     1.0000   1.0000   1.0000   1.0000   1.0000   1.0000   1.0000   1.0000
     1.0000   1.0000   1.0000   1.0000   1.0000   1.0000   1.0000   1.0000
     1.0000   1.0000   1.0000   1.0000   1.0000   1.0000   1.0000   1.0000
     1.0000   1.0000   1.0000   1.0000   1.0000   1.0000   1.0000   1.0000
     1.0000   1.0000   1.0000   1.0000   1.0000   1.0000   1.0000   1.0000
     1.0000   1.0000   1.0000   1.0000   1.0000   1.0000   1.0000   1.0000

          k =-0.3411 0.7141-0.3268 (  5442 PWs)   bands (ev):

   -64.9467 -64.9418 -64.8922 -31.9379 -31.9351 -31.9120 -31.9080 -31.9005
   -31.8821 -31.8743 -31.8553 -31.8226 -29.0139 -28.7399 -28.5613 -28.5238
   -27.9799 -11.1569 -10.9981 -10.8843 -10.7581 -10.5399 -10.4985 -10.3178
   -10.2192 -10.0828  -9.8297  -9.8224  -9.6996  -9.5241  -9.4235  -9.3011
    -7.3902  -7.0847  -7.0001  -6.8939  -6.5186  -6.4385  -6.1785  -6.0248
     4.7894   4.9149   5.0226   5.4607   5.7050   5.7804   6.0559   6.1869
     6.2528   6.4681   6.5435   6.6335   6.8314   6.8817   6.9660   7.0493
     7.1140   7.1366   7.2911   7.3342   7.4532   7.5373   7.7788   7.8519

     occupation numbers 
     1.0000   1.0000   1.0000   1.0000   1.0000   1.0000   1.0000   1.0000
     1.0000   1.0000   1.0000   1.0000   1.0000   1.0000   1.0000   1.0000
     1.0000   1.0000   1.0000   1.0000   1.0000   1.0000   1.0000   1.0000
     1.0000   1.0000   1.0000   1.0000   1.0000   1.0000   1.0000   1.0000
     1.0000   1.0000   1.0000   1.0000   1.0000   1.0000   1.0000   1.0000
     1.0000   1.0000   1.0000   1.0000   1.0000   1.0000   1.0000   1.0000
     1.0000   1.0000   1.0000   1.0000   1.0000   1.0000   1.0000   1.0000
     1.0000   1.0000   1.0000   1.0000   1.0000   1.0000   1.0000   1.0000

          k =-0.8507 0.1879 0.1801 (  5449 PWs)   bands (ev):

   -64.9466 -64.9418 -64.8922 -31.9379 -31.9352 -31.9108 -31.9087 -31.9006
   -31.8809 -31.8765 -31.8552 -31.8224 -29.0139 -28.7397 -28.5538 -28.5307
   -27.9805 -11.1284 -11.0099 -10.8678 -10.8151 -10.5254 -10.3988 -10.3591
   -10.1714 -10.0970  -9.9046  -9.8074  -9.6557  -9.6101  -9.4336  -9.3252
    -7.3542  -7.0721  -6.9484  -6.8270  -6.5585  -6.4153  -6.2130  -6.0970
     4.8744   5.0034   5.1204   5.5642   5.7368   5.8116   6.0740   6.1416
     6.3096   6.3570   6.3918   6.4858   6.6792   6.7838   6.9671   7.0459
     7.1331   7.2454   7.2926   7.3680   7.4613   7.5294   7.7062   7.7631

     occupation numbers 
     1.0000   1.0000   1.0000   1.0000   1.0000   1.0000   1.0000   1.0000
     1.0000   1.0000   1.0000   1.0000   1.0000   1.0000   1.0000   1.0000
     1.0000   1.0000   1.0000   1.0000   1.0000   1.0000   1.0000   1.0000
     1.0000   1.0000   1.0000   1.0000   1.0000   1.0000   1.0000   1.0000
     1.0000   1.0000   1.0000   1.0000   1.0000   1.0000   1.0000   1.0000
     1.0000   1.0000   1.0000   1.0000   1.0000   1.0000   1.0000   1.0000
     1.0000   1.0000   1.0000   1.0000   1.0000   1.0000   1.0000   1.0000
     1.0000   1.0000   1.0000   1.0000   1.0000   1.0000   1.0000   1.0000

          k =-0.6809 0.3633 0.0111 (  5436 PWs)   bands (ev):

   -64.9467 -64.9418 -64.8922 -31.9380 -31.9351 -31.9120 -31.9080 -31.9005
   -31.8822 -31.8743 -31.8553 -31.8226 -29.0137 -28.7379 -28.5630 -28.5229
   -27.9812 -11.0615 -10.9134 -10.8706 -10.8001 -10.6512 -10.4117 -10.3709
   -10.1945 -10.0745  -9.9092  -9.8056  -9.7393  -9.5951  -9.4595  -9.3461
    -7.3208  -7.0421  -6.8471  -6.6418  -6.5559  -6.4045  -6.3581  -6.2261
     5.0020   5.1004   5.1964   5.5095   5.7717   5.8421   5.9821   6.0251
     6.2140   6.2970   6.4774   6.5616   6.6951   6.8002   6.8987   7.0058
     7.1231   7.2226   7.3233   7.3799   7.4405   7.5449   7.6141   7.6913

     occupation numbers 
     1.0000   1.0000   1.0000   1.0000   1.0000   1.0000   1.0000   1.0000
     1.0000   1.0000   1.0000   1.0000   1.0000   1.0000   1.0000   1.0000
     1.0000   1.0000   1.0000   1.0000   1.0000   1.0000   1.0000   1.0000
     1.0000   1.0000   1.0000   1.0000   1.0000   1.0000   1.0000   1.0000
     1.0000   1.0000   1.0000   1.0000   1.0000   1.0000   1.0000   1.0000
     1.0000   1.0000   1.0000   1.0000   1.0000   1.0000   1.0000   1.0000
     1.0000   1.0000   1.0000   1.0000   1.0000   1.0000   1.0000   1.0000
     1.0000   1.0000   1.0000   1.0000   1.0000   1.0000   1.0000   1.0000

          k =-0.3417 0.3608 0.0080 (  5450 PWs)   bands (ev):

   -64.9467 -64.9418 -64.8922 -31.9381 -31.9351 -31.9130 -31.9083 -31.9002
   -31.8830 -31.8728 -31.8551 -31.8226 -29.0166 -28.7393 -28.5608 -28.5193
   -27.9823 -11.1467 -11.0267 -10.9879 -10.8852 -10.5362 -10.3681 -10.1978
   -10.0579 -10.0112  -9.8785  -9.7781  -9.7045  -9.5984  -9.5105  -9.3940
    -7.4749  -7.2316  -6.7333  -6.6239  -6.4456  -6.4049  -6.3109  -6.2879
     4.9194   5.0445   5.0738   5.4167   5.5642   5.7460   6.0441   6.1153
     6.3077   6.3851   6.5316   6.6779   6.8071   6.9070   6.9769   7.0228
     7.0608   7.1600   7.3056   7.4073   7.4750   7.5631   7.6726   7.7804

     occupation numbers 
     1.0000   1.0000   1.0000   1.0000   1.0000   1.0000   1.0000   1.0000
     1.0000   1.0000   1.0000   1.0000   1.0000   1.0000   1.0000   1.0000
     1.0000   1.0000   1.0000   1.0000   1.0000   1.0000   1.0000   1.0000
     1.0000   1.0000   1.0000   1.0000   1.0000   1.0000   1.0000   1.0000
     1.0000   1.0000   1.0000   1.0000   1.0000   1.0000   1.0000   1.0000
     1.0000   1.0000   1.0000   1.0000   1.0000   1.0000   1.0000   1.0000
     1.0000   1.0000   1.0000   1.0000   1.0000   1.0000   1.0000   1.0000
     1.0000   1.0000   1.0000   1.0000   1.0000   1.0000   1.0000   1.0000

          k =-0.1718 0.5362-0.1609 (  5446 PWs)   bands (ev):

   -64.9467 -64.9418 -64.8922 -31.9379 -31.9351 -31.9121 -31.9083 -31.9002
   -31.8821 -31.8743 -31.8551 -31.8229 -29.0136 -28.7343 -28.5733 -28.5163
   -27.9813 -11.0161 -10.8989 -10.8662 -10.7532 -10.6236 -10.4739 -10.4018
   -10.3091 -10.0679  -9.9029  -9.8089  -9.7125  -9.6063  -9.4540  -9.3190
    -7.3025  -7.1014  -6.7604  -6.7294  -6.5284  -6.4257  -6.3338  -6.1977
     4.9109   4.9967   5.1607   5.4699   5.7266   5.8966   6.0292   6.1057
     6.1597   6.3439   6.4905   6.6056   6.7108   6.8861   6.8997   7.0268
     7.1242   7.2268   7.2885   7.3663   7.4980   7.5773   7.6036   7.7949

     occupation numbers 
     1.0000   1.0000   1.0000   1.0000   1.0000   1.0000   1.0000   1.0000
     1.0000   1.0000   1.0000   1.0000   1.0000   1.0000   1.0000   1.0000
     1.0000   1.0000   1.0000   1.0000   1.0000   1.0000   1.0000   1.0000
     1.0000   1.0000   1.0000   1.0000   1.0000   1.0000   1.0000   1.0000
     1.0000   1.0000   1.0000   1.0000   1.0000   1.0000   1.0000   1.0000
     1.0000   1.0000   1.0000   1.0000   1.0000   1.0000   1.0000   1.0000
     1.0000   1.0000   1.0000   1.0000   1.0000   1.0000   1.0000   1.0000
     1.0000   1.0000   1.0000   1.0000   1.0000   1.0000   1.0000   1.0000

          k =-0.6814 0.0100 0.3459 (  5449 PWs)   bands (ev):

   -64.9466 -64.9418 -64.8922 -31.9378 -31.9352 -31.9108 -31.9091 -31.9003
   -31.8808 -31.8765 -31.8550 -31.8226 -29.0137 -28.7341 -28.5686 -28.5204
   -27.9820 -11.0853 -10.9193 -10.8271 -10.7459 -10.5428 -10.4324 -10.3781
   -10.2614 -10.0981  -9.8940  -9.8613  -9.7454  -9.6329  -9.4899  -9.3391
    -7.2983  -6.9415  -6.8578  -6.7210  -6.6153  -6.5060  -6.3402  -6.0558
     4.9543   4.9789   5.2093   5.5615   5.7942   5.8453   5.9603   6.0521
     6.3493   6.3881   6.4673   6.6129   6.7258   6.7909   6.8808   6.9554
     7.0203   7.1222   7.2427   7.3607   7.4360   7.5551   7.7007   7.7508

     occupation numbers 
     1.0000   1.0000   1.0000   1.0000   1.0000   1.0000   1.0000   1.0000
     1.0000   1.0000   1.0000   1.0000   1.0000   1.0000   1.0000   1.0000
     1.0000   1.0000   1.0000   1.0000   1.0000   1.0000   1.0000   1.0000
     1.0000   1.0000   1.0000   1.0000   1.0000   1.0000   1.0000   1.0000
     1.0000   1.0000   1.0000   1.0000   1.0000   1.0000   1.0000   1.0000
     1.0000   1.0000   1.0000   1.0000   1.0000   1.0000   1.0000   1.0000
     1.0000   1.0000   1.0000   1.0000   1.0000   1.0000   1.0000   1.0000
     1.0000   1.0000   1.0000   1.0000   1.0000   1.0000   1.0000   1.0000

          k =-0.5116 0.1854 0.1770 (  5432 PWs)   bands (ev):

   -64.9467 -64.9418 -64.8922 -31.9381 -31.9351 -31.9120 -31.9088 -31.9002
   -31.8823 -31.8744 -31.8550 -31.8224 -29.0167 -28.7390 -28.5542 -28.5254
   -27.9830 -11.1788 -11.0381 -10.9902 -10.8849 -10.4121 -10.2881 -10.1866
   -10.0817  -9.9901  -9.8822  -9.8320  -9.8016  -9.6296  -9.5366  -9.3867
    -7.4698  -7.1228  -6.8477  -6.6238  -6.5145  -6.4257  -6.3529  -6.1133
     4.9459   5.0139   5.1344   5.4654   5.6695   5.7319   6.0804   6.2163
     6.2829   6.4299   6.4608   6.5529   6.7254   6.8072   6.8791   7.0033
     7.1070   7.1913   7.2456   7.3853   7.4929   7.5465   7.6726   7.7507

     occupation numbers 
     1.0000   1.0000   1.0000   1.0000   1.0000   1.0000   1.0000   1.0000
     1.0000   1.0000   1.0000   1.0000   1.0000   1.0000   1.0000   1.0000
     1.0000   1.0000   1.0000   1.0000   1.0000   1.0000   1.0000   1.0000
     1.0000   1.0000   1.0000   1.0000   1.0000   1.0000   1.0000   1.0000
     1.0000   1.0000   1.0000   1.0000   1.0000   1.0000   1.0000   1.0000
     1.0000   1.0000   1.0000   1.0000   1.0000   1.0000   1.0000   1.0000
     1.0000   1.0000   1.0000   1.0000   1.0000   1.0000   1.0000   1.0000
     1.0000   1.0000   1.0000   1.0000   1.0000   1.0000   1.0000   1.0000

          k = 0.3448-0.3658-0.3478 (  5442 PWs)   bands (ev):

   -64.9467 -64.9418 -64.8922 -31.9382 -31.9351 -31.9131 -31.9089 -31.8999
   -31.8831 -31.8729 -31.8547 -31.8224 -29.0195 -28.7391 -28.5551 -28.5192
   -27.9849 -11.1865 -11.1175 -11.0784 -10.9239 -10.3748 -10.2082 -10.0984
    -9.9777  -9.9064  -9.8457  -9.8234  -9.7883  -9.6566  -9.5572  -9.5364
    -7.5729  -7.0225  -6.7322  -6.6279  -6.5551  -6.4197  -6.3478  -6.2450
     5.1293   5.1365   5.3265   5.3615   5.3747   5.6978   6.1031   6.1820
     6.2502   6.2841   6.5050   6.5987   6.7076   6.7948   6.8890   6.9765
     7.1460   7.2056   7.2985   7.3659   7.4903   7.5801   7.6608   7.6999

     occupation numbers 
     1.0000   1.0000   1.0000   1.0000   1.0000   1.0000   1.0000   1.0000
     1.0000   1.0000   1.0000   1.0000   1.0000   1.0000   1.0000   1.0000
     1.0000   1.0000   1.0000   1.0000   1.0000   1.0000   1.0000   1.0000
     1.0000   1.0000   1.0000   1.0000   1.0000   1.0000   1.0000   1.0000
     1.0000   1.0000   1.0000   1.0000   1.0000   1.0000   1.0000   1.0000
     1.0000   1.0000   1.0000   1.0000   1.0000   1.0000   1.0000   1.0000
     1.0000   1.0000   1.0000   1.0000   1.0000   1.0000   1.0000   1.0000
     1.0000   1.0000   1.0000   1.0000   1.0000   1.0000   1.0000   1.0000

          k = 0.5146-0.1904-0.5168 (  5449 PWs)   bands (ev):

   -64.9467 -64.9418 -64.8922 -31.9380 -31.9352 -31.9121 -31.9090 -31.9000
   -31.8822 -31.8744 -31.8548 -31.8226 -29.0165 -28.7345 -28.5673 -28.5162
   -27.9839 -11.0948 -11.0233 -10.9711 -10.8814 -10.4537 -10.2943 -10.1787
   -10.1181 -10.0299  -9.9411  -9.8426  -9.7568  -9.6423  -9.5231  -9.4530
    -7.4194  -7.0079  -6.7744  -6.7042  -6.5487  -6.4158  -6.3281  -6.1883
     4.9480   5.0637   5.1893   5.4288   5.6182   5.8137   6.0538   6.2032
     6.2769   6.4124   6.4857   6.5996   6.7278   6.8259   6.9220   6.9745
     7.1209   7.2243   7.2655   7.3124   7.4540   7.5365   7.6348   7.6563

     occupation numbers 
     1.0000   1.0000   1.0000   1.0000   1.0000   1.0000   1.0000   1.0000
     1.0000   1.0000   1.0000   1.0000   1.0000   1.0000   1.0000   1.0000
     1.0000   1.0000   1.0000   1.0000   1.0000   1.0000   1.0000   1.0000
     1.0000   1.0000   1.0000   1.0000   1.0000   1.0000   1.0000   1.0000
     1.0000   1.0000   1.0000   1.0000   1.0000   1.0000   1.0000   1.0000
     1.0000   1.0000   1.0000   1.0000   1.0000   1.0000   1.0000   1.0000
     1.0000   1.0000   1.0000   1.0000   1.0000   1.0000   1.0000   1.0000
     1.0000   1.0000   1.0000   1.0000   1.0000   1.0000   1.0000   1.0000

          k = 0.0050-0.7165-0.0099 (  5442 PWs)   bands (ev):

   -64.9466 -64.9418 -64.8922 -31.9378 -31.9352 -31.9109 -31.9094 -31.9000
   -31.8806 -31.8765 -31.8548 -31.8229 -29.0135 -28.7292 -28.5791 -28.5143
   -27.9830 -10.9700 -10.9419 -10.7893 -10.7442 -10.5809 -10.4372 -10.3241
   -10.2924 -10.1701  -9.9680  -9.8687  -9.7402  -9.6130  -9.5176  -9.3587
    -7.2634  -6.9920  -6.7922  -6.7670  -6.5375  -6.5061  -6.2796  -6.1259
     4.8273   4.9015   5.1147   5.7039   5.7575   5.9585   6.0880   6.2639
     6.3785   6.4088   6.4832   6.5894   6.6698   6.7088   6.8475   6.9505
     7.0033   7.0920   7.1379   7.3063   7.5057   7.6181   7.6719   7.7746

     occupation numbers 
     1.0000   1.0000   1.0000   1.0000   1.0000   1.0000   1.0000   1.0000
     1.0000   1.0000   1.0000   1.0000   1.0000   1.0000   1.0000   1.0000
     1.0000   1.0000   1.0000   1.0000   1.0000   1.0000   1.0000   1.0000
     1.0000   1.0000   1.0000   1.0000   1.0000   1.0000   1.0000   1.0000
     1.0000   1.0000   1.0000   1.0000   1.0000   1.0000   1.0000   1.0000
     1.0000   1.0000   1.0000   1.0000   1.0000   1.0000   1.0000   1.0000
     1.0000   1.0000   1.0000   1.0000   1.0000   1.0000   1.0000   1.0000
     1.0000   1.0000   1.0000   1.0000   1.0000   1.0000   1.0000   1.0000

          k = 0.5141-0.5437-0.1820 (  5430 PWs)   bands (ev):

   -64.9467 -64.9418 -64.8922 -31.9382 -31.9351 -31.9130 -31.9083 -31.9002
   -31.8830 -31.8728 -31.8550 -31.8226 -29.0165 -28.7382 -28.5614 -28.5190
   -27.9832 -11.1699 -11.0159 -10.9939 -10.8659 -10.4418 -10.2903 -10.2355
   -10.0716 -10.0212  -9.8839  -9.8252  -9.7538  -9.6110  -9.5485  -9.4104
    -7.4550  -6.9921  -6.9025  -6.7300  -6.5920  -6.3778  -6.2438  -6.1561
     4.9674   5.0089   5.0862   5.4209   5.6628   5.8036   6.1052   6.2279
     6.3002   6.3789   6.4207   6.6426   6.6965   6.8030   6.9328   7.0573
     7.1193   7.1784   7.2850   7.3890   7.4318   7.5307   7.6169   7.7141

     occupation numbers 
     1.0000   1.0000   1.0000   1.0000   1.0000   1.0000   1.0000   1.0000
     1.0000   1.0000   1.0000   1.0000   1.0000   1.0000   1.0000   1.0000
     1.0000   1.0000   1.0000   1.0000   1.0000   1.0000   1.0000   1.0000
     1.0000   1.0000   1.0000   1.0000   1.0000   1.0000   1.0000   1.0000
     1.0000   1.0000   1.0000   1.0000   1.0000   1.0000   1.0000   1.0000
     1.0000   1.0000   1.0000   1.0000   1.0000   1.0000   1.0000   1.0000
     1.0000   1.0000   1.0000   1.0000   1.0000   1.0000   1.0000   1.0000
     1.0000   1.0000   1.0000   1.0000   1.0000   1.0000   1.0000   1.0000

          k = 0.6839-0.3683-0.3509 (  5441 PWs)   bands (ev):

   -64.9467 -64.9418 -64.8922 -31.9381 -31.9351 -31.9120 -31.9088 -31.9002
   -31.8823 -31.8744 -31.8550 -31.8224 -29.0167 -28.7398 -28.5548 -28.5244
   -27.9824 -11.1468 -11.0996 -10.9886 -10.8885 -10.4828 -10.3188 -10.1861
   -10.0544 -10.0104  -9.8627  -9.8070  -9.6823  -9.6241  -9.4908  -9.4222
    -7.4567  -7.0986  -6.9407  -6.6362  -6.5974  -6.3848  -6.3307  -6.0876
     4.9406   5.0228   5.1038   5.4477   5.5421   5.8305   6.0560   6.1209
     6.3257   6.3707   6.5283   6.6390   6.7830   6.8990   6.9279   7.0204
     7.0969   7.2040   7.2478   7.3440   7.4947   7.5494   7.6452   7.7361

     occupation numbers 
     1.0000   1.0000   1.0000   1.0000   1.0000   1.0000   1.0000   1.0000
     1.0000   1.0000   1.0000   1.0000   1.0000   1.0000   1.0000   1.0000
     1.0000   1.0000   1.0000   1.0000   1.0000   1.0000   1.0000   1.0000
     1.0000   1.0000   1.0000   1.0000   1.0000   1.0000   1.0000   1.0000
     1.0000   1.0000   1.0000   1.0000   1.0000   1.0000   1.0000   1.0000
     1.0000   1.0000   1.0000   1.0000   1.0000   1.0000   1.0000   1.0000
     1.0000   1.0000   1.0000   1.0000   1.0000   1.0000   1.0000   1.0000
     1.0000   1.0000   1.0000   1.0000   1.0000   1.0000   1.0000   1.0000

          k = 0.1743-0.8945 0.1559 (  5447 PWs)   bands (ev):

   -64.9466 -64.9418 -64.8922 -31.9378 -31.9352 -31.9108 -31.9091 -31.9003
   -31.8808 -31.8765 -31.8550 -31.8226 -29.0137 -28.7350 -28.5687 -28.5199
   -27.9815 -11.0298 -10.9946 -10.8305 -10.7941 -10.5843 -10.4438 -10.3543
   -10.2694 -10.0682  -9.8814  -9.8199  -9.7459  -9.5842  -9.4430  -9.3466
    -7.2872  -7.0489  -6.9001  -6.7181  -6.6102  -6.4840  -6.2357  -6.1221
     4.9142   5.0035   5.1816   5.5261   5.7291   5.8368   6.0089   6.2159
     6.2456   6.3696   6.4219   6.5418   6.7139   6.8158   6.9423   7.0196
     7.1609   7.2124   7.2589   7.3302   7.4628   7.5594   7.5872   7.7480

     occupation numbers 
     1.0000   1.0000   1.0000   1.0000   1.0000   1.0000   1.0000   1.0000
     1.0000   1.0000   1.0000   1.0000   1.0000   1.0000   1.0000   1.0000
     1.0000   1.0000   1.0000   1.0000   1.0000   1.0000   1.0000   1.0000
     1.0000   1.0000   1.0000   1.0000   1.0000   1.0000   1.0000   1.0000
     1.0000   1.0000   1.0000   1.0000   1.0000   1.0000   1.0000   1.0000
     1.0000   1.0000   1.0000   1.0000   1.0000   1.0000   1.0000   1.0000
     1.0000   1.0000   1.0000   1.0000   1.0000   1.0000   1.0000   1.0000
     1.0000   1.0000   1.0000   1.0000   1.0000   1.0000   1.0000   1.0000

          k = 0.3442-0.7191-0.0130 (  5440 PWs)   bands (ev):

   -64.9467 -64.9418 -64.8922 -31.9380 -31.9351 -31.9121 -31.9083 -31.9003
   -31.8821 -31.8743 -31.8551 -31.8229 -29.0135 -28.7333 -28.5738 -28.5161
   -27.9822 -11.0631 -10.8919 -10.8163 -10.7304 -10.5850 -10.4630 -10.4080
   -10.2745 -10.0811  -9.9352  -9.8353  -9.7378  -9.5903  -9.4729  -9.3789
    -7.2918  -6.9246  -6.8952  -6.7241  -6.6102  -6.4621  -6.3242  -6.0908
     4.9272   5.0400   5.1433   5.5376   5.7806   5.8534   5.9552   6.0321
     6.3403   6.4488   6.5195   6.6482   6.7146   6.8606   6.9204   6.9706
     7.0552   7.1346   7.2314   7.3072   7.4203   7.5361   7.5745   7.7447

     occupation numbers 
     1.0000   1.0000   1.0000   1.0000   1.0000   1.0000   1.0000   1.0000
     1.0000   1.0000   1.0000   1.0000   1.0000   1.0000   1.0000   1.0000
     1.0000   1.0000   1.0000   1.0000   1.0000   1.0000   1.0000   1.0000
     1.0000   1.0000   1.0000   1.0000   1.0000   1.0000   1.0000   1.0000
     1.0000   1.0000   1.0000   1.0000   1.0000   1.0000   1.0000   1.0000
     1.0000   1.0000   1.0000   1.0000   1.0000   1.0000   1.0000   1.0000
     1.0000   1.0000   1.0000   1.0000   1.0000   1.0000   1.0000   1.0000
     1.0000   1.0000   1.0000   1.0000   1.0000   1.0000   1.0000   1.0000

          k = 0.0061-0.0099-0.6796 (  5440 PWs)   bands (ev):

   -64.9467 -64.9418 -64.8922 -31.9381 -31.9351 -31.9129 -31.9076 -31.9006
   -31.8829 -31.8727 -31.8554 -31.8229 -29.0135 -28.7372 -28.5678 -28.5188
   -27.9814 -11.1388 -10.9565 -10.8793 -10.5926 -10.5871 -10.4768 -10.3573
   -10.2225 -10.1061  -9.8943  -9.8446  -9.7307  -9.5800  -9.5337  -9.2850
    -7.3365  -7.1059  -6.8255  -6.7935  -6.6833  -6.4258  -6.1559  -6.0617
     4.8354   4.8999   4.9162   5.6945   5.7129   5.9858   6.0720   6.3174
     6.3301   6.4051   6.5488   6.5808   6.6847   6.7657   6.8594   6.9568
     6.9980   7.0649   7.2500   7.3805   7.4368   7.4804   7.7938   7.8582

     occupation numbers 
     1.0000   1.0000   1.0000   1.0000   1.0000   1.0000   1.0000   1.0000
     1.0000   1.0000   1.0000   1.0000   1.0000   1.0000   1.0000   1.0000
     1.0000   1.0000   1.0000   1.0000   1.0000   1.0000   1.0000   1.0000
     1.0000   1.0000   1.0000   1.0000   1.0000   1.0000   1.0000   1.0000
     1.0000   1.0000   1.0000   1.0000   1.0000   1.0000   1.0000   1.0000
     1.0000   1.0000   1.0000   1.0000   1.0000   1.0000   1.0000   1.0000
     1.0000   1.0000   1.0000   1.0000   1.0000   1.0000   1.0000   1.0000
     1.0000   1.0000   1.0000   1.0000   1.0000   1.0000   1.0000   1.0000

          k = 0.1760 0.1655-0.8485 (  5418 PWs)   bands (ev):

   -64.9467 -64.9418 -64.8922 -31.9380 -31.9351 -31.9120 -31.9080 -31.9006
   -31.8822 -31.8743 -31.8553 -31.8226 -29.0137 -28.7388 -28.5626 -28.5229
   -27.9807 -11.1036 -11.0214 -10.8691 -10.7400 -10.5520 -10.4675 -10.3814
   -10.2079 -10.0439  -9.8527  -9.8321  -9.7242  -9.5684  -9.4746  -9.2830
    -7.3283  -7.1292  -6.8290  -6.7781  -6.6959  -6.4396  -6.1888  -6.0820
     4.8954   5.0019   5.0820   5.4954   5.7144   5.9025   6.0312   6.1993
     6.2451   6.3436   6.5175   6.6060   6.6737   6.7825   6.9092   7.0334
     7.1164   7.2170   7.2796   7.3541   7.4840   7.5583   7.6184   7.7762

     occupation numbers 
     1.0000   1.0000   1.0000   1.0000   1.0000   1.0000   1.0000   1.0000
     1.0000   1.0000   1.0000   1.0000   1.0000   1.0000   1.0000   1.0000
     1.0000   1.0000   1.0000   1.0000   1.0000   1.0000   1.0000   1.0000
     1.0000   1.0000   1.0000   1.0000   1.0000   1.0000   1.0000   1.0000
     1.0000   1.0000   1.0000   1.0000   1.0000   1.0000   1.0000   1.0000
     1.0000   1.0000   1.0000   1.0000   1.0000   1.0000   1.0000   1.0000
     1.0000   1.0000   1.0000   1.0000   1.0000   1.0000   1.0000   1.0000
     1.0000   1.0000   1.0000   1.0000   1.0000   1.0000   1.0000   1.0000

          k =-0.3336-0.3607-0.3417 (  5416 PWs)   bands (ev):

   -64.9466 -64.9418 -64.8922 -31.9379 -31.9352 -31.9108 -31.9087 -31.9006
   -31.8809 -31.8765 -31.8552 -31.8224 -29.0139 -28.7406 -28.5545 -28.5296
   -27.9800 -11.1107 -11.0438 -10.8637 -10.7773 -10.5909 -10.4526 -10.4060
   -10.1731 -10.0563  -9.8984  -9.7899  -9.6439  -9.5674  -9.4037  -9.2741
    -7.3229  -7.1903  -6.8409  -6.7444  -6.6079  -6.4669  -6.3442  -6.0430
     4.9499   5.1625   5.2854   5.3942   5.5959   5.7396   6.0888   6.1881
     6.2757   6.3066   6.3521   6.4877   6.6821   6.7033   6.9709   7.0808
     7.1126   7.2405   7.3441   7.4071   7.5097   7.6153   7.6185   7.7665

     occupation numbers 
     1.0000   1.0000   1.0000   1.0000   1.0000   1.0000   1.0000   1.0000
     1.0000   1.0000   1.0000   1.0000   1.0000   1.0000   1.0000   1.0000
     1.0000   1.0000   1.0000   1.0000   1.0000   1.0000   1.0000   1.0000
     1.0000   1.0000   1.0000   1.0000   1.0000   1.0000   1.0000   1.0000
     1.0000   1.0000   1.0000   1.0000   1.0000   1.0000   1.0000   1.0000
     1.0000   1.0000   1.0000   1.0000   1.0000   1.0000   1.0000   1.0000
     1.0000   1.0000   1.0000   1.0000   1.0000   1.0000   1.0000   1.0000
     1.0000   1.0000   1.0000   1.0000   1.0000   1.0000   1.0000   1.0000

     highest occupied level (ev):     8.0887

!    total energy              =   -1009.36525219 Ry
     Harris-Foulkes estimate   =   -1009.36525219 Ry
     estimated scf accuracy    <          8.0E-11 Ry

     The total energy is the sum of the following terms:

     one-electron contribution =    -399.48895678 Ry
     hartree contribution      =     254.72074205 Ry
     xc contribution           =    -168.40340935 Ry
     ewald contribution        =    -696.19362811 Ry

     convergence has been achieved in  20 iterations

     Forces acting on atoms (Ry/au):

     atom    1 type  2   force =   0.12679551E-01 -0.17488313E-01 -0.30825009E-01
     atom    2 type  3   force =   0.16875460E-01  0.21228654E-01 -0.83578049E-01
     atom    3 type  2   force =  -0.21920847E-01 -0.38263687E-01 -0.35521975E-01
     atom    4 type  3   force =  -0.69402975E-01 -0.32829207E-01 -0.34302030E-01
     atom    5 type  1   force =   0.28918377E-01 -0.39937409E-01 -0.74868478E-02
     atom    6 type  3   force =   0.67384490E-01 -0.85762452E-01 -0.86942698E-02
     atom    7 type  2   force =   0.18206009E-01  0.55463794E-01  0.54420388E-01
     atom    8 type  3   force =   0.13019878E-01 -0.38388392E-01  0.53675170E-01
     atom    9 type  1   force =   0.82391540E-01  0.96352096E-01 -0.12900864E-01
     atom   10 type  3   force =  -0.34031270E-01  0.36049911E-01 -0.10077710E-01
     atom   11 type  1   force =  -0.48924581E-01  0.10368528E-01  0.33000499E-01
     atom   12 type  3   force =  -0.18884234E-01  0.67977737E-02  0.36026230E-01
     atom   13 type  1   force =  -0.73791702E-01  0.46506402E-03  0.50131517E-01
     atom   14 type  3   force =   0.57021189E-01  0.73779402E-01  0.30217009E-01
     atom   15 type  1   force =   0.32250750E-01 -0.13627880E-01 -0.28529537E-01
     atom   16 type  3   force =  -0.61791636E-01 -0.34207883E-01 -0.55545212E-02
     The non-local contrib.  to forces
     atom    1 type  2   force =  -0.59471025E-01  0.49831493E-01 -0.70497212E-01
     atom    2 type  3   force =   0.16274542E+00  0.43993717E-01 -0.20002805E+00
     atom    3 type  2   force =  -0.14819832E-01 -0.76265950E-01  0.10517631E+00
     atom    4 type  3   force =  -0.17298691E+00  0.58490936E-01 -0.16508056E+00
     atom    5 type  1   force =   0.11202783E-01 -0.14399094E-02 -0.15157116E-01
     atom    6 type  3   force =   0.61864515E-01 -0.25490824E+00  0.10296705E-01
     atom    7 type  2   force =   0.78177407E-01  0.24390150E-01  0.16875638E+00
     atom    8 type  3   force =   0.64042349E-01 -0.18529412E+00  0.19102942E+00
     atom    9 type  1   force =   0.48878973E-01 -0.94302196E-02 -0.55769960E-02
     atom   10 type  3   force =  -0.90414713E-01  0.89941984E-01  0.51859693E-03
     atom   11 type  1   force =  -0.10400655E-01  0.12007643E-01 -0.17652869E-02
     atom   12 type  3   force =  -0.14269061E+00 -0.60281899E-02  0.21792580E+00
     atom   13 type  1   force =  -0.45565041E-01  0.56480067E-02  0.51303492E-01
     atom   14 type  3   force =   0.12582500E+00  0.35046275E+00  0.12042009E-02
     atom   15 type  1   force =   0.23635605E-01  0.34946238E-01 -0.22020063E-01
     atom   16 type  3   force =  -0.35009255E-01 -0.12607613E+00  0.83418786E-02
     The ionic contribution  to forces
     atom    1 type  2   force =   0.11753773E+01  0.69677509E+00 -0.27512473E+01
     atom    2 type  3   force =  -0.25534004E+01  0.62011157E+00 -0.83103982E-01
     atom    3 type  2   force =  -0.26090951E+01 -0.13048891E+01 -0.20210642E+00
     atom    4 type  3   force =  -0.10726934E+00 -0.14345807E+01  0.11670182E+01
     atom    5 type  1   force =  -0.45414180E+00 -0.58891273E+00 -0.24189652E+00
     atom    6 type  3   force =   0.20967880E+01 -0.32979600E+00 -0.93417971E+00
     atom    7 type  2   force =   0.29956230E+01  0.50395930E+00  0.34921563E+01
     atom    8 type  3   force =  -0.90852443E+00  0.11523560E+01  0.99812402E-01
     atom    9 type  1   force =   0.33269585E+01  0.14554655E+01 -0.11263766E+00
     atom   10 type  3   force =  -0.10382460E+01  0.12591673E+00 -0.10709072E+01
     atom   11 type  1   force =  -0.28570327E+01  0.51732653E+00  0.10973648E+01
     atom   12 type  3   force =   0.21511193E+01  0.19253606E+00 -0.18023934E+01
     atom   13 type  1   force =  -0.27443136E+01  0.23317095E+00  0.15439589E+01
     atom   14 type  3   force =   0.21188275E+01 -0.12982608E+01  0.19219787E+01
     atom   15 type  1   force =   0.18563988E+01 -0.21905901E+00 -0.14685908E+01
     atom   16 type  3   force =  -0.24490690E+01 -0.32211935E+00 -0.65522617E+00
     The local contribution  to forces
     atom    1 type  2   force =  -0.11032287E+01 -0.76410020E+00  0.27909139E+01
     atom    2 type  3   force =   0.24083789E+01 -0.64254636E+00  0.19719033E+00
     atom    3 type  2   force =   0.26019949E+01  0.13428923E+01  0.61412591E-01
     atom    4 type  3   force =   0.20921078E+00  0.13425105E+01 -0.10375613E+01
     atom    5 type  1   force =   0.47243949E+00  0.54970142E+00  0.24985689E+00
     atom    6 type  3   force =  -0.20895241E+01  0.49636675E+00  0.91491812E+00
     atom    7 type  2   force =  -0.30555916E+01 -0.47288183E+00 -0.36064889E+01
     atom    8 type  3   force =   0.85809997E+00 -0.10069608E+01 -0.23573965E+00
     atom    9 type  1   force =  -0.32933570E+01 -0.13480554E+01  0.10485761E+00
     atom   10 type  3   force =   0.10933672E+01 -0.17853078E+00  0.10601120E+01
     atom   11 type  1   force =   0.28180382E+01 -0.51914788E+00 -0.10616983E+01
     atom   12 type  3   force =  -0.20281648E+01 -0.17934500E+00  0.16220296E+01
     atom   13 type  1   force =   0.27162143E+01 -0.23838455E+00 -0.15452727E+01
     atom   14 type  3   force =  -0.21861144E+01  0.10241726E+01 -0.18920452E+01
     atom   15 type  1   force =  -0.18478596E+01  0.16921898E+00  0.14625080E+01
     atom   16 type  3   force =   0.24206297E+01  0.41314324E+00  0.64142948E+00
     The core correction contribution to forces
     atom    1 type  2   force =   0.00000000E+00  0.00000000E+00  0.00000000E+00
     atom    2 type  3   force =  -0.84941072E-03 -0.33011250E-03  0.23608390E-02
     atom    3 type  2   force =   0.00000000E+00  0.00000000E+00  0.00000000E+00
     atom    4 type  3   force =   0.16442704E-02  0.74714185E-03  0.13212793E-02
     atom    5 type  1   force =  -0.58472962E-03  0.71756963E-03 -0.28863998E-03
     atom    6 type  3   force =  -0.17395708E-02  0.25738273E-02  0.26661107E-03
     atom    7 type  2   force =   0.00000000E+00  0.00000000E+00  0.00000000E+00
     atom    8 type  3   force =  -0.59986498E-03  0.15093820E-02 -0.14267680E-02
     atom    9 type  1   force =  -0.82623013E-04 -0.16301163E-02  0.46212214E-03
     atom   10 type  3   force =   0.12595322E-02 -0.12759641E-02  0.19828717E-03
     atom   11 type  1   force =   0.46820550E-03  0.18000776E-03 -0.90550653E-03
     atom   12 type  3   force =   0.85326778E-03 -0.36554659E-03 -0.15344950E-02
     atom   13 type  1   force =  -0.13833056E-03  0.27495749E-04  0.14140306E-03
     atom   14 type  3   force =  -0.15133683E-02 -0.25917801E-02 -0.91796214E-03
     atom   15 type  1   force =   0.83083888E-04  0.12749975E-02 -0.42918278E-03
     atom   16 type  3   force =   0.16520830E-02  0.84402633E-03 -0.99581964E-04
     The Hubbard contrib.    to forces
     atom    1 type  2   force =   0.00000000E+00  0.00000000E+00  0.00000000E+00
     atom    2 type  3   force =   0.00000000E+00  0.00000000E+00  0.00000000E+00
     atom    3 type  2   force =   0.00000000E+00  0.00000000E+00  0.00000000E+00
     atom    4 type  3   force =   0.00000000E+00  0.00000000E+00  0.00000000E+00
     atom    5 type  1   force =   0.00000000E+00  0.00000000E+00  0.00000000E+00
     atom    6 type  3   force =   0.00000000E+00  0.00000000E+00  0.00000000E+00
     atom    7 type  2   force =   0.00000000E+00  0.00000000E+00  0.00000000E+00
     atom    8 type  3   force =   0.00000000E+00  0.00000000E+00  0.00000000E+00
     atom    9 type  1   force =   0.00000000E+00  0.00000000E+00  0.00000000E+00
     atom   10 type  3   force =   0.00000000E+00  0.00000000E+00  0.00000000E+00
     atom   11 type  1   force =   0.00000000E+00  0.00000000E+00  0.00000000E+00
     atom   12 type  3   force =   0.00000000E+00  0.00000000E+00  0.00000000E+00
     atom   13 type  1   force =   0.00000000E+00  0.00000000E+00  0.00000000E+00
     atom   14 type  3   force =   0.00000000E+00  0.00000000E+00  0.00000000E+00
     atom   15 type  1   force =   0.00000000E+00  0.00000000E+00  0.00000000E+00
     atom   16 type  3   force =   0.00000000E+00  0.00000000E+00  0.00000000E+00
     The SCF correction term to forces
     atom    1 type  2   force =   0.19846792E-05  0.53438534E-05  0.49876537E-05
     atom    2 type  3   force =   0.91901261E-06 -0.12296558E-06  0.22417583E-05
     atom    3 type  2   force =  -0.82669576E-06 -0.85349380E-06 -0.50304945E-05
     atom    4 type  3   force =  -0.18219790E-05  0.29844766E-05 -0.19129290E-06
     atom    5 type  1   force =   0.25911195E-05 -0.37201440E-05 -0.20346783E-05
     atom    6 type  3   force =  -0.43594597E-05  0.12427110E-05  0.34326655E-05
     atom    7 type  2   force =  -0.28464975E-05 -0.37908556E-05 -0.39758694E-05
     atom    8 type  3   force =   0.18079896E-05  0.11602839E-05 -0.80473421E-06
     atom    9 type  1   force =  -0.63672415E-05  0.23209457E-05 -0.65134650E-05
     atom   10 type  3   force =   0.25737656E-05 -0.20281139E-05  0.74289498E-07
     atom   11 type  1   force =   0.23798296E-05  0.22667455E-05  0.41903748E-05
     atom   12 type  3   force =  -0.13523846E-05  0.47741432E-06 -0.18987052E-05
     atom   13 type  1   force =   0.10883515E-04  0.31932593E-05 -0.14655245E-06
     atom   14 type  3   force =  -0.35846855E-05 -0.33329724E-05 -0.32483415E-05
     atom   15 type  1   force =  -0.72590170E-05 -0.90483119E-05  0.19525691E-05
     atom   16 type  3   force =   0.47542316E-05  0.35793829E-06 -0.70723612E-06

     Total force =     0.305748     Total SCF correction =     0.000026


     entering subroutine stress ...

          total   stress  (Ry/bohr**3)                   (kbar)     P=   89.29
   0.0003972189  -0.0000885356  -0.0000411421         58.43    -13.02     -6.05
  -0.0000885356   0.0009414992   0.0002369467        -13.02    138.50     34.86
  -0.0000411421   0.0002369467   0.0004822752         -6.05     34.86     70.95

     kinetic stress (kbar)  20974.48    -26.72     -9.52
                              -26.72  21090.73     19.04
                               -9.52     19.04  20983.68

     local   stress (kbar)   -422.19    -98.16   -521.86
                              -98.16  -7262.22    395.52
                             -521.86    395.52  -1435.24

     nonloc. stress (kbar)   5188.14      0.43     -1.29
                                0.43   5199.89     -3.90
                               -1.29     -3.90   5190.48

     hartree stress (kbar)   8828.15     56.92    208.05
                               56.92  11391.63   -171.75
                              208.05   -171.75   9228.87

     exc-cor stress (kbar)  -4836.97      0.07      0.51
                                0.07  -4832.34     -0.58
                                0.51     -0.58  -4836.71

     corecor stress (kbar)  -1231.28      0.09      0.05
                                0.09  -1231.86     -0.04
                                0.05     -0.04  -1231.36

     ewald   stress (kbar) -28441.89     54.34    318.01
                               54.34 -24217.33   -203.42
                              318.01   -203.42 -27828.77

     hubbard stress (kbar)      0.00      0.00      0.00
                                0.00      0.00      0.00
                                0.00      0.00      0.00

     london  stress (kbar)      0.00      0.00      0.00
                                0.00      0.00      0.00
                                0.00      0.00      0.00

     XDM     stress (kbar)      0.00      0.00      0.00
                                0.00      0.00      0.00
                                0.00      0.00      0.00

     dft-nl  stress (kbar)      0.00      0.00      0.00
                                0.00      0.00      0.00
                                0.00      0.00      0.00



     Writing output data file mix.dummy41735.save

     init_run     :     20.03s CPU     22.54s WALL (       1 calls)
     electrons    :    648.06s CPU    712.46s WALL (       1 calls)
     forces       :      5.68s CPU      6.16s WALL (       1 calls)
     stress       :     11.47s CPU     11.80s WALL (       1 calls)

     Called by init_run:
     wfcinit      :     17.28s CPU     19.08s WALL (       1 calls)
     potinit      :      0.51s CPU      0.53s WALL (       1 calls)

     Called by electrons:
     c_bands      :    569.53s CPU    628.37s WALL (      20 calls)
     sum_band     :     72.26s CPU     77.66s WALL (      20 calls)
     v_of_rho     :      0.79s CPU      0.80s WALL (      21 calls)
     v_h          :      0.04s CPU      0.05s WALL (      21 calls)
     v_xc         :      0.82s CPU      0.83s WALL (      23 calls)
     newd         :      4.36s CPU      4.42s WALL (      21 calls)
     mix_rho      :      1.26s CPU      1.33s WALL (      20 calls)

     Called by c_bands:
     init_us_2    :      3.04s CPU      3.06s WALL (    1548 calls)
     cegterg      :    545.49s CPU    603.03s WALL (     720 calls)

     Called by sum_band:
     sum_band:bec :      0.86s CPU      0.82s WALL (     720 calls)
     addusdens    :      4.32s CPU      4.34s WALL (      20 calls)

     Called by *egterg:
     h_psi        :    281.34s CPU    300.44s WALL (    2161 calls)
     s_psi        :     28.12s CPU     30.69s WALL (    2161 calls)
     g_psi        :      0.28s CPU      0.32s WALL (    1405 calls)
     cdiaghg      :     72.81s CPU     84.14s WALL (    2125 calls)
     cegterg:over :     83.85s CPU     93.92s WALL (    1405 calls)
     cegterg:upda :      9.63s CPU     13.38s WALL (    1405 calls)
     cegterg:last :      6.15s CPU      7.90s WALL (     720 calls)

     Called by h_psi:
     h_psi:vloc   :    177.28s CPU    182.69s WALL (    2161 calls)
     h_psi:vnl    :    103.62s CPU    117.29s WALL (    2161 calls)
     add_vuspsi   :     28.44s CPU     31.86s WALL (    2161 calls)

     General routines
     calbec       :    107.46s CPU    122.88s WALL (    2953 calls)
     fft          :      1.76s CPU      1.77s WALL (     357 calls)
     ffts         :      0.77s CPU      0.84s WALL (     538 calls)
     fftw         :    201.24s CPU    206.78s WALL (  265516 calls)
     interpolate  :      0.17s CPU      0.18s WALL (      41 calls)

     Parallel routines
     fft_scatter  :     92.43s CPU     96.15s WALL (  266411 calls)

     PWSCF        : 11m29.76s CPU    12m38.84s WALL


   This run was terminated on:   0:33: 7   8Dec2017            

=------------------------------------------------------------------------------=
   JOB DONE.
=------------------------------------------------------------------------------=
