
     Program PWSCF v.5.1 starts on  7Dec2017 at 19:13: 9 

     This program is part of the open-source Quantum ESPRESSO suite
     for quantum simulation of materials; please cite
         "P. Giannozzi et al., J. Phys.:Condens. Matter 21 395502 (2009);
          URL http://www.quantum-espresso.org", 
     in publications or presentations arising from this work. More details at
     http://www.quantum-espresso.org/quote

     Parallel version (MPI), running on    16 processors
     R & G space division:  proc/nbgrp/npool/nimage =      16
     Waiting for input...
     Reading input from standard input
Warning: card &IONS ignored
Warning: card   ION_DYNAMICS='BFGS', ignored
Warning: card / ignored
Warning: card &CELL ignored
Warning: card  CELL_DYNAMICS = 'BFGS' ignored
Warning: card / ignored

     Current dimensions of program PWSCF are:
     Max number of different atomic species (ntypx) = 10
     Max number of k-points (npk) =  40000
     Max angular momentum in pseudopotentials (lmaxx) =  3
 kfg - two_fermi_energies  F

     Subspace diagonalization in iterative solution of the eigenvalue problem:
     a serial algorithm will be used


     Parallelization info
     --------------------
     sticks:   dense  smooth     PW     G-vecs:    dense   smooth      PW
     Min         127     101     29                 3714     2653     415
     Max         128     102     30                 3716     2666     418
     Sum        2033    1627    473                59439    42575    6659



     bravais-lattice index     =            0
     lattice parameter (alat)  =    12.081548121  a.u.
     unit-cell volume          =    1244.8583 (a.u.)^3
     number of atoms/cell      =           16
     number of atomic types    =            3
     number of electrons       =       128.00
     number of Kohn-Sham states=           64
     kinetic-energy cutoff     =      40.0000  Ry
     charge density cutoff     =     200.0000  Ry
     convergence threshold     =      1.0E-10
     mixing beta               =       0.3000
     number of iterations used =            8  local-TF  mixing
     Exchange-correlation      = SLA  PW   PSX  PSC ( 1  4 10  8 0)
     A smooth kinetic-energy cutoff is imposed at      39.5000 Ry
     height of the smooth step-function =             800.0000 Ry
     width of the smooth step-function  =               1.0000 Ry


     celldm(1)=  12.081548  celldm(2)=   0.000000  celldm(3)=   0.000000
     celldm(4)=   0.000000  celldm(5)=   0.000000  celldm(6)=   0.000000

     crystal axes: (cart. coord. in units of alat)
               a(1) = (   0.011328091995   0.711962062557   0.702126552561 )  
               a(2) = (   0.696185441510  -0.018302893799   0.731757538355 )  
               a(3) = (   0.675552730941   0.720960337781   0.002329816770 )  

     reciprocal axes: (cart. coord. in units 2 pi/alat)
               b(1) = ( -0.747414  0.697986  0.728539 )  
               b(2) = (  0.714742 -0.671890  0.669771 )  
               b(3) = (  0.756231  0.680707 -0.702443 )  


     PseudoPot. # 1 for Ca read from file:
     /users/kfg/psuedo/gbrv_1.5/ca.pbesol.UPF
     MD5 check sum: 0533207b58cddeaa036efa5b63902087
     Pseudo is Ultrasoft + core correction, Zval = 10.0
     Generated by new atomic code, or converted to UPF format
     Using radial grid of  845 points,  6 beta functions with: 
                l(1) =   0
                l(2) =   0
                l(3) =   1
                l(4) =   1
                l(5) =   2
                l(6) =   2
     Q(r) pseudized with  8 coefficients,  rinner =    1.500   1.500   1.500
                                                       1.500   1.500

     PseudoPot. # 2 for Mg read from file:
     /users/kfg/psuedo/gbrv_1.5/mg.pbesol.UPF
     MD5 check sum: 4059f37963cf5867752dbf5ab2400678
     Pseudo is Ultrasoft, Zval = 10.0
     Generated by new atomic code, or converted to UPF format
     Using radial grid of  821 points,  7 beta functions with: 
                l(1) =   0
                l(2) =   0
                l(3) =   0
                l(4) =   1
                l(5) =   1
                l(6) =   2
                l(7) =   2
     Q(r) pseudized with  8 coefficients,  rinner =    1.200   1.200   1.200
                                                       1.200   1.200

     PseudoPot. # 3 for O  read from file:
     /users/kfg/psuedo/gbrv_1.5/o.pbesol.UPF
     MD5 check sum: 501638753501ef6325af9037351f7734
     Pseudo is Ultrasoft + core correction, Zval =  6.0
     Generated by new atomic code, or converted to UPF format
     Using radial grid of  737 points,  5 beta functions with: 
                l(1) =   0
                l(2) =   0
                l(3) =   1
                l(4) =   1
                l(5) =   2
     Q(r) pseudized with  8 coefficients,  rinner =    0.900   0.900   0.900
                                                       0.900   0.900

     atomic species   valence    mass     pseudopotential
        Ca            10.00    40.07800     Ca( 1.00)
        Mg            10.00    40.07800     Mg( 1.00)
        O              6.00    15.99940     O ( 1.00)

     No symmetry found


                                    s                        frac. trans.

      isym =  1     identity                                     

 cryst.   s( 1) = (     1          0          0      )
                  (     0          1          0      )
                  (     0          0          1      )

 cart.    s( 1) = (  1.0000000 -0.0000000  0.0000000 )
                  (  0.0000000  1.0000000  0.0000000 )
                  (  0.0000000  0.0000000  1.0000000 )


     point group C_1 (1)    
     there are  1 classes
     the character table:

       E    
A      1.00

     the symmetry operations in each class:
     E        1

   Cartesian axes

     site n.     atom                  positions (alat units)
         1           Ca  tau(   1) = (    0.00331155595    0.00171168031   -0.01439722100  )
         2           O   tau(   2) = (    0.36339132117    0.34360515629    0.34041822049  )
         3           Mg  tau(   3) = (    0.29773511739    0.37881609142   -0.00717101599  )
         4           O   tau(   4) = (    0.71101903567    0.73530778691    0.40754079373  )
         5           Mg  tau(   5) = (    0.34681478461    0.01449566210    0.33719576514  )
         6           O   tau(   6) = (    0.69303977094    0.30850058048    0.74555876519  )
         7           Mg  tau(   7) = (    0.69255056985    0.31279606230    0.32553928376  )
         8           O   tau(   8) = (    1.00899108048    0.71124473264    0.71994342721  )
         9           Ca  tau(   9) = (    0.00691192942    0.38424042530    0.37073056764  )
        10           O   tau(  10) = (    0.35583204968    0.70496903508    0.71782788206  )
        11           Ca  tau(  11) = (    0.37068953323    0.72020738395    0.36208406046  )
        12           O   tau(  12) = (    0.72630562844    1.09969617407    0.70361913803  )
        13           Mg  tau(  13) = (    0.36831494911    0.30593774413    0.74720354378  )
        14           O   tau(  14) = (    0.66352775266    0.70872401469    1.04628742590  )
        15           Mg  tau(  15) = (    0.67163624247    0.71808294907    0.72796322589  )
        16           O   tau(  16) = (    1.01832626562    1.03938156050    1.08693958382  )

   Crystallographic axes

     site n.     atom                  positions (cryst. coord.)
         1           Ca  tau(   1) = (   -0.01176931923   -0.00842598849    0.01378268485  )
         2           O   tau(   2) = (    0.21623591405    0.25686811158    0.26957768480  )
         3           Mg  tau(   3) = (    0.03665258428   -0.04652203632    0.48805646523  )
         4           O   tau(   4) = (    0.27871849098    0.28710771694    0.75194940531  )
         5           Mg  tau(   5) = (   -0.00343619161    0.46398731306    0.03527851582  )
         6           O   tau(   6) = (    0.24051025117    0.78741925502    0.21038391301  )
         7           Mg  tau(   7) = (   -0.06212670121    0.50286683205    0.50797778416  )
         8           O   tau(   8) = (    0.26681183450    0.72548659855    0.74146011200  )
         9           Ca  tau(   9) = (    0.53312038591   -0.00492272353    0.00636489336  )
        10           O   tau(  10) = (    0.74907074968    0.26144620451    0.24473510124  )
        11           Ca  tau(  11) = (    0.48942879165    0.02356023670    0.51623349161  )
        12           O   tau(  12) = (    0.73733598646    0.25150924486    0.80357301364  )
        13           Mg  tau(  13) = (    0.48262375002    0.55814842891   -0.03808298948  )
        14           O   tau(  14) = (    0.76101119372    0.69883877158    0.24925599645  )
        15           Mg  tau(  15) = (    0.52957145166    0.48514189757    0.48536326947  )
        16           O   tau(  16) = (    0.75624082798    0.75749013699    0.71409065850  )

     number of k points=    36
                       cart. coord. in units 2pi/alat
        k(    1) = (   0.0000000   0.0000000   0.0000000), wk =   0.0312500
        k(    2) = (   0.1890578   0.1701767  -0.1756108), wk =   0.0625000
        k(    3) = (  -0.3781155  -0.3403534   0.3512216), wk =   0.0312500
        k(    4) = (   0.1786854  -0.1679726   0.1674426), wk =   0.0625000
        k(    5) = (   0.3677432   0.0022041  -0.0081682), wk =   0.0625000
        k(    6) = (  -0.1994301  -0.5083260   0.5186643), wk =   0.0625000
        k(    7) = (  -0.0103723  -0.3381493   0.3430535), wk =   0.0625000
        k(    8) = (  -0.3573709   0.3359451  -0.3348853), wk =   0.0312500
        k(    9) = (  -0.1683131   0.5061218  -0.5104961), wk =   0.0625000
        k(   10) = (  -0.7354864  -0.0044083   0.0163364), wk =   0.0312500
        k(   11) = (  -0.1868536   0.1744966   0.1821349), wk =   0.0625000
        k(   12) = (   0.0022041   0.3446733   0.0065241), wk =   0.0625000
        k(   13) = (  -0.5649692  -0.1658568   0.5333565), wk =   0.0625000
        k(   14) = (  -0.3759114   0.0043199   0.3577457), wk =   0.0625000
        k(   15) = (  -0.0081682   0.0065241   0.3495775), wk =   0.0625000
        k(   16) = (   0.1808896   0.1767008   0.1739667), wk =   0.0625000
        k(   17) = (  -0.3862837  -0.3338293   0.7007991), wk =   0.0625000
        k(   18) = (  -0.1972259  -0.1636526   0.5251883), wk =   0.0625000
        k(   19) = (  -0.5442245   0.5104417  -0.1527504), wk =   0.0625000
        k(   20) = (  -0.3551667   0.6806184  -0.3283612), wk =   0.0625000
        k(   21) = (  -0.9223400   0.1700883   0.1984712), wk =   0.0625000
        k(   22) = (  -0.7332823   0.3402650   0.0228604), wk =   0.0625000
        k(   23) = (  -0.3655391   0.3424692   0.0146922), wk =   0.0625000
        k(   24) = (  -0.1764813   0.5126459  -0.1609186), wk =   0.0625000
        k(   25) = (  -0.7436546   0.0021158   0.3659139), wk =   0.0625000
        k(   26) = (  -0.5545968   0.1722925   0.1903031), wk =   0.0625000
        k(   27) = (   0.3737072  -0.3489932  -0.3642697), wk =   0.0312500
        k(   28) = (   0.5627650  -0.1788165  -0.5398806), wk =   0.0625000
        k(   29) = (  -0.0044083  -0.6893466  -0.0130481), wk =   0.0312500
        k(   30) = (   0.5523927  -0.5169658  -0.1968271), wk =   0.0625000
        k(   31) = (   0.7414505  -0.3467891  -0.3724379), wk =   0.0625000
        k(   32) = (   0.1742772  -0.8573192   0.1543945), wk =   0.0625000
        k(   33) = (   0.3633349  -0.6871425  -0.0212163), wk =   0.0625000
        k(   34) = (   0.0163364  -0.0130481  -0.6991550), wk =   0.0312500
        k(   35) = (   0.2053941   0.1571286  -0.8747658), wk =   0.0625000
        k(   36) = (  -0.3617792  -0.3534015  -0.3479334), wk =   0.0312500

                       cryst. coord.
        k(    1) = (   0.0000000   0.0000000   0.0000000), wk =   0.0312500
        k(    2) = (  -0.0000000   0.0000000   0.2500000), wk =   0.0625000
        k(    3) = (   0.0000000  -0.0000000  -0.5000000), wk =   0.0312500
        k(    4) = (   0.0000000   0.2500000  -0.0000000), wk =   0.0625000
        k(    5) = (  -0.0000000   0.2500000   0.2500000), wk =   0.0625000
        k(    6) = (   0.0000000   0.2500000  -0.5000000), wk =   0.0625000
        k(    7) = (   0.0000000   0.2500000  -0.2500000), wk =   0.0625000
        k(    8) = (   0.0000000  -0.5000000   0.0000000), wk =   0.0312500
        k(    9) = (   0.0000000  -0.5000000   0.2500000), wk =   0.0625000
        k(   10) = (   0.0000000  -0.5000000  -0.5000000), wk =   0.0312500
        k(   11) = (   0.2500000  -0.0000000  -0.0000000), wk =   0.0625000
        k(   12) = (   0.2500000   0.0000000   0.2500000), wk =   0.0625000
        k(   13) = (   0.2500000  -0.0000000  -0.5000000), wk =   0.0625000
        k(   14) = (   0.2500000  -0.0000000  -0.2500000), wk =   0.0625000
        k(   15) = (   0.2500000   0.2500000  -0.0000000), wk =   0.0625000
        k(   16) = (   0.2500000   0.2500000   0.2500000), wk =   0.0625000
        k(   17) = (   0.2500000   0.2500000  -0.5000000), wk =   0.0625000
        k(   18) = (   0.2500000   0.2500000  -0.2500000), wk =   0.0625000
        k(   19) = (   0.2500000  -0.5000000   0.0000000), wk =   0.0625000
        k(   20) = (   0.2500000  -0.5000000   0.2500000), wk =   0.0625000
        k(   21) = (   0.2500000  -0.5000000  -0.5000000), wk =   0.0625000
        k(   22) = (   0.2500000  -0.5000000  -0.2500000), wk =   0.0625000
        k(   23) = (   0.2500000  -0.2500000   0.0000000), wk =   0.0625000
        k(   24) = (   0.2500000  -0.2500000   0.2500000), wk =   0.0625000
        k(   25) = (   0.2500000  -0.2500000  -0.5000000), wk =   0.0625000
        k(   26) = (   0.2500000  -0.2500000  -0.2500000), wk =   0.0625000
        k(   27) = (  -0.5000000   0.0000000   0.0000000), wk =   0.0312500
        k(   28) = (  -0.5000000   0.0000000   0.2500000), wk =   0.0625000
        k(   29) = (  -0.5000000  -0.0000000  -0.5000000), wk =   0.0312500
        k(   30) = (  -0.5000000   0.2500000  -0.0000000), wk =   0.0625000
        k(   31) = (  -0.5000000   0.2500000   0.2500000), wk =   0.0625000
        k(   32) = (  -0.5000000   0.2500000  -0.5000000), wk =   0.0625000
        k(   33) = (  -0.5000000   0.2500000  -0.2500000), wk =   0.0625000
        k(   34) = (  -0.5000000  -0.5000000   0.0000000), wk =   0.0312500
        k(   35) = (  -0.5000000  -0.5000000   0.2500000), wk =   0.0625000
        k(   36) = (  -0.5000000  -0.5000000  -0.5000000), wk =   0.0312500

     Dense  grid:    59439 G-vectors     FFT dimensions: (  60,  60,  54)

     Smooth grid:    42575 G-vectors     FFT dimensions: (  50,  50,  50)

     Largest allocated arrays     est. size (Mb)     dimensions
        Kohn-Sham Wavefunctions         0.34 Mb     (     349,   64)
        NL pseudopotentials             1.35 Mb     (     349,  253)
        Each V/rho on FFT grid          0.22 Mb     (   14400)
        Each G-vector array             0.03 Mb     (    3716)
        G-vector shells                 0.03 Mb     (    3640)
     Largest temporary arrays     est. size (Mb)     dimensions
        Auxiliary wavefunctions         1.36 Mb     (     349,  256)
        Each subspace H/S matrix        1.00 Mb     (     256,  256)
        Each <psi_i|beta_j> matrix      0.25 Mb     (     253,   64)
        Arrays for rho mixing           1.76 Mb     (   14400,    8)

     Check: negative/imaginary core charge=   -0.000003    0.000000

     Initial potential from superposition of free atoms

     starting charge  126.48332, renormalised to  128.00000
     Starting wfc are   87 randomized atomic wfcs

     total cpu time spent up to now is       17.9 secs

     Self-consistent Calculation

     iteration #  1     ecut=    40.00 Ry     beta=0.30
     Davidson diagonalization with overlap
     ethr =  1.00E-02,  avg # of iterations =  2.0

     total cpu time spent up to now is       58.4 secs

     total energy              =   -1110.16022017 Ry
     Harris-Foulkes estimate   =   -1110.78338944 Ry
     estimated scf accuracy    <       3.20740148 Ry

     iteration #  2     ecut=    40.00 Ry     beta=0.30
     Davidson diagonalization with overlap
     ethr =  2.51E-03,  avg # of iterations =  1.3

     total cpu time spent up to now is       86.1 secs

     total energy              =   -1109.66433200 Ry
     Harris-Foulkes estimate   =   -1110.25380466 Ry
     estimated scf accuracy    <       1.41225912 Ry

     iteration #  3     ecut=    40.00 Ry     beta=0.30
     Davidson diagonalization with overlap
     ethr =  1.10E-03,  avg # of iterations =  2.0

     total cpu time spent up to now is      124.3 secs

     total energy              =   -1109.87908970 Ry
     Harris-Foulkes estimate   =   -1109.92367218 Ry
     estimated scf accuracy    <       0.17499851 Ry

     iteration #  4     ecut=    40.00 Ry     beta=0.30
     Davidson diagonalization with overlap
     ethr =  1.37E-04,  avg # of iterations =  2.0

     total cpu time spent up to now is      160.3 secs

     total energy              =   -1109.83370999 Ry
     Harris-Foulkes estimate   =   -1109.89422202 Ry
     estimated scf accuracy    <       0.10496381 Ry

     iteration #  5     ecut=    40.00 Ry     beta=0.30
     Davidson diagonalization with overlap
     ethr =  8.20E-05,  avg # of iterations =  2.0

     total cpu time spent up to now is      200.3 secs

     total energy              =   -1109.84827601 Ry
     Harris-Foulkes estimate   =   -1109.84946432 Ry
     estimated scf accuracy    <       0.01192637 Ry

     iteration #  6     ecut=    40.00 Ry     beta=0.30
     Davidson diagonalization with overlap
     ethr =  9.32E-06,  avg # of iterations =  1.0

     total cpu time spent up to now is      227.3 secs

     total energy              =   -1109.84592247 Ry
     Harris-Foulkes estimate   =   -1109.84851728 Ry
     estimated scf accuracy    <       0.00726541 Ry

     iteration #  7     ecut=    40.00 Ry     beta=0.30
     Davidson diagonalization with overlap
     ethr =  5.68E-06,  avg # of iterations =  2.0

     total cpu time spent up to now is      262.3 secs

     total energy              =   -1109.84625688 Ry
     Harris-Foulkes estimate   =   -1109.84659623 Ry
     estimated scf accuracy    <       0.00106664 Ry

     iteration #  8     ecut=    40.00 Ry     beta=0.30
     Davidson diagonalization with overlap
     ethr =  8.33E-07,  avg # of iterations =  2.0

     total cpu time spent up to now is      299.6 secs

     total energy              =   -1109.84632276 Ry
     Harris-Foulkes estimate   =   -1109.84638920 Ry
     estimated scf accuracy    <       0.00016618 Ry

     iteration #  9     ecut=    40.00 Ry     beta=0.30
     Davidson diagonalization with overlap
     ethr =  1.30E-07,  avg # of iterations =  3.0

     total cpu time spent up to now is      344.7 secs

     total energy              =   -1109.84634023 Ry
     Harris-Foulkes estimate   =   -1109.84635437 Ry
     estimated scf accuracy    <       0.00009665 Ry

     iteration # 10     ecut=    40.00 Ry     beta=0.30
     Davidson diagonalization with overlap
     ethr =  7.55E-08,  avg # of iterations =  2.0

     total cpu time spent up to now is      377.8 secs

     total energy              =   -1109.84632146 Ry
     Harris-Foulkes estimate   =   -1109.84634284 Ry
     estimated scf accuracy    <       0.00006123 Ry

     iteration # 11     ecut=    40.00 Ry     beta=0.30
     Davidson diagonalization with overlap
     ethr =  4.78E-08,  avg # of iterations =  2.1

     total cpu time spent up to now is      412.1 secs

     total energy              =   -1109.84632656 Ry
     Harris-Foulkes estimate   =   -1109.84632903 Ry
     estimated scf accuracy    <       0.00000705 Ry

     iteration # 12     ecut=    40.00 Ry     beta=0.30
     Davidson diagonalization with overlap
     ethr =  5.51E-09,  avg # of iterations =  2.0

     total cpu time spent up to now is      450.0 secs

     total energy              =   -1109.84632613 Ry
     Harris-Foulkes estimate   =   -1109.84632740 Ry
     estimated scf accuracy    <       0.00000273 Ry

     iteration # 13     ecut=    40.00 Ry     beta=0.30
     Davidson diagonalization with overlap
     ethr =  2.13E-09,  avg # of iterations =  2.0

     total cpu time spent up to now is      488.4 secs

     total energy              =   -1109.84632636 Ry
     Harris-Foulkes estimate   =   -1109.84632644 Ry
     estimated scf accuracy    <       0.00000033 Ry

     iteration # 14     ecut=    40.00 Ry     beta=0.30
     Davidson diagonalization with overlap
     ethr =  2.60E-10,  avg # of iterations =  2.9

     total cpu time spent up to now is      527.9 secs

     total energy              =   -1109.84632637 Ry
     Harris-Foulkes estimate   =   -1109.84632639 Ry
     estimated scf accuracy    <       0.00000010 Ry

     iteration # 15     ecut=    40.00 Ry     beta=0.30
     Davidson diagonalization with overlap
     ethr =  7.64E-11,  avg # of iterations =  2.0

     total cpu time spent up to now is      564.9 secs

     total energy              =   -1109.84632637 Ry
     Harris-Foulkes estimate   =   -1109.84632638 Ry
     estimated scf accuracy    <       0.00000003 Ry

     iteration # 16     ecut=    40.00 Ry     beta=0.30
     Davidson diagonalization with overlap
     ethr =  2.33E-11,  avg # of iterations =  2.0

     total cpu time spent up to now is      603.1 secs

     total energy              =   -1109.84632637 Ry
     Harris-Foulkes estimate   =   -1109.84632637 Ry
     estimated scf accuracy    <          9.7E-09 Ry

     iteration # 17     ecut=    40.00 Ry     beta=0.30
     Davidson diagonalization with overlap
     ethr =  7.58E-12,  avg # of iterations =  2.0

     total cpu time spent up to now is      647.5 secs

     total energy              =   -1109.84632637 Ry
     Harris-Foulkes estimate   =   -1109.84632637 Ry
     estimated scf accuracy    <          2.1E-09 Ry

     iteration # 18     ecut=    40.00 Ry     beta=0.30
     Davidson diagonalization with overlap
     ethr =  1.62E-12,  avg # of iterations =  2.0

     total cpu time spent up to now is      689.9 secs

     total energy              =   -1109.84632637 Ry
     Harris-Foulkes estimate   =   -1109.84632637 Ry
     estimated scf accuracy    <          5.8E-10 Ry

     iteration # 19     ecut=    40.00 Ry     beta=0.30
     Davidson diagonalization with overlap
     ethr =  4.55E-13,  avg # of iterations =  1.7

     total cpu time spent up to now is      725.5 secs

     total energy              =   -1109.84632637 Ry
     Harris-Foulkes estimate   =   -1109.84632637 Ry
     estimated scf accuracy    <          3.0E-10 Ry

     iteration # 20     ecut=    40.00 Ry     beta=0.30
     Davidson diagonalization with overlap
     ethr =  2.37E-13,  avg # of iterations =  3.0

     total cpu time spent up to now is      768.0 secs

     End of self-consistent calculation

          k = 0.0000 0.0000 0.0000 (  5309 PWs)   bands (ev):

   -65.8291 -65.5252 -65.4407 -65.0798 -64.7469 -32.8192 -32.7974 -32.7690
   -32.5264 -32.4974 -32.4737 -32.4556 -32.4085 -32.3703 -32.1216 -32.0333
   -32.0116 -31.7487 -31.7346 -31.6913 -29.8291 -29.6084 -29.4875 -12.0328
   -11.7689 -11.6423 -11.5713 -11.0038 -10.8418 -10.7257 -10.7058 -10.5694
    -9.1290  -8.5079  -8.2639  -8.2196  -7.6622  -7.5564  -7.2652  -7.2078
     2.8958   3.4478   3.6652   3.6875   4.3522   4.4456   4.5937   5.3918
     5.6888   5.7239   5.7779   5.9409   6.0105   6.2093   6.3302   6.3817
     6.4417   6.5388   6.6076   6.7319   6.7534   7.1385   7.2556   7.4308

     occupation numbers 
     1.0000   1.0000   1.0000   1.0000   1.0000   1.0000   1.0000   1.0000
     1.0000   1.0000   1.0000   1.0000   1.0000   1.0000   1.0000   1.0000
     1.0000   1.0000   1.0000   1.0000   1.0000   1.0000   1.0000   1.0000
     1.0000   1.0000   1.0000   1.0000   1.0000   1.0000   1.0000   1.0000
     1.0000   1.0000   1.0000   1.0000   1.0000   1.0000   1.0000   1.0000
     1.0000   1.0000   1.0000   1.0000   1.0000   1.0000   1.0000   1.0000
     1.0000   1.0000   1.0000   1.0000   1.0000   1.0000   1.0000   1.0000
     1.0000   1.0000   1.0000   1.0000   1.0000   1.0000   1.0000   1.0000

          k = 0.1891 0.1702-0.1756 (  5311 PWs)   bands (ev):

   -65.8291 -65.5252 -65.4407 -65.0798 -64.7469 -32.8193 -32.7975 -32.7690
   -32.5258 -32.4973 -32.4731 -32.4564 -32.4087 -32.3705 -32.1216 -32.0334
   -32.0112 -31.7488 -31.7347 -31.6917 -29.8205 -29.6169 -29.4878 -11.9923
   -11.6907 -11.5502 -11.5006 -11.1078 -10.9220 -10.8603 -10.8108 -10.5799
    -8.9461  -8.4850  -8.2584  -8.1523  -7.7548  -7.6109  -7.2547  -7.2321
     3.1784   3.7301   3.8564   3.9260   4.3581   4.5080   4.6729   5.2698
     5.5575   5.5771   5.7060   5.8434   5.9154   6.0416   6.0820   6.1303
     6.4048   6.4480   6.5441   6.6093   6.7499   6.8321   7.1808   7.3353

     occupation numbers 
     1.0000   1.0000   1.0000   1.0000   1.0000   1.0000   1.0000   1.0000
     1.0000   1.0000   1.0000   1.0000   1.0000   1.0000   1.0000   1.0000
     1.0000   1.0000   1.0000   1.0000   1.0000   1.0000   1.0000   1.0000
     1.0000   1.0000   1.0000   1.0000   1.0000   1.0000   1.0000   1.0000
     1.0000   1.0000   1.0000   1.0000   1.0000   1.0000   1.0000   1.0000
     1.0000   1.0000   1.0000   1.0000   1.0000   1.0000   1.0000   1.0000
     1.0000   1.0000   1.0000   1.0000   1.0000   1.0000   1.0000   1.0000
     1.0000   1.0000   1.0000   1.0000   1.0000   1.0000   1.0000   1.0000

          k =-0.3781-0.3404 0.3512 (  5316 PWs)   bands (ev):

   -65.8291 -65.5251 -65.4407 -65.0798 -64.7469 -32.8193 -32.7975 -32.7690
   -32.5252 -32.4973 -32.4724 -32.4572 -32.4090 -32.3706 -32.1217 -32.0334
   -32.0109 -31.7489 -31.7348 -31.6922 -29.8111 -29.6263 -29.4881 -11.9683
   -11.4782 -11.4106 -11.3762 -11.2878 -11.1890 -11.0252 -10.8334 -10.5838
    -8.7202  -8.4918  -8.2704  -8.0533  -7.8725  -7.6859  -7.2665  -7.2308
     3.6623   4.0004   4.1093   4.2440   4.3566   4.7075   4.8467   4.9836
     5.1424   5.3540   5.4987   5.5577   5.7615   5.8502   5.9280   6.0306
     6.1408   6.3418   6.5730   6.6329   6.7070   6.8602   7.0875   7.2187

     occupation numbers 
     1.0000   1.0000   1.0000   1.0000   1.0000   1.0000   1.0000   1.0000
     1.0000   1.0000   1.0000   1.0000   1.0000   1.0000   1.0000   1.0000
     1.0000   1.0000   1.0000   1.0000   1.0000   1.0000   1.0000   1.0000
     1.0000   1.0000   1.0000   1.0000   1.0000   1.0000   1.0000   1.0000
     1.0000   1.0000   1.0000   1.0000   1.0000   1.0000   1.0000   1.0000
     1.0000   1.0000   1.0000   1.0000   1.0000   1.0000   1.0000   1.0000
     1.0000   1.0000   1.0000   1.0000   1.0000   1.0000   1.0000   1.0000
     1.0000   1.0000   1.0000   1.0000   1.0000   1.0000   1.0000   1.0000

          k = 0.1787-0.1680 0.1674 (  5314 PWs)   bands (ev):

   -65.8291 -65.5252 -65.4407 -65.0798 -64.7469 -32.8192 -32.7974 -32.7689
   -32.5264 -32.4975 -32.4737 -32.4557 -32.4085 -32.3704 -32.1216 -32.0334
   -32.0116 -31.7488 -31.7347 -31.6913 -29.8288 -29.6082 -29.4874 -12.0389
   -11.7670 -11.6451 -11.6049 -11.0052 -10.8377 -10.7258 -10.7052 -10.5689
    -8.9464  -8.5281  -8.2976  -8.2609  -7.6906  -7.5613  -7.2627  -7.2447
     3.1005   3.6143   3.8194   3.9286   4.2474   4.4870   4.6421   5.2013
     5.5031   5.5440   5.6121   5.8634   5.9968   6.0919   6.2236   6.3017
     6.4157   6.4434   6.6351   6.7643   6.8046   6.9667   7.1253   7.3450

     occupation numbers 
     1.0000   1.0000   1.0000   1.0000   1.0000   1.0000   1.0000   1.0000
     1.0000   1.0000   1.0000   1.0000   1.0000   1.0000   1.0000   1.0000
     1.0000   1.0000   1.0000   1.0000   1.0000   1.0000   1.0000   1.0000
     1.0000   1.0000   1.0000   1.0000   1.0000   1.0000   1.0000   1.0000
     1.0000   1.0000   1.0000   1.0000   1.0000   1.0000   1.0000   1.0000
     1.0000   1.0000   1.0000   1.0000   1.0000   1.0000   1.0000   1.0000
     1.0000   1.0000   1.0000   1.0000   1.0000   1.0000   1.0000   1.0000
     1.0000   1.0000   1.0000   1.0000   1.0000   1.0000   1.0000   1.0000

          k = 0.3677 0.0022-0.0082 (  5318 PWs)   bands (ev):

   -65.8291 -65.5252 -65.4407 -65.0798 -64.7469 -32.8192 -32.7975 -32.7689
   -32.5258 -32.4974 -32.4731 -32.4564 -32.4087 -32.3705 -32.1217 -32.0334
   -32.0112 -31.7488 -31.7347 -31.6918 -29.8204 -29.6167 -29.4878 -11.9981
   -11.6837 -11.5530 -11.5201 -11.1148 -10.9167 -10.8559 -10.8113 -10.5799
    -8.8796  -8.4719  -8.2669  -8.1551  -7.7351  -7.6346  -7.2829  -7.2582
     3.2561   3.7788   3.8868   4.0187   4.4111   4.5880   4.7178   5.2488
     5.3572   5.5199   5.6548   5.7355   5.8728   6.0118   6.0802   6.2783
     6.3425   6.3932   6.4275   6.5619   6.7453   6.8580   7.1365   7.3155

     occupation numbers 
     1.0000   1.0000   1.0000   1.0000   1.0000   1.0000   1.0000   1.0000
     1.0000   1.0000   1.0000   1.0000   1.0000   1.0000   1.0000   1.0000
     1.0000   1.0000   1.0000   1.0000   1.0000   1.0000   1.0000   1.0000
     1.0000   1.0000   1.0000   1.0000   1.0000   1.0000   1.0000   1.0000
     1.0000   1.0000   1.0000   1.0000   1.0000   1.0000   1.0000   1.0000
     1.0000   1.0000   1.0000   1.0000   1.0000   1.0000   1.0000   1.0000
     1.0000   1.0000   1.0000   1.0000   1.0000   1.0000   1.0000   1.0000
     1.0000   1.0000   1.0000   1.0000   1.0000   1.0000   1.0000   1.0000

          k =-0.1994-0.5083 0.5187 (  5317 PWs)   bands (ev):

   -65.8291 -65.5251 -65.4407 -65.0798 -64.7469 -32.8193 -32.7975 -32.7689
   -32.5252 -32.4973 -32.4724 -32.4572 -32.4090 -32.3707 -32.1217 -32.0334
   -32.0109 -31.7489 -31.7348 -31.6922 -29.8110 -29.6260 -29.4881 -11.9737
   -11.4763 -11.4186 -11.3741 -11.2933 -11.1953 -11.0235 -10.8294 -10.5838
    -8.7120  -8.4391  -8.2489  -8.0700  -7.8811  -7.6813  -7.2888  -7.2571
     3.6997   4.0098   4.1474   4.2804   4.3737   4.7876   4.8930   4.9921
     5.1724   5.2183   5.4070   5.5817   5.8128   5.8684   5.9463   6.0894
     6.1556   6.3025   6.4451   6.4773   6.6521   6.8213   7.0458   7.2145

     occupation numbers 
     1.0000   1.0000   1.0000   1.0000   1.0000   1.0000   1.0000   1.0000
     1.0000   1.0000   1.0000   1.0000   1.0000   1.0000   1.0000   1.0000
     1.0000   1.0000   1.0000   1.0000   1.0000   1.0000   1.0000   1.0000
     1.0000   1.0000   1.0000   1.0000   1.0000   1.0000   1.0000   1.0000
     1.0000   1.0000   1.0000   1.0000   1.0000   1.0000   1.0000   1.0000
     1.0000   1.0000   1.0000   1.0000   1.0000   1.0000   1.0000   1.0000
     1.0000   1.0000   1.0000   1.0000   1.0000   1.0000   1.0000   1.0000
     1.0000   1.0000   1.0000   1.0000   1.0000   1.0000   1.0000   1.0000

          k =-0.0104-0.3381 0.3431 (  5311 PWs)   bands (ev):

   -65.8291 -65.5252 -65.4407 -65.0798 -64.7469 -32.8192 -32.7975 -32.7689
   -32.5258 -32.4974 -32.4731 -32.4564 -32.4088 -32.3705 -32.1217 -32.0334
   -32.0112 -31.7488 -31.7347 -31.6918 -29.8203 -29.6167 -29.4877 -12.0000
   -11.6873 -11.5504 -11.5364 -11.1093 -10.9159 -10.8565 -10.8092 -10.5794
    -8.7536  -8.5033  -8.3249  -8.1974  -7.7856  -7.5894  -7.2818  -7.2391
     3.4496   3.8275   4.0436   4.1093   4.3261   4.5126   4.8033   4.9579
     5.3587   5.4768   5.5944   5.6466   5.7820   5.9632   6.1138   6.1932
     6.3359   6.4051   6.4877   6.5093   6.7951   6.8727   7.0414   7.2278

     occupation numbers 
     1.0000   1.0000   1.0000   1.0000   1.0000   1.0000   1.0000   1.0000
     1.0000   1.0000   1.0000   1.0000   1.0000   1.0000   1.0000   1.0000
     1.0000   1.0000   1.0000   1.0000   1.0000   1.0000   1.0000   1.0000
     1.0000   1.0000   1.0000   1.0000   1.0000   1.0000   1.0000   1.0000
     1.0000   1.0000   1.0000   1.0000   1.0000   1.0000   1.0000   1.0000
     1.0000   1.0000   1.0000   1.0000   1.0000   1.0000   1.0000   1.0000
     1.0000   1.0000   1.0000   1.0000   1.0000   1.0000   1.0000   1.0000
     1.0000   1.0000   1.0000   1.0000   1.0000   1.0000   1.0000   1.0000

          k =-0.3574 0.3359-0.3349 (  5306 PWs)   bands (ev):

   -65.8291 -65.5252 -65.4407 -65.0798 -64.7469 -32.8191 -32.7974 -32.7688
   -32.5264 -32.4975 -32.4738 -32.4557 -32.4085 -32.3704 -32.1217 -32.0335
   -32.0116 -31.7488 -31.7347 -31.6914 -29.8286 -29.6079 -29.4873 -12.0455
   -11.7672 -11.6561 -11.6250 -11.0060 -10.8332 -10.7260 -10.7047 -10.5685
    -8.7102  -8.5598  -8.3458  -8.2716  -7.8325  -7.5534  -7.2550  -7.2472
     3.3482   3.8175   4.0244   4.0523   4.4186   4.6095   4.7165   5.0118
     5.1043   5.3087   5.4821   5.6022   5.7364   5.9649   6.0665   6.2470
     6.3545   6.4970   6.6104   6.8015   6.8800   7.0325   7.0709   7.2653

     occupation numbers 
     1.0000   1.0000   1.0000   1.0000   1.0000   1.0000   1.0000   1.0000
     1.0000   1.0000   1.0000   1.0000   1.0000   1.0000   1.0000   1.0000
     1.0000   1.0000   1.0000   1.0000   1.0000   1.0000   1.0000   1.0000
     1.0000   1.0000   1.0000   1.0000   1.0000   1.0000   1.0000   1.0000
     1.0000   1.0000   1.0000   1.0000   1.0000   1.0000   1.0000   1.0000
     1.0000   1.0000   1.0000   1.0000   1.0000   1.0000   1.0000   1.0000
     1.0000   1.0000   1.0000   1.0000   1.0000   1.0000   1.0000   1.0000
     1.0000   1.0000   1.0000   1.0000   1.0000   1.0000   1.0000   1.0000

          k =-0.1683 0.5061-0.5105 (  5312 PWs)   bands (ev):

   -65.8291 -65.5252 -65.4407 -65.0798 -64.7469 -32.8192 -32.7975 -32.7688
   -32.5258 -32.4974 -32.4731 -32.4564 -32.4088 -32.3706 -32.1217 -32.0335
   -32.0112 -31.7489 -31.7348 -31.6918 -29.8201 -29.6165 -29.4877 -12.0059
   -11.6816 -11.5591 -11.5471 -11.1164 -10.9107 -10.8526 -10.8095 -10.5795
    -8.6949  -8.4624  -8.3263  -8.1820  -7.8448  -7.6044  -7.2856  -7.2656
     3.5329   3.8946   4.0584   4.2273   4.4231   4.6355   4.8119   5.0440
     5.2530   5.3473   5.4449   5.4990   5.6462   5.9596   6.0113   6.2097
     6.2798   6.3446   6.4276   6.5970   6.8191   6.8980   7.0165   7.2161

     occupation numbers 
     1.0000   1.0000   1.0000   1.0000   1.0000   1.0000   1.0000   1.0000
     1.0000   1.0000   1.0000   1.0000   1.0000   1.0000   1.0000   1.0000
     1.0000   1.0000   1.0000   1.0000   1.0000   1.0000   1.0000   1.0000
     1.0000   1.0000   1.0000   1.0000   1.0000   1.0000   1.0000   1.0000
     1.0000   1.0000   1.0000   1.0000   1.0000   1.0000   1.0000   1.0000
     1.0000   1.0000   1.0000   1.0000   1.0000   1.0000   1.0000   1.0000
     1.0000   1.0000   1.0000   1.0000   1.0000   1.0000   1.0000   1.0000
     1.0000   1.0000   1.0000   1.0000   1.0000   1.0000   1.0000   1.0000

          k =-0.7355-0.0044 0.0163 (  5340 PWs)   bands (ev):

   -65.8291 -65.5251 -65.4407 -65.0798 -64.7469 -32.8192 -32.7975 -32.7689
   -32.5252 -32.4973 -32.4724 -32.4573 -32.4090 -32.3708 -32.1217 -32.0335
   -32.0109 -31.7489 -31.7349 -31.6923 -29.8109 -29.6258 -29.4881 -11.9788
   -11.4733 -11.4274 -11.3723 -11.3008 -11.1998 -11.0217 -10.8253 -10.5837
    -8.6974  -8.3881  -8.2405  -8.0603  -7.9116  -7.6712  -7.3007  -7.2957
     3.7557   3.9589   4.1149   4.2899   4.5882   4.9033   4.9399   5.0325
     5.1206   5.2961   5.3694   5.5075   5.6466   5.8055   5.9717   6.0412
     6.1524   6.2302   6.3022   6.4954   6.5941   6.8679   7.0431   7.1862

     occupation numbers 
     1.0000   1.0000   1.0000   1.0000   1.0000   1.0000   1.0000   1.0000
     1.0000   1.0000   1.0000   1.0000   1.0000   1.0000   1.0000   1.0000
     1.0000   1.0000   1.0000   1.0000   1.0000   1.0000   1.0000   1.0000
     1.0000   1.0000   1.0000   1.0000   1.0000   1.0000   1.0000   1.0000
     1.0000   1.0000   1.0000   1.0000   1.0000   1.0000   1.0000   1.0000
     1.0000   1.0000   1.0000   1.0000   1.0000   1.0000   1.0000   1.0000
     1.0000   1.0000   1.0000   1.0000   1.0000   1.0000   1.0000   1.0000
     1.0000   1.0000   1.0000   1.0000   1.0000   1.0000   1.0000   1.0000

          k =-0.1869 0.1745 0.1821 (  5309 PWs)   bands (ev):

   -65.8291 -65.5252 -65.4407 -65.0798 -64.7469 -32.8192 -32.7975 -32.7690
   -32.5258 -32.4974 -32.4731 -32.4563 -32.4087 -32.3705 -32.1217 -32.0334
   -32.0112 -31.7488 -31.7347 -31.6917 -29.8227 -29.6106 -29.4919 -11.9085
   -11.6943 -11.6123 -11.5205 -11.0673 -10.9420 -10.9076 -10.7803 -10.6385
    -8.9239  -8.4655  -8.2070  -8.1104  -7.7296  -7.5849  -7.3862  -7.2294
     3.1807   3.6899   3.8410   3.9609   4.3393   4.5527   4.6778   5.3097
     5.4137   5.6305   5.6862   5.8864   5.9342   5.9966   6.1356   6.2411
     6.3771   6.4686   6.5274   6.6118   6.7203   6.8108   7.1891   7.2719

     occupation numbers 
     1.0000   1.0000   1.0000   1.0000   1.0000   1.0000   1.0000   1.0000
     1.0000   1.0000   1.0000   1.0000   1.0000   1.0000   1.0000   1.0000
     1.0000   1.0000   1.0000   1.0000   1.0000   1.0000   1.0000   1.0000
     1.0000   1.0000   1.0000   1.0000   1.0000   1.0000   1.0000   1.0000
     1.0000   1.0000   1.0000   1.0000   1.0000   1.0000   1.0000   1.0000
     1.0000   1.0000   1.0000   1.0000   1.0000   1.0000   1.0000   1.0000
     1.0000   1.0000   1.0000   1.0000   1.0000   1.0000   1.0000   1.0000
     1.0000   1.0000   1.0000   1.0000   1.0000   1.0000   1.0000   1.0000

          k = 0.0022 0.3447 0.0065 (  5314 PWs)   bands (ev):

   -65.8291 -65.5252 -65.4407 -65.0798 -64.7469 -32.8192 -32.7975 -32.7690
   -32.5264 -32.4974 -32.4736 -32.4556 -32.4085 -32.3703 -32.1218 -32.0334
   -32.0117 -31.7488 -31.7346 -31.6914 -29.8252 -29.6065 -29.4933 -11.9136
   -11.7285 -11.5859 -11.5197 -11.0853 -10.9442 -10.8633 -10.7872 -10.6585
    -8.8825  -8.4432  -8.2489  -8.1300  -7.6698  -7.6251  -7.3777  -7.2380
     3.2229   3.6387   3.8664   3.9227   4.3302   4.5650   4.6856   5.2591
     5.4430   5.5593   5.6469   5.8235   5.9118   6.0267   6.1551   6.3099
     6.3627   6.4777   6.5371   6.5971   6.8199   6.9246   7.0738   7.2321

     occupation numbers 
     1.0000   1.0000   1.0000   1.0000   1.0000   1.0000   1.0000   1.0000
     1.0000   1.0000   1.0000   1.0000   1.0000   1.0000   1.0000   1.0000
     1.0000   1.0000   1.0000   1.0000   1.0000   1.0000   1.0000   1.0000
     1.0000   1.0000   1.0000   1.0000   1.0000   1.0000   1.0000   1.0000
     1.0000   1.0000   1.0000   1.0000   1.0000   1.0000   1.0000   1.0000
     1.0000   1.0000   1.0000   1.0000   1.0000   1.0000   1.0000   1.0000
     1.0000   1.0000   1.0000   1.0000   1.0000   1.0000   1.0000   1.0000
     1.0000   1.0000   1.0000   1.0000   1.0000   1.0000   1.0000   1.0000

          k =-0.5650-0.1659 0.5334 (  5325 PWs)   bands (ev):

   -65.8291 -65.5252 -65.4407 -65.0798 -64.7469 -32.8192 -32.7975 -32.7690
   -32.5258 -32.4973 -32.4729 -32.4564 -32.4087 -32.3704 -32.1218 -32.0334
   -32.0113 -31.7489 -31.7347 -31.6918 -29.8163 -29.6155 -29.4934 -11.8551
   -11.6390 -11.4733 -11.3913 -11.2545 -11.0570 -10.9453 -10.9196 -10.6899
    -8.6939  -8.3542  -8.2245  -8.1522  -7.7811  -7.6817  -7.3646  -7.2582
     3.6604   3.9313   4.1064   4.1854   4.3642   4.6607   4.8176   5.0983
     5.1779   5.2637   5.4216   5.6889   5.8005   5.8753   6.0789   6.0983
     6.1782   6.3709   6.4755   6.6172   6.6900   6.8545   6.9390   7.1777

     occupation numbers 
     1.0000   1.0000   1.0000   1.0000   1.0000   1.0000   1.0000   1.0000
     1.0000   1.0000   1.0000   1.0000   1.0000   1.0000   1.0000   1.0000
     1.0000   1.0000   1.0000   1.0000   1.0000   1.0000   1.0000   1.0000
     1.0000   1.0000   1.0000   1.0000   1.0000   1.0000   1.0000   1.0000
     1.0000   1.0000   1.0000   1.0000   1.0000   1.0000   1.0000   1.0000
     1.0000   1.0000   1.0000   1.0000   1.0000   1.0000   1.0000   1.0000
     1.0000   1.0000   1.0000   1.0000   1.0000   1.0000   1.0000   1.0000
     1.0000   1.0000   1.0000   1.0000   1.0000   1.0000   1.0000   1.0000

          k =-0.3759 0.0043 0.3577 (  5319 PWs)   bands (ev):

   -65.8291 -65.5251 -65.4407 -65.0798 -64.7469 -32.8193 -32.7975 -32.7690
   -32.5252 -32.4973 -32.4724 -32.4571 -32.4090 -32.3707 -32.1217 -32.0334
   -32.0108 -31.7488 -31.7348 -31.6922 -29.8136 -29.6198 -29.4920 -11.8505
   -11.6228 -11.4695 -11.3788 -11.2076 -11.1759 -10.9478 -10.8751 -10.6833
    -8.7499  -8.3866  -8.2035  -8.0577  -7.8371  -7.6806  -7.3642  -7.2515
     3.6146   3.9782   4.0248   4.2307   4.3704   4.7748   4.8067   5.0690
     5.1853   5.3317   5.5320   5.6946   5.7593   5.8985   5.9644   6.1188
     6.1974   6.3431   6.3824   6.5538   6.6869   6.7719   7.1029   7.1984

     occupation numbers 
     1.0000   1.0000   1.0000   1.0000   1.0000   1.0000   1.0000   1.0000
     1.0000   1.0000   1.0000   1.0000   1.0000   1.0000   1.0000   1.0000
     1.0000   1.0000   1.0000   1.0000   1.0000   1.0000   1.0000   1.0000
     1.0000   1.0000   1.0000   1.0000   1.0000   1.0000   1.0000   1.0000
     1.0000   1.0000   1.0000   1.0000   1.0000   1.0000   1.0000   1.0000
     1.0000   1.0000   1.0000   1.0000   1.0000   1.0000   1.0000   1.0000
     1.0000   1.0000   1.0000   1.0000   1.0000   1.0000   1.0000   1.0000
     1.0000   1.0000   1.0000   1.0000   1.0000   1.0000   1.0000   1.0000

          k =-0.0082 0.0065 0.3496 (  5310 PWs)   bands (ev):

   -65.8291 -65.5252 -65.4407 -65.0798 -64.7469 -32.8193 -32.7974 -32.7689
   -32.5258 -32.4974 -32.4731 -32.4563 -32.4088 -32.3706 -32.1217 -32.0334
   -32.0112 -31.7488 -31.7347 -31.6917 -29.8226 -29.6106 -29.4919 -11.9083
   -11.6971 -11.6038 -11.5340 -11.0698 -10.9412 -10.9024 -10.7805 -10.6383
    -8.9045  -8.4409  -8.2685  -8.0943  -7.7241  -7.5710  -7.3847  -7.2460
     3.2344   3.6852   3.8557   3.9253   4.4126   4.5868   4.7358   5.1577
     5.4859   5.5787   5.6819   5.8246   5.9514   6.0620   6.1170   6.2411
     6.3310   6.4317   6.4559   6.5438   6.7425   6.8380   7.1176   7.3038

     occupation numbers 
     1.0000   1.0000   1.0000   1.0000   1.0000   1.0000   1.0000   1.0000
     1.0000   1.0000   1.0000   1.0000   1.0000   1.0000   1.0000   1.0000
     1.0000   1.0000   1.0000   1.0000   1.0000   1.0000   1.0000   1.0000
     1.0000   1.0000   1.0000   1.0000   1.0000   1.0000   1.0000   1.0000
     1.0000   1.0000   1.0000   1.0000   1.0000   1.0000   1.0000   1.0000
     1.0000   1.0000   1.0000   1.0000   1.0000   1.0000   1.0000   1.0000
     1.0000   1.0000   1.0000   1.0000   1.0000   1.0000   1.0000   1.0000
     1.0000   1.0000   1.0000   1.0000   1.0000   1.0000   1.0000   1.0000

          k = 0.1809 0.1767 0.1740 (  5319 PWs)   bands (ev):

   -65.8291 -65.5252 -65.4407 -65.0798 -64.7469 -32.8192 -32.7975 -32.7689
   -32.5263 -32.4974 -32.4736 -32.4556 -32.4085 -32.3703 -32.1217 -32.0334
   -32.0116 -31.7488 -31.7347 -31.6913 -29.8252 -29.6065 -29.4934 -11.9109
   -11.7247 -11.5890 -11.5184 -11.0813 -10.9447 -10.8671 -10.7866 -10.6580
    -8.9120  -8.4296  -8.2441  -8.1126  -7.6779  -7.6175  -7.3783  -7.2501
     3.1486   3.6494   3.8441   3.9580   4.4128   4.5384   4.5708   5.2164
     5.3475   5.5682   5.7003   5.8810   5.9423   6.0188   6.2528   6.3678
     6.3839   6.4450   6.5167   6.6564   6.8673   6.9866   7.1176   7.1802

     occupation numbers 
     1.0000   1.0000   1.0000   1.0000   1.0000   1.0000   1.0000   1.0000
     1.0000   1.0000   1.0000   1.0000   1.0000   1.0000   1.0000   1.0000
     1.0000   1.0000   1.0000   1.0000   1.0000   1.0000   1.0000   1.0000
     1.0000   1.0000   1.0000   1.0000   1.0000   1.0000   1.0000   1.0000
     1.0000   1.0000   1.0000   1.0000   1.0000   1.0000   1.0000   1.0000
     1.0000   1.0000   1.0000   1.0000   1.0000   1.0000   1.0000   1.0000
     1.0000   1.0000   1.0000   1.0000   1.0000   1.0000   1.0000   1.0000
     1.0000   1.0000   1.0000   1.0000   1.0000   1.0000   1.0000   1.0000

          k =-0.3863-0.3338 0.7008 (  5307 PWs)   bands (ev):

   -65.8291 -65.5252 -65.4407 -65.0798 -64.7469 -32.8193 -32.7975 -32.7689
   -32.5258 -32.4973 -32.4730 -32.4564 -32.4087 -32.3705 -32.1218 -32.0334
   -32.0113 -31.7489 -31.7348 -31.6918 -29.8164 -29.6155 -29.4935 -11.8511
   -11.6371 -11.4630 -11.4023 -11.2546 -11.0578 -10.9442 -10.9199 -10.6901
    -8.7288  -8.3802  -8.1791  -8.1240  -7.7879  -7.6820  -7.3635  -7.2709
     3.5337   3.9586   4.1178   4.1544   4.3868   4.6650   4.7508   4.8879
     5.2923   5.3770   5.5520   5.5984   5.8468   5.9389   6.0831   6.1392
     6.2062   6.3313   6.4475   6.6696   6.7726   6.8622   7.0174   7.1186

     occupation numbers 
     1.0000   1.0000   1.0000   1.0000   1.0000   1.0000   1.0000   1.0000
     1.0000   1.0000   1.0000   1.0000   1.0000   1.0000   1.0000   1.0000
     1.0000   1.0000   1.0000   1.0000   1.0000   1.0000   1.0000   1.0000
     1.0000   1.0000   1.0000   1.0000   1.0000   1.0000   1.0000   1.0000
     1.0000   1.0000   1.0000   1.0000   1.0000   1.0000   1.0000   1.0000
     1.0000   1.0000   1.0000   1.0000   1.0000   1.0000   1.0000   1.0000
     1.0000   1.0000   1.0000   1.0000   1.0000   1.0000   1.0000   1.0000
     1.0000   1.0000   1.0000   1.0000   1.0000   1.0000   1.0000   1.0000

          k =-0.1972-0.1637 0.5252 (  5313 PWs)   bands (ev):

   -65.8291 -65.5251 -65.4407 -65.0798 -64.7469 -32.8193 -32.7975 -32.7689
   -32.5252 -32.4973 -32.4724 -32.4571 -32.4090 -32.3707 -32.1217 -32.0334
   -32.0108 -31.7488 -31.7348 -31.6922 -29.8136 -29.6198 -29.4920 -11.8499
   -11.6229 -11.4718 -11.3905 -11.2000 -11.1757 -10.9460 -10.8757 -10.6829
    -8.7161  -8.3678  -8.2707  -8.0383  -7.8695  -7.6329  -7.3689  -7.2628
     3.7130   3.8801   4.0888   4.2418   4.4208   4.7091   4.8646   5.1055
     5.1866   5.2832   5.5014   5.6219   5.8076   5.8909   5.9471   6.0872
     6.1229   6.3397   6.4322   6.5315   6.6332   6.7790   7.0739   7.2004

     occupation numbers 
     1.0000   1.0000   1.0000   1.0000   1.0000   1.0000   1.0000   1.0000
     1.0000   1.0000   1.0000   1.0000   1.0000   1.0000   1.0000   1.0000
     1.0000   1.0000   1.0000   1.0000   1.0000   1.0000   1.0000   1.0000
     1.0000   1.0000   1.0000   1.0000   1.0000   1.0000   1.0000   1.0000
     1.0000   1.0000   1.0000   1.0000   1.0000   1.0000   1.0000   1.0000
     1.0000   1.0000   1.0000   1.0000   1.0000   1.0000   1.0000   1.0000
     1.0000   1.0000   1.0000   1.0000   1.0000   1.0000   1.0000   1.0000
     1.0000   1.0000   1.0000   1.0000   1.0000   1.0000   1.0000   1.0000

          k =-0.5442 0.5104-0.1528 (  5300 PWs)   bands (ev):

   -65.8291 -65.5252 -65.4407 -65.0798 -64.7469 -32.8192 -32.7974 -32.7689
   -32.5258 -32.4974 -32.4732 -32.4563 -32.4088 -32.3706 -32.1217 -32.0335
   -32.0112 -31.7488 -31.7348 -31.6917 -29.8224 -29.6103 -29.4918 -11.9169
   -11.6972 -11.6118 -11.5599 -11.0688 -10.9356 -10.9015 -10.7764 -10.6377
    -8.7097  -8.4486  -8.2856  -8.1495  -7.8071  -7.5777  -7.3783  -7.2623
     3.5225   3.8354   4.0057   4.2055   4.4295   4.5790   4.8849   4.9773
     5.2448   5.3087   5.4525   5.6649   5.8008   5.9336   6.0419   6.1457
     6.2965   6.4142   6.5115   6.5576   6.7484   6.8475   7.0321   7.2273

     occupation numbers 
     1.0000   1.0000   1.0000   1.0000   1.0000   1.0000   1.0000   1.0000
     1.0000   1.0000   1.0000   1.0000   1.0000   1.0000   1.0000   1.0000
     1.0000   1.0000   1.0000   1.0000   1.0000   1.0000   1.0000   1.0000
     1.0000   1.0000   1.0000   1.0000   1.0000   1.0000   1.0000   1.0000
     1.0000   1.0000   1.0000   1.0000   1.0000   1.0000   1.0000   1.0000
     1.0000   1.0000   1.0000   1.0000   1.0000   1.0000   1.0000   1.0000
     1.0000   1.0000   1.0000   1.0000   1.0000   1.0000   1.0000   1.0000
     1.0000   1.0000   1.0000   1.0000   1.0000   1.0000   1.0000   1.0000

          k =-0.3552 0.6806-0.3284 (  5325 PWs)   bands (ev):

   -65.8291 -65.5252 -65.4407 -65.0798 -64.7469 -32.8192 -32.7975 -32.7689
   -32.5264 -32.4974 -32.4736 -32.4557 -32.4085 -32.3704 -32.1218 -32.0335
   -32.0117 -31.7488 -31.7347 -31.6914 -29.8249 -29.6062 -29.4933 -11.9195
   -11.7205 -11.6111 -11.5372 -11.0778 -10.9414 -10.8631 -10.7836 -10.6568
    -8.7150  -8.4399  -8.2682  -8.1687  -7.7426  -7.6314  -7.3767  -7.2658
     3.4229   3.8542   4.0213   4.0939   4.3821   4.5284   4.8420   5.0016
     5.1992   5.2653   5.5298   5.6623   5.8848   5.9910   6.1020   6.2600
     6.3243   6.4015   6.4897   6.5468   6.9038   7.0286   7.0354   7.1398

     occupation numbers 
     1.0000   1.0000   1.0000   1.0000   1.0000   1.0000   1.0000   1.0000
     1.0000   1.0000   1.0000   1.0000   1.0000   1.0000   1.0000   1.0000
     1.0000   1.0000   1.0000   1.0000   1.0000   1.0000   1.0000   1.0000
     1.0000   1.0000   1.0000   1.0000   1.0000   1.0000   1.0000   1.0000
     1.0000   1.0000   1.0000   1.0000   1.0000   1.0000   1.0000   1.0000
     1.0000   1.0000   1.0000   1.0000   1.0000   1.0000   1.0000   1.0000
     1.0000   1.0000   1.0000   1.0000   1.0000   1.0000   1.0000   1.0000
     1.0000   1.0000   1.0000   1.0000   1.0000   1.0000   1.0000   1.0000

          k =-0.9223 0.1701 0.1985 (  5317 PWs)   bands (ev):

   -65.8291 -65.5251 -65.4407 -65.0798 -64.7469 -32.8192 -32.7975 -32.7689
   -32.5258 -32.4973 -32.4730 -32.4564 -32.4087 -32.3705 -32.1218 -32.0335
   -32.0113 -31.7489 -31.7348 -31.6918 -29.8163 -29.6153 -29.4935 -11.8596
   -11.6301 -11.4690 -11.4183 -11.2534 -11.0594 -10.9421 -10.9141 -10.6893
    -8.6741  -8.3338  -8.1998  -8.1462  -7.8129  -7.6509  -7.3982  -7.2894
     3.6542   3.9502   4.1362   4.2433   4.3953   4.6810   4.8479   5.0179
     5.1210   5.3000   5.4219   5.6247   5.7403   5.9561   6.0139   6.1156
     6.1756   6.3543   6.4377   6.5735   6.7803   6.8455   7.0062   7.1061

     occupation numbers 
     1.0000   1.0000   1.0000   1.0000   1.0000   1.0000   1.0000   1.0000
     1.0000   1.0000   1.0000   1.0000   1.0000   1.0000   1.0000   1.0000
     1.0000   1.0000   1.0000   1.0000   1.0000   1.0000   1.0000   1.0000
     1.0000   1.0000   1.0000   1.0000   1.0000   1.0000   1.0000   1.0000
     1.0000   1.0000   1.0000   1.0000   1.0000   1.0000   1.0000   1.0000
     1.0000   1.0000   1.0000   1.0000   1.0000   1.0000   1.0000   1.0000
     1.0000   1.0000   1.0000   1.0000   1.0000   1.0000   1.0000   1.0000
     1.0000   1.0000   1.0000   1.0000   1.0000   1.0000   1.0000   1.0000

          k =-0.7333 0.3403 0.0229 (  5329 PWs)   bands (ev):

   -65.8291 -65.5251 -65.4407 -65.0798 -64.7469 -32.8193 -32.7975 -32.7689
   -32.5252 -32.4973 -32.4725 -32.4571 -32.4090 -32.3708 -32.1217 -32.0335
   -32.0108 -31.7488 -31.7349 -31.6922 -29.8134 -29.6195 -29.4920 -11.8584
   -11.6139 -11.4910 -11.3875 -11.2051 -11.1780 -10.9430 -10.8715 -10.6825
    -8.6666  -8.3457  -8.2366  -8.0816  -7.8945  -7.6117  -7.3981  -7.2801
     3.7874   4.0097   4.0973   4.3024   4.4086   4.7453   4.8517   5.0549
     5.1741   5.2429   5.4536   5.5577   5.7040   5.9140   5.9672   6.1004
     6.1576   6.2859   6.3758   6.4387   6.6907   6.8023   7.0185   7.1155

     occupation numbers 
     1.0000   1.0000   1.0000   1.0000   1.0000   1.0000   1.0000   1.0000
     1.0000   1.0000   1.0000   1.0000   1.0000   1.0000   1.0000   1.0000
     1.0000   1.0000   1.0000   1.0000   1.0000   1.0000   1.0000   1.0000
     1.0000   1.0000   1.0000   1.0000   1.0000   1.0000   1.0000   1.0000
     1.0000   1.0000   1.0000   1.0000   1.0000   1.0000   1.0000   1.0000
     1.0000   1.0000   1.0000   1.0000   1.0000   1.0000   1.0000   1.0000
     1.0000   1.0000   1.0000   1.0000   1.0000   1.0000   1.0000   1.0000
     1.0000   1.0000   1.0000   1.0000   1.0000   1.0000   1.0000   1.0000

          k =-0.3655 0.3425 0.0147 (  5307 PWs)   bands (ev):

   -65.8291 -65.5252 -65.4407 -65.0798 -64.7469 -32.8192 -32.7974 -32.7689
   -32.5258 -32.4974 -32.4732 -32.4563 -32.4088 -32.3706 -32.1217 -32.0334
   -32.0112 -31.7488 -31.7348 -31.6918 -29.8225 -29.6103 -29.4918 -11.9169
   -11.6932 -11.6202 -11.5488 -11.0665 -10.9370 -10.9054 -10.7763 -10.6379
    -8.7254  -8.4731  -8.2487  -8.1652  -7.7766  -7.5988  -7.3837  -7.2497
     3.4688   3.8502   4.0069   4.1646   4.2571   4.7004   4.8400   5.0477
     5.1933   5.4176   5.4904   5.5961   5.8075   5.9416   6.1083   6.2216
     6.3123   6.4120   6.4640   6.6334   6.7561   6.8548   7.0550   7.2076

     occupation numbers 
     1.0000   1.0000   1.0000   1.0000   1.0000   1.0000   1.0000   1.0000
     1.0000   1.0000   1.0000   1.0000   1.0000   1.0000   1.0000   1.0000
     1.0000   1.0000   1.0000   1.0000   1.0000   1.0000   1.0000   1.0000
     1.0000   1.0000   1.0000   1.0000   1.0000   1.0000   1.0000   1.0000
     1.0000   1.0000   1.0000   1.0000   1.0000   1.0000   1.0000   1.0000
     1.0000   1.0000   1.0000   1.0000   1.0000   1.0000   1.0000   1.0000
     1.0000   1.0000   1.0000   1.0000   1.0000   1.0000   1.0000   1.0000
     1.0000   1.0000   1.0000   1.0000   1.0000   1.0000   1.0000   1.0000

          k =-0.1765 0.5126-0.1609 (  5325 PWs)   bands (ev):

   -65.8291 -65.5252 -65.4407 -65.0798 -64.7469 -32.8192 -32.7975 -32.7689
   -32.5264 -32.4974 -32.4736 -32.4557 -32.4085 -32.3703 -32.1218 -32.0335
   -32.0117 -31.7489 -31.7347 -31.6914 -29.8249 -29.6062 -29.4933 -11.9226
   -11.7255 -11.6075 -11.5369 -11.0807 -10.9413 -10.8599 -10.7841 -10.6573
    -8.6833  -8.4231  -8.2997  -8.1850  -7.7710  -7.6121  -7.3692  -7.2581
     3.5210   3.7920   4.0403   4.1665   4.3359   4.6334   4.7748   5.0009
     5.2347   5.3236   5.4295   5.6154   5.7435   5.9920   6.1046   6.2595
     6.3106   6.4586   6.4884   6.6512   6.8395   6.9039   7.0015   7.1191

     occupation numbers 
     1.0000   1.0000   1.0000   1.0000   1.0000   1.0000   1.0000   1.0000
     1.0000   1.0000   1.0000   1.0000   1.0000   1.0000   1.0000   1.0000
     1.0000   1.0000   1.0000   1.0000   1.0000   1.0000   1.0000   1.0000
     1.0000   1.0000   1.0000   1.0000   1.0000   1.0000   1.0000   1.0000
     1.0000   1.0000   1.0000   1.0000   1.0000   1.0000   1.0000   1.0000
     1.0000   1.0000   1.0000   1.0000   1.0000   1.0000   1.0000   1.0000
     1.0000   1.0000   1.0000   1.0000   1.0000   1.0000   1.0000   1.0000
     1.0000   1.0000   1.0000   1.0000   1.0000   1.0000   1.0000   1.0000

          k =-0.7437 0.0021 0.3659 (  5326 PWs)   bands (ev):

   -65.8291 -65.5252 -65.4407 -65.0798 -64.7469 -32.8192 -32.7975 -32.7689
   -32.5258 -32.4973 -32.4730 -32.4564 -32.4087 -32.3705 -32.1218 -32.0335
   -32.0113 -31.7489 -31.7348 -31.6918 -29.8162 -29.6153 -29.4934 -11.8638
   -11.6319 -11.4809 -11.4072 -11.2507 -11.0587 -10.9422 -10.9154 -10.6892
    -8.6529  -8.2647  -8.2316  -8.1940  -7.8355  -7.6570  -7.3874  -7.2764
     3.7742   3.9824   4.1769   4.2223   4.4230   4.6825   4.8578   4.9526
     5.0583   5.2260   5.4839   5.6108   5.7113   5.9565   6.0042   6.1240
     6.2226   6.3377   6.3572   6.5612   6.6914   6.8663   6.9674   7.0650

     occupation numbers 
     1.0000   1.0000   1.0000   1.0000   1.0000   1.0000   1.0000   1.0000
     1.0000   1.0000   1.0000   1.0000   1.0000   1.0000   1.0000   1.0000
     1.0000   1.0000   1.0000   1.0000   1.0000   1.0000   1.0000   1.0000
     1.0000   1.0000   1.0000   1.0000   1.0000   1.0000   1.0000   1.0000
     1.0000   1.0000   1.0000   1.0000   1.0000   1.0000   1.0000   1.0000
     1.0000   1.0000   1.0000   1.0000   1.0000   1.0000   1.0000   1.0000
     1.0000   1.0000   1.0000   1.0000   1.0000   1.0000   1.0000   1.0000
     1.0000   1.0000   1.0000   1.0000   1.0000   1.0000   1.0000   1.0000

          k =-0.5546 0.1723 0.1903 (  5327 PWs)   bands (ev):

   -65.8291 -65.5251 -65.4407 -65.0798 -64.7469 -32.8192 -32.7975 -32.7689
   -32.5252 -32.4973 -32.4725 -32.4571 -32.4090 -32.3708 -32.1218 -32.0334
   -32.0108 -31.7489 -31.7348 -31.6922 -29.8135 -29.6196 -29.4920 -11.8585
   -11.6140 -11.4881 -11.3773 -11.2113 -11.1798 -10.9446 -10.8704 -10.6829
    -8.6928  -8.3639  -8.2033  -8.0793  -7.8682  -7.6437  -7.3986  -7.2689
     3.7404   3.9476   4.0907   4.2862   4.3807   4.7189   4.9552   5.0825
     5.1912   5.3708   5.4112   5.4972   5.7006   5.8736   5.9925   6.0199
     6.1708   6.3397   6.4201   6.5287   6.6927   6.7639   7.0777   7.1389

     occupation numbers 
     1.0000   1.0000   1.0000   1.0000   1.0000   1.0000   1.0000   1.0000
     1.0000   1.0000   1.0000   1.0000   1.0000   1.0000   1.0000   1.0000
     1.0000   1.0000   1.0000   1.0000   1.0000   1.0000   1.0000   1.0000
     1.0000   1.0000   1.0000   1.0000   1.0000   1.0000   1.0000   1.0000
     1.0000   1.0000   1.0000   1.0000   1.0000   1.0000   1.0000   1.0000
     1.0000   1.0000   1.0000   1.0000   1.0000   1.0000   1.0000   1.0000
     1.0000   1.0000   1.0000   1.0000   1.0000   1.0000   1.0000   1.0000
     1.0000   1.0000   1.0000   1.0000   1.0000   1.0000   1.0000   1.0000

          k = 0.3737-0.3490-0.3643 (  5318 PWs)   bands (ev):

   -65.8291 -65.5251 -65.4407 -65.0798 -64.7469 -32.8192 -32.7975 -32.7690
   -32.5252 -32.4973 -32.4725 -32.4570 -32.4090 -32.3707 -32.1218 -32.0334
   -32.0108 -31.7488 -31.7348 -31.6922 -29.8160 -29.6131 -29.4962 -11.7353
   -11.6193 -11.5302 -11.3811 -11.2179 -11.1778 -11.1179 -10.8261 -10.6479
    -8.7152  -8.4253  -8.1647  -7.8994  -7.8478  -7.6257  -7.5699  -7.2413
     3.8127   3.8860   3.9985   4.0596   4.4449   4.7436   5.0142   5.1189
     5.1883   5.2746   5.4883   5.5967   5.6776   5.7993   5.8604   6.1029
     6.1777   6.4836   6.5070   6.6110   6.6790   6.8353   7.0792   7.1566

     occupation numbers 
     1.0000   1.0000   1.0000   1.0000   1.0000   1.0000   1.0000   1.0000
     1.0000   1.0000   1.0000   1.0000   1.0000   1.0000   1.0000   1.0000
     1.0000   1.0000   1.0000   1.0000   1.0000   1.0000   1.0000   1.0000
     1.0000   1.0000   1.0000   1.0000   1.0000   1.0000   1.0000   1.0000
     1.0000   1.0000   1.0000   1.0000   1.0000   1.0000   1.0000   1.0000
     1.0000   1.0000   1.0000   1.0000   1.0000   1.0000   1.0000   1.0000
     1.0000   1.0000   1.0000   1.0000   1.0000   1.0000   1.0000   1.0000
     1.0000   1.0000   1.0000   1.0000   1.0000   1.0000   1.0000   1.0000

          k = 0.5628-0.1788-0.5399 (  5324 PWs)   bands (ev):

   -65.8291 -65.5252 -65.4407 -65.0798 -64.7469 -32.8192 -32.7975 -32.7690
   -32.5258 -32.4973 -32.4730 -32.4563 -32.4087 -32.3705 -32.1219 -32.0334
   -32.0113 -31.7489 -31.7347 -31.6918 -29.8186 -29.6087 -29.4978 -11.7172
   -11.6163 -11.5658 -11.4649 -11.2111 -11.1680 -10.9446 -10.8711 -10.7107
    -8.6970  -8.3506  -8.2459  -7.9159  -7.7339  -7.7248  -7.5444  -7.2525
     3.7021   3.8827   4.0301   4.2003   4.3449   4.7203   4.8277   5.1189
     5.2200   5.3049   5.4422   5.6350   5.7670   5.9307   5.9760   6.1388
     6.2335   6.3736   6.4852   6.5625   6.6873   6.8347   6.9574   7.1594

     occupation numbers 
     1.0000   1.0000   1.0000   1.0000   1.0000   1.0000   1.0000   1.0000
     1.0000   1.0000   1.0000   1.0000   1.0000   1.0000   1.0000   1.0000
     1.0000   1.0000   1.0000   1.0000   1.0000   1.0000   1.0000   1.0000
     1.0000   1.0000   1.0000   1.0000   1.0000   1.0000   1.0000   1.0000
     1.0000   1.0000   1.0000   1.0000   1.0000   1.0000   1.0000   1.0000
     1.0000   1.0000   1.0000   1.0000   1.0000   1.0000   1.0000   1.0000
     1.0000   1.0000   1.0000   1.0000   1.0000   1.0000   1.0000   1.0000
     1.0000   1.0000   1.0000   1.0000   1.0000   1.0000   1.0000   1.0000

          k =-0.0044-0.6893-0.0130 (  5332 PWs)   bands (ev):

   -65.8291 -65.5252 -65.4407 -65.0798 -64.7469 -32.8192 -32.7975 -32.7690
   -32.5263 -32.4973 -32.4735 -32.4556 -32.4085 -32.3702 -32.1219 -32.0335
   -32.0118 -31.7489 -31.7347 -31.6914 -29.8211 -29.6042 -29.4996 -11.7780
   -11.6330 -11.4892 -11.4109 -11.2218 -11.1984 -11.0397 -10.8360 -10.6719
    -8.6935  -8.3071  -8.2595  -7.8987  -7.8115  -7.6601  -7.5542  -7.2631
     3.6883   3.7702   4.0422   4.0904   4.6453   4.8113   4.8654   5.0155
     5.1141   5.2281   5.4124   5.5297   5.7402   5.9936   6.0834   6.1938
     6.2647   6.3739   6.4598   6.5449   6.6297   6.8620   7.0058   7.1408

     occupation numbers 
     1.0000   1.0000   1.0000   1.0000   1.0000   1.0000   1.0000   1.0000
     1.0000   1.0000   1.0000   1.0000   1.0000   1.0000   1.0000   1.0000
     1.0000   1.0000   1.0000   1.0000   1.0000   1.0000   1.0000   1.0000
     1.0000   1.0000   1.0000   1.0000   1.0000   1.0000   1.0000   1.0000
     1.0000   1.0000   1.0000   1.0000   1.0000   1.0000   1.0000   1.0000
     1.0000   1.0000   1.0000   1.0000   1.0000   1.0000   1.0000   1.0000
     1.0000   1.0000   1.0000   1.0000   1.0000   1.0000   1.0000   1.0000
     1.0000   1.0000   1.0000   1.0000   1.0000   1.0000   1.0000   1.0000

          k = 0.5524-0.5170-0.1968 (  5311 PWs)   bands (ev):

   -65.8291 -65.5251 -65.4407 -65.0798 -64.7469 -32.8193 -32.7975 -32.7689
   -32.5252 -32.4973 -32.4725 -32.4570 -32.4090 -32.3708 -32.1218 -32.0334
   -32.0108 -31.7488 -31.7348 -31.6922 -29.8159 -29.6131 -29.4962 -11.7402
   -11.6147 -11.5245 -11.3937 -11.2194 -11.1745 -11.1167 -10.8249 -10.6477
    -8.7313  -8.4101  -8.1363  -7.9189  -7.8266  -7.6593  -7.5462  -7.2569
     3.7640   3.8528   3.9977   4.2299   4.3747   4.8440   5.0048   5.0458
     5.1989   5.3203   5.3827   5.6092   5.7662   5.8774   5.9808   6.1332
     6.1773   6.3457   6.4565   6.4836   6.5107   6.8876   7.0419   7.1806

     occupation numbers 
     1.0000   1.0000   1.0000   1.0000   1.0000   1.0000   1.0000   1.0000
     1.0000   1.0000   1.0000   1.0000   1.0000   1.0000   1.0000   1.0000
     1.0000   1.0000   1.0000   1.0000   1.0000   1.0000   1.0000   1.0000
     1.0000   1.0000   1.0000   1.0000   1.0000   1.0000   1.0000   1.0000
     1.0000   1.0000   1.0000   1.0000   1.0000   1.0000   1.0000   1.0000
     1.0000   1.0000   1.0000   1.0000   1.0000   1.0000   1.0000   1.0000
     1.0000   1.0000   1.0000   1.0000   1.0000   1.0000   1.0000   1.0000
     1.0000   1.0000   1.0000   1.0000   1.0000   1.0000   1.0000   1.0000

          k = 0.7415-0.3468-0.3724 (  5327 PWs)   bands (ev):

   -65.8291 -65.5252 -65.4407 -65.0798 -64.7469 -32.8192 -32.7975 -32.7689
   -32.5258 -32.4973 -32.4730 -32.4563 -32.4087 -32.3705 -32.1218 -32.0335
   -32.0112 -31.7488 -31.7348 -31.6918 -29.8187 -29.6087 -29.4979 -11.7116
   -11.6029 -11.5720 -11.4636 -11.2148 -11.1749 -10.9383 -10.8738 -10.7110
    -8.7510  -8.3717  -8.2062  -7.8842  -7.7837  -7.6269  -7.5830  -7.2616
     3.5375   3.8664   3.9982   4.1516   4.3851   4.7279   4.7779   4.9808
     5.1814   5.4060   5.6315   5.7658   5.8164   6.0042   6.0329   6.1391
     6.2203   6.3682   6.4692   6.5886   6.6875   6.8892   7.0275   7.0837

     occupation numbers 
     1.0000   1.0000   1.0000   1.0000   1.0000   1.0000   1.0000   1.0000
     1.0000   1.0000   1.0000   1.0000   1.0000   1.0000   1.0000   1.0000
     1.0000   1.0000   1.0000   1.0000   1.0000   1.0000   1.0000   1.0000
     1.0000   1.0000   1.0000   1.0000   1.0000   1.0000   1.0000   1.0000
     1.0000   1.0000   1.0000   1.0000   1.0000   1.0000   1.0000   1.0000
     1.0000   1.0000   1.0000   1.0000   1.0000   1.0000   1.0000   1.0000
     1.0000   1.0000   1.0000   1.0000   1.0000   1.0000   1.0000   1.0000
     1.0000   1.0000   1.0000   1.0000   1.0000   1.0000   1.0000   1.0000

          k = 0.1743-0.8573 0.1544 (  5318 PWs)   bands (ev):

   -65.8291 -65.5252 -65.4407 -65.0798 -64.7469 -32.8192 -32.7975 -32.7689
   -32.5263 -32.4973 -32.4735 -32.4556 -32.4085 -32.3703 -32.1219 -32.0335
   -32.0117 -31.7489 -31.7347 -31.6914 -29.8212 -29.6043 -29.4996 -11.7723
   -11.6273 -11.4915 -11.4245 -11.2112 -11.1993 -11.0418 -10.8347 -10.6715
    -8.6959  -8.3320  -8.2391  -7.9151  -7.8050  -7.6229  -7.5736  -7.2718
     3.6317   3.8540   4.0320   4.1595   4.4330   4.7081   4.8136   5.0075
     5.1401   5.2930   5.3965   5.6291   5.8032   5.9705   6.1084   6.1955
     6.2484   6.3525   6.4909   6.5983   6.8039   6.9083   7.0013   7.0698

     occupation numbers 
     1.0000   1.0000   1.0000   1.0000   1.0000   1.0000   1.0000   1.0000
     1.0000   1.0000   1.0000   1.0000   1.0000   1.0000   1.0000   1.0000
     1.0000   1.0000   1.0000   1.0000   1.0000   1.0000   1.0000   1.0000
     1.0000   1.0000   1.0000   1.0000   1.0000   1.0000   1.0000   1.0000
     1.0000   1.0000   1.0000   1.0000   1.0000   1.0000   1.0000   1.0000
     1.0000   1.0000   1.0000   1.0000   1.0000   1.0000   1.0000   1.0000
     1.0000   1.0000   1.0000   1.0000   1.0000   1.0000   1.0000   1.0000
     1.0000   1.0000   1.0000   1.0000   1.0000   1.0000   1.0000   1.0000

          k = 0.3633-0.6871-0.0212 (  5329 PWs)   bands (ev):

   -65.8291 -65.5252 -65.4407 -65.0798 -64.7469 -32.8192 -32.7975 -32.7689
   -32.5258 -32.4973 -32.4730 -32.4563 -32.4088 -32.3705 -32.1218 -32.0335
   -32.0113 -31.7489 -31.7348 -31.6918 -29.8185 -29.6087 -29.4979 -11.7175
   -11.6163 -11.5631 -11.4857 -11.2115 -11.1564 -10.9420 -10.8727 -10.7096
    -8.6582  -8.3333  -8.2388  -7.9607  -7.7856  -7.6879  -7.5343  -7.2668
     3.8128   4.0008   4.0969   4.2041   4.3090   4.7800   4.8771   4.9963
     5.1315   5.2393   5.3745   5.5119   5.7849   5.9681   6.0590   6.1161
     6.2040   6.3245   6.4474   6.5383   6.7072   6.8320   6.9343   7.1042

     occupation numbers 
     1.0000   1.0000   1.0000   1.0000   1.0000   1.0000   1.0000   1.0000
     1.0000   1.0000   1.0000   1.0000   1.0000   1.0000   1.0000   1.0000
     1.0000   1.0000   1.0000   1.0000   1.0000   1.0000   1.0000   1.0000
     1.0000   1.0000   1.0000   1.0000   1.0000   1.0000   1.0000   1.0000
     1.0000   1.0000   1.0000   1.0000   1.0000   1.0000   1.0000   1.0000
     1.0000   1.0000   1.0000   1.0000   1.0000   1.0000   1.0000   1.0000
     1.0000   1.0000   1.0000   1.0000   1.0000   1.0000   1.0000   1.0000
     1.0000   1.0000   1.0000   1.0000   1.0000   1.0000   1.0000   1.0000

          k = 0.0163-0.0130-0.6992 (  5322 PWs)   bands (ev):

   -65.8291 -65.5251 -65.4407 -65.0798 -64.7469 -32.8193 -32.7974 -32.7689
   -32.5253 -32.4973 -32.4725 -32.4570 -32.4091 -32.3708 -32.1217 -32.0335
   -32.0108 -31.7488 -31.7349 -31.6921 -29.8159 -29.6131 -29.4962 -11.7447
   -11.6074 -11.5225 -11.4050 -11.2207 -11.1722 -11.1159 -10.8241 -10.6475
    -8.7289  -8.3876  -8.1931  -7.8783  -7.8055  -7.6304  -7.5822  -7.2749
     3.7378   3.8225   3.9878   4.1928   4.6404   4.7880   4.9237   5.1459
     5.2269   5.3479   5.4647   5.6324   5.7661   5.8386   5.9742   6.0263
     6.1088   6.1849   6.3139   6.4605   6.6316   6.9004   7.0379   7.2046

     occupation numbers 
     1.0000   1.0000   1.0000   1.0000   1.0000   1.0000   1.0000   1.0000
     1.0000   1.0000   1.0000   1.0000   1.0000   1.0000   1.0000   1.0000
     1.0000   1.0000   1.0000   1.0000   1.0000   1.0000   1.0000   1.0000
     1.0000   1.0000   1.0000   1.0000   1.0000   1.0000   1.0000   1.0000
     1.0000   1.0000   1.0000   1.0000   1.0000   1.0000   1.0000   1.0000
     1.0000   1.0000   1.0000   1.0000   1.0000   1.0000   1.0000   1.0000
     1.0000   1.0000   1.0000   1.0000   1.0000   1.0000   1.0000   1.0000
     1.0000   1.0000   1.0000   1.0000   1.0000   1.0000   1.0000   1.0000

          k = 0.2054 0.1571-0.8748 (  5324 PWs)   bands (ev):

   -65.8291 -65.5252 -65.4407 -65.0798 -64.7469 -32.8193 -32.7975 -32.7689
   -32.5258 -32.4973 -32.4730 -32.4563 -32.4088 -32.3706 -32.1218 -32.0335
   -32.0112 -31.7488 -31.7348 -31.6918 -29.8186 -29.6087 -29.4979 -11.7118
   -11.6038 -11.5672 -11.4850 -11.2152 -11.1648 -10.9351 -10.8760 -10.7099
    -8.6986  -8.3464  -8.2578  -7.8975  -7.7856  -7.6303  -7.5752  -7.2767
     3.6443   3.8626   4.0624   4.1814   4.4409   4.7299   4.8653   4.9717
     5.1873   5.3272   5.4559   5.6764   5.7945   5.9716   6.0045   6.1017
     6.1885   6.3457   6.4120   6.5854   6.7499   6.8935   7.0124   7.1050

     occupation numbers 
     1.0000   1.0000   1.0000   1.0000   1.0000   1.0000   1.0000   1.0000
     1.0000   1.0000   1.0000   1.0000   1.0000   1.0000   1.0000   1.0000
     1.0000   1.0000   1.0000   1.0000   1.0000   1.0000   1.0000   1.0000
     1.0000   1.0000   1.0000   1.0000   1.0000   1.0000   1.0000   1.0000
     1.0000   1.0000   1.0000   1.0000   1.0000   1.0000   1.0000   1.0000
     1.0000   1.0000   1.0000   1.0000   1.0000   1.0000   1.0000   1.0000
     1.0000   1.0000   1.0000   1.0000   1.0000   1.0000   1.0000   1.0000
     1.0000   1.0000   1.0000   1.0000   1.0000   1.0000   1.0000   1.0000

          k =-0.3618-0.3534-0.3479 (  5332 PWs)   bands (ev):

   -65.8291 -65.5252 -65.4407 -65.0798 -64.7469 -32.8193 -32.7975 -32.7689
   -32.5263 -32.4973 -32.4735 -32.4556 -32.4084 -32.3703 -32.1219 -32.0335
   -32.0117 -31.7489 -31.7348 -31.6914 -29.8212 -29.6043 -29.4997 -11.7663
   -11.6238 -11.4890 -11.4365 -11.2043 -11.2011 -11.0444 -10.8338 -10.6711
    -8.6747  -8.3718  -8.2510  -7.8855  -7.8046  -7.6345  -7.5604  -7.2797
     3.5623   3.9556   4.0100   4.2115   4.3251   4.6068   4.9152   4.9567
     5.1244   5.2224   5.5204   5.6913   5.7677   5.8113   5.9866   6.2167
     6.3036   6.3970   6.5862   6.7677   6.8392   6.9659   6.9880   7.0876

     occupation numbers 
     1.0000   1.0000   1.0000   1.0000   1.0000   1.0000   1.0000   1.0000
     1.0000   1.0000   1.0000   1.0000   1.0000   1.0000   1.0000   1.0000
     1.0000   1.0000   1.0000   1.0000   1.0000   1.0000   1.0000   1.0000
     1.0000   1.0000   1.0000   1.0000   1.0000   1.0000   1.0000   1.0000
     1.0000   1.0000   1.0000   1.0000   1.0000   1.0000   1.0000   1.0000
     1.0000   1.0000   1.0000   1.0000   1.0000   1.0000   1.0000   1.0000
     1.0000   1.0000   1.0000   1.0000   1.0000   1.0000   1.0000   1.0000
     1.0000   1.0000   1.0000   1.0000   1.0000   1.0000   1.0000   1.0000

     highest occupied level (ev):     7.4308

!    total energy              =   -1109.84632637 Ry
     Harris-Foulkes estimate   =   -1109.84632637 Ry
     estimated scf accuracy    <          6.0E-11 Ry

     The total energy is the sum of the following terms:

     one-electron contribution =    -559.60376942 Ry
     hartree contribution      =     323.80517957 Ry
     xc contribution           =    -177.74072472 Ry
     ewald contribution        =    -696.30701180 Ry

     convergence has been achieved in  20 iterations

     Forces acting on atoms (Ry/au):

     atom    1 type  1   force =  -0.15024721E-01 -0.15414867E-01  0.27374725E-01
     atom    2 type  3   force =   0.23060995E-01  0.14796213E-01 -0.20247460E-01
     atom    3 type  2   force =   0.24112981E-01  0.75850188E-02  0.46874028E-02
     atom    4 type  3   force =  -0.17351842E-01 -0.21889241E-01 -0.37358568E-01
     atom    5 type  2   force =  -0.57471084E-01  0.86926247E-02  0.32798847E-01
     atom    6 type  3   force =  -0.28166056E-01  0.79353682E-01 -0.16543803E-01
     atom    7 type  2   force =  -0.29630309E-01  0.54542453E-01  0.28125999E-01
     atom    8 type  3   force =   0.10698394E-01 -0.26025799E-01  0.18587633E-01
     atom    9 type  1   force =   0.13752961E-01 -0.63002842E-01 -0.37807519E-01
     atom   10 type  3   force =   0.33517873E-01  0.14502935E-01  0.81148217E-02
     atom   11 type  1   force =   0.15562812E-02 -0.57714746E-01 -0.54582729E-03
     atom   12 type  3   force =  -0.19282614E-01 -0.75451546E-01  0.82219586E-01
     atom   13 type  2   force =  -0.99956905E-02  0.37684226E-01 -0.38611951E-01
     atom   14 type  3   force =   0.41425792E-01  0.20322388E-01  0.66373780E-02
     atom   15 type  2   force =   0.37348195E-01 -0.13557753E-01 -0.53239981E-01
     atom   16 type  3   force =  -0.85511553E-02  0.35577254E-01 -0.41912827E-02
     The non-local contrib.  to forces
     atom    1 type  1   force =  -0.23835257E-01 -0.14815212E-01 -0.28229659E-02
     atom    2 type  3   force =   0.11945075E+00 -0.34546409E-01 -0.15446158E+00
     atom    3 type  2   force =   0.36012948E+00 -0.12864024E-01 -0.25628301E-01
     atom    4 type  3   force =  -0.48397767E-01 -0.29878469E-01 -0.51338700E-01
     atom    5 type  2   force =   0.24431438E-01 -0.22436691E+00  0.11712697E+00
     atom    6 type  3   force =   0.52057330E-02  0.11700378E+00 -0.61355375E-02
     atom    7 type  2   force =   0.23462026E-01  0.14718661E+00  0.12821117E+00
     atom    8 type  3   force =   0.46902475E-01  0.16431047E-01  0.14887506E+00
     atom    9 type  1   force =  -0.13715186E-01  0.13012206E-01 -0.13054074E-01
     atom   10 type  3   force =   0.18990661E+00  0.11138145E+00  0.99949219E-01
     atom   11 type  1   force =  -0.47711031E-01 -0.26708192E-01 -0.22595195E-01
     atom   12 type  3   force =  -0.31183610E-02 -0.18850308E+00  0.24749586E+00
     atom   13 type  2   force =   0.27801929E-01  0.20824441E+00 -0.66319053E-01
     atom   14 type  3   force =  -0.47784454E-01  0.17006440E+00 -0.10576059E+00
     atom   15 type  2   force =   0.69509531E-01 -0.14621461E-01  0.95961985E-01
     atom   16 type  3   force =  -0.10158816E+00 -0.34351060E-01 -0.57399052E-01
     The ionic contribution  to forces
     atom    1 type  1   force =  -0.94680784E+00 -0.16279682E+01  0.11831977E+01
     atom    2 type  3   force =  -0.40820167E+00  0.32030070E+01  0.15093324E+01
     atom    3 type  2   force =   0.31072272E+01  0.14353636E+01 -0.25171909E+00
     atom    4 type  3   force =  -0.11640277E+01 -0.17636675E+01 -0.18094650E+01
     atom    5 type  2   force =  -0.30899412E+01 -0.28785851E+01  0.22964980E+01
     atom    6 type  3   force =  -0.10375009E+01  0.17625718E+01 -0.99992122E+00
     atom    7 type  2   force =  -0.10666906E+01  0.57865675E+01  0.32432900E+01
     atom    8 type  3   force =   0.11314476E+01 -0.24502147E+01 -0.34961465E+00
     atom    9 type  1   force =   0.15716931E-01 -0.17674306E+00 -0.73575464E-01
     atom   10 type  3   force =  -0.14708684E+01 -0.13702488E+01 -0.22138011E+01
     atom   11 type  1   force =   0.41480477E+00 -0.33165453E+01 -0.30076325E+00
     atom   12 type  3   force =  -0.17166517E+01  0.94172795E+00 -0.61957598E+00
     atom   13 type  2   force =   0.14794493E+01  0.33356705E+01 -0.27370795E+01
     atom   14 type  3   force =   0.28002903E+01 -0.24064400E+01  0.27299501E+01
     atom   15 type  2   force =   0.68922494E+00 -0.24562372E+01 -0.30012400E+01
     atom   16 type  3   force =   0.12625291E+01  0.19817415E+01  0.13944872E+01
     The local contribution  to forces
     atom    1 type  1   force =   0.95617476E+00  0.16277819E+01 -0.11519088E+01
     atom    2 type  3   force =   0.31278311E+00 -0.31536350E+01 -0.13759724E+01
     atom    3 type  2   force =  -0.34432422E+01 -0.14149151E+01  0.28203319E+00
     atom    4 type  3   force =   0.11949543E+01  0.17709382E+01  0.18226744E+01
     atom    5 type  2   force =   0.30080429E+01  0.31116401E+01 -0.23808251E+01
     atom    6 type  3   force =   0.10036698E+01 -0.17981597E+01  0.98901180E+00
     atom    7 type  2   force =   0.10135983E+01 -0.58792130E+01 -0.33433702E+01
     atom    8 type  3   force =  -0.11674544E+01  0.24073106E+01  0.22004973E+00
     atom    9 type  1   force =   0.12393410E-01  0.98963618E-01  0.48641858E-01
     atom   10 type  3   force =   0.13158919E+01  0.12739766E+01  0.21226371E+01
     atom   11 type  1   force =  -0.36448683E+00  0.32855809E+01  0.32315930E+00
     atom   12 type  3   force =   0.17001022E+01 -0.83086339E+00  0.45669427E+00
     atom   13 type  2   force =  -0.15172470E+01 -0.35062241E+01  0.27647833E+01
     atom   14 type  3   force =  -0.27106656E+01  0.22578075E+01 -0.26179075E+01
     atom   15 type  2   force =  -0.72138768E+00  0.24572973E+01  0.28520426E+01
     atom   16 type  3   force =  -0.11701465E+01 -0.19110415E+01 -0.13415105E+01
     The core correction contribution to forces
     atom    1 type  1   force =  -0.55439350E-03 -0.41378863E-03 -0.10944636E-02
     atom    2 type  3   force =  -0.97075752E-03 -0.28956679E-04  0.85594845E-03
     atom    3 type  2   force =   0.00000000E+00  0.00000000E+00  0.00000000E+00
     atom    4 type  3   force =   0.12189080E-03  0.71578681E-03  0.77080435E-03
     atom    5 type  2   force =   0.00000000E+00  0.00000000E+00  0.00000000E+00
     atom    6 type  3   force =   0.45891471E-03 -0.20594257E-02  0.49940688E-03
     atom    7 type  2   force =   0.00000000E+00  0.00000000E+00  0.00000000E+00
     atom    8 type  3   force =  -0.19681905E-03  0.44546487E-03 -0.72407721E-03
     atom    9 type  1   force =  -0.64220734E-03  0.17677587E-02  0.18095988E-03
     atom   10 type  3   force =  -0.14130557E-02 -0.60823589E-03 -0.66947240E-03
     atom   11 type  1   force =  -0.10522414E-02 -0.42760847E-04 -0.34370853E-03
     atom   12 type  3   force =   0.38530506E-03  0.21879342E-02 -0.23946036E-02
     atom   13 type  2   force =   0.00000000E+00  0.00000000E+00  0.00000000E+00
     atom   14 type  3   force =  -0.41392311E-03 -0.11120468E-02  0.35857398E-03
     atom   15 type  2   force =   0.00000000E+00  0.00000000E+00  0.00000000E+00
     atom   16 type  3   force =   0.65487068E-03 -0.76832438E-03  0.23294227E-03
     The Hubbard contrib.    to forces
     atom    1 type  1   force =   0.00000000E+00  0.00000000E+00  0.00000000E+00
     atom    2 type  3   force =   0.00000000E+00  0.00000000E+00  0.00000000E+00
     atom    3 type  2   force =   0.00000000E+00  0.00000000E+00  0.00000000E+00
     atom    4 type  3   force =   0.00000000E+00  0.00000000E+00  0.00000000E+00
     atom    5 type  2   force =   0.00000000E+00  0.00000000E+00  0.00000000E+00
     atom    6 type  3   force =   0.00000000E+00  0.00000000E+00  0.00000000E+00
     atom    7 type  2   force =   0.00000000E+00  0.00000000E+00  0.00000000E+00
     atom    8 type  3   force =   0.00000000E+00  0.00000000E+00  0.00000000E+00
     atom    9 type  1   force =   0.00000000E+00  0.00000000E+00  0.00000000E+00
     atom   10 type  3   force =   0.00000000E+00  0.00000000E+00  0.00000000E+00
     atom   11 type  1   force =   0.00000000E+00  0.00000000E+00  0.00000000E+00
     atom   12 type  3   force =   0.00000000E+00  0.00000000E+00  0.00000000E+00
     atom   13 type  2   force =   0.00000000E+00  0.00000000E+00  0.00000000E+00
     atom   14 type  3   force =   0.00000000E+00  0.00000000E+00  0.00000000E+00
     atom   15 type  2   force =   0.00000000E+00  0.00000000E+00  0.00000000E+00
     atom   16 type  3   force =   0.00000000E+00  0.00000000E+00  0.00000000E+00
     The SCF correction term to forces
     atom    1 type  1   force =  -0.18742742E-05  0.25007156E-06  0.38876643E-05
     atom    2 type  3   force =  -0.32164380E-06 -0.58827813E-06 -0.12378559E-05
     atom    3 type  2   force =  -0.14262992E-05  0.36175690E-06  0.21968097E-05
     atom    4 type  3   force =  -0.24259559E-05  0.26313829E-05  0.52399564E-06
     atom    5 type  2   force =  -0.41091288E-05  0.43133806E-05 -0.39666504E-06
     atom    6 type  3   force =   0.55670817E-06 -0.28891627E-05  0.23401792E-05
     atom    7 type  2   force =   0.14422879E-06  0.12083234E-05 -0.43431557E-05
     atom    8 type  3   force =  -0.29994966E-06  0.16786925E-05  0.21659688E-05
     atom    9 type  1   force =   0.13438335E-06 -0.35263846E-05 -0.20371675E-06
     atom   10 type  3   force =   0.98283428E-06  0.17030715E-05 -0.27345921E-06
     atom   11 type  1   force =   0.17350090E-05  0.41313625E-06 -0.23779922E-05
     atom   12 type  3   force =   0.11370470E-06 -0.11292418E-05  0.64715095E-06
     atom   13 type  2   force =   0.16766151E-06 -0.67524124E-05  0.39261693E-05
     atom   14 type  3   force =  -0.37655910E-06  0.23811231E-05 -0.26797994E-05
     atom   15 type  2   force =   0.15263627E-05  0.34123680E-05 -0.39777046E-05
     atom   16 type  3   force =  -0.33040657E-06 -0.35772020E-05 -0.12866454E-05

     Total force =     0.238557     Total SCF correction =     0.000016


     entering subroutine stress ...

          total   stress  (Ry/bohr**3)                   (kbar)     P=   17.01
   0.0001952762   0.0000734866  -0.0002251241         28.73     10.81    -33.12
   0.0000734866   0.0002409750   0.0003112227         10.81     35.45     45.78
  -0.0002251241   0.0003112227  -0.0000894284        -33.12     45.78    -13.16

     kinetic stress (kbar)  20654.93    -10.99      5.07
                              -10.99  20707.86     37.19
                                5.07     37.19  20612.55

     local   stress (kbar)  -9696.80   -249.26     47.49
                             -249.26   -841.43    196.39
                               47.49    196.39  -3559.94

     nonloc. stress (kbar)   5346.21      2.05      0.34
                                2.05   5300.72     -3.58
                                0.34     -3.58   5319.41

     hartree stress (kbar)  14748.57    147.51    -75.55
                              147.51  11137.57    -87.51
                              -75.55    -87.51  12377.95

     exc-cor stress (kbar)  -5731.45     -0.24      0.64
                               -0.24  -5735.22     -0.29
                                0.64     -0.29  -5735.31

     corecor stress (kbar)   -857.38      0.06     -0.04
                                0.06   -857.40     -0.11
                               -0.04     -0.11   -857.13

     ewald   stress (kbar) -24435.35    121.69    -11.07
                              121.69 -29676.65    -96.32
                              -11.07    -96.32 -28170.68

     hubbard stress (kbar)      0.00      0.00      0.00
                                0.00      0.00      0.00
                                0.00      0.00      0.00

     london  stress (kbar)      0.00      0.00      0.00
                                0.00      0.00      0.00
                                0.00      0.00      0.00

     XDM     stress (kbar)      0.00      0.00      0.00
                                0.00      0.00      0.00
                                0.00      0.00      0.00

     dft-nl  stress (kbar)      0.00      0.00      0.00
                                0.00      0.00      0.00
                                0.00      0.00      0.00



     Writing output data file mix.dummy42242.save

     init_run     :     14.72s CPU     16.35s WALL (       1 calls)
     electrons    :    683.94s CPU    750.16s WALL (       1 calls)
     forces       :      5.28s CPU      5.65s WALL (       1 calls)
     stress       :      9.46s CPU      9.76s WALL (       1 calls)

     Called by init_run:
     wfcinit      :     13.12s CPU     14.72s WALL (       1 calls)
     potinit      :      0.44s CPU      0.45s WALL (       1 calls)

     Called by electrons:
     c_bands      :    605.22s CPU    665.24s WALL (      20 calls)
     sum_band     :     72.62s CPU     78.63s WALL (      20 calls)
     v_of_rho     :      0.70s CPU      0.78s WALL (      21 calls)
     v_h          :      0.05s CPU      0.05s WALL (      21 calls)
     v_xc         :      0.71s CPU      0.79s WALL (      23 calls)
     newd         :      4.24s CPU      4.29s WALL (      21 calls)
     mix_rho      :      1.23s CPU      1.27s WALL (      20 calls)

     Called by c_bands:
     init_us_2    :      4.09s CPU      4.10s WALL (    1548 calls)
     cegterg      :    579.18s CPU    637.78s WALL (     720 calls)

     Called by sum_band:
     sum_band:bec :      0.79s CPU      0.86s WALL (     720 calls)
     addusdens    :      4.15s CPU      4.18s WALL (      20 calls)

     Called by *egterg:
     h_psi        :    296.07s CPU    315.48s WALL (    2231 calls)
     s_psi        :     29.67s CPU     31.66s WALL (    2231 calls)
     g_psi        :      0.30s CPU      0.32s WALL (    1475 calls)
     cdiaghg      :     78.64s CPU     91.16s WALL (    2195 calls)
     cegterg:over :     88.30s CPU     98.71s WALL (    1475 calls)
     cegterg:upda :     10.32s CPU     13.71s WALL (    1475 calls)
     cegterg:last :      6.40s CPU      7.75s WALL (     720 calls)

     Called by h_psi:
     h_psi:vloc   :    187.36s CPU    192.42s WALL (    2231 calls)
     h_psi:vnl    :    108.29s CPU    122.57s WALL (    2231 calls)
     add_vuspsi   :     30.04s CPU     34.01s WALL (    2231 calls)

     General routines
     calbec       :    109.65s CPU    125.32s WALL (    3023 calls)
     fft          :      1.30s CPU      1.33s WALL (     357 calls)
     ffts         :      0.71s CPU      0.75s WALL (     544 calls)
     fftw         :    207.58s CPU    212.96s WALL (  267756 calls)
     interpolate  :      0.14s CPU      0.16s WALL (      41 calls)

     Parallel routines
     fft_scatter  :     89.71s CPU     91.92s WALL (  268657 calls)

     PWSCF        : 11m56.91s CPU    13m 6.12s WALL


   This run was terminated on:  19:26:15   7Dec2017            

=------------------------------------------------------------------------------=
   JOB DONE.
=------------------------------------------------------------------------------=
