
     Program PWSCF v.5.1 starts on 15Nov2017 at 12: 2:58 

     This program is part of the open-source Quantum ESPRESSO suite
     for quantum simulation of materials; please cite
         "P. Giannozzi et al., J. Phys.:Condens. Matter 21 395502 (2009);
          URL http://www.quantum-espresso.org", 
     in publications or presentations arising from this work. More details at
     http://www.quantum-espresso.org/quote

     Parallel version (MPI), running on    16 processors
     R & G space division:  proc/nbgrp/npool/nimage =      16
     Waiting for input...
     Reading input from standard input
Warning: card &IONS ignored
Warning: card   ION_DYNAMICS='BFGS', ignored
Warning: card / ignored
Warning: card &CELL ignored
Warning: card  CELL_DYNAMICS = 'BFGS' ignored
Warning: card / ignored

     Current dimensions of program PWSCF are:
     Max number of different atomic species (ntypx) = 10
     Max number of k-points (npk) =  40000
     Max angular momentum in pseudopotentials (lmaxx) =  3
 kfg - two_fermi_energies  F

     Subspace diagonalization in iterative solution of the eigenvalue problem:
     a serial algorithm will be used


     Parallelization info
     --------------------
     sticks:   dense  smooth     PW     G-vecs:    dense   smooth      PW
     Min         113      91     26                 3225     2302     364
     Max         114      92     27                 3227     2318     367
     Sum        1813    1463    429                51615    36955    5847



     bravais-lattice index     =            0
     lattice parameter (alat)  =    11.465113224  a.u.
     unit-cell volume          =    1081.2998 (a.u.)^3
     number of atoms/cell      =           16
     number of atomic types    =            3
     number of electrons       =       128.00
     number of Kohn-Sham states=           64
     kinetic-energy cutoff     =      40.0000  Ry
     charge density cutoff     =     200.0000  Ry
     convergence threshold     =      1.0E-10
     mixing beta               =       0.3000
     number of iterations used =            8  local-TF  mixing
     Exchange-correlation      = SLA  PW   PSX  PSC ( 1  4 10  8 0)
     A smooth kinetic-energy cutoff is imposed at      39.5000 Ry
     height of the smooth step-function =             800.0000 Ry
     width of the smooth step-function  =               1.0000 Ry


     celldm(1)=  11.465113  celldm(2)=   0.000000  celldm(3)=   0.000000
     celldm(4)=   0.000000  celldm(5)=   0.000000  celldm(6)=   0.000000

     crystal axes: (cart. coord. in units of alat)
               a(1) = (  -0.001498304602   0.710678138291   0.703515699071 )  
               a(2) = (   0.719117417822   0.005116495818   0.696900898651 )  
               a(3) = (   0.725475299955   0.710421220004  -0.001241386316 )  

     reciprocal axes: (cart. coord. in units 2 pi/alat)
               b(1) = ( -0.690051  0.705909  0.706867 )  
               b(2) = (  0.697822 -0.711351  0.720079 )  
               b(3) = (  0.685275  0.706574 -0.712309 )  


     PseudoPot. # 1 for Ca read from file:
     /users/kfg/psuedo/gbrv_1.5/ca.pbesol.UPF
     MD5 check sum: 0533207b58cddeaa036efa5b63902087
     Pseudo is Ultrasoft + core correction, Zval = 10.0
     Generated by new atomic code, or converted to UPF format
     Using radial grid of  845 points,  6 beta functions with: 
                l(1) =   0
                l(2) =   0
                l(3) =   1
                l(4) =   1
                l(5) =   2
                l(6) =   2
     Q(r) pseudized with  8 coefficients,  rinner =    1.500   1.500   1.500
                                                       1.500   1.500

     PseudoPot. # 2 for Mg read from file:
     /users/kfg/psuedo/gbrv_1.5/mg.pbesol.UPF
     MD5 check sum: 4059f37963cf5867752dbf5ab2400678
     Pseudo is Ultrasoft, Zval = 10.0
     Generated by new atomic code, or converted to UPF format
     Using radial grid of  821 points,  7 beta functions with: 
                l(1) =   0
                l(2) =   0
                l(3) =   0
                l(4) =   1
                l(5) =   1
                l(6) =   2
                l(7) =   2
     Q(r) pseudized with  8 coefficients,  rinner =    1.200   1.200   1.200
                                                       1.200   1.200

     PseudoPot. # 3 for O  read from file:
     /users/kfg/psuedo/gbrv_1.5/o.pbesol.UPF
     MD5 check sum: 501638753501ef6325af9037351f7734
     Pseudo is Ultrasoft + core correction, Zval =  6.0
     Generated by new atomic code, or converted to UPF format
     Using radial grid of  737 points,  5 beta functions with: 
                l(1) =   0
                l(2) =   0
                l(3) =   1
                l(4) =   1
                l(5) =   2
     Q(r) pseudized with  8 coefficients,  rinner =    0.900   0.900   0.900
                                                       0.900   0.900

     atomic species   valence    mass     pseudopotential
        Ca            10.00    40.07800     Ca( 1.00)
        Mg            10.00    40.07800     Mg( 1.00)
        O              6.00    15.99940     O ( 1.00)

     No symmetry found


                                    s                        frac. trans.

      isym =  1     identity                                     

 cryst.   s( 1) = (     1          0          0      )
                  (     0          1          0      )
                  (     0          0          1      )

 cart.    s( 1) = (  1.0000000  0.0000000  0.0000000 )
                  (  0.0000000  1.0000000  0.0000000 )
                  (  0.0000000  0.0000000  1.0000000 )


     point group C_1 (1)    
     there are  1 classes
     the character table:

       E    
A      1.00

     the symmetry operations in each class:
     E        1

   Cartesian axes

     site n.     atom                  positions (alat units)
         1           Mg  tau(   1) = (    0.01349490482   -0.00590100694   -0.02512772221  )
         2           O   tau(   2) = (    0.34554277172    0.36897695602    0.36256267762  )
         3           Mg  tau(   3) = (    0.37496570038    0.33786494679    0.01330727748  )
         4           O   tau(   4) = (    0.72906706844    0.71315912796    0.32364303971  )
         5           Mg  tau(   5) = (    0.35409842579    0.02059999072    0.37100240199  )
         6           O   tau(   6) = (    0.70930099866    0.35716142306    0.70816779073  )
         7           Mg  tau(   7) = (    0.70364159849    0.36765653070    0.33125395621  )
         8           O   tau(   8) = (    1.10325147164    0.69759530389    0.70427631672  )
         9           Mg  tau(   9) = (   -0.01261312932    0.33475417057    0.32855287694  )
        10           O   tau(  10) = (    0.35702115957    0.72791220351    0.69464314621  )
        11           Mg  tau(  11) = (    0.38372279270    0.73315822620    0.35753445718  )
        12           O   tau(  12) = (    0.72247332878    1.05287478348    0.71690781051  )
        13           Mg  tau(  13) = (    0.35421474130    0.38304878198    0.72009894124  )
        14           O   tau(  14) = (    0.74018466551    0.70660696673    1.02709706279  )
        15           Mg  tau(  15) = (    0.74617008261    0.72754078907    0.71898663444  )
        16           O   tau(  16) = (    1.03402989797    1.03428593093    1.04214460085  )

   Crystallographic axes

     site n.     atom                  positions (cryst. coord.)
         1           Mg  tau(   1) = (   -0.03123970805   -0.00447922213    0.02297691579  )
         2           O   tau(   2) = (    0.27830545453    0.23972908790    0.23924507892  )
         3           Mg  tau(   3) = (   -0.01083722147    0.03090109106    0.48620256284  )
         4           O   tau(   4) = (    0.22910426811    0.23450128258    0.77297790793  )
         5           Mg  tau(   5) = (    0.03244493466    0.49959487810   -0.00705791157  )
         6           O   tau(   6) = (    0.26324971560    0.75083553543    0.23399351499  )
         7           Mg  tau(   7) = (    0.00813565604    0.46801281037    0.50600981798  )
         8           O   tau(   8) = (    0.22896823005    0.78077274168    0.74727183396  )
         9           Mg  tau(   9) = (    0.47725286060   -0.01034527604   -0.00614575158  )
        10           O   tau(  10) = (    0.75849710799    0.23153431833    0.26418164498  )
        11           Mg  tau(  11) = (    0.50548383683    0.00369062308    0.52631174368  )
        12           O   tau(  12) = (    0.75144849559    0.27142479390    0.72836791360  )
        13           Mg  tau(  13) = (    0.53498534208    0.49322496076    0.00045439467  )
        14           O   tau(  14) = (    0.71405571554    0.75346279980    0.27489056550  )
        15           Mg  tau(  15) = (    0.50690976926    0.52088438974    0.51325324314  )
        16           O   tau(  16) = (    0.75323554261    0.73625518544    0.69706652518  )

     number of k points=    36
                       cart. coord. in units 2pi/alat
        k(    1) = (   0.0000000   0.0000000   0.0000000), wk =   0.0312500
        k(    2) = (   0.1713188   0.1766436  -0.1780772), wk =   0.0625000
        k(    3) = (  -0.3426376  -0.3532872   0.3561543), wk =   0.0312500
        k(    4) = (   0.1744555  -0.1778377   0.1800198), wk =   0.0625000
        k(    5) = (   0.3457743  -0.0011941   0.0019426), wk =   0.0625000
        k(    6) = (  -0.1681821  -0.5311249   0.5361741), wk =   0.0625000
        k(    7) = (   0.0031367  -0.3544813   0.3580969), wk =   0.0625000
        k(    8) = (  -0.3489109   0.3556754  -0.3600395), wk =   0.0312500
        k(    9) = (  -0.1775921   0.5323190  -0.5381167), wk =   0.0625000
        k(   10) = (  -0.6915485   0.0023881  -0.0038852), wk =   0.0312500
        k(   11) = (  -0.1725129   0.1764773   0.1767167), wk =   0.0625000
        k(   12) = (  -0.0011941   0.3531209  -0.0013604), wk =   0.0625000
        k(   13) = (  -0.5151505  -0.1768100   0.5328710), wk =   0.0625000
        k(   14) = (  -0.3438317  -0.0001664   0.3547939), wk =   0.0625000
        k(   15) = (   0.0019426  -0.0013604   0.3567365), wk =   0.0625000
        k(   16) = (   0.1732614   0.1752832   0.1786594), wk =   0.0625000
        k(   17) = (  -0.3406950  -0.3546477   0.7128908), wk =   0.0625000
        k(   18) = (  -0.1693762  -0.1780040   0.5348137), wk =   0.0625000
        k(   19) = (  -0.5214238   0.5321526  -0.1833228), wk =   0.0625000
        k(   20) = (  -0.3501050   0.7087962  -0.3614000), wk =   0.0625000
        k(   21) = (  -0.8640614   0.1788654   0.1728315), wk =   0.0625000
        k(   22) = (  -0.6927426   0.3555090  -0.0052457), wk =   0.0625000
        k(   23) = (  -0.3469683   0.3543149  -0.0033030), wk =   0.0625000
        k(   24) = (  -0.1756495   0.5309586  -0.1813802), wk =   0.0625000
        k(   25) = (  -0.6896059   0.0010277   0.3528513), wk =   0.0625000
        k(   26) = (  -0.5182871   0.1776713   0.1747741), wk =   0.0625000
        k(   27) = (   0.3450257  -0.3529545  -0.3534335), wk =   0.0312500
        k(   28) = (   0.5163445  -0.1763109  -0.5315106), wk =   0.0625000
        k(   29) = (   0.0023881  -0.7062418   0.0027208), wk =   0.0312500
        k(   30) = (   0.5194812  -0.5307922  -0.1734137), wk =   0.0625000
        k(   31) = (   0.6908000  -0.3541486  -0.3514909), wk =   0.0625000
        k(   32) = (   0.1768436  -0.8840794   0.1827406), wk =   0.0625000
        k(   33) = (   0.3481624  -0.7074358   0.0046635), wk =   0.0625000
        k(   34) = (  -0.0038852   0.0027208  -0.7134730), wk =   0.0312500
        k(   35) = (   0.1674336   0.1793645  -0.8915502), wk =   0.0625000
        k(   36) = (  -0.3465228  -0.3505664  -0.3573187), wk =   0.0312500

                       cryst. coord.
        k(    1) = (   0.0000000   0.0000000   0.0000000), wk =   0.0312500
        k(    2) = (   0.0000000   0.0000000   0.2500000), wk =   0.0625000
        k(    3) = (  -0.0000000  -0.0000000  -0.5000000), wk =   0.0312500
        k(    4) = (   0.0000000   0.2500000   0.0000000), wk =   0.0625000
        k(    5) = (   0.0000000   0.2500000   0.2500000), wk =   0.0625000
        k(    6) = (   0.0000000   0.2500000  -0.5000000), wk =   0.0625000
        k(    7) = (   0.0000000   0.2500000  -0.2500000), wk =   0.0625000
        k(    8) = (   0.0000000  -0.5000000  -0.0000000), wk =   0.0312500
        k(    9) = (   0.0000000  -0.5000000   0.2500000), wk =   0.0625000
        k(   10) = (  -0.0000000  -0.5000000  -0.5000000), wk =   0.0312500
        k(   11) = (   0.2500000  -0.0000000   0.0000000), wk =   0.0625000
        k(   12) = (   0.2500000  -0.0000000   0.2500000), wk =   0.0625000
        k(   13) = (   0.2500000   0.0000000  -0.5000000), wk =   0.0625000
        k(   14) = (   0.2500000  -0.0000000  -0.2500000), wk =   0.0625000
        k(   15) = (   0.2500000   0.2500000   0.0000000), wk =   0.0625000
        k(   16) = (   0.2500000   0.2500000   0.2500000), wk =   0.0625000
        k(   17) = (   0.2500000   0.2500000  -0.5000000), wk =   0.0625000
        k(   18) = (   0.2500000   0.2500000  -0.2500000), wk =   0.0625000
        k(   19) = (   0.2500000  -0.5000000   0.0000000), wk =   0.0625000
        k(   20) = (   0.2500000  -0.5000000   0.2500000), wk =   0.0625000
        k(   21) = (   0.2500000  -0.5000000  -0.5000000), wk =   0.0625000
        k(   22) = (   0.2500000  -0.5000000  -0.2500000), wk =   0.0625000
        k(   23) = (   0.2500000  -0.2500000   0.0000000), wk =   0.0625000
        k(   24) = (   0.2500000  -0.2500000   0.2500000), wk =   0.0625000
        k(   25) = (   0.2500000  -0.2500000  -0.5000000), wk =   0.0625000
        k(   26) = (   0.2500000  -0.2500000  -0.2500000), wk =   0.0625000
        k(   27) = (  -0.5000000   0.0000000  -0.0000000), wk =   0.0312500
        k(   28) = (  -0.5000000   0.0000000   0.2500000), wk =   0.0625000
        k(   29) = (  -0.5000000   0.0000000  -0.5000000), wk =   0.0312500
        k(   30) = (  -0.5000000   0.2500000  -0.0000000), wk =   0.0625000
        k(   31) = (  -0.5000000   0.2500000   0.2500000), wk =   0.0625000
        k(   32) = (  -0.5000000   0.2500000  -0.5000000), wk =   0.0625000
        k(   33) = (  -0.5000000   0.2500000  -0.2500000), wk =   0.0625000
        k(   34) = (  -0.5000000  -0.5000000  -0.0000000), wk =   0.0312500
        k(   35) = (  -0.5000000  -0.5000000   0.2500000), wk =   0.0625000
        k(   36) = (  -0.5000000  -0.5000000  -0.5000000), wk =   0.0312500

     Dense  grid:    51615 G-vectors     FFT dimensions: (  54,  54,  54)

     Smooth grid:    36955 G-vectors     FFT dimensions: (  48,  48,  48)

     Largest allocated arrays     est. size (Mb)     dimensions
        Kohn-Sham Wavefunctions         0.29 Mb     (     300,   64)
        NL pseudopotentials             1.17 Mb     (     300,  256)
        Each V/rho on FFT grid          0.18 Mb     (   11664)
        Each G-vector array             0.02 Mb     (    3227)
        G-vector shells                 0.02 Mb     (    3188)
     Largest temporary arrays     est. size (Mb)     dimensions
        Auxiliary wavefunctions         1.17 Mb     (     300,  256)
        Each subspace H/S matrix        1.00 Mb     (     256,  256)
        Each <psi_i|beta_j> matrix      0.25 Mb     (     256,   64)
        Arrays for rho mixing           1.42 Mb     (   11664,    8)

     Check: negative/imaginary core charge=   -0.000003    0.000000

     Initial potential from superposition of free atoms

     starting charge  125.59817, renormalised to  128.00000
     Starting wfc are   72 randomized atomic wfcs

     total cpu time spent up to now is       15.8 secs

     per-process dynamical memory:    29.8 Mb

     Self-consistent Calculation

     iteration #  1     ecut=    40.00 Ry     beta=0.30
     Davidson diagonalization with overlap
     ethr =  1.00E-02,  avg # of iterations =  2.0

     total cpu time spent up to now is       54.2 secs

     total energy              =   -1261.07560542 Ry
     Harris-Foulkes estimate   =   -1261.67144463 Ry
     estimated scf accuracy    <       3.03424447 Ry

     iteration #  2     ecut=    40.00 Ry     beta=0.30
     Davidson diagonalization with overlap
     ethr =  2.37E-03,  avg # of iterations =  1.0

     total cpu time spent up to now is       82.2 secs

     total energy              =   -1260.51636335 Ry
     Harris-Foulkes estimate   =   -1261.15772941 Ry
     estimated scf accuracy    <       1.42025025 Ry

     iteration #  3     ecut=    40.00 Ry     beta=0.30
     Davidson diagonalization with overlap
     ethr =  1.11E-03,  avg # of iterations =  2.0

     total cpu time spent up to now is      118.6 secs

     total energy              =   -1260.66979449 Ry
     Harris-Foulkes estimate   =   -1260.73944142 Ry
     estimated scf accuracy    <       0.17448653 Ry

     iteration #  4     ecut=    40.00 Ry     beta=0.30
     Davidson diagonalization with overlap
     ethr =  1.36E-04,  avg # of iterations =  1.0

     total cpu time spent up to now is      144.2 secs

     total energy              =   -1260.64330289 Ry
     Harris-Foulkes estimate   =   -1260.67763161 Ry
     estimated scf accuracy    <       0.05445598 Ry

     iteration #  5     ecut=    40.00 Ry     beta=0.30
     Davidson diagonalization with overlap
     ethr =  4.25E-05,  avg # of iterations =  2.0

     total cpu time spent up to now is      179.2 secs

     total energy              =   -1260.64436258 Ry
     Harris-Foulkes estimate   =   -1260.64796686 Ry
     estimated scf accuracy    <       0.00618141 Ry

     iteration #  6     ecut=    40.00 Ry     beta=0.30
     Davidson diagonalization with overlap
     ethr =  4.83E-06,  avg # of iterations =  3.0

     total cpu time spent up to now is      226.2 secs

     total energy              =   -1260.64408793 Ry
     Harris-Foulkes estimate   =   -1260.65031183 Ry
     estimated scf accuracy    <       0.01529609 Ry

     iteration #  7     ecut=    40.00 Ry     beta=0.30
     Davidson diagonalization with overlap
     ethr =  4.83E-06,  avg # of iterations =  2.0

     total cpu time spent up to now is      261.6 secs

     total energy              =   -1260.64643041 Ry
     Harris-Foulkes estimate   =   -1260.64647190 Ry
     estimated scf accuracy    <       0.00017287 Ry

     iteration #  8     ecut=    40.00 Ry     beta=0.30
     Davidson diagonalization with overlap
     ethr =  1.35E-07,  avg # of iterations =  3.0

     total cpu time spent up to now is      303.6 secs

     total energy              =   -1260.64644161 Ry
     Harris-Foulkes estimate   =   -1260.64649778 Ry
     estimated scf accuracy    <       0.00018180 Ry

     iteration #  9     ecut=    40.00 Ry     beta=0.30
     Davidson diagonalization with overlap
     ethr =  1.35E-07,  avg # of iterations =  2.0

     total cpu time spent up to now is      336.3 secs

     total energy              =   -1260.64643704 Ry
     Harris-Foulkes estimate   =   -1260.64645271 Ry
     estimated scf accuracy    <       0.00004146 Ry

     iteration # 10     ecut=    40.00 Ry     beta=0.30
     Davidson diagonalization with overlap
     ethr =  3.24E-08,  avg # of iterations =  2.0

     total cpu time spent up to now is      373.1 secs

     total energy              =   -1260.64644370 Ry
     Harris-Foulkes estimate   =   -1260.64644430 Ry
     estimated scf accuracy    <       0.00000339 Ry

     iteration # 11     ecut=    40.00 Ry     beta=0.30
     Davidson diagonalization with overlap
     ethr =  2.65E-09,  avg # of iterations =  2.0

     total cpu time spent up to now is      413.3 secs

     total energy              =   -1260.64644337 Ry
     Harris-Foulkes estimate   =   -1260.64644416 Ry
     estimated scf accuracy    <       0.00000247 Ry

     iteration # 12     ecut=    40.00 Ry     beta=0.30
     Davidson diagonalization with overlap
     ethr =  1.93E-09,  avg # of iterations =  2.0

     total cpu time spent up to now is      450.5 secs

     total energy              =   -1260.64644356 Ry
     Harris-Foulkes estimate   =   -1260.64644359 Ry
     estimated scf accuracy    <       0.00000017 Ry

     iteration # 13     ecut=    40.00 Ry     beta=0.30
     Davidson diagonalization with overlap
     ethr =  1.34E-10,  avg # of iterations =  2.0

     total cpu time spent up to now is      487.2 secs

     total energy              =   -1260.64644357 Ry
     Harris-Foulkes estimate   =   -1260.64644357 Ry
     estimated scf accuracy    <       0.00000003 Ry

     iteration # 14     ecut=    40.00 Ry     beta=0.30
     Davidson diagonalization with overlap
     ethr =  2.31E-11,  avg # of iterations =  2.0

     total cpu time spent up to now is      523.5 secs

     total energy              =   -1260.64644358 Ry
     Harris-Foulkes estimate   =   -1260.64644357 Ry
     estimated scf accuracy    <          2.5E-09 Ry

     iteration # 15     ecut=    40.00 Ry     beta=0.30
     Davidson diagonalization with overlap
     ethr =  1.96E-12,  avg # of iterations =  2.0

     total cpu time spent up to now is      560.4 secs

     total energy              =   -1260.64644358 Ry
     Harris-Foulkes estimate   =   -1260.64644358 Ry
     estimated scf accuracy    <          6.1E-10 Ry

     iteration # 16     ecut=    40.00 Ry     beta=0.30
     Davidson diagonalization with overlap
     ethr =  4.74E-13,  avg # of iterations =  2.0

     total cpu time spent up to now is      595.9 secs

     total energy              =   -1260.64644358 Ry
     Harris-Foulkes estimate   =   -1260.64644358 Ry
     estimated scf accuracy    <          2.4E-10 Ry

     iteration # 17     ecut=    40.00 Ry     beta=0.30
     Davidson diagonalization with overlap
     ethr =  1.90E-13,  avg # of iterations =  2.0

     total cpu time spent up to now is      633.0 secs

     End of self-consistent calculation

          k = 0.0000 0.0000 0.0000 (  4647 PWs)   bands (ev):

   -65.7674 -65.3491 -65.3038 -65.2378 -65.1966 -65.1355 -65.0303 -64.7205
   -32.7524 -32.7411 -32.7218 -32.3578 -32.3276 -32.3120 -32.3006 -32.2817
   -32.2534 -32.2357 -32.2253 -32.1981 -32.1870 -32.1646 -32.1538 -32.1277
   -32.1224 -32.0998 -32.0191 -32.0131 -31.9939 -31.7246 -31.7080 -31.6933
   -10.0198  -9.0279  -8.9336  -8.7869  -8.7301  -8.4546  -8.4062  -8.2821
     2.4001   2.4740   2.5259   2.5659   3.0533   3.1374   3.2043   5.3757
     5.4901   5.5137   5.5935   5.6699   5.7253   6.1242   6.2037   6.2789
     6.2912   6.3501   6.4380   6.4733   6.5020   6.8041   7.0433   7.1140

     occupation numbers 
     1.0000   1.0000   1.0000   1.0000   1.0000   1.0000   1.0000   1.0000
     1.0000   1.0000   1.0000   1.0000   1.0000   1.0000   1.0000   1.0000
     1.0000   1.0000   1.0000   1.0000   1.0000   1.0000   1.0000   1.0000
     1.0000   1.0000   1.0000   1.0000   1.0000   1.0000   1.0000   1.0000
     1.0000   1.0000   1.0000   1.0000   1.0000   1.0000   1.0000   1.0000
     1.0000   1.0000   1.0000   1.0000   1.0000   1.0000   1.0000   1.0000
     1.0000   1.0000   1.0000   1.0000   1.0000   1.0000   1.0000   1.0000
     1.0000   1.0000   1.0000   1.0000   1.0000   1.0000   1.0000   1.0000

          k = 0.1713 0.1766-0.1781 (  4632 PWs)   bands (ev):

   -65.7674 -65.3491 -65.3038 -65.2378 -65.1966 -65.1355 -65.0303 -64.7205
   -32.7523 -32.7408 -32.7216 -32.3573 -32.3265 -32.3113 -32.3003 -32.2815
   -32.2525 -32.2357 -32.2257 -32.1962 -32.1866 -32.1667 -32.1538 -32.1283
   -32.1228 -32.1005 -32.0196 -32.0139 -31.9943 -31.7249 -31.7083 -31.6935
    -9.8829  -9.1309  -8.9503  -8.7839  -8.7369  -8.5018  -8.4268  -8.2932
     2.6192   2.7235   2.7863   2.9899   3.2459   3.3306   3.4224   5.0184
     5.1304   5.2836   5.5888   5.6385   5.6735   5.7258   5.8924   5.9646
     6.0746   6.1571   6.2545   6.3699   6.4483   6.5502   6.9435   6.9687

     occupation numbers 
     1.0000   1.0000   1.0000   1.0000   1.0000   1.0000   1.0000   1.0000
     1.0000   1.0000   1.0000   1.0000   1.0000   1.0000   1.0000   1.0000
     1.0000   1.0000   1.0000   1.0000   1.0000   1.0000   1.0000   1.0000
     1.0000   1.0000   1.0000   1.0000   1.0000   1.0000   1.0000   1.0000
     1.0000   1.0000   1.0000   1.0000   1.0000   1.0000   1.0000   1.0000
     1.0000   1.0000   1.0000   1.0000   1.0000   1.0000   1.0000   1.0000
     1.0000   1.0000   1.0000   1.0000   1.0000   1.0000   1.0000   1.0000
     1.0000   1.0000   1.0000   1.0000   1.0000   1.0000   1.0000   1.0000

          k =-0.3426-0.3533 0.3562 (  4628 PWs)   bands (ev):

   -65.7674 -65.3491 -65.3038 -65.2378 -65.1966 -65.1356 -65.0303 -64.7205
   -32.7521 -32.7405 -32.7213 -32.3568 -32.3255 -32.3105 -32.3000 -32.2813
   -32.2515 -32.2358 -32.2262 -32.1939 -32.1862 -32.1693 -32.1537 -32.1288
   -32.1233 -32.1013 -32.0202 -32.0146 -31.9947 -31.7253 -31.7086 -31.6938
    -9.6243  -9.3887  -8.9548  -8.7698  -8.7356  -8.5489  -8.4438  -8.3051
     2.9733   3.1068   3.2566   3.3012   3.4298   3.5287   4.1918   4.3220
     4.7304   4.9919   5.0321   5.1345   5.3659   5.3808   5.7642   5.8141
     5.9194   5.9909   6.1257   6.2460   6.5039   6.6376   6.8474   6.8625

     occupation numbers 
     1.0000   1.0000   1.0000   1.0000   1.0000   1.0000   1.0000   1.0000
     1.0000   1.0000   1.0000   1.0000   1.0000   1.0000   1.0000   1.0000
     1.0000   1.0000   1.0000   1.0000   1.0000   1.0000   1.0000   1.0000
     1.0000   1.0000   1.0000   1.0000   1.0000   1.0000   1.0000   1.0000
     1.0000   1.0000   1.0000   1.0000   1.0000   1.0000   1.0000   1.0000
     1.0000   1.0000   1.0000   1.0000   1.0000   1.0000   1.0000   1.0000
     1.0000   1.0000   1.0000   1.0000   1.0000   1.0000   1.0000   1.0000
     1.0000   1.0000   1.0000   1.0000   1.0000   1.0000   1.0000   1.0000

          k = 0.1745-0.1778 0.1800 (  4632 PWs)   bands (ev):

   -65.7674 -65.3491 -65.3038 -65.2378 -65.1966 -65.1355 -65.0303 -64.7205
   -32.7521 -32.7410 -32.7214 -32.3571 -32.3252 -32.3115 -32.3002 -32.2840
   -32.2532 -32.2347 -32.2251 -32.1974 -32.1875 -32.1646 -32.1535 -32.1282
   -32.1226 -32.1010 -32.0195 -32.0142 -31.9936 -31.7248 -31.7089 -31.6935
    -9.8786  -9.0961  -8.9327  -8.8847  -8.7002  -8.5020  -8.4211  -8.2950
     2.5751   2.6938   2.8160   3.0403   3.2426   3.3556   3.4556   4.9789
     5.1630   5.4001   5.4885   5.6061   5.6793   5.7338   5.9427   6.0058
     6.1681   6.1997   6.2528   6.3157   6.3928   6.4461   6.7566   7.0613

     occupation numbers 
     1.0000   1.0000   1.0000   1.0000   1.0000   1.0000   1.0000   1.0000
     1.0000   1.0000   1.0000   1.0000   1.0000   1.0000   1.0000   1.0000
     1.0000   1.0000   1.0000   1.0000   1.0000   1.0000   1.0000   1.0000
     1.0000   1.0000   1.0000   1.0000   1.0000   1.0000   1.0000   1.0000
     1.0000   1.0000   1.0000   1.0000   1.0000   1.0000   1.0000   1.0000
     1.0000   1.0000   1.0000   1.0000   1.0000   1.0000   1.0000   1.0000
     1.0000   1.0000   1.0000   1.0000   1.0000   1.0000   1.0000   1.0000
     1.0000   1.0000   1.0000   1.0000   1.0000   1.0000   1.0000   1.0000

          k = 0.3458-0.0012 0.0019 (  4625 PWs)   bands (ev):

   -65.7674 -65.3491 -65.3038 -65.2378 -65.1966 -65.1355 -65.0303 -64.7205
   -32.7521 -32.7408 -32.7215 -32.3566 -32.3249 -32.3117 -32.3001 -32.2839
   -32.2528 -32.2344 -32.2253 -32.1955 -32.1880 -32.1668 -32.1544 -32.1287
   -32.1225 -32.1007 -32.0195 -32.0134 -31.9939 -31.7250 -31.7086 -31.6938
    -9.8446  -9.1017  -8.9898  -8.8076  -8.7515  -8.5344  -8.4241  -8.2711
     2.7594   2.8289   2.8624   2.9873   3.3339   3.4148   3.5630   4.9245
     5.0186   5.1760   5.3982   5.5713   5.6843   5.7580   5.7938   5.9169
     5.9796   6.0973   6.1822   6.3997   6.4573   6.5282   6.7306   6.9579

     occupation numbers 
     1.0000   1.0000   1.0000   1.0000   1.0000   1.0000   1.0000   1.0000
     1.0000   1.0000   1.0000   1.0000   1.0000   1.0000   1.0000   1.0000
     1.0000   1.0000   1.0000   1.0000   1.0000   1.0000   1.0000   1.0000
     1.0000   1.0000   1.0000   1.0000   1.0000   1.0000   1.0000   1.0000
     1.0000   1.0000   1.0000   1.0000   1.0000   1.0000   1.0000   1.0000
     1.0000   1.0000   1.0000   1.0000   1.0000   1.0000   1.0000   1.0000
     1.0000   1.0000   1.0000   1.0000   1.0000   1.0000   1.0000   1.0000
     1.0000   1.0000   1.0000   1.0000   1.0000   1.0000   1.0000   1.0000

          k =-0.1682-0.5311 0.5362 (  4626 PWs)   bands (ev):

   -65.7674 -65.3491 -65.3038 -65.2378 -65.1966 -65.1356 -65.0303 -64.7205
   -32.7519 -32.7405 -32.7213 -32.3561 -32.3238 -32.3110 -32.2998 -32.2837
   -32.2518 -32.2346 -32.2257 -32.1932 -32.1876 -32.1695 -32.1543 -32.1293
   -32.1230 -32.1015 -32.0199 -32.0142 -31.9943 -31.7253 -31.7089 -31.6940
    -9.6009  -9.2923  -9.0272  -8.8426  -8.7659  -8.5555  -8.4229  -8.2815
     3.1328   3.2448   3.3262   3.5689   3.6762   3.7059   3.9111   4.3505
     4.4063   4.6413   4.8672   5.1747   5.3231   5.5696   5.7006   5.8964
     5.9348   6.0414   6.0496   6.1780   6.3175   6.5272   6.6362   6.8103

     occupation numbers 
     1.0000   1.0000   1.0000   1.0000   1.0000   1.0000   1.0000   1.0000
     1.0000   1.0000   1.0000   1.0000   1.0000   1.0000   1.0000   1.0000
     1.0000   1.0000   1.0000   1.0000   1.0000   1.0000   1.0000   1.0000
     1.0000   1.0000   1.0000   1.0000   1.0000   1.0000   1.0000   1.0000
     1.0000   1.0000   1.0000   1.0000   1.0000   1.0000   1.0000   1.0000
     1.0000   1.0000   1.0000   1.0000   1.0000   1.0000   1.0000   1.0000
     1.0000   1.0000   1.0000   1.0000   1.0000   1.0000   1.0000   1.0000
     1.0000   1.0000   1.0000   1.0000   1.0000   1.0000   1.0000   1.0000

          k = 0.0031-0.3545 0.3581 (  4623 PWs)   bands (ev):

   -65.7674 -65.3491 -65.3038 -65.2378 -65.1966 -65.1356 -65.0303 -64.7205
   -32.7520 -32.7406 -32.7211 -32.3565 -32.3242 -32.3108 -32.2999 -32.2838
   -32.2523 -32.2348 -32.2255 -32.1957 -32.1870 -32.1667 -32.1535 -32.1287
   -32.1231 -32.1018 -32.0201 -32.0150 -31.9940 -31.7251 -31.7092 -31.6938
    -9.6770  -9.2242  -9.0122  -8.8819  -8.7159  -8.5497  -8.4089  -8.3049
     2.8974   3.0265   3.3184   3.4374   3.5413   3.6275   3.7949   4.2985
     4.8139   4.9939   5.1300   5.2228   5.3561   5.6350   5.7746   5.8378
     6.0083   6.1033   6.1495   6.2061   6.2745   6.4328   6.5775   6.9286

     occupation numbers 
     1.0000   1.0000   1.0000   1.0000   1.0000   1.0000   1.0000   1.0000
     1.0000   1.0000   1.0000   1.0000   1.0000   1.0000   1.0000   1.0000
     1.0000   1.0000   1.0000   1.0000   1.0000   1.0000   1.0000   1.0000
     1.0000   1.0000   1.0000   1.0000   1.0000   1.0000   1.0000   1.0000
     1.0000   1.0000   1.0000   1.0000   1.0000   1.0000   1.0000   1.0000
     1.0000   1.0000   1.0000   1.0000   1.0000   1.0000   1.0000   1.0000
     1.0000   1.0000   1.0000   1.0000   1.0000   1.0000   1.0000   1.0000
     1.0000   1.0000   1.0000   1.0000   1.0000   1.0000   1.0000   1.0000

          k =-0.3489 0.3557-0.3600 (  4616 PWs)   bands (ev):

   -65.7674 -65.3491 -65.3038 -65.2378 -65.1966 -65.1356 -65.0303 -64.7205
   -32.7518 -32.7408 -32.7210 -32.3564 -32.3223 -32.3110 -32.2998 -32.2868
   -32.2530 -32.2338 -32.2250 -32.1968 -32.1879 -32.1646 -32.1532 -32.1288
   -32.1228 -32.1022 -32.0200 -32.0154 -31.9933 -31.7250 -31.7097 -31.6938
    -9.6247  -9.3256  -8.9561  -8.9124  -8.6702  -8.5466  -8.4344  -8.3084
     2.9094   3.0444   3.1298   3.4755   3.5311   3.6595   4.2360   4.3540
     4.7515   4.8292   5.0146   5.2805   5.3414   5.5714   5.6536   5.7702
     5.8336   6.0656   6.2211   6.2751   6.3825   6.3890   6.6798   7.0053

     occupation numbers 
     1.0000   1.0000   1.0000   1.0000   1.0000   1.0000   1.0000   1.0000
     1.0000   1.0000   1.0000   1.0000   1.0000   1.0000   1.0000   1.0000
     1.0000   1.0000   1.0000   1.0000   1.0000   1.0000   1.0000   1.0000
     1.0000   1.0000   1.0000   1.0000   1.0000   1.0000   1.0000   1.0000
     1.0000   1.0000   1.0000   1.0000   1.0000   1.0000   1.0000   1.0000
     1.0000   1.0000   1.0000   1.0000   1.0000   1.0000   1.0000   1.0000
     1.0000   1.0000   1.0000   1.0000   1.0000   1.0000   1.0000   1.0000
     1.0000   1.0000   1.0000   1.0000   1.0000   1.0000   1.0000   1.0000

          k =-0.1776 0.5323-0.5381 (  4609 PWs)   bands (ev):

   -65.7674 -65.3491 -65.3038 -65.2378 -65.1966 -65.1356 -65.0303 -64.7205
   -32.7518 -32.7407 -32.7211 -32.3559 -32.3221 -32.3112 -32.2996 -32.2867
   -32.2526 -32.2336 -32.2251 -32.1949 -32.1885 -32.1668 -32.1541 -32.1293
   -32.1227 -32.1019 -32.0199 -32.0146 -31.9937 -31.7252 -31.7095 -31.6940
    -9.5958  -9.2610  -9.0382  -8.8974  -8.7500  -8.5422  -8.4251  -8.2828
     3.0848   3.2332   3.2718   3.5606   3.7431   3.8278   3.9674   4.3676
     4.4751   4.6388   4.8365   5.0896   5.3141   5.5445   5.7600   5.8331
     5.9070   5.9935   6.1675   6.2411   6.3157   6.4099   6.4999   6.8838

     occupation numbers 
     1.0000   1.0000   1.0000   1.0000   1.0000   1.0000   1.0000   1.0000
     1.0000   1.0000   1.0000   1.0000   1.0000   1.0000   1.0000   1.0000
     1.0000   1.0000   1.0000   1.0000   1.0000   1.0000   1.0000   1.0000
     1.0000   1.0000   1.0000   1.0000   1.0000   1.0000   1.0000   1.0000
     1.0000   1.0000   1.0000   1.0000   1.0000   1.0000   1.0000   1.0000
     1.0000   1.0000   1.0000   1.0000   1.0000   1.0000   1.0000   1.0000
     1.0000   1.0000   1.0000   1.0000   1.0000   1.0000   1.0000   1.0000
     1.0000   1.0000   1.0000   1.0000   1.0000   1.0000   1.0000   1.0000

          k =-0.6915 0.0024-0.0039 (  4632 PWs)   bands (ev):

   -65.7674 -65.3491 -65.3038 -65.2377 -65.1966 -65.1356 -65.0303 -64.7205
   -32.7517 -32.7406 -32.7213 -32.3554 -32.3218 -32.3114 -32.2995 -32.2865
   -32.2522 -32.2333 -32.2252 -32.1925 -32.1889 -32.1697 -32.1548 -32.1298
   -32.1227 -32.1016 -32.0199 -32.0137 -31.9940 -31.7254 -31.7091 -31.6942
    -9.5028  -9.3423  -9.0568  -8.8275  -8.7753  -8.6305  -8.4122  -8.2596
     3.3262   3.4230   3.4565   3.5439   3.9361   4.0488   4.1592   4.2146
     4.3577   4.5305   4.5953   5.0010   5.1512   5.1843   5.3068   5.5270
     5.9664   6.0839   6.1600   6.3121   6.4282   6.4915   6.6095   6.7743

     occupation numbers 
     1.0000   1.0000   1.0000   1.0000   1.0000   1.0000   1.0000   1.0000
     1.0000   1.0000   1.0000   1.0000   1.0000   1.0000   1.0000   1.0000
     1.0000   1.0000   1.0000   1.0000   1.0000   1.0000   1.0000   1.0000
     1.0000   1.0000   1.0000   1.0000   1.0000   1.0000   1.0000   1.0000
     1.0000   1.0000   1.0000   1.0000   1.0000   1.0000   1.0000   1.0000
     1.0000   1.0000   1.0000   1.0000   1.0000   1.0000   1.0000   1.0000
     1.0000   1.0000   1.0000   1.0000   1.0000   1.0000   1.0000   1.0000
     1.0000   1.0000   1.0000   1.0000   1.0000   1.0000   1.0000   1.0000

          k =-0.1725 0.1765 0.1767 (  4630 PWs)   bands (ev):

   -65.7674 -65.3491 -65.3038 -65.2378 -65.1966 -65.1355 -65.0303 -64.7205
   -32.7519 -32.7410 -32.7216 -32.3576 -32.3262 -32.3114 -32.3004 -32.2815
   -32.2530 -32.2352 -32.2262 -32.1972 -32.1880 -32.1651 -32.1540 -32.1285
   -32.1217 -32.1000 -32.0198 -32.0132 -31.9944 -31.7247 -31.7083 -31.6940
    -9.8829  -9.1072  -8.9971  -8.7795  -8.7312  -8.4772  -8.4233  -8.3071
     2.6259   2.7077   2.7644   3.0103   3.2427   3.3415   3.4044   5.0678
     5.1622   5.2207   5.5101   5.6316   5.7199   5.7637   5.8568   5.9571
     6.0472   6.1126   6.2839   6.3791   6.5144   6.5753   6.9297   7.0092

     occupation numbers 
     1.0000   1.0000   1.0000   1.0000   1.0000   1.0000   1.0000   1.0000
     1.0000   1.0000   1.0000   1.0000   1.0000   1.0000   1.0000   1.0000
     1.0000   1.0000   1.0000   1.0000   1.0000   1.0000   1.0000   1.0000
     1.0000   1.0000   1.0000   1.0000   1.0000   1.0000   1.0000   1.0000
     1.0000   1.0000   1.0000   1.0000   1.0000   1.0000   1.0000   1.0000
     1.0000   1.0000   1.0000   1.0000   1.0000   1.0000   1.0000   1.0000
     1.0000   1.0000   1.0000   1.0000   1.0000   1.0000   1.0000   1.0000
     1.0000   1.0000   1.0000   1.0000   1.0000   1.0000   1.0000   1.0000

          k =-0.0012 0.3531-0.0014 (  4632 PWs)   bands (ev):

   -65.7674 -65.3491 -65.3038 -65.2378 -65.1966 -65.1355 -65.0303 -64.7205
   -32.7520 -32.7408 -32.7215 -32.3578 -32.3262 -32.3109 -32.3001 -32.2814
   -32.2529 -32.2352 -32.2245 -32.1954 -32.1875 -32.1672 -32.1545 -32.1288
   -32.1219 -32.1008 -32.0202 -32.0139 -31.9941 -31.7250 -31.7086 -31.6938
    -9.8341  -9.1214  -8.9541  -8.8420  -8.7413  -8.5352  -8.4055  -8.2958
     2.6428   2.8311   2.9214   3.1038   3.3556   3.4306   3.5215   4.8964
     5.0062   5.2781   5.3666   5.5100   5.6105   5.7193   5.8116   5.9749
     6.0962   6.1879   6.2469   6.2968   6.4157   6.5372   6.6791   6.8799

     occupation numbers 
     1.0000   1.0000   1.0000   1.0000   1.0000   1.0000   1.0000   1.0000
     1.0000   1.0000   1.0000   1.0000   1.0000   1.0000   1.0000   1.0000
     1.0000   1.0000   1.0000   1.0000   1.0000   1.0000   1.0000   1.0000
     1.0000   1.0000   1.0000   1.0000   1.0000   1.0000   1.0000   1.0000
     1.0000   1.0000   1.0000   1.0000   1.0000   1.0000   1.0000   1.0000
     1.0000   1.0000   1.0000   1.0000   1.0000   1.0000   1.0000   1.0000
     1.0000   1.0000   1.0000   1.0000   1.0000   1.0000   1.0000   1.0000
     1.0000   1.0000   1.0000   1.0000   1.0000   1.0000   1.0000   1.0000

          k =-0.5152-0.1768 0.5329 (  4618 PWs)   bands (ev):

   -65.7674 -65.3491 -65.3038 -65.2378 -65.1966 -65.1356 -65.0303 -64.7205
   -32.7518 -32.7405 -32.7212 -32.3573 -32.3251 -32.3102 -32.2999 -32.2813
   -32.2519 -32.2353 -32.2249 -32.1930 -32.1871 -32.1699 -32.1545 -32.1293
   -32.1223 -32.1016 -32.0207 -32.0147 -31.9945 -31.7253 -31.7089 -31.6940
    -9.5863  -9.2974  -9.0413  -8.8209  -8.7537  -8.5811  -8.4277  -8.2851
     3.0945   3.2625   3.3443   3.5722   3.6391   3.7234   3.9791   4.3307
     4.4975   4.6570   4.8027   5.2516   5.3797   5.5065   5.6408   5.8104
     5.9570   6.0294   6.0542   6.2402   6.3440   6.5171   6.5774   6.7763

     occupation numbers 
     1.0000   1.0000   1.0000   1.0000   1.0000   1.0000   1.0000   1.0000
     1.0000   1.0000   1.0000   1.0000   1.0000   1.0000   1.0000   1.0000
     1.0000   1.0000   1.0000   1.0000   1.0000   1.0000   1.0000   1.0000
     1.0000   1.0000   1.0000   1.0000   1.0000   1.0000   1.0000   1.0000
     1.0000   1.0000   1.0000   1.0000   1.0000   1.0000   1.0000   1.0000
     1.0000   1.0000   1.0000   1.0000   1.0000   1.0000   1.0000   1.0000
     1.0000   1.0000   1.0000   1.0000   1.0000   1.0000   1.0000   1.0000
     1.0000   1.0000   1.0000   1.0000   1.0000   1.0000   1.0000   1.0000

          k =-0.3438-0.0002 0.3548 (  4625 PWs)   bands (ev):

   -65.7674 -65.3491 -65.3038 -65.2378 -65.1966 -65.1355 -65.0303 -64.7205
   -32.7518 -32.7407 -32.7214 -32.3571 -32.3250 -32.3108 -32.3001 -32.2813
   -32.2520 -32.2352 -32.2266 -32.1953 -32.1876 -32.1671 -32.1541 -32.1290
   -32.1221 -32.1008 -32.0203 -32.0140 -31.9949 -31.7251 -31.7086 -31.6942
    -9.6930  -9.1838  -9.1028  -8.7725  -8.7355  -8.5546  -8.4414  -8.2863
     2.9649   3.0701   3.2742   3.3363   3.4936   3.6286   3.7601   4.2081
     4.8540   5.0084   5.2015   5.2559   5.3669   5.6247   5.7239   5.8379
     5.9165   6.0887   6.1521   6.2468   6.3622   6.4603   6.6996   6.9081

     occupation numbers 
     1.0000   1.0000   1.0000   1.0000   1.0000   1.0000   1.0000   1.0000
     1.0000   1.0000   1.0000   1.0000   1.0000   1.0000   1.0000   1.0000
     1.0000   1.0000   1.0000   1.0000   1.0000   1.0000   1.0000   1.0000
     1.0000   1.0000   1.0000   1.0000   1.0000   1.0000   1.0000   1.0000
     1.0000   1.0000   1.0000   1.0000   1.0000   1.0000   1.0000   1.0000
     1.0000   1.0000   1.0000   1.0000   1.0000   1.0000   1.0000   1.0000
     1.0000   1.0000   1.0000   1.0000   1.0000   1.0000   1.0000   1.0000
     1.0000   1.0000   1.0000   1.0000   1.0000   1.0000   1.0000   1.0000

          k = 0.0019-0.0014 0.3567 (  4632 PWs)   bands (ev):

   -65.7674 -65.3491 -65.3038 -65.2378 -65.1966 -65.1355 -65.0303 -64.7205
   -32.7521 -32.7408 -32.7213 -32.3564 -32.3245 -32.3108 -32.3009 -32.2842
   -32.2529 -32.2351 -32.2264 -32.1978 -32.1867 -32.1652 -32.1535 -32.1276
   -32.1218 -32.0999 -32.0203 -32.0147 -31.9949 -31.7249 -31.7086 -31.6938
    -9.8327  -9.0848  -9.0042  -8.8031  -8.7497  -8.5567  -8.4057  -8.2965
     2.7619   2.8511   2.9234   2.9965   3.2882   3.4816   3.5561   5.0158
     5.0966   5.1705   5.4098   5.5766   5.6418   5.6706   5.7782   5.8580
     5.9680   6.0505   6.1669   6.3303   6.4013   6.5169   6.8209   6.9381

     occupation numbers 
     1.0000   1.0000   1.0000   1.0000   1.0000   1.0000   1.0000   1.0000
     1.0000   1.0000   1.0000   1.0000   1.0000   1.0000   1.0000   1.0000
     1.0000   1.0000   1.0000   1.0000   1.0000   1.0000   1.0000   1.0000
     1.0000   1.0000   1.0000   1.0000   1.0000   1.0000   1.0000   1.0000
     1.0000   1.0000   1.0000   1.0000   1.0000   1.0000   1.0000   1.0000
     1.0000   1.0000   1.0000   1.0000   1.0000   1.0000   1.0000   1.0000
     1.0000   1.0000   1.0000   1.0000   1.0000   1.0000   1.0000   1.0000
     1.0000   1.0000   1.0000   1.0000   1.0000   1.0000   1.0000   1.0000

          k = 0.1733 0.1753 0.1787 (  4629 PWs)   bands (ev):

   -65.7674 -65.3491 -65.3038 -65.2378 -65.1966 -65.1355 -65.0303 -64.7205
   -32.7522 -32.7409 -32.7215 -32.3568 -32.3252 -32.3111 -32.3008 -32.2842
   -32.2534 -32.2348 -32.2246 -32.1958 -32.1872 -32.1674 -32.1548 -32.1280
   -32.1214 -32.0996 -32.0202 -32.0137 -31.9945 -31.7250 -31.7082 -31.6935
    -9.8789  -9.1447  -8.9290  -8.8042  -8.7409  -8.4822  -8.4349  -8.2923
     2.6250   2.7166   2.8208   2.9735   3.1951   3.3529   3.4436   4.9357
     5.2023   5.3248   5.5740   5.6092   5.6712   5.7644   5.8000   6.0432
     6.1421   6.1868   6.2433   6.3500   6.4972   6.5355   6.7957   6.9748

     occupation numbers 
     1.0000   1.0000   1.0000   1.0000   1.0000   1.0000   1.0000   1.0000
     1.0000   1.0000   1.0000   1.0000   1.0000   1.0000   1.0000   1.0000
     1.0000   1.0000   1.0000   1.0000   1.0000   1.0000   1.0000   1.0000
     1.0000   1.0000   1.0000   1.0000   1.0000   1.0000   1.0000   1.0000
     1.0000   1.0000   1.0000   1.0000   1.0000   1.0000   1.0000   1.0000
     1.0000   1.0000   1.0000   1.0000   1.0000   1.0000   1.0000   1.0000
     1.0000   1.0000   1.0000   1.0000   1.0000   1.0000   1.0000   1.0000
     1.0000   1.0000   1.0000   1.0000   1.0000   1.0000   1.0000   1.0000

          k =-0.3407-0.3546 0.7129 (  4623 PWs)   bands (ev):

   -65.7674 -65.3491 -65.3038 -65.2378 -65.1966 -65.1355 -65.0303 -64.7205
   -32.7521 -32.7406 -32.7212 -32.3563 -32.3241 -32.3105 -32.3005 -32.2840
   -32.2524 -32.2349 -32.2250 -32.1934 -32.1868 -32.1701 -32.1549 -32.1285
   -32.1218 -32.1003 -32.0206 -32.0146 -31.9949 -31.7254 -31.7086 -31.6938
    -9.6836  -9.2425  -9.0371  -8.7946  -8.7264  -8.5495  -8.4608  -8.2766
     2.9482   3.0469   3.3021   3.3891   3.4827   3.6363   3.7782   4.1825
     4.7805   5.0143   5.2574   5.3285   5.3874   5.5870   5.7663   5.8018
     5.9286   6.0786   6.2457   6.2778   6.3503   6.4024   6.5295   6.8893

     occupation numbers 
     1.0000   1.0000   1.0000   1.0000   1.0000   1.0000   1.0000   1.0000
     1.0000   1.0000   1.0000   1.0000   1.0000   1.0000   1.0000   1.0000
     1.0000   1.0000   1.0000   1.0000   1.0000   1.0000   1.0000   1.0000
     1.0000   1.0000   1.0000   1.0000   1.0000   1.0000   1.0000   1.0000
     1.0000   1.0000   1.0000   1.0000   1.0000   1.0000   1.0000   1.0000
     1.0000   1.0000   1.0000   1.0000   1.0000   1.0000   1.0000   1.0000
     1.0000   1.0000   1.0000   1.0000   1.0000   1.0000   1.0000   1.0000
     1.0000   1.0000   1.0000   1.0000   1.0000   1.0000   1.0000   1.0000

          k =-0.1694-0.1780 0.5348 (  4612 PWs)   bands (ev):

   -65.7674 -65.3491 -65.3038 -65.2378 -65.1966 -65.1355 -65.0303 -64.7205
   -32.7520 -32.7405 -32.7210 -32.3559 -32.3233 -32.3102 -32.3006 -32.2840
   -32.2519 -32.2352 -32.2269 -32.1959 -32.1862 -32.1672 -32.1536 -32.1282
   -32.1222 -32.1006 -32.0208 -32.0155 -31.9953 -31.7253 -31.7089 -31.6940
    -9.5898  -9.2635  -9.0818  -8.8028  -8.7210  -8.6248  -8.4264  -8.2871
     3.1545   3.2472   3.3848   3.5645   3.6139   3.8008   3.8810   4.4149
     4.5611   4.6397   4.8466   5.2007   5.3405   5.5105   5.5948   5.7189
     5.8740   5.9874   6.0982   6.2500   6.3436   6.4057   6.7297   6.7751

     occupation numbers 
     1.0000   1.0000   1.0000   1.0000   1.0000   1.0000   1.0000   1.0000
     1.0000   1.0000   1.0000   1.0000   1.0000   1.0000   1.0000   1.0000
     1.0000   1.0000   1.0000   1.0000   1.0000   1.0000   1.0000   1.0000
     1.0000   1.0000   1.0000   1.0000   1.0000   1.0000   1.0000   1.0000
     1.0000   1.0000   1.0000   1.0000   1.0000   1.0000   1.0000   1.0000
     1.0000   1.0000   1.0000   1.0000   1.0000   1.0000   1.0000   1.0000
     1.0000   1.0000   1.0000   1.0000   1.0000   1.0000   1.0000   1.0000
     1.0000   1.0000   1.0000   1.0000   1.0000   1.0000   1.0000   1.0000

          k =-0.5214 0.5322-0.1833 (  4609 PWs)   bands (ev):

   -65.7674 -65.3491 -65.3038 -65.2378 -65.1966 -65.1355 -65.0303 -64.7205
   -32.7518 -32.7407 -32.7208 -32.3558 -32.3216 -32.3104 -32.3005 -32.2870
   -32.2527 -32.2342 -32.2263 -32.1972 -32.1871 -32.1652 -32.1532 -32.1282
   -32.1219 -32.1011 -32.0207 -32.0158 -31.9946 -31.7252 -31.7094 -31.6940
    -9.5847  -9.2495  -9.0173  -8.9299  -8.7357  -8.5695  -8.4137  -8.3007
     3.0956   3.2207   3.3558   3.5237   3.8117   3.8616   3.9652   4.3023
     4.5953   4.6794   4.8350   5.1605   5.3133   5.5276   5.6187   5.7805
     5.8305   5.9520   6.1405   6.2121   6.2806   6.4233   6.5412   6.8881

     occupation numbers 
     1.0000   1.0000   1.0000   1.0000   1.0000   1.0000   1.0000   1.0000
     1.0000   1.0000   1.0000   1.0000   1.0000   1.0000   1.0000   1.0000
     1.0000   1.0000   1.0000   1.0000   1.0000   1.0000   1.0000   1.0000
     1.0000   1.0000   1.0000   1.0000   1.0000   1.0000   1.0000   1.0000
     1.0000   1.0000   1.0000   1.0000   1.0000   1.0000   1.0000   1.0000
     1.0000   1.0000   1.0000   1.0000   1.0000   1.0000   1.0000   1.0000
     1.0000   1.0000   1.0000   1.0000   1.0000   1.0000   1.0000   1.0000
     1.0000   1.0000   1.0000   1.0000   1.0000   1.0000   1.0000   1.0000

          k =-0.3501 0.7088-0.3614 (  4614 PWs)   bands (ev):

   -65.7674 -65.3491 -65.3038 -65.2378 -65.1966 -65.1355 -65.0303 -64.7205
   -32.7519 -32.7407 -32.7211 -32.3561 -32.3224 -32.3106 -32.3004 -32.2870
   -32.2532 -32.2339 -32.2244 -32.1952 -32.1877 -32.1674 -32.1546 -32.1285
   -32.1216 -32.1008 -32.0206 -32.0149 -31.9942 -31.7253 -31.7091 -31.6938
    -9.6756  -9.2401  -8.9574  -8.9120  -8.7297  -8.5445  -8.4280  -8.2878
     2.9768   3.0359   3.2383   3.3216   3.5438   3.7095   3.8209   4.3182
     4.8243   4.9514   5.0693   5.2278   5.4684   5.6611   5.7516   5.8412
     6.0138   6.0900   6.1351   6.2321   6.3064   6.3843   6.6791   6.7670

     occupation numbers 
     1.0000   1.0000   1.0000   1.0000   1.0000   1.0000   1.0000   1.0000
     1.0000   1.0000   1.0000   1.0000   1.0000   1.0000   1.0000   1.0000
     1.0000   1.0000   1.0000   1.0000   1.0000   1.0000   1.0000   1.0000
     1.0000   1.0000   1.0000   1.0000   1.0000   1.0000   1.0000   1.0000
     1.0000   1.0000   1.0000   1.0000   1.0000   1.0000   1.0000   1.0000
     1.0000   1.0000   1.0000   1.0000   1.0000   1.0000   1.0000   1.0000
     1.0000   1.0000   1.0000   1.0000   1.0000   1.0000   1.0000   1.0000
     1.0000   1.0000   1.0000   1.0000   1.0000   1.0000   1.0000   1.0000

          k =-0.8641 0.1789 0.1728 (  4623 PWs)   bands (ev):

   -65.7674 -65.3491 -65.3038 -65.2377 -65.1966 -65.1355 -65.0303 -64.7205
   -32.7519 -32.7406 -32.7212 -32.3556 -32.3222 -32.3108 -32.3002 -32.2869
   -32.2527 -32.2336 -32.2246 -32.1927 -32.1882 -32.1703 -32.1554 -32.1290
   -32.1215 -32.1005 -32.0206 -32.0140 -31.9946 -31.7254 -31.7088 -31.6940
    -9.5844  -9.3078  -9.0649  -8.8132  -8.7396  -8.5635  -8.4477  -8.2680
     3.1946   3.2213   3.3297   3.5054   3.6203   3.7786   3.8843   4.3102
     4.5325   4.6908   4.7951   5.2348   5.3750   5.5241   5.6181   5.7660
     5.9900   6.0210   6.0941   6.2383   6.3579   6.5045   6.6229   6.7650

     occupation numbers 
     1.0000   1.0000   1.0000   1.0000   1.0000   1.0000   1.0000   1.0000
     1.0000   1.0000   1.0000   1.0000   1.0000   1.0000   1.0000   1.0000
     1.0000   1.0000   1.0000   1.0000   1.0000   1.0000   1.0000   1.0000
     1.0000   1.0000   1.0000   1.0000   1.0000   1.0000   1.0000   1.0000
     1.0000   1.0000   1.0000   1.0000   1.0000   1.0000   1.0000   1.0000
     1.0000   1.0000   1.0000   1.0000   1.0000   1.0000   1.0000   1.0000
     1.0000   1.0000   1.0000   1.0000   1.0000   1.0000   1.0000   1.0000
     1.0000   1.0000   1.0000   1.0000   1.0000   1.0000   1.0000   1.0000

          k =-0.6927 0.3555-0.0052 (  4604 PWs)   bands (ev):

   -65.7674 -65.3491 -65.3038 -65.2378 -65.1966 -65.1355 -65.0303 -64.7205
   -32.7518 -32.7406 -32.7210 -32.3553 -32.3213 -32.3106 -32.3003 -32.2868
   -32.2523 -32.2339 -32.2264 -32.1952 -32.1877 -32.1673 -32.1542 -32.1287
   -32.1218 -32.1008 -32.0207 -32.0150 -31.9950 -31.7253 -31.7091 -31.6942
    -9.4613  -9.2787  -9.1724  -8.8929  -8.7464  -8.5415  -8.4386  -8.2830
     3.3255   3.6141   3.6594   3.7300   3.8406   3.9368   4.0196   4.1174
     4.2453   4.3481   4.5637   4.6604   5.4031   5.5845   5.7054   5.8067
     5.9209   5.9526   6.0404   6.1422   6.1588   6.4100   6.5643   6.7636

     occupation numbers 
     1.0000   1.0000   1.0000   1.0000   1.0000   1.0000   1.0000   1.0000
     1.0000   1.0000   1.0000   1.0000   1.0000   1.0000   1.0000   1.0000
     1.0000   1.0000   1.0000   1.0000   1.0000   1.0000   1.0000   1.0000
     1.0000   1.0000   1.0000   1.0000   1.0000   1.0000   1.0000   1.0000
     1.0000   1.0000   1.0000   1.0000   1.0000   1.0000   1.0000   1.0000
     1.0000   1.0000   1.0000   1.0000   1.0000   1.0000   1.0000   1.0000
     1.0000   1.0000   1.0000   1.0000   1.0000   1.0000   1.0000   1.0000
     1.0000   1.0000   1.0000   1.0000   1.0000   1.0000   1.0000   1.0000

          k =-0.3470 0.3543-0.0033 (  4622 PWs)   bands (ev):

   -65.7674 -65.3491 -65.3038 -65.2378 -65.1966 -65.1355 -65.0303 -64.7205
   -32.7517 -32.7408 -32.7212 -32.3569 -32.3237 -32.3109 -32.3000 -32.2839
   -32.2528 -32.2342 -32.2260 -32.1965 -32.1885 -32.1651 -32.1537 -32.1290
   -32.1218 -32.1012 -32.0203 -32.0144 -31.9942 -31.7250 -31.7092 -31.6942
    -9.6866  -9.1959  -9.0271  -8.8995  -8.7101  -8.5283  -8.4201  -8.3059
     2.8721   3.0292   3.2422   3.5033   3.5320   3.6432   3.7862   4.2736
     4.8807   4.9697   5.1430   5.2340   5.4126   5.5659   5.7991   5.8367
     6.0149   6.0894   6.1301   6.1773   6.3552   6.4304   6.5263   6.9709

     occupation numbers 
     1.0000   1.0000   1.0000   1.0000   1.0000   1.0000   1.0000   1.0000
     1.0000   1.0000   1.0000   1.0000   1.0000   1.0000   1.0000   1.0000
     1.0000   1.0000   1.0000   1.0000   1.0000   1.0000   1.0000   1.0000
     1.0000   1.0000   1.0000   1.0000   1.0000   1.0000   1.0000   1.0000
     1.0000   1.0000   1.0000   1.0000   1.0000   1.0000   1.0000   1.0000
     1.0000   1.0000   1.0000   1.0000   1.0000   1.0000   1.0000   1.0000
     1.0000   1.0000   1.0000   1.0000   1.0000   1.0000   1.0000   1.0000
     1.0000   1.0000   1.0000   1.0000   1.0000   1.0000   1.0000   1.0000

          k =-0.1756 0.5310-0.1814 (  4612 PWs)   bands (ev):

   -65.7674 -65.3491 -65.3038 -65.2378 -65.1966 -65.1356 -65.0303 -64.7205
   -32.7517 -32.7407 -32.7210 -32.3571 -32.3238 -32.3104 -32.2997 -32.2839
   -32.2527 -32.2343 -32.2243 -32.1947 -32.1880 -32.1672 -32.1542 -32.1294
   -32.1221 -32.1020 -32.0206 -32.0150 -31.9938 -31.7252 -31.7095 -31.6940
    -9.5849  -9.2637  -9.0007  -8.9426  -8.7395  -8.5587  -8.4082  -8.2990
     3.0182   3.1913   3.4049   3.6134   3.7340   3.8585   3.9100   4.3384
     4.5717   4.6362   4.8517   4.9567   5.4014   5.6142   5.7283   5.8578
     5.9315   5.9914   6.0629   6.2498   6.2880   6.4151   6.5883   6.7478

     occupation numbers 
     1.0000   1.0000   1.0000   1.0000   1.0000   1.0000   1.0000   1.0000
     1.0000   1.0000   1.0000   1.0000   1.0000   1.0000   1.0000   1.0000
     1.0000   1.0000   1.0000   1.0000   1.0000   1.0000   1.0000   1.0000
     1.0000   1.0000   1.0000   1.0000   1.0000   1.0000   1.0000   1.0000
     1.0000   1.0000   1.0000   1.0000   1.0000   1.0000   1.0000   1.0000
     1.0000   1.0000   1.0000   1.0000   1.0000   1.0000   1.0000   1.0000
     1.0000   1.0000   1.0000   1.0000   1.0000   1.0000   1.0000   1.0000
     1.0000   1.0000   1.0000   1.0000   1.0000   1.0000   1.0000   1.0000

          k =-0.6896 0.0010 0.3529 (  4611 PWs)   bands (ev):

   -65.7674 -65.3491 -65.3038 -65.2377 -65.1966 -65.1356 -65.0303 -64.7205
   -32.7516 -32.7406 -32.7212 -32.3567 -32.3235 -32.3105 -32.2996 -32.2837
   -32.2523 -32.2341 -32.2244 -32.1923 -32.1885 -32.1701 -32.1550 -32.1299
   -32.1220 -32.1018 -32.0205 -32.0143 -31.9941 -31.7254 -31.7092 -31.6942
    -9.4451  -9.3381  -9.1176  -8.9223  -8.7277  -8.5627  -8.4224  -8.2755
     3.4071   3.5263   3.6128   3.7061   3.8211   3.8661   4.0532   4.1406
     4.2773   4.3372   4.4983   4.5873   5.5734   5.6297   5.7278   5.7685
     5.8762   5.9706   6.1408   6.2000   6.3510   6.4011   6.4954   6.5914

     occupation numbers 
     1.0000   1.0000   1.0000   1.0000   1.0000   1.0000   1.0000   1.0000
     1.0000   1.0000   1.0000   1.0000   1.0000   1.0000   1.0000   1.0000
     1.0000   1.0000   1.0000   1.0000   1.0000   1.0000   1.0000   1.0000
     1.0000   1.0000   1.0000   1.0000   1.0000   1.0000   1.0000   1.0000
     1.0000   1.0000   1.0000   1.0000   1.0000   1.0000   1.0000   1.0000
     1.0000   1.0000   1.0000   1.0000   1.0000   1.0000   1.0000   1.0000
     1.0000   1.0000   1.0000   1.0000   1.0000   1.0000   1.0000   1.0000
     1.0000   1.0000   1.0000   1.0000   1.0000   1.0000   1.0000   1.0000

          k =-0.5183 0.1777 0.1748 (  4623 PWs)   bands (ev):

   -65.7674 -65.3491 -65.3038 -65.2378 -65.1966 -65.1355 -65.0303 -64.7205
   -32.7516 -32.7407 -32.7213 -32.3564 -32.3234 -32.3111 -32.2998 -32.2838
   -32.2523 -32.2340 -32.2262 -32.1946 -32.1890 -32.1672 -32.1547 -32.1295
   -32.1218 -32.1010 -32.0202 -32.0135 -31.9945 -31.7251 -31.7089 -31.6944
    -9.6036  -9.2329  -9.1438  -8.8038  -8.7188  -8.5676  -8.4414  -8.2759
     3.1251   3.2600   3.2826   3.5677   3.6353   3.8030   3.8236   4.3878
     4.4519   4.6642   4.8395   5.2350   5.3236   5.5161   5.5917   5.7956
     5.9662   6.0187   6.1057   6.2894   6.3431   6.5076   6.7105   6.7783

     occupation numbers 
     1.0000   1.0000   1.0000   1.0000   1.0000   1.0000   1.0000   1.0000
     1.0000   1.0000   1.0000   1.0000   1.0000   1.0000   1.0000   1.0000
     1.0000   1.0000   1.0000   1.0000   1.0000   1.0000   1.0000   1.0000
     1.0000   1.0000   1.0000   1.0000   1.0000   1.0000   1.0000   1.0000
     1.0000   1.0000   1.0000   1.0000   1.0000   1.0000   1.0000   1.0000
     1.0000   1.0000   1.0000   1.0000   1.0000   1.0000   1.0000   1.0000
     1.0000   1.0000   1.0000   1.0000   1.0000   1.0000   1.0000   1.0000
     1.0000   1.0000   1.0000   1.0000   1.0000   1.0000   1.0000   1.0000

          k = 0.3450-0.3530-0.3534 (  4616 PWs)   bands (ev):

   -65.7674 -65.3491 -65.3038 -65.2378 -65.1966 -65.1355 -65.0303 -64.7205
   -32.7515 -32.7408 -32.7214 -32.3574 -32.3248 -32.3108 -32.3001 -32.2813
   -32.2525 -32.2347 -32.2271 -32.1963 -32.1890 -32.1656 -32.1541 -32.1293
   -32.1209 -32.1003 -32.0206 -32.0133 -31.9950 -31.7249 -31.7087 -31.6947
    -9.6255  -9.3766  -9.0022  -8.7703  -8.7229  -8.4977  -8.4472  -8.3264
     2.9651   3.1159   3.1868   3.2859   3.4311   3.5739   4.1551   4.3819
     4.7620   4.9084   4.9680   5.2493   5.2747   5.4290   5.6836   5.8818
     5.9040   6.0152   6.1169   6.2409   6.6017   6.7201   6.8187   6.8537

     occupation numbers 
     1.0000   1.0000   1.0000   1.0000   1.0000   1.0000   1.0000   1.0000
     1.0000   1.0000   1.0000   1.0000   1.0000   1.0000   1.0000   1.0000
     1.0000   1.0000   1.0000   1.0000   1.0000   1.0000   1.0000   1.0000
     1.0000   1.0000   1.0000   1.0000   1.0000   1.0000   1.0000   1.0000
     1.0000   1.0000   1.0000   1.0000   1.0000   1.0000   1.0000   1.0000
     1.0000   1.0000   1.0000   1.0000   1.0000   1.0000   1.0000   1.0000
     1.0000   1.0000   1.0000   1.0000   1.0000   1.0000   1.0000   1.0000
     1.0000   1.0000   1.0000   1.0000   1.0000   1.0000   1.0000   1.0000

          k = 0.5163-0.1763-0.5315 (  4614 PWs)   bands (ev):

   -65.7674 -65.3491 -65.3038 -65.2378 -65.1966 -65.1355 -65.0303 -64.7205
   -32.7515 -32.7407 -32.7213 -32.3576 -32.3248 -32.3103 -32.2999 -32.2813
   -32.2524 -32.2347 -32.2253 -32.1944 -32.1886 -32.1677 -32.1548 -32.1296
   -32.1211 -32.1010 -32.0209 -32.0141 -31.9946 -31.7252 -31.7089 -31.6945
    -9.5877  -9.2793  -9.0793  -8.8157  -8.7409  -8.5810  -8.4122  -8.2964
     3.0918   3.2350   3.3396   3.5432   3.6473   3.7976   3.9275   4.3669
     4.4681   4.6456   4.8389   5.2661   5.3212   5.4685   5.6621   5.7911
     5.9614   6.0638   6.1168   6.2448   6.3081   6.4937   6.6685   6.7505

     occupation numbers 
     1.0000   1.0000   1.0000   1.0000   1.0000   1.0000   1.0000   1.0000
     1.0000   1.0000   1.0000   1.0000   1.0000   1.0000   1.0000   1.0000
     1.0000   1.0000   1.0000   1.0000   1.0000   1.0000   1.0000   1.0000
     1.0000   1.0000   1.0000   1.0000   1.0000   1.0000   1.0000   1.0000
     1.0000   1.0000   1.0000   1.0000   1.0000   1.0000   1.0000   1.0000
     1.0000   1.0000   1.0000   1.0000   1.0000   1.0000   1.0000   1.0000
     1.0000   1.0000   1.0000   1.0000   1.0000   1.0000   1.0000   1.0000
     1.0000   1.0000   1.0000   1.0000   1.0000   1.0000   1.0000   1.0000

          k = 0.0024-0.7062 0.0027 (  4608 PWs)   bands (ev):

   -65.7674 -65.3491 -65.3038 -65.2377 -65.1966 -65.1356 -65.0303 -64.7205
   -32.7516 -32.7405 -32.7211 -32.3579 -32.3249 -32.3097 -32.2997 -32.2812
   -32.2524 -32.2348 -32.2236 -32.1920 -32.1881 -32.1705 -32.1552 -32.1300
   -32.1213 -32.1018 -32.0213 -32.0148 -31.9942 -31.7254 -31.7092 -31.6942
    -9.4741  -9.3479  -9.0034  -8.8823  -8.8114  -8.6162  -8.3956  -8.2853
     3.1686   3.4307   3.5519   3.7798   3.9664   4.0847   4.1428   4.1478
     4.2800   4.4209   4.6794   5.0387   5.0475   5.2858   5.3784   5.6972
     6.0050   6.0508   6.1222   6.2721   6.3534   6.4087   6.5912   6.6704

     occupation numbers 
     1.0000   1.0000   1.0000   1.0000   1.0000   1.0000   1.0000   1.0000
     1.0000   1.0000   1.0000   1.0000   1.0000   1.0000   1.0000   1.0000
     1.0000   1.0000   1.0000   1.0000   1.0000   1.0000   1.0000   1.0000
     1.0000   1.0000   1.0000   1.0000   1.0000   1.0000   1.0000   1.0000
     1.0000   1.0000   1.0000   1.0000   1.0000   1.0000   1.0000   1.0000
     1.0000   1.0000   1.0000   1.0000   1.0000   1.0000   1.0000   1.0000
     1.0000   1.0000   1.0000   1.0000   1.0000   1.0000   1.0000   1.0000
     1.0000   1.0000   1.0000   1.0000   1.0000   1.0000   1.0000   1.0000

          k = 0.5195-0.5308-0.1734 (  4623 PWs)   bands (ev):

   -65.7674 -65.3491 -65.3038 -65.2378 -65.1966 -65.1355 -65.0303 -64.7205
   -32.7516 -32.7407 -32.7211 -32.3563 -32.3230 -32.3103 -32.3006 -32.2841
   -32.2524 -32.2346 -32.2273 -32.1969 -32.1877 -32.1657 -32.1537 -32.1284
   -32.1210 -32.1001 -32.0211 -32.0148 -31.9955 -31.7251 -31.7089 -31.6945
    -9.5903  -9.2621  -9.0709  -8.8363  -8.7533  -8.5622  -8.4146  -8.3064
     3.1189   3.2856   3.3488   3.5290   3.6911   3.7760   3.9108   4.4059
     4.4860   4.6173   4.8638   5.1719   5.4086   5.5154   5.6368   5.7926
     5.8519   5.9785   6.0573   6.1837   6.2596   6.6227   6.6704   6.7874

     occupation numbers 
     1.0000   1.0000   1.0000   1.0000   1.0000   1.0000   1.0000   1.0000
     1.0000   1.0000   1.0000   1.0000   1.0000   1.0000   1.0000   1.0000
     1.0000   1.0000   1.0000   1.0000   1.0000   1.0000   1.0000   1.0000
     1.0000   1.0000   1.0000   1.0000   1.0000   1.0000   1.0000   1.0000
     1.0000   1.0000   1.0000   1.0000   1.0000   1.0000   1.0000   1.0000
     1.0000   1.0000   1.0000   1.0000   1.0000   1.0000   1.0000   1.0000
     1.0000   1.0000   1.0000   1.0000   1.0000   1.0000   1.0000   1.0000
     1.0000   1.0000   1.0000   1.0000   1.0000   1.0000   1.0000   1.0000

          k = 0.6908-0.3541-0.3515 (  4617 PWs)   bands (ev):

   -65.7674 -65.3491 -65.3038 -65.2378 -65.1966 -65.1355 -65.0303 -64.7205
   -32.7517 -32.7408 -32.7213 -32.3566 -32.3239 -32.3105 -32.3006 -32.2841
   -32.2529 -32.2343 -32.2254 -32.1950 -32.1882 -32.1678 -32.1551 -32.1287
   -32.1207 -32.0999 -32.0210 -32.0138 -31.9950 -31.7252 -31.7086 -31.6942
    -9.6748  -9.2229  -9.1020  -8.7800  -8.7217  -8.5012  -8.4796  -8.2880
     2.9514   3.0582   3.3051   3.3712   3.4733   3.6777   3.7124   4.2270
     4.7961   5.0153   5.2237   5.2507   5.4061   5.5694   5.7101   5.8400
     5.9457   6.0555   6.1640   6.2992   6.3823   6.5212   6.5976   6.8720

     occupation numbers 
     1.0000   1.0000   1.0000   1.0000   1.0000   1.0000   1.0000   1.0000
     1.0000   1.0000   1.0000   1.0000   1.0000   1.0000   1.0000   1.0000
     1.0000   1.0000   1.0000   1.0000   1.0000   1.0000   1.0000   1.0000
     1.0000   1.0000   1.0000   1.0000   1.0000   1.0000   1.0000   1.0000
     1.0000   1.0000   1.0000   1.0000   1.0000   1.0000   1.0000   1.0000
     1.0000   1.0000   1.0000   1.0000   1.0000   1.0000   1.0000   1.0000
     1.0000   1.0000   1.0000   1.0000   1.0000   1.0000   1.0000   1.0000
     1.0000   1.0000   1.0000   1.0000   1.0000   1.0000   1.0000   1.0000

          k = 0.1768-0.8841 0.1827 (  4621 PWs)   bands (ev):

   -65.7674 -65.3491 -65.3038 -65.2377 -65.1966 -65.1355 -65.0303 -64.7205
   -32.7518 -32.7406 -32.7211 -32.3569 -32.3238 -32.3100 -32.3004 -32.2841
   -32.2528 -32.2343 -32.2237 -32.1925 -32.1877 -32.1706 -32.1556 -32.1291
   -32.1209 -32.1006 -32.0213 -32.0145 -31.9946 -31.7254 -31.7089 -31.6940
    -9.5705  -9.3270  -8.9931  -8.8844  -8.7420  -8.5679  -8.4230  -8.2859
     3.0479   3.2459   3.4437   3.5926   3.6805   3.7651   3.8938   4.2622
     4.4346   4.6728   4.9158   5.0325   5.3951   5.6397   5.7651   5.8897
     5.9400   5.9971   6.1000   6.2081   6.2985   6.4622   6.6183   6.6664

     occupation numbers 
     1.0000   1.0000   1.0000   1.0000   1.0000   1.0000   1.0000   1.0000
     1.0000   1.0000   1.0000   1.0000   1.0000   1.0000   1.0000   1.0000
     1.0000   1.0000   1.0000   1.0000   1.0000   1.0000   1.0000   1.0000
     1.0000   1.0000   1.0000   1.0000   1.0000   1.0000   1.0000   1.0000
     1.0000   1.0000   1.0000   1.0000   1.0000   1.0000   1.0000   1.0000
     1.0000   1.0000   1.0000   1.0000   1.0000   1.0000   1.0000   1.0000
     1.0000   1.0000   1.0000   1.0000   1.0000   1.0000   1.0000   1.0000
     1.0000   1.0000   1.0000   1.0000   1.0000   1.0000   1.0000   1.0000

          k = 0.3482-0.7074 0.0047 (  4609 PWs)   bands (ev):

   -65.7674 -65.3491 -65.3038 -65.2378 -65.1966 -65.1355 -65.0303 -64.7205
   -32.7517 -32.7405 -32.7209 -32.3565 -32.3230 -32.3097 -32.3004 -32.2841
   -32.2524 -32.2346 -32.2256 -32.1950 -32.1872 -32.1678 -32.1543 -32.1287
   -32.1212 -32.1008 -32.0214 -32.0155 -31.9951 -31.7254 -31.7092 -31.6943
    -9.4487  -9.3204  -9.0927  -8.9303  -8.7325  -8.5845  -8.4190  -8.2915
     3.3718   3.4835   3.6406   3.7315   3.8484   3.9401   4.0622   4.1978
     4.3229   4.4031   4.5107   4.7004   5.4602   5.5902   5.6418   5.6841
     5.8741   5.9408   6.0417   6.1186   6.2775   6.4195   6.6054   6.6430

     occupation numbers 
     1.0000   1.0000   1.0000   1.0000   1.0000   1.0000   1.0000   1.0000
     1.0000   1.0000   1.0000   1.0000   1.0000   1.0000   1.0000   1.0000
     1.0000   1.0000   1.0000   1.0000   1.0000   1.0000   1.0000   1.0000
     1.0000   1.0000   1.0000   1.0000   1.0000   1.0000   1.0000   1.0000
     1.0000   1.0000   1.0000   1.0000   1.0000   1.0000   1.0000   1.0000
     1.0000   1.0000   1.0000   1.0000   1.0000   1.0000   1.0000   1.0000
     1.0000   1.0000   1.0000   1.0000   1.0000   1.0000   1.0000   1.0000
     1.0000   1.0000   1.0000   1.0000   1.0000   1.0000   1.0000   1.0000

          k =-0.0039 0.0027-0.7135 (  4598 PWs)   bands (ev):

   -65.7674 -65.3491 -65.3038 -65.2378 -65.1966 -65.1355 -65.0303 -64.7205
   -32.7518 -32.7406 -32.7207 -32.3551 -32.3209 -32.3097 -32.3011 -32.2871
   -32.2524 -32.2346 -32.2276 -32.1975 -32.1863 -32.1658 -32.1532 -32.1276
   -32.1211 -32.0999 -32.0215 -32.0162 -31.9959 -31.7253 -31.7091 -31.6943
    -9.4968  -9.2651  -9.0948  -8.8182  -8.7658  -8.6965  -8.3982  -8.2881
     3.3506   3.4779   3.5757   3.6138   3.8498   4.1187   4.2356   4.2813
     4.3650   4.5409   4.6220   5.0804   5.0900   5.1971   5.2847   5.3728
     5.8533   5.9661   6.0620   6.2643   6.3999   6.5640   6.6001   6.7150

     occupation numbers 
     1.0000   1.0000   1.0000   1.0000   1.0000   1.0000   1.0000   1.0000
     1.0000   1.0000   1.0000   1.0000   1.0000   1.0000   1.0000   1.0000
     1.0000   1.0000   1.0000   1.0000   1.0000   1.0000   1.0000   1.0000
     1.0000   1.0000   1.0000   1.0000   1.0000   1.0000   1.0000   1.0000
     1.0000   1.0000   1.0000   1.0000   1.0000   1.0000   1.0000   1.0000
     1.0000   1.0000   1.0000   1.0000   1.0000   1.0000   1.0000   1.0000
     1.0000   1.0000   1.0000   1.0000   1.0000   1.0000   1.0000   1.0000
     1.0000   1.0000   1.0000   1.0000   1.0000   1.0000   1.0000   1.0000

          k = 0.1674 0.1794-0.8916 (  4607 PWs)   bands (ev):

   -65.7674 -65.3491 -65.3038 -65.2378 -65.1966 -65.1355 -65.0303 -64.7205
   -32.7519 -32.7406 -32.7209 -32.3555 -32.3217 -32.3100 -32.3010 -32.2872
   -32.2528 -32.2342 -32.2257 -32.1955 -32.1869 -32.1680 -32.1546 -32.1279
   -32.1207 -32.0996 -32.0214 -32.0152 -31.9955 -31.7254 -31.7088 -31.6940
    -9.5714  -9.3047  -9.0500  -8.8203  -8.7338  -8.6062  -8.4227  -8.2884
     3.1999   3.2513   3.3798   3.4727   3.6202   3.8323   3.9198   4.3660
     4.5702   4.6303   4.8764   5.2443   5.3427   5.4865   5.6051   5.7085
     5.8660   6.0203   6.1013   6.1652   6.3753   6.5371   6.6171   6.7324

     occupation numbers 
     1.0000   1.0000   1.0000   1.0000   1.0000   1.0000   1.0000   1.0000
     1.0000   1.0000   1.0000   1.0000   1.0000   1.0000   1.0000   1.0000
     1.0000   1.0000   1.0000   1.0000   1.0000   1.0000   1.0000   1.0000
     1.0000   1.0000   1.0000   1.0000   1.0000   1.0000   1.0000   1.0000
     1.0000   1.0000   1.0000   1.0000   1.0000   1.0000   1.0000   1.0000
     1.0000   1.0000   1.0000   1.0000   1.0000   1.0000   1.0000   1.0000
     1.0000   1.0000   1.0000   1.0000   1.0000   1.0000   1.0000   1.0000
     1.0000   1.0000   1.0000   1.0000   1.0000   1.0000   1.0000   1.0000

          k =-0.3465-0.3506-0.3573 (  4610 PWs)   bands (ev):

   -65.7674 -65.3491 -65.3038 -65.2377 -65.1966 -65.1355 -65.0303 -64.7205
   -32.7520 -32.7407 -32.7212 -32.3558 -32.3225 -32.3102 -32.3009 -32.2872
   -32.2533 -32.2339 -32.2238 -32.1930 -32.1874 -32.1708 -32.1559 -32.1283
   -32.1204 -32.0994 -32.0214 -32.0142 -31.9951 -31.7255 -31.7085 -31.6938
    -9.5895  -9.4308  -8.9317  -8.8156  -8.7337  -8.5018  -8.4702  -8.2984
     3.0154   3.0802   3.2335   3.2852   3.4327   3.5998   4.2243   4.2636
     4.6295   4.9251   5.0566   5.2210   5.3824   5.6232   5.7266   5.8326
     5.8892   5.9066   6.1224   6.2475   6.5607   6.6135   6.7111   6.8362

     occupation numbers 
     1.0000   1.0000   1.0000   1.0000   1.0000   1.0000   1.0000   1.0000
     1.0000   1.0000   1.0000   1.0000   1.0000   1.0000   1.0000   1.0000
     1.0000   1.0000   1.0000   1.0000   1.0000   1.0000   1.0000   1.0000
     1.0000   1.0000   1.0000   1.0000   1.0000   1.0000   1.0000   1.0000
     1.0000   1.0000   1.0000   1.0000   1.0000   1.0000   1.0000   1.0000
     1.0000   1.0000   1.0000   1.0000   1.0000   1.0000   1.0000   1.0000
     1.0000   1.0000   1.0000   1.0000   1.0000   1.0000   1.0000   1.0000
     1.0000   1.0000   1.0000   1.0000   1.0000   1.0000   1.0000   1.0000

     highest occupied level (ev):     7.1140

!    total energy              =   -1260.64644358 Ry
     Harris-Foulkes estimate   =   -1260.64644358 Ry
     estimated scf accuracy    <          5.4E-11 Ry

     The total energy is the sum of the following terms:

     one-electron contribution =    -733.22700103 Ry
     hartree contribution      =     399.82761375 Ry
     xc contribution           =    -192.28039782 Ry
     ewald contribution        =    -734.96665848 Ry

     convergence has been achieved in  17 iterations

     Forces acting on atoms (Ry/au):

     atom    1 type  2   force =  -0.21039030E-01  0.18534058E-01  0.88893216E-02
     atom    2 type  3   force =   0.30909818E-01 -0.35176792E-01 -0.43991146E-02
     atom    3 type  2   force =  -0.38900196E-01  0.54169448E-01 -0.17827562E-01
     atom    4 type  3   force =   0.42081229E-02 -0.14518162E-02  0.48360756E-01
     atom    5 type  2   force =   0.60641210E-03 -0.15616462E-01 -0.18161477E-01
     atom    6 type  3   force =  -0.55570710E-02  0.10204086E-01 -0.47320910E-01
     atom    7 type  2   force =   0.19321743E-01 -0.53186866E-02  0.71017277E-01
     atom    8 type  3   force =  -0.18106319E-01  0.70674202E-02 -0.36252550E-01
     atom    9 type  2   force =   0.37586853E-01  0.46576897E-01  0.34189992E-01
     atom   10 type  3   force =   0.11449502E-01 -0.41274774E-01  0.33413827E-01
     atom   11 type  2   force =  -0.30464864E-01 -0.10054621E+00 -0.23522953E-01
     atom   12 type  3   force =  -0.10503884E-01  0.29620748E-01 -0.71729594E-01
     atom   13 type  2   force =   0.12654315E-01 -0.20575141E-01 -0.39848919E-01
     atom   14 type  3   force =  -0.66789606E-01 -0.10777434E-01  0.88249308E-01
     atom   15 type  2   force =  -0.19789846E-02 -0.52223745E-01 -0.44105013E-01
     atom   16 type  3   force =   0.76603188E-01  0.11678840E+00  0.19047611E-01
     The non-local contrib.  to forces
     atom    1 type  2   force =   0.11903255E-02 -0.81778723E-01 -0.16434988E-01
     atom    2 type  3   force =   0.17576715E+00 -0.23498041E+00 -0.57357788E-01
     atom    3 type  2   force =  -0.24893842E-01  0.11224752E+00 -0.57869180E-01
     atom    4 type  3   force =  -0.23152817E-01  0.84354211E-01  0.13763797E+00
     atom    5 type  2   force =   0.93017196E-01 -0.15733234E+00 -0.17638715E+00
     atom    6 type  3   force =  -0.79403978E-01 -0.29077038E-03  0.77004104E-01
     atom    7 type  2   force =  -0.16646883E+00 -0.22293977E-01  0.18382693E+00
     atom    8 type  3   force =  -0.92262436E-01 -0.12627337E-02 -0.22222699E+00
     atom    9 type  2   force =  -0.17519775E+00  0.80340331E-01  0.36345516E+00
     atom   10 type  3   force =  -0.32462382E-01 -0.32428778E-01  0.35670136E-01
     atom   11 type  2   force =   0.10870117E+00 -0.26940641E+00  0.99469529E-02
     atom   12 type  3   force =  -0.77130730E-01 -0.13213671E-01 -0.22591774E-01
     atom   13 type  2   force =  -0.36620083E-01 -0.53393284E-01 -0.88655622E-01
     atom   14 type  3   force =  -0.24288907E+00 -0.14656074E-03  0.96533299E-01
     atom   15 type  2   force =  -0.69224008E-01 -0.10775017E+00 -0.42059059E+00
     atom   16 type  3   force =   0.30279380E+00  0.11238984E+00 -0.69425897E-01
     The ionic contribution  to forces
     atom    1 type  2   force =  -0.11983990E+01 -0.15225554E+00 -0.16683512E+01
     atom    2 type  3   force =  -0.55601793E+00  0.60921566E+00  0.10701090E+01
     atom    3 type  2   force =  -0.14537889E+01  0.27144375E+01 -0.17483807E+01
     atom    4 type  3   force =   0.95054776E+00 -0.10816673E+01  0.15849350E+01
     atom    5 type  2   force =   0.14738321E+01 -0.25204808E+01  0.14779888E-01
     atom    6 type  3   force =   0.43245928E+00  0.10518408E+01 -0.28177907E+01
     atom    7 type  2   force =  -0.12309549E+01  0.69287356E+00  0.47155586E+01
     atom    8 type  3   force =   0.15225267E+00 -0.14549756E+00 -0.76790832E+00
     atom    9 type  2   force =  -0.88268145E+00  0.26842255E+01  0.32172755E+01
     atom   10 type  3   force =   0.12518154E+01 -0.15190210E+01  0.13765885E+01
     atom   11 type  2   force =   0.83783562E+00 -0.33360512E+01  0.26387828E+00
     atom   12 type  3   force =   0.87482501E-01  0.13478140E+01 -0.35380263E+01
     atom   13 type  2   force =   0.14562161E+01  0.86874701E-01 -0.18673760E+01
     atom   14 type  3   force =  -0.15763893E+01 -0.14108609E+01  0.21208856E+01
     atom   15 type  2   force =  -0.59491520E+00 -0.31786516E+01 -0.40652011E+01
     atom   16 type  3   force =   0.85070527E+00  0.41572043E+01  0.21090239E+01
     The local contribution  to forces
     atom    1 type  2   force =   0.11761716E+01  0.25256950E+00  0.16936715E+01
     atom    2 type  3   force =   0.41233243E+00 -0.41084861E+00 -0.10174015E+01
     atom    3 type  2   force =   0.14397796E+01 -0.27725140E+01  0.17884172E+01
     atom    4 type  3   force =  -0.92318365E+00  0.99612995E+00 -0.16728118E+01
     atom    5 type  2   force =  -0.15662391E+01  0.26621897E+01  0.14343893E+00
     atom    6 type  3   force =  -0.35895748E+00 -0.10411474E+01  0.26929484E+01
     atom    7 type  2   force =   0.14167446E+01 -0.67589871E+00 -0.48283612E+01
     atom    8 type  3   force =  -0.78752737E-01  0.15399067E+00  0.95245004E+00
     atom    9 type  2   force =   0.10954608E+01 -0.27179849E+01 -0.35465384E+01
     atom   10 type  3   force =  -0.12077547E+01  0.15094055E+01 -0.13781158E+01
     atom   11 type  2   force =  -0.97699801E+00  0.35049110E+01 -0.29734628E+00
     atom   12 type  3   force =  -0.21297476E-01 -0.13045315E+01  0.34876039E+01
     atom   13 type  2   force =  -0.14069376E+01 -0.54054327E-01  0.19161821E+01
     atom   14 type  3   force =   0.17503990E+01  0.14000577E+01 -0.21275202E+01
     atom   15 type  2   force =   0.66215685E+00  0.32341719E+01  0.44416771E+01
     atom   16 type  3   force =  -0.10744083E+01 -0.41505417E+01 -0.20204076E+01
     The core correction contribution to forces
     atom    1 type  2   force =   0.00000000E+00  0.00000000E+00  0.00000000E+00
     atom    2 type  3   force =  -0.11740152E-02  0.14322651E-02  0.25186221E-03
     atom    3 type  2   force =   0.00000000E+00  0.00000000E+00  0.00000000E+00
     atom    4 type  3   force =   0.28888570E-05 -0.26649226E-03 -0.14003869E-02
     atom    5 type  2   force =   0.00000000E+00  0.00000000E+00  0.00000000E+00
     atom    6 type  3   force =   0.34498253E-03 -0.19792935E-03  0.51659372E-03
     atom    7 type  2   force =   0.00000000E+00  0.00000000E+00  0.00000000E+00
     atom    8 type  3   force =   0.65701153E-03 -0.16121785E-03  0.14255316E-02
     atom    9 type  2   force =   0.00000000E+00  0.00000000E+00  0.00000000E+00
     atom   10 type  3   force =  -0.14821292E-03  0.76672922E-03 -0.72395539E-03
     atom   11 type  2   force =   0.00000000E+00  0.00000000E+00  0.00000000E+00
     atom   12 type  3   force =   0.44359705E-03 -0.44646160E-03  0.12779710E-02
     atom   13 type  2   force =   0.00000000E+00  0.00000000E+00  0.00000000E+00
     atom   14 type  3   force =   0.20838873E-02  0.16949229E-03 -0.16482843E-02
     atom   15 type  2   force =   0.00000000E+00  0.00000000E+00  0.00000000E+00
     atom   16 type  3   force =  -0.24850110E-02 -0.22553064E-02 -0.14327229E-03
     The Hubbard contrib.    to forces
     atom    1 type  2   force =   0.00000000E+00  0.00000000E+00  0.00000000E+00
     atom    2 type  3   force =   0.00000000E+00  0.00000000E+00  0.00000000E+00
     atom    3 type  2   force =   0.00000000E+00  0.00000000E+00  0.00000000E+00
     atom    4 type  3   force =   0.00000000E+00  0.00000000E+00  0.00000000E+00
     atom    5 type  2   force =   0.00000000E+00  0.00000000E+00  0.00000000E+00
     atom    6 type  3   force =   0.00000000E+00  0.00000000E+00  0.00000000E+00
     atom    7 type  2   force =   0.00000000E+00  0.00000000E+00  0.00000000E+00
     atom    8 type  3   force =   0.00000000E+00  0.00000000E+00  0.00000000E+00
     atom    9 type  2   force =   0.00000000E+00  0.00000000E+00  0.00000000E+00
     atom   10 type  3   force =   0.00000000E+00  0.00000000E+00  0.00000000E+00
     atom   11 type  2   force =   0.00000000E+00  0.00000000E+00  0.00000000E+00
     atom   12 type  3   force =   0.00000000E+00  0.00000000E+00  0.00000000E+00
     atom   13 type  2   force =   0.00000000E+00  0.00000000E+00  0.00000000E+00
     atom   14 type  3   force =   0.00000000E+00  0.00000000E+00  0.00000000E+00
     atom   15 type  2   force =   0.00000000E+00  0.00000000E+00  0.00000000E+00
     atom   16 type  3   force =   0.00000000E+00  0.00000000E+00  0.00000000E+00
     The SCF correction term to forces
     atom    1 type  2   force =  -0.14653547E-05 -0.94156272E-06  0.27244798E-05
     atom    2 type  3   force =   0.26524498E-05  0.45392299E-05 -0.19477167E-05
     atom    3 type  2   force =   0.34022682E-05 -0.13180976E-05  0.38326297E-05
     atom    4 type  3   force =  -0.55891808E-05 -0.19483223E-05 -0.13353995E-05
     atom    5 type  2   force =  -0.32759657E-05  0.71963813E-05  0.56006425E-05
     atom    6 type  3   force =   0.59502092E-06 -0.35060219E-06 -0.51210976E-06
     atom    7 type  2   force =   0.13317864E-05  0.67871557E-06 -0.82349377E-05
     atom    8 type  3   force =  -0.35767825E-06 -0.14998983E-05  0.59478411E-05
     atom    9 type  2   force =   0.57622439E-05 -0.38613835E-05 -0.35443082E-05
     atom   10 type  3   force =  -0.10546630E-06  0.30647227E-05 -0.63359454E-05
     atom   11 type  2   force =  -0.31661078E-05  0.68379087E-06 -0.31517149E-05
     atom   12 type  3   force =  -0.13057289E-05 -0.13488735E-05  0.53902494E-05
     atom   13 type  2   force =  -0.35956944E-05 -0.19951359E-05 -0.73347861E-06
     atom   14 type  3   force =   0.63574632E-05  0.30975796E-05 -0.23222480E-05
     atom   15 type  2   force =   0.38393818E-05  0.64043001E-05  0.83775825E-05
     atom   16 type  3   force =  -0.21385755E-05 -0.84203358E-05 -0.73818644E-06

     Total force =     0.291198     Total SCF correction =     0.000027


     entering subroutine stress ...

          total   stress  (Ry/bohr**3)                   (kbar)     P=  -32.86
  -0.0005540319  -0.0000819188   0.0001559773        -81.50    -12.05     22.95
  -0.0000819188  -0.0000831979  -0.0001145685        -12.05    -12.24    -16.85
   0.0001559773  -0.0001145685  -0.0000329011         22.95    -16.85     -4.84

     kinetic stress (kbar)  22437.57     -8.93     32.86
                               -8.93  22496.82    -17.22
                               32.86    -17.22  22491.15

     local   stress (kbar)  -3014.03    385.21    259.68
                              385.21  -5729.24    508.17
                              259.68    508.17  -6777.89

     nonloc. stress (kbar)   6126.78     -2.16     -2.11
                               -2.16   6153.78     -3.07
                               -2.11     -3.07   6162.02

     hartree stress (kbar)  17355.14   -144.04    -97.09
                             -144.04  18336.51   -200.18
                              -97.09   -200.18  18702.76

     exc-cor stress (kbar)  -7991.29     -0.19     -0.25
                               -0.19  -7989.14     -0.22
                               -0.25     -0.22  -7988.29

     corecor stress (kbar)   -294.12      0.05     -0.09
                                0.05   -294.40      0.06
                               -0.09      0.06   -294.42

     ewald   stress (kbar) -34701.55   -242.00   -170.06
                             -242.00 -32986.57   -304.38
                             -170.06   -304.38 -32300.16

     hubbard stress (kbar)      0.00      0.00      0.00
                                0.00      0.00      0.00
                                0.00      0.00      0.00

     london  stress (kbar)      0.00      0.00      0.00
                                0.00      0.00      0.00
                                0.00      0.00      0.00

     XDM     stress (kbar)      0.00      0.00      0.00
                                0.00      0.00      0.00
                                0.00      0.00      0.00

     dft-nl  stress (kbar)      0.00      0.00      0.00
                                0.00      0.00      0.00
                                0.00      0.00      0.00



     Writing output data file mix.dummy949.save

     init_run     :     14.29s CPU     15.24s WALL (       1 calls)
     electrons    :    583.32s CPU    617.31s WALL (       1 calls)
     forces       :      5.12s CPU      5.29s WALL (       1 calls)
     stress       :     10.49s CPU     10.67s WALL (       1 calls)

     Called by init_run:
     wfcinit      :     12.16s CPU     12.71s WALL (       1 calls)
     potinit      :      0.62s CPU      0.85s WALL (       1 calls)

     Called by electrons:
     c_bands      :    516.14s CPU    547.94s WALL (      17 calls)
     sum_band     :     61.42s CPU     63.55s WALL (      17 calls)
     v_of_rho     :      0.80s CPU      0.84s WALL (      18 calls)
     v_h          :      0.04s CPU      0.05s WALL (      18 calls)
     v_xc         :      0.82s CPU      0.86s WALL (      20 calls)
     newd         :      4.23s CPU      4.38s WALL (      18 calls)
     mix_rho      :      1.01s CPU      1.02s WALL (      17 calls)

     Called by c_bands:
     init_us_2    :      2.51s CPU      2.55s WALL (    1332 calls)
     cegterg      :    492.84s CPU    524.16s WALL (     612 calls)

     Called by sum_band:
     sum_band:bec :      1.03s CPU      0.89s WALL (     612 calls)
     addusdens    :      4.35s CPU      4.36s WALL (      17 calls)

     Called by *egterg:
     h_psi        :    232.79s CPU    240.85s WALL (    1872 calls)
     s_psi        :     25.64s CPU     25.45s WALL (    1872 calls)
     g_psi        :      0.24s CPU      0.29s WALL (    1224 calls)
     cdiaghg      :     78.60s CPU     86.58s WALL (    1836 calls)
     cegterg:over :     79.86s CPU     88.37s WALL (    1224 calls)
     cegterg:upda :      9.58s CPU     11.47s WALL (    1224 calls)
     cegterg:last :      5.78s CPU      5.86s WALL (     612 calls)

     Called by h_psi:
     h_psi:vloc   :    134.52s CPU    136.46s WALL (    1872 calls)
     h_psi:vnl    :     97.76s CPU    103.98s WALL (    1872 calls)
     add_vuspsi   :     26.17s CPU     26.95s WALL (    1872 calls)

     General routines
     calbec       :    102.53s CPU    110.17s WALL (    2556 calls)
     fft          :      2.27s CPU      2.51s WALL (     309 calls)
     ffts         :      0.64s CPU      0.58s WALL (     445 calls)
     fftw         :    152.42s CPU    154.48s WALL (  233286 calls)
     interpolate  :      0.15s CPU      0.16s WALL (      35 calls)

     Parallel routines
     fft_scatter  :    103.95s CPU    106.01s WALL (  234040 calls)

     PWSCF        : 10m15.76s CPU    10m51.47s WALL


   This run was terminated on:  12:13:49  15Nov2017            

=------------------------------------------------------------------------------=
   JOB DONE.
=------------------------------------------------------------------------------=
