
     Program PWSCF v.5.1 starts on 16Nov2017 at 15:16:32 

     This program is part of the open-source Quantum ESPRESSO suite
     for quantum simulation of materials; please cite
         "P. Giannozzi et al., J. Phys.:Condens. Matter 21 395502 (2009);
          URL http://www.quantum-espresso.org", 
     in publications or presentations arising from this work. More details at
     http://www.quantum-espresso.org/quote

     Parallel version (MPI), running on    16 processors
     R & G space division:  proc/nbgrp/npool/nimage =      16
     Waiting for input...
     Reading input from standard input
Warning: card &IONS ignored
Warning: card   ION_DYNAMICS='BFGS', ignored
Warning: card / ignored
Warning: card &CELL ignored
Warning: card  CELL_DYNAMICS = 'BFGS' ignored
Warning: card / ignored

     Current dimensions of program PWSCF are:
     Max number of different atomic species (ntypx) = 10
     Max number of k-points (npk) =  40000
     Max angular momentum in pseudopotentials (lmaxx) =  3
 kfg - two_fermi_energies  F

     Subspace diagonalization in iterative solution of the eigenvalue problem:
     a serial algorithm will be used


     Parallelization info
     --------------------
     sticks:   dense  smooth     PW     G-vecs:    dense   smooth      PW
     Min         129     103     30                 3716     2651     413
     Max         130     104     31                 3719     2666     415
     Sum        2071    1657    483                59473    42531    6623



     bravais-lattice index     =            0
     lattice parameter (alat)  =    12.281960585  a.u.
     unit-cell volume          =    1244.8933 (a.u.)^3
     number of atoms/cell      =           16
     number of atomic types    =            3
     number of electrons       =       128.00
     number of Kohn-Sham states=           64
     kinetic-energy cutoff     =      40.0000  Ry
     charge density cutoff     =     200.0000  Ry
     convergence threshold     =      1.0E-10
     mixing beta               =       0.3000
     number of iterations used =            8  local-TF  mixing
     Exchange-correlation      = SLA  PW   PSX  PSC ( 1  4 10  8 0)
     A smooth kinetic-energy cutoff is imposed at      39.5000 Ry
     height of the smooth step-function =             800.0000 Ry
     width of the smooth step-function  =               1.0000 Ry


     celldm(1)=  12.281961  celldm(2)=   0.000000  celldm(3)=   0.000000
     celldm(4)=   0.000000  celldm(5)=   0.000000  celldm(6)=   0.000000

     crystal axes: (cart. coord. in units of alat)
               a(1) = (  -0.004212079213   0.712196461537   0.701967562330 )  
               a(2) = (   0.703882410243   0.002121084218   0.695634398898 )  
               a(3) = (   0.686786902916   0.688767790778   0.019216591545 )  

     reciprocal axes: (cart. coord. in units 2 pi/alat)
               b(1) = ( -0.712997  0.690877  0.719345 )  
               b(2) = (  0.699182 -0.717601  0.732253 )  
               b(3) = (  0.735097  0.739701 -0.746068 )  


     PseudoPot. # 1 for Ca read from file:
     /users/kfg/psuedo/gbrv_1.5/ca.pbesol.UPF
     MD5 check sum: 0533207b58cddeaa036efa5b63902087
     Pseudo is Ultrasoft + core correction, Zval = 10.0
     Generated by new atomic code, or converted to UPF format
     Using radial grid of  845 points,  6 beta functions with: 
                l(1) =   0
                l(2) =   0
                l(3) =   1
                l(4) =   1
                l(5) =   2
                l(6) =   2
     Q(r) pseudized with  8 coefficients,  rinner =    1.500   1.500   1.500
                                                       1.500   1.500

     PseudoPot. # 2 for Mg read from file:
     /users/kfg/psuedo/gbrv_1.5/mg.pbesol.UPF
     MD5 check sum: 4059f37963cf5867752dbf5ab2400678
     Pseudo is Ultrasoft, Zval = 10.0
     Generated by new atomic code, or converted to UPF format
     Using radial grid of  821 points,  7 beta functions with: 
                l(1) =   0
                l(2) =   0
                l(3) =   0
                l(4) =   1
                l(5) =   1
                l(6) =   2
                l(7) =   2
     Q(r) pseudized with  8 coefficients,  rinner =    1.200   1.200   1.200
                                                       1.200   1.200

     PseudoPot. # 3 for O  read from file:
     /users/kfg/psuedo/gbrv_1.5/o.pbesol.UPF
     MD5 check sum: 501638753501ef6325af9037351f7734
     Pseudo is Ultrasoft + core correction, Zval =  6.0
     Generated by new atomic code, or converted to UPF format
     Using radial grid of  737 points,  5 beta functions with: 
                l(1) =   0
                l(2) =   0
                l(3) =   1
                l(4) =   1
                l(5) =   2
     Q(r) pseudized with  8 coefficients,  rinner =    0.900   0.900   0.900
                                                       0.900   0.900

     atomic species   valence    mass     pseudopotential
        Ca            10.00    40.07800     Ca( 1.00)
        Mg            10.00    40.07800     Mg( 1.00)
        O              6.00    15.99940     O ( 1.00)

     No symmetry found


                                    s                        frac. trans.

      isym =  1     identity                                     

 cryst.   s( 1) = (     1          0          0      )
                  (     0          1          0      )
                  (     0          0          1      )

 cart.    s( 1) = (  1.0000000  0.0000000  0.0000000 )
                  (  0.0000000  1.0000000 -0.0000000 )
                  (  0.0000000  0.0000000  1.0000000 )


     point group C_1 (1)    
     there are  1 classes
     the character table:

       E    
A      1.00

     the symmetry operations in each class:
     E        1

   Cartesian axes

     site n.     atom                  positions (alat units)
         1           Mg  tau(   1) = (   -0.01821056639   -0.00911116278    0.00565197178  )
         2           O   tau(   2) = (    0.36326228314    0.36335057719    0.34981564705  )
         3           Ca  tau(   3) = (    0.35210287555    0.32974981271   -0.00540336461  )
         4           O   tau(   4) = (    0.69186511626    0.67669412027    0.38100682540  )
         5           Ca  tau(   5) = (    0.34006768203   -0.01201604483    0.32662238258  )
         6           O   tau(   6) = (    0.69351824987    0.35388113102    0.67340704062  )
         7           Mg  tau(   7) = (    0.66865130454    0.36054856440    0.35753660832  )
         8           O   tau(   8) = (    1.05629652179    0.70860529001    0.75646223225  )
         9           Ca  tau(   9) = (    0.00754638766    0.33586769373    0.34385205090  )
        10           O   tau(  10) = (    0.35106478612    0.68833397211    0.70924659747  )
        11           Ca  tau(  11) = (    0.34225538125    0.69094378492    0.38677199349  )
        12           O   tau(  12) = (    0.70959275120    1.09209785707    0.70494273722  )
        13           Mg  tau(  13) = (    0.34885661683    0.37148157460    0.70647706718  )
        14           O   tau(  14) = (    0.67949883398    0.73235364787    1.08382396849  )
        15           Mg  tau(  15) = (    0.72444302943    0.68721445001    0.69863401405  )
        16           O   tau(  16) = (    1.00793215041    1.04851675088    1.02206354442  )

   Crystallographic axes

     site n.     atom                  positions (cryst. coord.)
         1           Mg  tau(   1) = (    0.01075510721   -0.00205564668   -0.02434282222  )
         2           O   tau(   2) = (    0.24366355198    0.24939923489    0.27481723654  )
         3           Ca  tau(   3) = (   -0.02711870549    0.00559856919    0.50677715833  )
         4           O   tau(   4) = (    0.24828968628    0.27713661358    0.72488182643  )
         5           Ca  tau(   5) = (   -0.01581490150    0.48556205201   -0.00258816683  )
         6           O   tau(   6) = (    0.23442343822    0.72405422206    0.26916155244  )
         7           Mg  tau(   7) = (    0.02954018217    0.47058611401    0.49147477993  )
         8           O   tau(   8) = (    0.28057959400    0.78396925628    0.73626356800  )
         9           Ca  tau(   9) = (    0.47401085918    0.01604402169   -0.00254830969  )
        10           O   tau(  10) = (    0.73543863334    0.27085696698    0.23808121042  )
        11           Ca  tau(  11) = (    0.51155240148    0.02669182759    0.47412402766  )
        12           O   tau(  12) = (    0.75566440411    0.22864039836    0.80350937460  )
        13           Mg  tau(  13) = (    0.51611474950    0.49465859882    0.00414837010  )
        14           O   tau(  14) = (    0.80112843960    0.74318889299    0.23261314461  )
        15           Mg  tau(  15) = (    0.46081338752    0.52494852728    0.51964004522  )
        16           O   tau(  16) = (    0.74095917235    0.70072035094    0.75398700442  )

     number of k points=    36
                       cart. coord. in units 2pi/alat
        k(    1) = (   0.0000000   0.0000000   0.0000000), wk =   0.0312500
        k(    2) = (   0.1837743   0.1849251  -0.1865171), wk =   0.0625000
        k(    3) = (  -0.3675485  -0.3698503   0.3730342), wk =   0.0312500
        k(    4) = (   0.1747955  -0.1794002   0.1830632), wk =   0.0625000
        k(    5) = (   0.3585697   0.0055249  -0.0034539), wk =   0.0625000
        k(    6) = (  -0.1927530  -0.5492505   0.5560974), wk =   0.0625000
        k(    7) = (  -0.0089788  -0.3643253   0.3695803), wk =   0.0625000
        k(    8) = (  -0.3495909   0.3588004  -0.3661264), wk =   0.0312500
        k(    9) = (  -0.1658167   0.5437255  -0.5526435), wk =   0.0625000
        k(   10) = (  -0.7171394  -0.0110498   0.0069077), wk =   0.0312500
        k(   11) = (  -0.1782493   0.1727193   0.1798362), wk =   0.0625000
        k(   12) = (   0.0055249   0.3576444  -0.0066809), wk =   0.0625000
        k(   13) = (  -0.5457978  -0.1971310   0.5528703), wk =   0.0625000
        k(   14) = (  -0.3620236  -0.0122059   0.3663533), wk =   0.0625000
        k(   15) = (  -0.0034539  -0.0066809   0.3628994), wk =   0.0625000
        k(   16) = (   0.1803204   0.1782442   0.1763823), wk =   0.0625000
        k(   17) = (  -0.3710024  -0.3765312   0.7359336), wk =   0.0625000
        k(   18) = (  -0.1872281  -0.1916061   0.5494165), wk =   0.0625000
        k(   19) = (  -0.5278402   0.5315197  -0.1862903), wk =   0.0625000
        k(   20) = (  -0.3440660   0.7164448  -0.3728074), wk =   0.0625000
        k(   21) = (  -0.8953888   0.1616694   0.1867439), wk =   0.0625000
        k(   22) = (  -0.7116145   0.3465945   0.0002268), wk =   0.0625000
        k(   23) = (  -0.3530448   0.3521195  -0.0032271), wk =   0.0625000
        k(   24) = (  -0.1692705   0.5370446  -0.1897442), wk =   0.0625000
        k(   25) = (  -0.7205933  -0.0177308   0.3698071), wk =   0.0625000
        k(   26) = (  -0.5368190   0.1671943   0.1832900), wk =   0.0625000
        k(   27) = (   0.3564987  -0.3454385  -0.3596723), wk =   0.0312500
        k(   28) = (   0.5402729  -0.1605134  -0.5461894), wk =   0.0625000
        k(   29) = (  -0.0110498  -0.7152888   0.0133619), wk =   0.0312500
        k(   30) = (   0.5312941  -0.5248387  -0.1766091), wk =   0.0625000
        k(   31) = (   0.7150684  -0.3399136  -0.3631262), wk =   0.0625000
        k(   32) = (   0.1637456  -0.8946890   0.1964251), wk =   0.0625000
        k(   33) = (   0.3475199  -0.7097639   0.0099080), wk =   0.0625000
        k(   34) = (   0.0069077   0.0133619  -0.7257988), wk =   0.0312500
        k(   35) = (   0.1906820   0.1982870  -0.9123159), wk =   0.0625000
        k(   36) = (  -0.3606408  -0.3564884  -0.3527646), wk =   0.0312500

                       cryst. coord.
        k(    1) = (   0.0000000   0.0000000   0.0000000), wk =   0.0312500
        k(    2) = (  -0.0000000   0.0000000   0.2500000), wk =   0.0625000
        k(    3) = (   0.0000000   0.0000000  -0.5000000), wk =   0.0312500
        k(    4) = (   0.0000000   0.2500000   0.0000000), wk =   0.0625000
        k(    5) = (  -0.0000000   0.2500000   0.2500000), wk =   0.0625000
        k(    6) = (   0.0000000   0.2500000  -0.5000000), wk =   0.0625000
        k(    7) = (   0.0000000   0.2500000  -0.2500000), wk =   0.0625000
        k(    8) = (   0.0000000  -0.5000000  -0.0000000), wk =   0.0312500
        k(    9) = (   0.0000000  -0.5000000   0.2500000), wk =   0.0625000
        k(   10) = (   0.0000000  -0.5000000  -0.5000000), wk =   0.0312500
        k(   11) = (   0.2500000  -0.0000000   0.0000000), wk =   0.0625000
        k(   12) = (   0.2500000  -0.0000000   0.2500000), wk =   0.0625000
        k(   13) = (   0.2500000   0.0000000  -0.5000000), wk =   0.0625000
        k(   14) = (   0.2500000   0.0000000  -0.2500000), wk =   0.0625000
        k(   15) = (   0.2500000   0.2500000   0.0000000), wk =   0.0625000
        k(   16) = (   0.2500000   0.2500000   0.2500000), wk =   0.0625000
        k(   17) = (   0.2500000   0.2500000  -0.5000000), wk =   0.0625000
        k(   18) = (   0.2500000   0.2500000  -0.2500000), wk =   0.0625000
        k(   19) = (   0.2500000  -0.5000000   0.0000000), wk =   0.0625000
        k(   20) = (   0.2500000  -0.5000000   0.2500000), wk =   0.0625000
        k(   21) = (   0.2500000  -0.5000000  -0.5000000), wk =   0.0625000
        k(   22) = (   0.2500000  -0.5000000  -0.2500000), wk =   0.0625000
        k(   23) = (   0.2500000  -0.2500000   0.0000000), wk =   0.0625000
        k(   24) = (   0.2500000  -0.2500000   0.2500000), wk =   0.0625000
        k(   25) = (   0.2500000  -0.2500000  -0.5000000), wk =   0.0625000
        k(   26) = (   0.2500000  -0.2500000  -0.2500000), wk =   0.0625000
        k(   27) = (  -0.5000000   0.0000000  -0.0000000), wk =   0.0312500
        k(   28) = (  -0.5000000   0.0000000   0.2500000), wk =   0.0625000
        k(   29) = (  -0.5000000   0.0000000  -0.5000000), wk =   0.0312500
        k(   30) = (  -0.5000000   0.2500000  -0.0000000), wk =   0.0625000
        k(   31) = (  -0.5000000   0.2500000   0.2500000), wk =   0.0625000
        k(   32) = (  -0.5000000   0.2500000  -0.5000000), wk =   0.0625000
        k(   33) = (  -0.5000000   0.2500000  -0.2500000), wk =   0.0625000
        k(   34) = (  -0.5000000  -0.5000000  -0.0000000), wk =   0.0312500
        k(   35) = (  -0.5000000  -0.5000000   0.2500000), wk =   0.0625000
        k(   36) = (  -0.5000000  -0.5000000  -0.5000000), wk =   0.0312500

     Dense  grid:    59473 G-vectors     FFT dimensions: (  60,  60,  54)

     Smooth grid:    42531 G-vectors     FFT dimensions: (  50,  50,  50)

     Largest allocated arrays     est. size (Mb)     dimensions
        Kohn-Sham Wavefunctions         0.34 Mb     (     346,   64)
        NL pseudopotentials             1.33 Mb     (     346,  252)
        Each V/rho on FFT grid          0.22 Mb     (   14400)
        Each G-vector array             0.03 Mb     (    3719)
        G-vector shells                 0.03 Mb     (    3659)
     Largest temporary arrays     est. size (Mb)     dimensions
        Auxiliary wavefunctions         1.35 Mb     (     346,  256)
        Each subspace H/S matrix        1.00 Mb     (     256,  256)
        Each <psi_i|beta_j> matrix      0.25 Mb     (     252,   64)
        Arrays for rho mixing           1.76 Mb     (   14400,    8)

     Check: negative/imaginary core charge=   -0.000003    0.000000

     Initial potential from superposition of free atoms

     starting charge  126.77837, renormalised to  128.00000
     Starting wfc are   92 randomized atomic wfcs

     total cpu time spent up to now is       17.5 secs

     per-process dynamical memory:    32.1 Mb

     Self-consistent Calculation

     iteration #  1     ecut=    40.00 Ry     beta=0.30
     Davidson diagonalization with overlap
     ethr =  1.00E-02,  avg # of iterations =  2.0

     total cpu time spent up to now is       55.7 secs

     total energy              =   -1059.89773887 Ry
     Harris-Foulkes estimate   =   -1060.52799921 Ry
     estimated scf accuracy    <       3.25301383 Ry

     iteration #  2     ecut=    40.00 Ry     beta=0.30
     Davidson diagonalization with overlap
     ethr =  2.54E-03,  avg # of iterations =  1.4

     total cpu time spent up to now is       87.8 secs

     total energy              =   -1059.41440827 Ry
     Harris-Foulkes estimate   =   -1059.99612333 Ry
     estimated scf accuracy    <       1.41719699 Ry

     iteration #  3     ecut=    40.00 Ry     beta=0.30
     Davidson diagonalization with overlap
     ethr =  1.11E-03,  avg # of iterations =  2.0

     total cpu time spent up to now is      128.7 secs

     total energy              =   -1059.64259737 Ry
     Harris-Foulkes estimate   =   -1059.68445141 Ry
     estimated scf accuracy    <       0.16144496 Ry

     iteration #  4     ecut=    40.00 Ry     beta=0.30
     Davidson diagonalization with overlap
     ethr =  1.26E-04,  avg # of iterations =  2.0

     total cpu time spent up to now is      170.4 secs

     total energy              =   -1059.60228372 Ry
     Harris-Foulkes estimate   =   -1059.66151807 Ry
     estimated scf accuracy    <       0.10352576 Ry

     iteration #  5     ecut=    40.00 Ry     beta=0.30
     Davidson diagonalization with overlap
     ethr =  8.09E-05,  avg # of iterations =  2.0

     total cpu time spent up to now is      214.6 secs

     total energy              =   -1059.61698112 Ry
     Harris-Foulkes estimate   =   -1059.61838153 Ry
     estimated scf accuracy    <       0.01402696 Ry

     iteration #  6     ecut=    40.00 Ry     beta=0.30
     Davidson diagonalization with overlap
     ethr =  1.10E-05,  avg # of iterations =  1.0

     total cpu time spent up to now is      244.4 secs

     total energy              =   -1059.61417261 Ry
     Harris-Foulkes estimate   =   -1059.61725625 Ry
     estimated scf accuracy    <       0.00851337 Ry

     iteration #  7     ecut=    40.00 Ry     beta=0.30
     Davidson diagonalization with overlap
     ethr =  6.65E-06,  avg # of iterations =  2.0

     total cpu time spent up to now is      283.3 secs

     total energy              =   -1059.61430398 Ry
     Harris-Foulkes estimate   =   -1059.61486445 Ry
     estimated scf accuracy    <       0.00159349 Ry

     iteration #  8     ecut=    40.00 Ry     beta=0.30
     Davidson diagonalization with overlap
     ethr =  1.24E-06,  avg # of iterations =  2.6

     total cpu time spent up to now is      328.7 secs

     total energy              =   -1059.61445974 Ry
     Harris-Foulkes estimate   =   -1059.61455287 Ry
     estimated scf accuracy    <       0.00022925 Ry

     iteration #  9     ecut=    40.00 Ry     beta=0.30
     Davidson diagonalization with overlap
     ethr =  1.79E-07,  avg # of iterations =  2.0

     total cpu time spent up to now is      368.8 secs

     total energy              =   -1059.61447324 Ry
     Harris-Foulkes estimate   =   -1059.61448750 Ry
     estimated scf accuracy    <       0.00005982 Ry

     iteration # 10     ecut=    40.00 Ry     beta=0.30
     Davidson diagonalization with overlap
     ethr =  4.67E-08,  avg # of iterations =  2.0

     total cpu time spent up to now is      409.1 secs

     total energy              =   -1059.61446374 Ry
     Harris-Foulkes estimate   =   -1059.61447989 Ry
     estimated scf accuracy    <       0.00004228 Ry

     iteration # 11     ecut=    40.00 Ry     beta=0.30
     Davidson diagonalization with overlap
     ethr =  3.30E-08,  avg # of iterations =  2.0

     total cpu time spent up to now is      452.7 secs

     total energy              =   -1059.61446806 Ry
     Harris-Foulkes estimate   =   -1059.61447029 Ry
     estimated scf accuracy    <       0.00000488 Ry

     iteration # 12     ecut=    40.00 Ry     beta=0.30
     Davidson diagonalization with overlap
     ethr =  3.81E-09,  avg # of iterations =  2.2

     total cpu time spent up to now is      495.1 secs

     total energy              =   -1059.61446862 Ry
     Harris-Foulkes estimate   =   -1059.61446880 Ry
     estimated scf accuracy    <       0.00000067 Ry

     iteration # 13     ecut=    40.00 Ry     beta=0.30
     Davidson diagonalization with overlap
     ethr =  5.20E-10,  avg # of iterations =  2.0

     total cpu time spent up to now is      534.6 secs

     total energy              =   -1059.61446863 Ry
     Harris-Foulkes estimate   =   -1059.61446868 Ry
     estimated scf accuracy    <       0.00000020 Ry

     iteration # 14     ecut=    40.00 Ry     beta=0.30
     Davidson diagonalization with overlap
     ethr =  1.53E-10,  avg # of iterations =  2.4

     total cpu time spent up to now is      577.6 secs

     total energy              =   -1059.61446864 Ry
     Harris-Foulkes estimate   =   -1059.61446865 Ry
     estimated scf accuracy    <       0.00000005 Ry

     iteration # 15     ecut=    40.00 Ry     beta=0.30
     Davidson diagonalization with overlap
     ethr =  3.77E-11,  avg # of iterations =  2.0

     total cpu time spent up to now is      616.7 secs

     total energy              =   -1059.61446863 Ry
     Harris-Foulkes estimate   =   -1059.61446864 Ry
     estimated scf accuracy    <       0.00000002 Ry

     iteration # 16     ecut=    40.00 Ry     beta=0.30
     Davidson diagonalization with overlap
     ethr =  1.93E-11,  avg # of iterations =  2.0

     total cpu time spent up to now is      660.1 secs

     total energy              =   -1059.61446864 Ry
     Harris-Foulkes estimate   =   -1059.61446864 Ry
     estimated scf accuracy    <          2.3E-09 Ry

     iteration # 17     ecut=    40.00 Ry     beta=0.30
     Davidson diagonalization with overlap
     ethr =  1.80E-12,  avg # of iterations =  1.5

     total cpu time spent up to now is      691.5 secs

     total energy              =   -1059.61446864 Ry
     Harris-Foulkes estimate   =   -1059.61446864 Ry
     estimated scf accuracy    <          1.4E-09 Ry

     iteration # 18     ecut=    40.00 Ry     beta=0.30
     Davidson diagonalization with overlap
     ethr =  1.12E-12,  avg # of iterations =  2.0

     total cpu time spent up to now is      732.1 secs

     total energy              =   -1059.61446864 Ry
     Harris-Foulkes estimate   =   -1059.61446864 Ry
     estimated scf accuracy    <          2.9E-10 Ry

     iteration # 19     ecut=    40.00 Ry     beta=0.30
     Davidson diagonalization with overlap
     ethr =  2.30E-13,  avg # of iterations =  2.0

     total cpu time spent up to now is      773.9 secs

     total energy              =   -1059.61446864 Ry
     Harris-Foulkes estimate   =   -1059.61446864 Ry
     estimated scf accuracy    <          1.3E-10 Ry

     iteration # 20     ecut=    40.00 Ry     beta=0.30
     Davidson diagonalization with overlap
     ethr =  1.00E-13,  avg # of iterations =  2.0

     total cpu time spent up to now is      815.0 secs

     End of self-consistent calculation

          k = 0.0000 0.0000 0.0000 (  5309 PWs)   bands (ev):

   -65.6866 -64.6702 -64.2354 -64.1070 -32.6770 -32.6580 -32.6107 -31.6763
   -31.6346 -31.6165 -31.2337 -31.2095 -31.1938 -31.0965 -31.0827 -31.0728
   -29.8242 -29.7354 -28.7159 -28.2548 -11.7465 -11.5365 -11.4511 -11.4183
   -10.9621 -10.7612 -10.4279 -10.3059 -10.0999  -9.9984  -9.8278  -9.7004
    -8.3723  -7.6815  -7.5263  -7.4955  -7.2975  -6.4664  -6.4193  -6.3493
     3.3595   4.0235   4.1339   4.9841   5.1033   5.2123   5.2692   6.1217
     6.1924   6.3695   6.4820   6.5185   6.5580   6.7530   6.8214   6.9905
     7.1371   7.2384   7.3896   7.4064   7.5317   7.8889   8.0318   8.1719

     occupation numbers 
     1.0000   1.0000   1.0000   1.0000   1.0000   1.0000   1.0000   1.0000
     1.0000   1.0000   1.0000   1.0000   1.0000   1.0000   1.0000   1.0000
     1.0000   1.0000   1.0000   1.0000   1.0000   1.0000   1.0000   1.0000
     1.0000   1.0000   1.0000   1.0000   1.0000   1.0000   1.0000   1.0000
     1.0000   1.0000   1.0000   1.0000   1.0000   1.0000   1.0000   1.0000
     1.0000   1.0000   1.0000   1.0000   1.0000   1.0000   1.0000   1.0000
     1.0000   1.0000   1.0000   1.0000   1.0000   1.0000   1.0000   1.0000
     1.0000   1.0000   1.0000   1.0000   1.0000   1.0000   1.0000   1.0000

          k = 0.1838 0.1849-0.1865 (  5328 PWs)   bands (ev):

   -65.6866 -64.6701 -64.2354 -64.1070 -32.6770 -32.6580 -32.6107 -31.6763
   -31.6345 -31.6164 -31.2337 -31.2094 -31.1933 -31.0966 -31.0831 -31.0732
   -29.8135 -29.7451 -28.7166 -28.2552 -11.6194 -11.4838 -11.4261 -11.3456
   -11.0146 -10.9054 -10.4815 -10.3199 -10.1372 -10.0690  -9.8690  -9.8040
    -8.1193  -7.6201  -7.4595  -7.3795  -7.3182  -6.5902  -6.4935  -6.4374
     3.6317   4.3245   4.3949   4.9764   5.1677   5.2728   5.4729   5.9865
     6.1028   6.2837   6.3633   6.4457   6.5476   6.6430   6.8006   6.8530
     6.8716   7.0511   7.2408   7.3773   7.4788   7.6579   7.7700   7.9350

     occupation numbers 
     1.0000   1.0000   1.0000   1.0000   1.0000   1.0000   1.0000   1.0000
     1.0000   1.0000   1.0000   1.0000   1.0000   1.0000   1.0000   1.0000
     1.0000   1.0000   1.0000   1.0000   1.0000   1.0000   1.0000   1.0000
     1.0000   1.0000   1.0000   1.0000   1.0000   1.0000   1.0000   1.0000
     1.0000   1.0000   1.0000   1.0000   1.0000   1.0000   1.0000   1.0000
     1.0000   1.0000   1.0000   1.0000   1.0000   1.0000   1.0000   1.0000
     1.0000   1.0000   1.0000   1.0000   1.0000   1.0000   1.0000   1.0000
     1.0000   1.0000   1.0000   1.0000   1.0000   1.0000   1.0000   1.0000

          k =-0.3675-0.3699 0.3730 (  5338 PWs)   bands (ev):

   -65.6866 -64.6701 -64.2354 -64.1070 -32.6770 -32.6581 -32.6106 -31.6764
   -31.6345 -31.6163 -31.2337 -31.2094 -31.1927 -31.0967 -31.0834 -31.0736
   -29.7978 -29.7597 -28.7174 -28.2555 -11.4429 -11.4084 -11.3138 -11.2611
   -11.1546 -11.1214 -10.5608 -10.3395 -10.1809 -10.1042  -9.9106  -9.8907
    -7.7271  -7.6616  -7.4753  -7.3767  -7.1032  -6.7876  -6.6031  -6.5182
     4.1555   4.4701   4.8475   4.9338   5.2450   5.3676   5.6168   5.8195
     5.8978   6.1362   6.1699   6.3057   6.4773   6.5372   6.5707   6.7724
     6.9196   6.9321   7.1197   7.1637   7.4515   7.5203   7.5971   7.7108

     occupation numbers 
     1.0000   1.0000   1.0000   1.0000   1.0000   1.0000   1.0000   1.0000
     1.0000   1.0000   1.0000   1.0000   1.0000   1.0000   1.0000   1.0000
     1.0000   1.0000   1.0000   1.0000   1.0000   1.0000   1.0000   1.0000
     1.0000   1.0000   1.0000   1.0000   1.0000   1.0000   1.0000   1.0000
     1.0000   1.0000   1.0000   1.0000   1.0000   1.0000   1.0000   1.0000
     1.0000   1.0000   1.0000   1.0000   1.0000   1.0000   1.0000   1.0000
     1.0000   1.0000   1.0000   1.0000   1.0000   1.0000   1.0000   1.0000
     1.0000   1.0000   1.0000   1.0000   1.0000   1.0000   1.0000   1.0000

          k = 0.1748-0.1794 0.1831 (  5316 PWs)   bands (ev):

   -65.6866 -64.6701 -64.2354 -64.1070 -32.6770 -32.6580 -32.6107 -31.6763
   -31.6345 -31.6163 -31.2337 -31.2096 -31.1939 -31.0966 -31.0829 -31.0728
   -29.8231 -29.7351 -28.7172 -28.2546 -11.7160 -11.4841 -11.4169 -11.4059
   -10.9578 -10.7603 -10.4802 -10.3566 -10.1971 -10.0607  -9.8588  -9.7316
    -8.1436  -7.6576  -7.5003  -7.3919  -7.2489  -6.5891  -6.5002  -6.4257
     3.6267   4.2556   4.3967   4.9876   5.1089   5.2412   5.4671   6.0020
     6.0742   6.1962   6.3006   6.4292   6.5303   6.5629   6.8401   6.9053
     7.0547   7.1723   7.2830   7.3544   7.4917   7.5357   7.9099   8.0306

     occupation numbers 
     1.0000   1.0000   1.0000   1.0000   1.0000   1.0000   1.0000   1.0000
     1.0000   1.0000   1.0000   1.0000   1.0000   1.0000   1.0000   1.0000
     1.0000   1.0000   1.0000   1.0000   1.0000   1.0000   1.0000   1.0000
     1.0000   1.0000   1.0000   1.0000   1.0000   1.0000   1.0000   1.0000
     1.0000   1.0000   1.0000   1.0000   1.0000   1.0000   1.0000   1.0000
     1.0000   1.0000   1.0000   1.0000   1.0000   1.0000   1.0000   1.0000
     1.0000   1.0000   1.0000   1.0000   1.0000   1.0000   1.0000   1.0000
     1.0000   1.0000   1.0000   1.0000   1.0000   1.0000   1.0000   1.0000

          k = 0.3586 0.0055-0.0035 (  5317 PWs)   bands (ev):

   -65.6866 -64.6701 -64.2354 -64.1070 -32.6770 -32.6581 -32.6107 -31.6764
   -31.6346 -31.6164 -31.2337 -31.2094 -31.1933 -31.0966 -31.0829 -31.0732
   -29.8133 -29.7455 -28.7160 -28.2552 -11.6264 -11.5345 -11.3837 -11.3630
   -11.0256 -10.9036 -10.4367 -10.3618 -10.1425 -10.0021  -9.8648  -9.8081
    -8.0654  -7.6326  -7.5340  -7.4401  -7.3082  -6.5680  -6.5200  -6.3624
     3.7119   4.3120   4.4130   4.9567   5.1799   5.2873   5.4519   5.9730
     6.0957   6.2056   6.3334   6.3878   6.4518   6.5818   6.6705   6.8253
     6.9062   7.0686   7.1919   7.4082   7.5640   7.6233   7.9326   8.0267

     occupation numbers 
     1.0000   1.0000   1.0000   1.0000   1.0000   1.0000   1.0000   1.0000
     1.0000   1.0000   1.0000   1.0000   1.0000   1.0000   1.0000   1.0000
     1.0000   1.0000   1.0000   1.0000   1.0000   1.0000   1.0000   1.0000
     1.0000   1.0000   1.0000   1.0000   1.0000   1.0000   1.0000   1.0000
     1.0000   1.0000   1.0000   1.0000   1.0000   1.0000   1.0000   1.0000
     1.0000   1.0000   1.0000   1.0000   1.0000   1.0000   1.0000   1.0000
     1.0000   1.0000   1.0000   1.0000   1.0000   1.0000   1.0000   1.0000
     1.0000   1.0000   1.0000   1.0000   1.0000   1.0000   1.0000   1.0000

          k =-0.1928-0.5493 0.5561 (  5321 PWs)   bands (ev):

   -65.6866 -64.6701 -64.2354 -64.1070 -32.6770 -32.6581 -32.6106 -31.6764
   -31.6346 -31.6163 -31.2337 -31.2094 -31.1928 -31.0967 -31.0833 -31.0737
   -29.7975 -29.7602 -28.7168 -28.2556 -11.4859 -11.3842 -11.3596 -11.2514
   -11.1505 -11.1347 -10.4933 -10.4070 -10.1860 -10.0695  -9.8783  -9.8125
    -7.7701  -7.6808  -7.5020  -7.4747  -7.2422  -6.6662  -6.5289  -6.4429
     4.1840   4.5622   4.7257   4.9203   5.2723   5.4384   5.6147   5.7407
     5.8595   5.9638   6.1096   6.2611   6.4327   6.4654   6.5663   6.7537
     6.8493   6.9861   7.0829   7.3487   7.5035   7.5745   7.6810   7.7929

     occupation numbers 
     1.0000   1.0000   1.0000   1.0000   1.0000   1.0000   1.0000   1.0000
     1.0000   1.0000   1.0000   1.0000   1.0000   1.0000   1.0000   1.0000
     1.0000   1.0000   1.0000   1.0000   1.0000   1.0000   1.0000   1.0000
     1.0000   1.0000   1.0000   1.0000   1.0000   1.0000   1.0000   1.0000
     1.0000   1.0000   1.0000   1.0000   1.0000   1.0000   1.0000   1.0000
     1.0000   1.0000   1.0000   1.0000   1.0000   1.0000   1.0000   1.0000
     1.0000   1.0000   1.0000   1.0000   1.0000   1.0000   1.0000   1.0000
     1.0000   1.0000   1.0000   1.0000   1.0000   1.0000   1.0000   1.0000

          k =-0.0090-0.3643 0.3696 (  5325 PWs)   bands (ev):

   -65.6866 -64.6701 -64.2354 -64.1070 -32.6771 -32.6581 -32.6107 -31.6763
   -31.6345 -31.6163 -31.2337 -31.2096 -31.1933 -31.0967 -31.0832 -31.0732
   -29.8122 -29.7450 -28.7180 -28.2549 -11.5834 -11.4261 -11.3845 -11.3280
   -11.0228 -10.9145 -10.5587 -10.4028 -10.2568 -10.0921  -9.8740  -9.7389
    -7.9454  -7.7080  -7.4012  -7.3695  -7.1471  -6.7558  -6.5686  -6.4422
     4.0020   4.5851   4.7082   4.9488   5.2291   5.2938   5.5565   5.6420
     5.9733   6.1329   6.2125   6.3842   6.4433   6.5605   6.6611   6.7759
     6.9091   7.0226   7.1154   7.2106   7.4394   7.4738   7.6921   7.9037

     occupation numbers 
     1.0000   1.0000   1.0000   1.0000   1.0000   1.0000   1.0000   1.0000
     1.0000   1.0000   1.0000   1.0000   1.0000   1.0000   1.0000   1.0000
     1.0000   1.0000   1.0000   1.0000   1.0000   1.0000   1.0000   1.0000
     1.0000   1.0000   1.0000   1.0000   1.0000   1.0000   1.0000   1.0000
     1.0000   1.0000   1.0000   1.0000   1.0000   1.0000   1.0000   1.0000
     1.0000   1.0000   1.0000   1.0000   1.0000   1.0000   1.0000   1.0000
     1.0000   1.0000   1.0000   1.0000   1.0000   1.0000   1.0000   1.0000
     1.0000   1.0000   1.0000   1.0000   1.0000   1.0000   1.0000   1.0000

          k =-0.3496 0.3588-0.3661 (  5326 PWs)   bands (ev):

   -65.6866 -64.6701 -64.2354 -64.1070 -32.6771 -32.6581 -32.6107 -31.6763
   -31.6344 -31.6162 -31.2337 -31.2097 -31.1939 -31.0967 -31.0830 -31.0728
   -29.8219 -29.7349 -28.7186 -28.2543 -11.6912 -11.4277 -11.3960 -11.3574
   -10.9482 -10.7586 -10.5535 -10.4177 -10.3199 -10.0902  -9.8796  -9.7549
    -7.8644  -7.7119  -7.3667  -7.3279  -7.2024  -6.7394  -6.6029  -6.5114
     4.0615   4.6052   4.7466   4.8209   4.9622   5.4871   5.5999   5.8032
     5.9068   6.0500   6.1362   6.2459   6.4045   6.5949   6.6569   6.7406
     6.8567   7.0363   7.2461   7.3159   7.4198   7.5300   7.7789   7.9345

     occupation numbers 
     1.0000   1.0000   1.0000   1.0000   1.0000   1.0000   1.0000   1.0000
     1.0000   1.0000   1.0000   1.0000   1.0000   1.0000   1.0000   1.0000
     1.0000   1.0000   1.0000   1.0000   1.0000   1.0000   1.0000   1.0000
     1.0000   1.0000   1.0000   1.0000   1.0000   1.0000   1.0000   1.0000
     1.0000   1.0000   1.0000   1.0000   1.0000   1.0000   1.0000   1.0000
     1.0000   1.0000   1.0000   1.0000   1.0000   1.0000   1.0000   1.0000
     1.0000   1.0000   1.0000   1.0000   1.0000   1.0000   1.0000   1.0000
     1.0000   1.0000   1.0000   1.0000   1.0000   1.0000   1.0000   1.0000

          k =-0.1658 0.5437-0.5526 (  5314 PWs)   bands (ev):

   -65.6866 -64.6701 -64.2354 -64.1070 -32.6770 -32.6581 -32.6107 -31.6764
   -31.6346 -31.6162 -31.2338 -31.2096 -31.1934 -31.0967 -31.0831 -31.0733
   -29.8120 -29.7453 -28.7174 -28.2550 -11.5878 -11.4761 -11.3620 -11.3363
   -11.0368 -10.9125 -10.5039 -10.4411 -10.2287 -10.0618  -9.8492  -9.7704
    -7.8144  -7.7056  -7.5763  -7.3477  -7.2764  -6.6537  -6.5284  -6.4418
     4.1455   4.5498   4.7083   4.9587   5.1184   5.4284   5.6974   5.7270
     5.7789   5.9290   6.0666   6.1871   6.3730   6.5300   6.6373   6.7805
     6.9241   7.0258   7.1305   7.3752   7.4827   7.6036   7.7502   7.8795

     occupation numbers 
     1.0000   1.0000   1.0000   1.0000   1.0000   1.0000   1.0000   1.0000
     1.0000   1.0000   1.0000   1.0000   1.0000   1.0000   1.0000   1.0000
     1.0000   1.0000   1.0000   1.0000   1.0000   1.0000   1.0000   1.0000
     1.0000   1.0000   1.0000   1.0000   1.0000   1.0000   1.0000   1.0000
     1.0000   1.0000   1.0000   1.0000   1.0000   1.0000   1.0000   1.0000
     1.0000   1.0000   1.0000   1.0000   1.0000   1.0000   1.0000   1.0000
     1.0000   1.0000   1.0000   1.0000   1.0000   1.0000   1.0000   1.0000
     1.0000   1.0000   1.0000   1.0000   1.0000   1.0000   1.0000   1.0000

          k =-0.7171-0.0110 0.0069 (  5304 PWs)   bands (ev):

   -65.6866 -64.6701 -64.2354 -64.1070 -32.6770 -32.6581 -32.6107 -31.6765
   -31.6347 -31.6163 -31.2338 -31.2094 -31.1929 -31.0968 -31.0831 -31.0737
   -29.7971 -29.7608 -28.7162 -28.2556 -11.5391 -11.4104 -11.3229 -11.2435
   -11.1510 -11.1399 -10.5157 -10.4237 -10.1814 -10.0032  -9.8527  -9.7481
    -7.7871  -7.7639  -7.5660  -7.4758  -7.3456  -6.5762  -6.4808  -6.3725
     4.2650   4.5096   4.6136   5.1593   5.2783   5.3927   5.4547   5.6736
     5.8453   6.0648   6.0971   6.2437   6.3302   6.4312   6.5014   6.5929
     6.7494   6.8995   7.0699   7.4596   7.5788   7.7589   7.8025   7.8988

     occupation numbers 
     1.0000   1.0000   1.0000   1.0000   1.0000   1.0000   1.0000   1.0000
     1.0000   1.0000   1.0000   1.0000   1.0000   1.0000   1.0000   1.0000
     1.0000   1.0000   1.0000   1.0000   1.0000   1.0000   1.0000   1.0000
     1.0000   1.0000   1.0000   1.0000   1.0000   1.0000   1.0000   1.0000
     1.0000   1.0000   1.0000   1.0000   1.0000   1.0000   1.0000   1.0000
     1.0000   1.0000   1.0000   1.0000   1.0000   1.0000   1.0000   1.0000
     1.0000   1.0000   1.0000   1.0000   1.0000   1.0000   1.0000   1.0000
     1.0000   1.0000   1.0000   1.0000   1.0000   1.0000   1.0000   1.0000

          k =-0.1782 0.1727 0.1798 (  5300 PWs)   bands (ev):

   -65.6866 -64.6701 -64.2354 -64.1070 -32.6770 -32.6581 -32.6107 -31.6763
   -31.6346 -31.6164 -31.2337 -31.2094 -31.1933 -31.0965 -31.0829 -31.0732
   -29.8137 -29.7455 -28.7161 -28.2551 -11.6256 -11.4896 -11.4131 -11.3461
   -11.0201 -10.9047 -10.4671 -10.3516 -10.1455 -10.0594  -9.9292  -9.7343
    -8.1252  -7.6054  -7.4180  -7.3530  -7.3322  -6.5924  -6.5069  -6.4655
     3.6106   4.2730   4.3831   4.9607   5.1363   5.2317   5.4589   5.9091
     6.0914   6.2804   6.3413   6.4278   6.4944   6.6358   6.8248   6.9158
     7.0072   7.1263   7.3017   7.3883   7.5655   7.5911   7.8138   8.0598

     occupation numbers 
     1.0000   1.0000   1.0000   1.0000   1.0000   1.0000   1.0000   1.0000
     1.0000   1.0000   1.0000   1.0000   1.0000   1.0000   1.0000   1.0000
     1.0000   1.0000   1.0000   1.0000   1.0000   1.0000   1.0000   1.0000
     1.0000   1.0000   1.0000   1.0000   1.0000   1.0000   1.0000   1.0000
     1.0000   1.0000   1.0000   1.0000   1.0000   1.0000   1.0000   1.0000
     1.0000   1.0000   1.0000   1.0000   1.0000   1.0000   1.0000   1.0000
     1.0000   1.0000   1.0000   1.0000   1.0000   1.0000   1.0000   1.0000
     1.0000   1.0000   1.0000   1.0000   1.0000   1.0000   1.0000   1.0000

          k = 0.0055 0.3576-0.0067 (  5311 PWs)   bands (ev):

   -65.6866 -64.6701 -64.2354 -64.1070 -32.6770 -32.6580 -32.6106 -31.6764
   -31.6345 -31.6163 -31.2337 -31.2096 -31.1939 -31.0965 -31.0829 -31.0728
   -29.8223 -29.7352 -28.7171 -28.2557 -11.6807 -11.4545 -11.3842 -11.3788
   -10.9473 -10.7595 -10.5516 -10.4025 -10.2354 -10.0185  -9.9485  -9.7420
    -8.1500  -7.6647  -7.4894  -7.3165  -7.1619  -6.7418  -6.4504  -6.4082
     3.6580   4.3253   4.4138   5.0464   5.1699   5.3295   5.4920   5.8895
     5.9842   6.2487   6.2975   6.3528   6.5189   6.5445   6.7777   6.8471
     6.9990   7.1977   7.2961   7.3273   7.4400   7.5773   7.8008   8.0446

     occupation numbers 
     1.0000   1.0000   1.0000   1.0000   1.0000   1.0000   1.0000   1.0000
     1.0000   1.0000   1.0000   1.0000   1.0000   1.0000   1.0000   1.0000
     1.0000   1.0000   1.0000   1.0000   1.0000   1.0000   1.0000   1.0000
     1.0000   1.0000   1.0000   1.0000   1.0000   1.0000   1.0000   1.0000
     1.0000   1.0000   1.0000   1.0000   1.0000   1.0000   1.0000   1.0000
     1.0000   1.0000   1.0000   1.0000   1.0000   1.0000   1.0000   1.0000
     1.0000   1.0000   1.0000   1.0000   1.0000   1.0000   1.0000   1.0000
     1.0000   1.0000   1.0000   1.0000   1.0000   1.0000   1.0000   1.0000

          k =-0.5458-0.1971 0.5529 (  5340 PWs)   bands (ev):

   -65.6866 -64.6701 -64.2354 -64.1070 -32.6770 -32.6581 -32.6106 -31.6764
   -31.6345 -31.6163 -31.2337 -31.2095 -31.1934 -31.0966 -31.0832 -31.0732
   -29.8113 -29.7452 -28.7179 -28.2560 -11.5344 -11.3927 -11.3549 -11.2789
   -11.0359 -10.9218 -10.6332 -10.4331 -10.2972 -10.0549  -9.9266  -9.8177
    -7.8610  -7.6527  -7.4469  -7.3757  -7.1334  -6.7386  -6.5395  -6.4954
     4.0922   4.5967   4.7792   4.9930   5.2782   5.4767   5.5597   5.6993
     5.7717   6.0847   6.1305   6.3063   6.3752   6.5016   6.6177   6.6801
     6.8641   7.0280   7.1454   7.2543   7.4782   7.5755   7.6030   7.8306

     occupation numbers 
     1.0000   1.0000   1.0000   1.0000   1.0000   1.0000   1.0000   1.0000
     1.0000   1.0000   1.0000   1.0000   1.0000   1.0000   1.0000   1.0000
     1.0000   1.0000   1.0000   1.0000   1.0000   1.0000   1.0000   1.0000
     1.0000   1.0000   1.0000   1.0000   1.0000   1.0000   1.0000   1.0000
     1.0000   1.0000   1.0000   1.0000   1.0000   1.0000   1.0000   1.0000
     1.0000   1.0000   1.0000   1.0000   1.0000   1.0000   1.0000   1.0000
     1.0000   1.0000   1.0000   1.0000   1.0000   1.0000   1.0000   1.0000
     1.0000   1.0000   1.0000   1.0000   1.0000   1.0000   1.0000   1.0000

          k =-0.3620-0.0122 0.3664 (  5327 PWs)   bands (ev):

   -65.6866 -64.6701 -64.2354 -64.1070 -32.6770 -32.6581 -32.6106 -31.6764
   -31.6346 -31.6163 -31.2337 -31.2094 -31.1928 -31.0966 -31.0832 -31.0737
   -29.7979 -29.7602 -28.7169 -28.2555 -11.4391 -11.3851 -11.3733 -11.2469
   -11.1579 -11.1186 -10.5446 -10.3696 -10.1974 -10.1211  -9.8879  -9.8220
    -7.8176  -7.6142  -7.4842  -7.3241  -7.2474  -6.6539  -6.5875  -6.5307
     4.0397   4.5445   4.7227   4.8070   5.2322   5.3282   5.5808   5.7749
     5.9688   6.0610   6.2358   6.3481   6.4471   6.5295   6.6785   6.8253
     6.8960   7.0585   7.1527   7.2323   7.3696   7.5222   7.6583   7.9316

     occupation numbers 
     1.0000   1.0000   1.0000   1.0000   1.0000   1.0000   1.0000   1.0000
     1.0000   1.0000   1.0000   1.0000   1.0000   1.0000   1.0000   1.0000
     1.0000   1.0000   1.0000   1.0000   1.0000   1.0000   1.0000   1.0000
     1.0000   1.0000   1.0000   1.0000   1.0000   1.0000   1.0000   1.0000
     1.0000   1.0000   1.0000   1.0000   1.0000   1.0000   1.0000   1.0000
     1.0000   1.0000   1.0000   1.0000   1.0000   1.0000   1.0000   1.0000
     1.0000   1.0000   1.0000   1.0000   1.0000   1.0000   1.0000   1.0000
     1.0000   1.0000   1.0000   1.0000   1.0000   1.0000   1.0000   1.0000

          k =-0.0035-0.0067 0.3629 (  5313 PWs)   bands (ev):

   -65.6866 -64.6701 -64.2354 -64.1070 -32.6770 -32.6580 -32.6107 -31.6763
   -31.6346 -31.6164 -31.2337 -31.2095 -31.1933 -31.0966 -31.0830 -31.0732
   -29.8135 -29.7449 -28.7166 -28.2550 -11.6212 -11.4786 -11.3985 -11.3610
   -11.0166 -10.9029 -10.5334 -10.3142 -10.1612 -10.1218  -9.8642  -9.6999
    -8.1078  -7.6949  -7.4902  -7.3090  -7.2390  -6.6224  -6.5316  -6.4206
     3.7356   4.3078   4.4803   5.0365   5.1039   5.2085   5.4253   5.8300
     6.1860   6.2726   6.3379   6.4489   6.4848   6.6535   6.7587   6.8655
     6.9442   7.0667   7.2185   7.2959   7.3720   7.5077   7.8613   8.0968

     occupation numbers 
     1.0000   1.0000   1.0000   1.0000   1.0000   1.0000   1.0000   1.0000
     1.0000   1.0000   1.0000   1.0000   1.0000   1.0000   1.0000   1.0000
     1.0000   1.0000   1.0000   1.0000   1.0000   1.0000   1.0000   1.0000
     1.0000   1.0000   1.0000   1.0000   1.0000   1.0000   1.0000   1.0000
     1.0000   1.0000   1.0000   1.0000   1.0000   1.0000   1.0000   1.0000
     1.0000   1.0000   1.0000   1.0000   1.0000   1.0000   1.0000   1.0000
     1.0000   1.0000   1.0000   1.0000   1.0000   1.0000   1.0000   1.0000
     1.0000   1.0000   1.0000   1.0000   1.0000   1.0000   1.0000   1.0000

          k = 0.1803 0.1782 0.1764 (  5316 PWs)   bands (ev):

   -65.6866 -64.6701 -64.2354 -64.1070 -32.6770 -32.6580 -32.6107 -31.6764
   -31.6346 -31.6165 -31.2337 -31.2095 -31.1938 -31.0966 -31.0828 -31.0728
   -29.8232 -29.7353 -28.7156 -28.2558 -11.7145 -11.4882 -11.4218 -11.4100
   -10.9545 -10.7607 -10.4574 -10.3060 -10.1263 -10.0593  -9.9604  -9.8103
    -8.1299  -7.6401  -7.4952  -7.3463  -7.2318  -6.5972  -6.5248  -6.4459
     3.5991   4.2462   4.4174   4.9353   5.0791   5.2212   5.4414   5.8959
     6.1793   6.2319   6.3693   6.4136   6.6219   6.7167   6.7993   6.8795
     7.0023   7.1036   7.2843   7.3495   7.5355   7.5842   7.8604   8.0379

     occupation numbers 
     1.0000   1.0000   1.0000   1.0000   1.0000   1.0000   1.0000   1.0000
     1.0000   1.0000   1.0000   1.0000   1.0000   1.0000   1.0000   1.0000
     1.0000   1.0000   1.0000   1.0000   1.0000   1.0000   1.0000   1.0000
     1.0000   1.0000   1.0000   1.0000   1.0000   1.0000   1.0000   1.0000
     1.0000   1.0000   1.0000   1.0000   1.0000   1.0000   1.0000   1.0000
     1.0000   1.0000   1.0000   1.0000   1.0000   1.0000   1.0000   1.0000
     1.0000   1.0000   1.0000   1.0000   1.0000   1.0000   1.0000   1.0000
     1.0000   1.0000   1.0000   1.0000   1.0000   1.0000   1.0000   1.0000

          k =-0.3710-0.3765 0.7359 (  5315 PWs)   bands (ev):

   -65.6866 -64.6701 -64.2354 -64.1070 -32.6770 -32.6580 -32.6106 -31.6764
   -31.6346 -31.6164 -31.2338 -31.2095 -31.1933 -31.0967 -31.0831 -31.0732
   -29.8123 -29.7451 -28.7164 -28.2562 -11.5768 -11.4374 -11.4011 -11.3329
   -11.0250 -10.9117 -10.5490 -10.3252 -10.1486 -10.0300  -9.9856  -9.9018
    -7.8985  -7.6098  -7.5406  -7.3628  -7.0966  -6.8085  -6.5585  -6.4123
     3.9659   4.5331   4.6629   4.9455   5.1728   5.3847   5.5883   5.7041
     5.8950   6.0201   6.2350   6.3369   6.5321   6.6143   6.7107   6.7808
     6.8318   7.0603   7.1721   7.2511   7.4507   7.5384   7.6819   7.8740

     occupation numbers 
     1.0000   1.0000   1.0000   1.0000   1.0000   1.0000   1.0000   1.0000
     1.0000   1.0000   1.0000   1.0000   1.0000   1.0000   1.0000   1.0000
     1.0000   1.0000   1.0000   1.0000   1.0000   1.0000   1.0000   1.0000
     1.0000   1.0000   1.0000   1.0000   1.0000   1.0000   1.0000   1.0000
     1.0000   1.0000   1.0000   1.0000   1.0000   1.0000   1.0000   1.0000
     1.0000   1.0000   1.0000   1.0000   1.0000   1.0000   1.0000   1.0000
     1.0000   1.0000   1.0000   1.0000   1.0000   1.0000   1.0000   1.0000
     1.0000   1.0000   1.0000   1.0000   1.0000   1.0000   1.0000   1.0000

          k =-0.1872-0.1916 0.5494 (  5328 PWs)   bands (ev):

   -65.6866 -64.6701 -64.2354 -64.1070 -32.6771 -32.6581 -32.6107 -31.6764
   -31.6345 -31.6163 -31.2337 -31.2094 -31.1928 -31.0967 -31.0833 -31.0736
   -29.7980 -29.7594 -28.7174 -28.2553 -11.4497 -11.3896 -11.3281 -11.2493
   -11.1725 -11.1163 -10.6347 -10.3375 -10.1999 -10.0535  -9.9046  -9.8013
    -7.8435  -7.6132  -7.5103  -7.4094  -7.2196  -6.6831  -6.5275  -6.4775
     4.2464   4.5694   4.8004   4.8478   5.2915   5.3562   5.5207   5.6598
     5.8633   6.0541   6.1940   6.2793   6.4351   6.5291   6.5789   6.7689
     6.9242   7.0112   7.1024   7.1849   7.3853   7.4936   7.6688   7.8964

     occupation numbers 
     1.0000   1.0000   1.0000   1.0000   1.0000   1.0000   1.0000   1.0000
     1.0000   1.0000   1.0000   1.0000   1.0000   1.0000   1.0000   1.0000
     1.0000   1.0000   1.0000   1.0000   1.0000   1.0000   1.0000   1.0000
     1.0000   1.0000   1.0000   1.0000   1.0000   1.0000   1.0000   1.0000
     1.0000   1.0000   1.0000   1.0000   1.0000   1.0000   1.0000   1.0000
     1.0000   1.0000   1.0000   1.0000   1.0000   1.0000   1.0000   1.0000
     1.0000   1.0000   1.0000   1.0000   1.0000   1.0000   1.0000   1.0000
     1.0000   1.0000   1.0000   1.0000   1.0000   1.0000   1.0000   1.0000

          k =-0.5278 0.5315-0.1863 (  5315 PWs)   bands (ev):

   -65.6866 -64.6701 -64.2354 -64.1070 -32.6771 -32.6581 -32.6107 -31.6763
   -31.6345 -31.6163 -31.2337 -31.2096 -31.1934 -31.0967 -31.0832 -31.0733
   -29.8122 -29.7448 -28.7180 -28.2547 -11.5828 -11.4310 -11.3573 -11.3444
   -11.0233 -10.9121 -10.6308 -10.3635 -10.2669 -10.0524  -9.8936  -9.7324
    -7.8399  -7.7544  -7.4071  -7.3939  -7.2551  -6.6671  -6.5288  -6.4748
     4.1907   4.5914   4.7710   4.8544   5.1125   5.3719   5.5517   5.6887
     5.9126   5.9956   6.0845   6.2063   6.4294   6.5590   6.6222   6.8283
     6.9607   7.0143   7.1624   7.2277   7.3863   7.5411   7.6905   8.0080

     occupation numbers 
     1.0000   1.0000   1.0000   1.0000   1.0000   1.0000   1.0000   1.0000
     1.0000   1.0000   1.0000   1.0000   1.0000   1.0000   1.0000   1.0000
     1.0000   1.0000   1.0000   1.0000   1.0000   1.0000   1.0000   1.0000
     1.0000   1.0000   1.0000   1.0000   1.0000   1.0000   1.0000   1.0000
     1.0000   1.0000   1.0000   1.0000   1.0000   1.0000   1.0000   1.0000
     1.0000   1.0000   1.0000   1.0000   1.0000   1.0000   1.0000   1.0000
     1.0000   1.0000   1.0000   1.0000   1.0000   1.0000   1.0000   1.0000
     1.0000   1.0000   1.0000   1.0000   1.0000   1.0000   1.0000   1.0000

          k =-0.3441 0.7164-0.3728 (  5316 PWs)   bands (ev):

   -65.6866 -64.6701 -64.2354 -64.1070 -32.6770 -32.6580 -32.6107 -31.6764
   -31.6345 -31.6163 -31.2338 -31.2096 -31.1939 -31.0967 -31.0829 -31.0728
   -29.8220 -29.7350 -28.7170 -28.2556 -11.6830 -11.4366 -11.4145 -11.3644
   -10.9546 -10.7604 -10.5290 -10.3651 -10.2453 -10.1218  -9.8980  -9.8270
    -7.8760  -7.7038  -7.4615  -7.3015  -7.2023  -6.6759  -6.5664  -6.5216
     3.9842   4.5416   4.6708   4.8348   5.0462   5.3118   5.5416   5.7964
     6.0209   6.1384   6.2219   6.2875   6.4865   6.5362   6.6415   6.7975
     6.8403   7.0289   7.2584   7.3084   7.4552   7.5697   7.7932   7.9181

     occupation numbers 
     1.0000   1.0000   1.0000   1.0000   1.0000   1.0000   1.0000   1.0000
     1.0000   1.0000   1.0000   1.0000   1.0000   1.0000   1.0000   1.0000
     1.0000   1.0000   1.0000   1.0000   1.0000   1.0000   1.0000   1.0000
     1.0000   1.0000   1.0000   1.0000   1.0000   1.0000   1.0000   1.0000
     1.0000   1.0000   1.0000   1.0000   1.0000   1.0000   1.0000   1.0000
     1.0000   1.0000   1.0000   1.0000   1.0000   1.0000   1.0000   1.0000
     1.0000   1.0000   1.0000   1.0000   1.0000   1.0000   1.0000   1.0000
     1.0000   1.0000   1.0000   1.0000   1.0000   1.0000   1.0000   1.0000

          k =-0.8954 0.1617 0.1867 (  5324 PWs)   bands (ev):

   -65.6866 -64.6701 -64.2354 -64.1070 -32.6770 -32.6581 -32.6107 -31.6765
   -31.6347 -31.6164 -31.2338 -31.2095 -31.1934 -31.0967 -31.0830 -31.0733
   -29.8121 -29.7455 -28.7158 -28.2562 -11.5923 -11.4654 -11.3709 -11.3497
   -11.0343 -10.9094 -10.4668 -10.4044 -10.1721 -10.0651  -9.9564  -9.8203
    -7.8160  -7.6747  -7.5649  -7.3248  -7.2376  -6.6709  -6.5473  -6.4651
     4.1109   4.5523   4.6606   4.8883   5.1328   5.3952   5.6670   5.7122
     5.8174   6.0224   6.1654   6.2611   6.4148   6.5411   6.5881   6.7844
     6.8471   6.9640   7.1675   7.3572   7.5064   7.6706   7.7397   7.8706

     occupation numbers 
     1.0000   1.0000   1.0000   1.0000   1.0000   1.0000   1.0000   1.0000
     1.0000   1.0000   1.0000   1.0000   1.0000   1.0000   1.0000   1.0000
     1.0000   1.0000   1.0000   1.0000   1.0000   1.0000   1.0000   1.0000
     1.0000   1.0000   1.0000   1.0000   1.0000   1.0000   1.0000   1.0000
     1.0000   1.0000   1.0000   1.0000   1.0000   1.0000   1.0000   1.0000
     1.0000   1.0000   1.0000   1.0000   1.0000   1.0000   1.0000   1.0000
     1.0000   1.0000   1.0000   1.0000   1.0000   1.0000   1.0000   1.0000
     1.0000   1.0000   1.0000   1.0000   1.0000   1.0000   1.0000   1.0000

          k =-0.7116 0.3466 0.0002 (  5331 PWs)   bands (ev):

   -65.6866 -64.6701 -64.2354 -64.1070 -32.6770 -32.6581 -32.6107 -31.6764
   -31.6346 -31.6163 -31.2338 -31.2094 -31.1928 -31.0968 -31.0832 -31.0737
   -29.7977 -29.7599 -28.7168 -28.2554 -11.4636 -11.4051 -11.3326 -11.2485
   -11.1914 -11.1341 -10.5547 -10.3972 -10.1673 -10.0228  -9.9410  -9.7377
    -7.8478  -7.6207  -7.5831  -7.4719  -7.1075  -6.8147  -6.4532  -6.4159
     4.4390   4.5543   4.7567   4.8998   5.2355   5.3518   5.5183   5.5848
     5.7665   5.8552   6.1922   6.2768   6.4167   6.5924   6.6541   6.7101
     6.7663   6.9460   7.0918   7.2712   7.4756   7.6003   7.6940   7.9083

     occupation numbers 
     1.0000   1.0000   1.0000   1.0000   1.0000   1.0000   1.0000   1.0000
     1.0000   1.0000   1.0000   1.0000   1.0000   1.0000   1.0000   1.0000
     1.0000   1.0000   1.0000   1.0000   1.0000   1.0000   1.0000   1.0000
     1.0000   1.0000   1.0000   1.0000   1.0000   1.0000   1.0000   1.0000
     1.0000   1.0000   1.0000   1.0000   1.0000   1.0000   1.0000   1.0000
     1.0000   1.0000   1.0000   1.0000   1.0000   1.0000   1.0000   1.0000
     1.0000   1.0000   1.0000   1.0000   1.0000   1.0000   1.0000   1.0000
     1.0000   1.0000   1.0000   1.0000   1.0000   1.0000   1.0000   1.0000

          k =-0.3530 0.3521-0.0032 (  5313 PWs)   bands (ev):

   -65.6866 -64.6701 -64.2354 -64.1070 -32.6770 -32.6581 -32.6107 -31.6763
   -31.6346 -31.6162 -31.2337 -31.2095 -31.1934 -31.0966 -31.0830 -31.0733
   -29.8124 -29.7454 -28.7175 -28.2549 -11.5842 -11.4470 -11.3696 -11.3319
   -11.0327 -10.9141 -10.5580 -10.4134 -10.2268 -10.0199  -9.9386  -9.7605
    -7.9313  -7.6005  -7.5027  -7.3738  -7.1539  -6.7760  -6.5628  -6.4099
     3.9712   4.5175   4.6326   4.8939   5.2123   5.3768   5.5953   5.7092
     5.8631   5.9483   6.1350   6.2495   6.4625   6.6122   6.8036   6.9089
     6.9753   7.0785   7.1024   7.2283   7.4475   7.5668   7.8031   7.9694

     occupation numbers 
     1.0000   1.0000   1.0000   1.0000   1.0000   1.0000   1.0000   1.0000
     1.0000   1.0000   1.0000   1.0000   1.0000   1.0000   1.0000   1.0000
     1.0000   1.0000   1.0000   1.0000   1.0000   1.0000   1.0000   1.0000
     1.0000   1.0000   1.0000   1.0000   1.0000   1.0000   1.0000   1.0000
     1.0000   1.0000   1.0000   1.0000   1.0000   1.0000   1.0000   1.0000
     1.0000   1.0000   1.0000   1.0000   1.0000   1.0000   1.0000   1.0000
     1.0000   1.0000   1.0000   1.0000   1.0000   1.0000   1.0000   1.0000
     1.0000   1.0000   1.0000   1.0000   1.0000   1.0000   1.0000   1.0000

          k =-0.1693 0.5370-0.1897 (  5305 PWs)   bands (ev):

   -65.6866 -64.6701 -64.2354 -64.1070 -32.6771 -32.6581 -32.6107 -31.6764
   -31.6345 -31.6162 -31.2338 -31.2097 -31.1939 -31.0966 -31.0830 -31.0728
   -29.8212 -29.7350 -28.7185 -28.2554 -11.6569 -11.3951 -11.3661 -11.3222
   -10.9426 -10.7587 -10.6270 -10.4624 -10.3798 -10.0542  -9.8959  -9.7740
    -7.9150  -7.6925  -7.3966  -7.3322  -7.1932  -6.7180  -6.5512  -6.4812
     4.0624   4.6192   4.7151   4.9813   5.1520   5.4563   5.5478   5.7448
     5.8995   5.9784   6.0562   6.2185   6.3278   6.4901   6.6594   6.8193
     6.8902   7.1111   7.1617   7.3089   7.4154   7.5459   7.7414   7.9190

     occupation numbers 
     1.0000   1.0000   1.0000   1.0000   1.0000   1.0000   1.0000   1.0000
     1.0000   1.0000   1.0000   1.0000   1.0000   1.0000   1.0000   1.0000
     1.0000   1.0000   1.0000   1.0000   1.0000   1.0000   1.0000   1.0000
     1.0000   1.0000   1.0000   1.0000   1.0000   1.0000   1.0000   1.0000
     1.0000   1.0000   1.0000   1.0000   1.0000   1.0000   1.0000   1.0000
     1.0000   1.0000   1.0000   1.0000   1.0000   1.0000   1.0000   1.0000
     1.0000   1.0000   1.0000   1.0000   1.0000   1.0000   1.0000   1.0000
     1.0000   1.0000   1.0000   1.0000   1.0000   1.0000   1.0000   1.0000

          k =-0.7206-0.0177 0.3698 (  5324 PWs)   bands (ev):

   -65.6866 -64.6701 -64.2354 -64.1070 -32.6770 -32.6581 -32.6106 -31.6764
   -31.6346 -31.6163 -31.2338 -31.2095 -31.1934 -31.0967 -31.0831 -31.0733
   -29.8111 -29.7456 -28.7173 -28.2561 -11.5423 -11.4229 -11.3382 -11.2976
   -11.0460 -10.9190 -10.5513 -10.4907 -10.2769 -10.1214  -9.9020  -9.7538
    -7.7998  -7.7251  -7.4313  -7.3575  -7.2122  -6.6544  -6.6140  -6.4637
     4.2462   4.6469   4.7899   4.9857   5.2598   5.3676   5.5073   5.6901
     5.8079   5.9380   6.0700   6.2166   6.3671   6.4824   6.6116   6.7333
     6.7778   7.0667   7.1769   7.2742   7.5109   7.5841   7.6499   7.8405

     occupation numbers 
     1.0000   1.0000   1.0000   1.0000   1.0000   1.0000   1.0000   1.0000
     1.0000   1.0000   1.0000   1.0000   1.0000   1.0000   1.0000   1.0000
     1.0000   1.0000   1.0000   1.0000   1.0000   1.0000   1.0000   1.0000
     1.0000   1.0000   1.0000   1.0000   1.0000   1.0000   1.0000   1.0000
     1.0000   1.0000   1.0000   1.0000   1.0000   1.0000   1.0000   1.0000
     1.0000   1.0000   1.0000   1.0000   1.0000   1.0000   1.0000   1.0000
     1.0000   1.0000   1.0000   1.0000   1.0000   1.0000   1.0000   1.0000
     1.0000   1.0000   1.0000   1.0000   1.0000   1.0000   1.0000   1.0000

          k =-0.5368 0.1672 0.1833 (  5312 PWs)   bands (ev):

   -65.6866 -64.6701 -64.2354 -64.1070 -32.6770 -32.6581 -32.6107 -31.6764
   -31.6347 -31.6163 -31.2337 -31.2094 -31.1929 -31.0967 -31.0831 -31.0737
   -29.7976 -29.7608 -28.7163 -28.2555 -11.5033 -11.3818 -11.3376 -11.2455
   -11.1650 -11.1351 -10.4996 -10.4309 -10.1799 -10.0619  -9.9126  -9.7708
    -7.7964  -7.6548  -7.5235  -7.3862  -7.2400  -6.6724  -6.5463  -6.4688
     4.1555   4.5484   4.6766   4.8011   5.3348   5.3944   5.5395   5.7263
     5.8474   6.0061   6.1422   6.2283   6.3496   6.5570   6.6498   6.7504
     6.8280   7.0071   7.1771   7.3321   7.5189   7.6578   7.7234   7.9040

     occupation numbers 
     1.0000   1.0000   1.0000   1.0000   1.0000   1.0000   1.0000   1.0000
     1.0000   1.0000   1.0000   1.0000   1.0000   1.0000   1.0000   1.0000
     1.0000   1.0000   1.0000   1.0000   1.0000   1.0000   1.0000   1.0000
     1.0000   1.0000   1.0000   1.0000   1.0000   1.0000   1.0000   1.0000
     1.0000   1.0000   1.0000   1.0000   1.0000   1.0000   1.0000   1.0000
     1.0000   1.0000   1.0000   1.0000   1.0000   1.0000   1.0000   1.0000
     1.0000   1.0000   1.0000   1.0000   1.0000   1.0000   1.0000   1.0000
     1.0000   1.0000   1.0000   1.0000   1.0000   1.0000   1.0000   1.0000

          k = 0.3565-0.3454-0.3597 (  5308 PWs)   bands (ev):

   -65.6866 -64.6701 -64.2354 -64.1070 -32.6770 -32.6581 -32.6107 -31.6763
   -31.6347 -31.6163 -31.2337 -31.2093 -31.1929 -31.0966 -31.0831 -31.0737
   -29.7980 -29.7608 -28.7164 -28.2554 -11.4788 -11.3853 -11.2974 -11.2512
   -11.1781 -11.1183 -10.5304 -10.4099 -10.2119 -10.0994  -9.9830  -9.7637
    -7.7810  -7.6325  -7.4772  -7.1721  -7.0834  -6.8234  -6.7023  -6.5462
     4.0877   4.4619   4.6717   4.8168   5.2018   5.4394   5.5412   5.6856
     5.9447   6.0828   6.1375   6.2844   6.3480   6.6263   6.7310   6.9163
     6.9720   7.0262   7.1285   7.3335   7.4014   7.5989   7.6971   7.9353

     occupation numbers 
     1.0000   1.0000   1.0000   1.0000   1.0000   1.0000   1.0000   1.0000
     1.0000   1.0000   1.0000   1.0000   1.0000   1.0000   1.0000   1.0000
     1.0000   1.0000   1.0000   1.0000   1.0000   1.0000   1.0000   1.0000
     1.0000   1.0000   1.0000   1.0000   1.0000   1.0000   1.0000   1.0000
     1.0000   1.0000   1.0000   1.0000   1.0000   1.0000   1.0000   1.0000
     1.0000   1.0000   1.0000   1.0000   1.0000   1.0000   1.0000   1.0000
     1.0000   1.0000   1.0000   1.0000   1.0000   1.0000   1.0000   1.0000
     1.0000   1.0000   1.0000   1.0000   1.0000   1.0000   1.0000   1.0000

          k = 0.5403-0.1605-0.5462 (  5320 PWs)   bands (ev):

   -65.6866 -64.6701 -64.2354 -64.1070 -32.6770 -32.6581 -32.6106 -31.6764
   -31.6346 -31.6163 -31.2337 -31.2095 -31.1934 -31.0966 -31.0831 -31.0733
   -29.8115 -29.7457 -28.7174 -28.2560 -11.5405 -11.4003 -11.3384 -11.2805
   -11.0411 -10.9218 -10.6238 -10.4586 -10.2946 -10.0962  -9.9206  -9.7738
    -7.8915  -7.6203  -7.4448  -7.3080  -7.1276  -6.7525  -6.5715  -6.5102
     4.0575   4.5810   4.7201   4.9116   5.2975   5.3825   5.6134   5.6707
     5.7899   5.9769   6.1334   6.2888   6.3727   6.5392   6.6537   6.7526
     6.9281   7.1002   7.1934   7.3190   7.4351   7.5847   7.6860   7.8934

     occupation numbers 
     1.0000   1.0000   1.0000   1.0000   1.0000   1.0000   1.0000   1.0000
     1.0000   1.0000   1.0000   1.0000   1.0000   1.0000   1.0000   1.0000
     1.0000   1.0000   1.0000   1.0000   1.0000   1.0000   1.0000   1.0000
     1.0000   1.0000   1.0000   1.0000   1.0000   1.0000   1.0000   1.0000
     1.0000   1.0000   1.0000   1.0000   1.0000   1.0000   1.0000   1.0000
     1.0000   1.0000   1.0000   1.0000   1.0000   1.0000   1.0000   1.0000
     1.0000   1.0000   1.0000   1.0000   1.0000   1.0000   1.0000   1.0000
     1.0000   1.0000   1.0000   1.0000   1.0000   1.0000   1.0000   1.0000

          k =-0.0110-0.7153 0.0134 (  5314 PWs)   bands (ev):

   -65.6866 -64.6701 -64.2354 -64.1070 -32.6771 -32.6580 -32.6106 -31.6764
   -31.6345 -31.6162 -31.2338 -31.2097 -31.1940 -31.0966 -31.0831 -31.0728
   -29.8204 -29.7351 -28.7184 -28.2565 -11.6305 -11.3493 -11.3231 -11.2823
   -10.9336 -10.7588 -10.7094 -10.5124 -10.4439 -10.0604  -9.9115  -9.7562
    -7.9082  -7.7488  -7.4395  -7.3313  -7.1551  -6.6967  -6.4853  -6.4710
     4.0856   4.6145   4.6193   5.2246   5.4235   5.4817   5.5898   5.7252
     5.8171   5.8778   5.9636   6.1262   6.2212   6.3574   6.6052   6.7579
     6.8940   7.1063   7.1570   7.3607   7.4677   7.5447   7.7391   7.9711

     occupation numbers 
     1.0000   1.0000   1.0000   1.0000   1.0000   1.0000   1.0000   1.0000
     1.0000   1.0000   1.0000   1.0000   1.0000   1.0000   1.0000   1.0000
     1.0000   1.0000   1.0000   1.0000   1.0000   1.0000   1.0000   1.0000
     1.0000   1.0000   1.0000   1.0000   1.0000   1.0000   1.0000   1.0000
     1.0000   1.0000   1.0000   1.0000   1.0000   1.0000   1.0000   1.0000
     1.0000   1.0000   1.0000   1.0000   1.0000   1.0000   1.0000   1.0000
     1.0000   1.0000   1.0000   1.0000   1.0000   1.0000   1.0000   1.0000
     1.0000   1.0000   1.0000   1.0000   1.0000   1.0000   1.0000   1.0000

          k = 0.5313-0.5248-0.1766 (  5305 PWs)   bands (ev):

   -65.6866 -64.6701 -64.2354 -64.1070 -32.6770 -32.6581 -32.6107 -31.6763
   -31.6346 -31.6164 -31.2337 -31.2094 -31.1928 -31.0967 -31.0832 -31.0737
   -29.7981 -29.7599 -28.7169 -28.2553 -11.4569 -11.3865 -11.3276 -11.2504
   -11.1756 -11.1132 -10.6223 -10.3594 -10.1987 -10.0943  -9.9265  -9.7341
    -7.8572  -7.6115  -7.5222  -7.3098  -7.2207  -6.6929  -6.5694  -6.4839
     4.2266   4.5203   4.7153   4.8112   5.2102   5.3845   5.5204   5.6908
     5.8988   5.9922   6.1724   6.2579   6.4186   6.5495   6.6614   6.8231
     6.8813   7.0431   7.1196   7.2583   7.4393   7.5428   7.6746   8.0139

     occupation numbers 
     1.0000   1.0000   1.0000   1.0000   1.0000   1.0000   1.0000   1.0000
     1.0000   1.0000   1.0000   1.0000   1.0000   1.0000   1.0000   1.0000
     1.0000   1.0000   1.0000   1.0000   1.0000   1.0000   1.0000   1.0000
     1.0000   1.0000   1.0000   1.0000   1.0000   1.0000   1.0000   1.0000
     1.0000   1.0000   1.0000   1.0000   1.0000   1.0000   1.0000   1.0000
     1.0000   1.0000   1.0000   1.0000   1.0000   1.0000   1.0000   1.0000
     1.0000   1.0000   1.0000   1.0000   1.0000   1.0000   1.0000   1.0000
     1.0000   1.0000   1.0000   1.0000   1.0000   1.0000   1.0000   1.0000

          k = 0.7151-0.3399-0.3631 (  5324 PWs)   bands (ev):

   -65.6866 -64.6701 -64.2354 -64.1070 -32.6770 -32.6581 -32.6106 -31.6764
   -31.6347 -31.6164 -31.2338 -31.2094 -31.1934 -31.0966 -31.0829 -31.0732
   -29.8125 -29.7456 -28.7159 -28.2561 -11.5881 -11.4343 -11.3839 -11.3286
   -11.0267 -10.9116 -10.5175 -10.3943 -10.2070 -10.0920 -10.0050  -9.7406
    -7.9636  -7.6784  -7.4243  -7.1784  -7.0814  -6.8214  -6.6937  -6.4387
     3.9325   4.5120   4.6769   4.9194   5.1395   5.2253   5.5347   5.6384
     5.9742   6.1791   6.2851   6.3897   6.5007   6.5885   6.6701   6.7754
     6.8648   7.0862   7.2090   7.2829   7.4277   7.5801   7.7693   7.9255

     occupation numbers 
     1.0000   1.0000   1.0000   1.0000   1.0000   1.0000   1.0000   1.0000
     1.0000   1.0000   1.0000   1.0000   1.0000   1.0000   1.0000   1.0000
     1.0000   1.0000   1.0000   1.0000   1.0000   1.0000   1.0000   1.0000
     1.0000   1.0000   1.0000   1.0000   1.0000   1.0000   1.0000   1.0000
     1.0000   1.0000   1.0000   1.0000   1.0000   1.0000   1.0000   1.0000
     1.0000   1.0000   1.0000   1.0000   1.0000   1.0000   1.0000   1.0000
     1.0000   1.0000   1.0000   1.0000   1.0000   1.0000   1.0000   1.0000
     1.0000   1.0000   1.0000   1.0000   1.0000   1.0000   1.0000   1.0000

          k = 0.1637-0.8947 0.1964 (  5309 PWs)   bands (ev):

   -65.6866 -64.6701 -64.2354 -64.1070 -32.6770 -32.6580 -32.6106 -31.6765
   -31.6346 -31.6163 -31.2338 -31.2096 -31.1939 -31.0966 -31.0830 -31.0728
   -29.8213 -29.7352 -28.7169 -28.2567 -11.6553 -11.4021 -11.3642 -11.3350
   -10.9394 -10.7596 -10.6146 -10.4148 -10.3097 -10.0956  -9.9570  -9.8248
    -7.9098  -7.6748  -7.4308  -7.2497  -7.1423  -6.7509  -6.5886  -6.4931
     4.0261   4.5921   4.6951   4.9857   5.1851   5.3032   5.5475   5.7910
     5.9424   5.9984   6.0856   6.2316   6.3701   6.5508   6.6450   6.8131
     6.8728   7.1202   7.1950   7.3380   7.4628   7.5515   7.6472   7.9150

     occupation numbers 
     1.0000   1.0000   1.0000   1.0000   1.0000   1.0000   1.0000   1.0000
     1.0000   1.0000   1.0000   1.0000   1.0000   1.0000   1.0000   1.0000
     1.0000   1.0000   1.0000   1.0000   1.0000   1.0000   1.0000   1.0000
     1.0000   1.0000   1.0000   1.0000   1.0000   1.0000   1.0000   1.0000
     1.0000   1.0000   1.0000   1.0000   1.0000   1.0000   1.0000   1.0000
     1.0000   1.0000   1.0000   1.0000   1.0000   1.0000   1.0000   1.0000
     1.0000   1.0000   1.0000   1.0000   1.0000   1.0000   1.0000   1.0000
     1.0000   1.0000   1.0000   1.0000   1.0000   1.0000   1.0000   1.0000

          k = 0.3475-0.7098 0.0099 (  5320 PWs)   bands (ev):

   -65.6866 -64.6701 -64.2354 -64.1070 -32.6771 -32.6581 -32.6107 -31.6764
   -31.6345 -31.6163 -31.2338 -31.2096 -31.1934 -31.0967 -31.0832 -31.0732
   -29.8114 -29.7450 -28.7179 -28.2558 -11.5356 -11.4030 -11.3250 -11.2886
   -11.0288 -10.9209 -10.7104 -10.3906 -10.3019 -10.0588  -9.8940  -9.8303
    -7.8105  -7.6170  -7.4720  -7.3883  -7.2519  -6.6564  -6.5668  -6.4650
     4.3349   4.5985   4.8061   4.9228   5.2146   5.4154   5.5203   5.6526
     5.7686   5.9715   6.0475   6.2042   6.3758   6.5319   6.6334   6.7405
     6.8680   7.0253   7.1664   7.2411   7.3892   7.5641   7.6941   7.9088

     occupation numbers 
     1.0000   1.0000   1.0000   1.0000   1.0000   1.0000   1.0000   1.0000
     1.0000   1.0000   1.0000   1.0000   1.0000   1.0000   1.0000   1.0000
     1.0000   1.0000   1.0000   1.0000   1.0000   1.0000   1.0000   1.0000
     1.0000   1.0000   1.0000   1.0000   1.0000   1.0000   1.0000   1.0000
     1.0000   1.0000   1.0000   1.0000   1.0000   1.0000   1.0000   1.0000
     1.0000   1.0000   1.0000   1.0000   1.0000   1.0000   1.0000   1.0000
     1.0000   1.0000   1.0000   1.0000   1.0000   1.0000   1.0000   1.0000
     1.0000   1.0000   1.0000   1.0000   1.0000   1.0000   1.0000   1.0000

          k = 0.0069 0.0134-0.7258 (  5310 PWs)   bands (ev):

   -65.6866 -64.6701 -64.2354 -64.1070 -32.6771 -32.6581 -32.6107 -31.6763
   -31.6346 -31.6164 -31.2338 -31.2095 -31.1928 -31.0968 -31.0833 -31.0737
   -29.7982 -29.7591 -28.7174 -28.2551 -11.4807 -11.3753 -11.3074 -11.2466
   -11.1735 -11.1062 -10.7123 -10.3329 -10.2230 -10.0500  -9.8722  -9.6987
    -7.9459  -7.5680  -7.5596  -7.4257  -7.3116  -6.6109  -6.4655  -6.4350
     4.3993   4.5783   4.7202   4.8666   5.2453   5.2820   5.4729   5.6041
     5.9512   6.0679   6.2017   6.3066   6.3621   6.4023   6.5165   6.6914
     6.7728   6.9213   7.1573   7.2636   7.4419   7.5393   7.7590   8.0896

     occupation numbers 
     1.0000   1.0000   1.0000   1.0000   1.0000   1.0000   1.0000   1.0000
     1.0000   1.0000   1.0000   1.0000   1.0000   1.0000   1.0000   1.0000
     1.0000   1.0000   1.0000   1.0000   1.0000   1.0000   1.0000   1.0000
     1.0000   1.0000   1.0000   1.0000   1.0000   1.0000   1.0000   1.0000
     1.0000   1.0000   1.0000   1.0000   1.0000   1.0000   1.0000   1.0000
     1.0000   1.0000   1.0000   1.0000   1.0000   1.0000   1.0000   1.0000
     1.0000   1.0000   1.0000   1.0000   1.0000   1.0000   1.0000   1.0000
     1.0000   1.0000   1.0000   1.0000   1.0000   1.0000   1.0000   1.0000

          k = 0.1907 0.1983-0.9123 (  5317 PWs)   bands (ev):

   -65.6866 -64.6701 -64.2354 -64.1070 -32.6770 -32.6580 -32.6107 -31.6764
   -31.6346 -31.6164 -31.2338 -31.2095 -31.1933 -31.0967 -31.0831 -31.0732
   -29.8124 -29.7449 -28.7164 -28.2560 -11.5781 -11.4434 -11.3588 -11.3493
   -11.0204 -10.9100 -10.6151 -10.3157 -10.1906 -10.0944  -9.9475  -9.8057
    -7.8629  -7.7016  -7.4663  -7.2876  -7.2177  -6.6923  -6.5760  -6.4753
     4.1589   4.5598   4.7317   4.8656   5.1188   5.2914   5.5119   5.6950
     5.8878   6.1013   6.1688   6.3047   6.4296   6.6123   6.6356   6.7848
     6.8577   6.9812   7.2042   7.2932   7.4755   7.5045   7.7211   7.9060

     occupation numbers 
     1.0000   1.0000   1.0000   1.0000   1.0000   1.0000   1.0000   1.0000
     1.0000   1.0000   1.0000   1.0000   1.0000   1.0000   1.0000   1.0000
     1.0000   1.0000   1.0000   1.0000   1.0000   1.0000   1.0000   1.0000
     1.0000   1.0000   1.0000   1.0000   1.0000   1.0000   1.0000   1.0000
     1.0000   1.0000   1.0000   1.0000   1.0000   1.0000   1.0000   1.0000
     1.0000   1.0000   1.0000   1.0000   1.0000   1.0000   1.0000   1.0000
     1.0000   1.0000   1.0000   1.0000   1.0000   1.0000   1.0000   1.0000
     1.0000   1.0000   1.0000   1.0000   1.0000   1.0000   1.0000   1.0000

          k =-0.3606-0.3565-0.3528 (  5322 PWs)   bands (ev):

   -65.6866 -64.6701 -64.2354 -64.1070 -32.6769 -32.6580 -32.6106 -31.6765
   -31.6346 -31.6165 -31.2339 -31.2095 -31.1938 -31.0967 -31.0828 -31.0728
   -29.8222 -29.7352 -28.7154 -28.2569 -11.6887 -11.4347 -11.3993 -11.3775
   -10.9422 -10.7601 -10.5108 -10.3022 -10.1861 -10.1218 -10.0404  -9.9080
    -7.8588  -7.6679  -7.4359  -7.1355  -7.0742  -6.8287  -6.7164  -6.5277
     4.0054   4.5515   4.6453   4.8524   5.0219   5.2240   5.6341   5.8903
     5.9324   6.0873   6.2441   6.3376   6.3976   6.5193   6.7476   6.8072
     6.9583   7.1172   7.1431   7.3495   7.3916   7.5232   7.7395   7.9121

     occupation numbers 
     1.0000   1.0000   1.0000   1.0000   1.0000   1.0000   1.0000   1.0000
     1.0000   1.0000   1.0000   1.0000   1.0000   1.0000   1.0000   1.0000
     1.0000   1.0000   1.0000   1.0000   1.0000   1.0000   1.0000   1.0000
     1.0000   1.0000   1.0000   1.0000   1.0000   1.0000   1.0000   1.0000
     1.0000   1.0000   1.0000   1.0000   1.0000   1.0000   1.0000   1.0000
     1.0000   1.0000   1.0000   1.0000   1.0000   1.0000   1.0000   1.0000
     1.0000   1.0000   1.0000   1.0000   1.0000   1.0000   1.0000   1.0000
     1.0000   1.0000   1.0000   1.0000   1.0000   1.0000   1.0000   1.0000

     highest occupied level (ev):     8.1719

!    total energy              =   -1059.61446864 Ry
     Harris-Foulkes estimate   =   -1059.61446864 Ry
     estimated scf accuracy    <          4.1E-11 Ry

     The total energy is the sum of the following terms:

     one-electron contribution =    -475.72717777 Ry
     hartree contribution      =     288.20430344 Ry
     xc contribution           =    -173.05855117 Ry
     ewald contribution        =    -699.03304314 Ry

     convergence has been achieved in  20 iterations

     Forces acting on atoms (Ry/au):

     atom    1 type  2   force =  -0.12630272E-01  0.29340889E-01 -0.39894552E-01
     atom    2 type  3   force =  -0.32799206E-01 -0.58428823E-01  0.59693236E-02
     atom    3 type  1   force =  -0.75086007E-02  0.35362321E-01  0.38241670E-03
     atom    4 type  3   force =  -0.30858994E-02  0.30148197E-01 -0.49979494E-02
     atom    5 type  1   force =   0.67150141E-01  0.11303196E-01  0.73387370E-01
     atom    6 type  3   force =   0.63791941E-02  0.14572052E-01  0.52355538E-01
     atom    7 type  2   force =   0.51988234E-01 -0.56793173E-01 -0.16072769E-03
     atom    8 type  3   force =  -0.37528201E-01 -0.10826567E-01 -0.10531963E+00
     atom    9 type  1   force =  -0.16055464E-01  0.58065799E-01 -0.89093512E-02
     atom   10 type  3   force =   0.21317296E-01  0.30524656E-01  0.76200660E-02
     atom   11 type  1   force =  -0.55409860E-01  0.40807001E-01 -0.52364850E-01
     atom   12 type  3   force =  -0.25494079E-01 -0.62608278E-01  0.15420239E-01
     atom   13 type  2   force =   0.14562678E-02 -0.39021607E-01 -0.16098491E-01
     atom   14 type  3   force =   0.11402448E-01 -0.22024792E-01 -0.40879734E-01
     atom   15 type  2   force =  -0.60972165E-02 -0.61436393E-02  0.40061107E-01
     atom   16 type  3   force =   0.36915218E-01  0.57227676E-02  0.73429222E-01
     The non-local contrib.  to forces
     atom    1 type  2   force =   0.20407839E+00  0.23041213E+00  0.28182379E+00
     atom    2 type  3   force =   0.31554124E-01 -0.81772646E-01  0.31125408E-01
     atom    3 type  1   force =   0.45338751E-02  0.70529234E-02 -0.13370857E-01
     atom    4 type  3   force =   0.44110989E-01  0.64000136E-01  0.54533051E-01
     atom    5 type  1   force =  -0.55861809E-02  0.35187848E-01  0.64497191E-01
     atom    6 type  3   force =   0.22423926E-01  0.13071482E+00  0.12965959E+00
     atom    7 type  2   force =   0.10965279E+00  0.12509401E-01 -0.18316245E+00
     atom    8 type  3   force =  -0.88602397E-01 -0.63505362E-01 -0.24870699E+00
     atom    9 type  1   force =  -0.21043304E-01  0.93388819E-02 -0.14631464E-01
     atom   10 type  3   force =   0.57298735E-01  0.37659828E-01  0.30387540E-01
     atom   11 type  1   force =  -0.50393979E-02  0.26860282E-01  0.11015063E-01
     atom   12 type  3   force =  -0.92244641E-01 -0.47372038E-01  0.41755419E-01
     atom   13 type  2   force =   0.95231562E-01 -0.97327872E-01 -0.33667183E+00
     atom   14 type  3   force =   0.10220876E-01 -0.64192721E-01 -0.57964146E-01
     atom   15 type  2   force =  -0.10563061E+00  0.20793482E+00  0.13791089E+00
     atom   16 type  3   force =   0.14433662E+00  0.11549727E+00  0.57112620E-01
     The ionic contribution  to forces
     atom    1 type  2   force =   0.25366615E+00  0.27287566E+01 -0.44216851E+00
     atom    2 type  3   force =  -0.28896917E+01 -0.21240354E+01 -0.10651647E+01
     atom    3 type  1   force =   0.17395756E+00  0.16892705E+00 -0.94422069E+00
     atom    4 type  3   force =   0.16501014E+00  0.26711515E+01 -0.38593264E+00
     atom    5 type  1   force =   0.24388640E+01  0.16895901E+01  0.30314538E+01
     atom    6 type  3   force =   0.14616480E+01 -0.98249538E+00  0.25735347E+01
     atom    7 type  2   force =   0.14508031E+01 -0.37968217E+01 -0.19153241E+01
     atom    8 type  3   force =  -0.14149539E+01 -0.40800483E+00 -0.17523866E+01
     atom    9 type  1   force =  -0.10178194E+01  0.16368366E+01 -0.59167651E+00
     atom   10 type  3   force =   0.96273652E+00  0.28622985E+01  0.33027624E+00
     atom   11 type  1   force =  -0.24174925E+01  0.24275768E+01 -0.73297375E+00
     atom   12 type  3   force =  -0.15193121E+01 -0.35433407E+01 -0.11700785E+01
     atom   13 type  2   force =   0.68058565E+00 -0.33975831E+01 -0.17566888E+01
     atom   14 type  3   force =   0.92782128E-01 -0.13571429E+01 -0.25542986E+01
     atom   15 type  2   force =   0.16037916E+00  0.26381870E+01  0.40519274E+01
     atom   16 type  3   force =   0.14188372E+01 -0.12139002E+01  0.33237213E+01
     The local contribution  to forces
     atom    1 type  2   force =  -0.47037471E+00 -0.29298269E+01  0.12045073E+00
     atom    2 type  3   force =   0.28252416E+01  0.21460966E+01  0.10404826E+01
     atom    3 type  1   force =  -0.18629172E+00 -0.13983082E+00  0.95854114E+00
     atom    4 type  3   force =  -0.21218685E+00 -0.27045440E+01  0.32646893E+00
     atom    5 type  1   force =  -0.23646794E+01 -0.17139653E+01 -0.30226395E+01
     atom    6 type  3   force =  -0.14776645E+01  0.86703169E+00 -0.26495845E+01
     atom    7 type  2   force =  -0.15084695E+01  0.37275181E+01  0.20983249E+01
     atom    8 type  3   force =   0.14650806E+01  0.46039162E+00  0.18929704E+01
     atom    9 type  1   force =   0.10229298E+01 -0.15869702E+01  0.59777110E+00
     atom   10 type  3   force =  -0.99813740E+00 -0.28690636E+01 -0.35281982E+00
     atom   11 type  1   force =   0.23663589E+01 -0.24134550E+01  0.66811095E+00
     atom   12 type  3   force =   0.15854734E+01  0.35268257E+01  0.11444686E+01
     atom   13 type  2   force =  -0.77436039E+00  0.34558876E+01  0.20772619E+01
     atom   14 type  3   force =  -0.91218919E-01  0.13987584E+01  0.25702771E+01
     atom   15 type  2   force =  -0.60845002E-01 -0.28522632E+01 -0.41497767E+01
     atom   16 type  3   force =  -0.15252967E+01  0.11045235E+01 -0.33062963E+01
     The core correction contribution to forces
     atom    1 type  2   force =   0.00000000E+00  0.00000000E+00  0.00000000E+00
     atom    2 type  3   force =   0.93695459E-04  0.12821742E-02 -0.47556468E-03
     atom    3 type  1   force =   0.29184597E-03 -0.78737776E-03 -0.56927758E-03
     atom    4 type  3   force =  -0.19704086E-04 -0.45542329E-03 -0.68421613E-04
     atom    5 type  1   force =  -0.14484556E-02  0.49161019E-03  0.76788668E-04
     atom    6 type  3   force =  -0.26876283E-04 -0.67994117E-03 -0.12523957E-02
     atom    7 type  2   force =   0.00000000E+00  0.00000000E+00  0.00000000E+00
     atom    8 type  3   force =   0.94777789E-03  0.29304976E-03  0.28033536E-02
     atom    9 type  1   force =  -0.12267559E-03 -0.11389664E-02 -0.37281170E-03
     atom   10 type  3   force =  -0.58049995E-03 -0.36662698E-03 -0.22425030E-03
     atom   11 type  1   force =   0.76358072E-03 -0.17271649E-03  0.14829661E-02
     atom   12 type  3   force =   0.58855141E-03  0.12779860E-02 -0.72758560E-03
     atom   13 type  2   force =   0.00000000E+00  0.00000000E+00  0.00000000E+00
     atom   14 type  3   force =  -0.38143893E-03  0.55311950E-03  0.11049702E-02
     atom   15 type  2   force =   0.00000000E+00  0.00000000E+00  0.00000000E+00
     atom   16 type  3   force =  -0.95874268E-03 -0.39773756E-03 -0.11063460E-02
     The Hubbard contrib.    to forces
     atom    1 type  2   force =   0.00000000E+00  0.00000000E+00  0.00000000E+00
     atom    2 type  3   force =   0.00000000E+00  0.00000000E+00  0.00000000E+00
     atom    3 type  1   force =   0.00000000E+00  0.00000000E+00  0.00000000E+00
     atom    4 type  3   force =   0.00000000E+00  0.00000000E+00  0.00000000E+00
     atom    5 type  1   force =   0.00000000E+00  0.00000000E+00  0.00000000E+00
     atom    6 type  3   force =   0.00000000E+00  0.00000000E+00  0.00000000E+00
     atom    7 type  2   force =   0.00000000E+00  0.00000000E+00  0.00000000E+00
     atom    8 type  3   force =   0.00000000E+00  0.00000000E+00  0.00000000E+00
     atom    9 type  1   force =   0.00000000E+00  0.00000000E+00  0.00000000E+00
     atom   10 type  3   force =   0.00000000E+00  0.00000000E+00  0.00000000E+00
     atom   11 type  1   force =   0.00000000E+00  0.00000000E+00  0.00000000E+00
     atom   12 type  3   force =   0.00000000E+00  0.00000000E+00  0.00000000E+00
     atom   13 type  2   force =   0.00000000E+00  0.00000000E+00  0.00000000E+00
     atom   14 type  3   force =   0.00000000E+00  0.00000000E+00  0.00000000E+00
     atom   15 type  2   force =   0.00000000E+00  0.00000000E+00  0.00000000E+00
     atom   16 type  3   force =   0.00000000E+00  0.00000000E+00  0.00000000E+00
     The SCF correction term to forces
     atom    1 type  2   force =   0.20539336E-07 -0.33414323E-06 -0.77763474E-06
     atom    2 type  3   force =   0.32113141E-05  0.11185657E-05  0.12682587E-05
     atom    3 type  1   force =  -0.39075079E-07  0.11409009E-05  0.18823180E-05
     atom    4 type  3   force =  -0.34965548E-06 -0.34735997E-05  0.91042695E-06
     atom    5 type  1   force =   0.35135362E-06 -0.48735026E-06 -0.11180073E-05
     atom    6 type  3   force =  -0.11724013E-05  0.14620897E-05 -0.20737538E-05
     atom    7 type  2   force =   0.19754961E-05  0.15764157E-05  0.71054288E-06
     atom    8 type  3   force =  -0.10779565E-06 -0.44404054E-06 -0.35351313E-07
     atom    9 type  1   force =   0.18335732E-06  0.98647247E-07  0.12447588E-06
     atom   10 type  3   force =   0.67683893E-07 -0.28879440E-05  0.14004090E-06
     atom   11 type  1   force =  -0.31693556E-06 -0.17661252E-05 -0.29465855E-06
     atom   12 type  3   force =   0.74260298E-06  0.13945871E-05  0.21005126E-05
     atom   13 type  2   force =  -0.42760384E-06  0.23841138E-05  0.10429986E-07
     atom   14 type  3   force =  -0.74540704E-07 -0.50957294E-07  0.74053425E-06
     atom   15 type  2   force =  -0.63466699E-06 -0.16692549E-05 -0.71868168E-06
     atom   16 type  3   force =  -0.30398959E-05  0.59954124E-06 -0.22750740E-05

     Total force =     0.266319     Total SCF correction =     0.000010


     entering subroutine stress ...

          total   stress  (Ry/bohr**3)                   (kbar)     P=   47.12
   0.0000434689   0.0001212093  -0.0001640179          6.39     17.83    -24.13
   0.0001212093   0.0002849343  -0.0002185898         17.83     41.92    -32.16
  -0.0001640179  -0.0002185898   0.0006325871        -24.13    -32.16     93.06

     kinetic stress (kbar)  21023.48     17.10     -7.34
                               17.10  21052.99    -22.89
                               -7.34    -22.89  21112.77

     local   stress (kbar)  -2815.71    821.31    581.75
                              821.31  -3101.53    121.74
                              581.75    121.74  -5338.73

     nonloc. stress (kbar)   5315.01     -2.53      1.27
                               -2.53   5313.24     -1.17
                                1.27     -1.17   5312.55

     hartree stress (kbar)  11039.72   -386.30   -320.57
                             -386.30  11111.93   -130.89
                             -320.57   -130.89  11904.52

     exc-cor stress (kbar)  -5338.36     -0.34      0.25
                               -0.34  -5338.19      0.55
                                0.25      0.55  -5336.22

     corecor stress (kbar)  -1057.76     -0.04      0.01
                               -0.04  -1057.82      0.06
                                0.01      0.06  -1058.04

     ewald   stress (kbar) -28159.99   -431.36   -279.50
                             -431.36 -27938.71      0.45
                             -279.50      0.45 -26503.80

     hubbard stress (kbar)      0.00      0.00      0.00
                                0.00      0.00      0.00
                                0.00      0.00      0.00

     london  stress (kbar)      0.00      0.00      0.00
                                0.00      0.00      0.00
                                0.00      0.00      0.00

     XDM     stress (kbar)      0.00      0.00      0.00
                                0.00      0.00      0.00
                                0.00      0.00      0.00

     dft-nl  stress (kbar)      0.00      0.00      0.00
                                0.00      0.00      0.00
                                0.00      0.00      0.00



     Writing output data file mix.dummy2463.save

     init_run     :     15.80s CPU     16.45s WALL (       1 calls)
     electrons    :    748.36s CPU    797.58s WALL (       1 calls)
     forces       :      6.71s CPU      6.75s WALL (       1 calls)
     stress       :     14.52s CPU     14.64s WALL (       1 calls)

     Called by init_run:
     wfcinit      :     13.70s CPU     14.34s WALL (       1 calls)
     potinit      :      0.60s CPU      0.60s WALL (       1 calls)

     Called by electrons:
     c_bands      :    654.93s CPU    699.18s WALL (      20 calls)
     sum_band     :     85.09s CPU     90.03s WALL (      20 calls)
     v_of_rho     :      1.00s CPU      0.99s WALL (      21 calls)
     v_h          :      0.07s CPU      0.06s WALL (      21 calls)
     v_xc         :      1.01s CPU      1.02s WALL (      23 calls)
     newd         :      5.80s CPU      5.79s WALL (      21 calls)
     mix_rho      :      1.61s CPU      1.61s WALL (      20 calls)

     Called by c_bands:
     init_us_2    :      3.27s CPU      3.44s WALL (    1548 calls)
     cegterg      :    628.13s CPU    670.74s WALL (     720 calls)

     Called by sum_band:
     sum_band:bec :      1.04s CPU      1.01s WALL (     720 calls)
     addusdens    :      5.65s CPU      5.67s WALL (      20 calls)

     Called by *egterg:
     h_psi        :    325.61s CPU    336.60s WALL (    2162 calls)
     s_psi        :     31.18s CPU     30.38s WALL (    2162 calls)
     g_psi        :      0.42s CPU      0.37s WALL (    1406 calls)
     cdiaghg      :     87.53s CPU     96.75s WALL (    2126 calls)
     cegterg:over :     93.93s CPU    103.74s WALL (    1406 calls)
     cegterg:upda :     11.62s CPU     14.33s WALL (    1406 calls)
     cegterg:last :      7.42s CPU      7.71s WALL (     720 calls)

     Called by h_psi:
     h_psi:vloc   :    207.35s CPU    209.77s WALL (    2162 calls)
     h_psi:vnl    :    117.78s CPU    126.32s WALL (    2162 calls)
     add_vuspsi   :     31.59s CPU     32.41s WALL (    2162 calls)

     General routines
     calbec       :    122.95s CPU    134.99s WALL (    2954 calls)
     fft          :      2.82s CPU      2.81s WALL (     357 calls)
     ffts         :      0.91s CPU      0.92s WALL (     536 calls)
     fftw         :    237.34s CPU    239.79s WALL (  268930 calls)
     interpolate  :      0.21s CPU      0.20s WALL (      41 calls)

     Parallel routines
     fft_scatter  :    120.43s CPU    122.89s WALL (  269823 calls)

     PWSCF        : 13m 8.01s CPU    13m59.00s WALL


   This run was terminated on:  15:30:31  16Nov2017            

=------------------------------------------------------------------------------=
   JOB DONE.
=------------------------------------------------------------------------------=
