
     Program PWSCF v.5.1 starts on  8Dec2017 at  5:27:57 

     This program is part of the open-source Quantum ESPRESSO suite
     for quantum simulation of materials; please cite
         "P. Giannozzi et al., J. Phys.:Condens. Matter 21 395502 (2009);
          URL http://www.quantum-espresso.org", 
     in publications or presentations arising from this work. More details at
     http://www.quantum-espresso.org/quote

     Parallel version (MPI), running on    16 processors
     R & G space division:  proc/nbgrp/npool/nimage =      16
     Waiting for input...
     Reading input from standard input
Warning: card &IONS ignored
Warning: card   ION_DYNAMICS='BFGS', ignored
Warning: card / ignored
Warning: card &CELL ignored
Warning: card  CELL_DYNAMICS = 'BFGS' ignored
Warning: card / ignored

     Current dimensions of program PWSCF are:
     Max number of different atomic species (ntypx) = 10
     Max number of k-points (npk) =  40000
     Max angular momentum in pseudopotentials (lmaxx) =  3
 kfg - two_fermi_energies  F

     Subspace diagonalization in iterative solution of the eigenvalue problem:
     a serial algorithm will be used


     Parallelization info
     --------------------
     sticks:   dense  smooth     PW     G-vecs:    dense   smooth      PW
     Min         124      99     28                 3664     2614     410
     Max         125     100     29                 3668     2627     413
     Sum        1995    1595    459                58653    41939    6585



     bravais-lattice index     =            0
     lattice parameter (alat)  =    12.424829675  a.u.
     unit-cell volume          =    1228.2038 (a.u.)^3
     number of atoms/cell      =           16
     number of atomic types    =            3
     number of electrons       =       128.00
     number of Kohn-Sham states=           64
     kinetic-energy cutoff     =      40.0000  Ry
     charge density cutoff     =     200.0000  Ry
     convergence threshold     =      1.0E-10
     mixing beta               =       0.3000
     number of iterations used =            8  local-TF  mixing
     Exchange-correlation      = SLA  PW   PSX  PSC ( 1  4 10  8 0)
     A smooth kinetic-energy cutoff is imposed at      39.5000 Ry
     height of the smooth step-function =             800.0000 Ry
     width of the smooth step-function  =               1.0000 Ry


     celldm(1)=  12.424830  celldm(2)=   0.000000  celldm(3)=   0.000000
     celldm(4)=   0.000000  celldm(5)=   0.000000  celldm(6)=   0.000000

     crystal axes: (cart. coord. in units of alat)
               a(1) = (  -0.016415651946   0.684461716283   0.728863969006 )  
               a(2) = (   0.646343703931   0.001589263079   0.710859053981 )  
               a(3) = (   0.650278210713   0.670391308039  -0.002345243703 )  

     reciprocal axes: (cart. coord. in units 2 pi/alat)
               b(1) = ( -0.744245  0.724278  0.675081 )  
               b(2) = (  0.765597 -0.740136  0.712290 )  
               b(3) = (  0.758051  0.753941 -0.690938 )  


     PseudoPot. # 1 for Ca read from file:
     /users/kfg/psuedo/gbrv_1.5/ca.pbesol.UPF
     MD5 check sum: 0533207b58cddeaa036efa5b63902087
     Pseudo is Ultrasoft + core correction, Zval = 10.0
     Generated by new atomic code, or converted to UPF format
     Using radial grid of  845 points,  6 beta functions with: 
                l(1) =   0
                l(2) =   0
                l(3) =   1
                l(4) =   1
                l(5) =   2
                l(6) =   2
     Q(r) pseudized with  8 coefficients,  rinner =    1.500   1.500   1.500
                                                       1.500   1.500

     PseudoPot. # 2 for Mg read from file:
     /users/kfg/psuedo/gbrv_1.5/mg.pbesol.UPF
     MD5 check sum: 4059f37963cf5867752dbf5ab2400678
     Pseudo is Ultrasoft, Zval = 10.0
     Generated by new atomic code, or converted to UPF format
     Using radial grid of  821 points,  7 beta functions with: 
                l(1) =   0
                l(2) =   0
                l(3) =   0
                l(4) =   1
                l(5) =   1
                l(6) =   2
                l(7) =   2
     Q(r) pseudized with  8 coefficients,  rinner =    1.200   1.200   1.200
                                                       1.200   1.200

     PseudoPot. # 3 for O  read from file:
     /users/kfg/psuedo/gbrv_1.5/o.pbesol.UPF
     MD5 check sum: 501638753501ef6325af9037351f7734
     Pseudo is Ultrasoft + core correction, Zval =  6.0
     Generated by new atomic code, or converted to UPF format
     Using radial grid of  737 points,  5 beta functions with: 
                l(1) =   0
                l(2) =   0
                l(3) =   1
                l(4) =   1
                l(5) =   2
     Q(r) pseudized with  8 coefficients,  rinner =    0.900   0.900   0.900
                                                       0.900   0.900

     atomic species   valence    mass     pseudopotential
        Ca            10.00    40.07800     Ca( 1.00)
        Mg            10.00    40.07800     Mg( 1.00)
        O              6.00    15.99940     O ( 1.00)

     No symmetry found


                                    s                        frac. trans.

      isym =  1     identity                                     

 cryst.   s( 1) = (     1          0          0      )
                  (     0          1          0      )
                  (     0          0          1      )

 cart.    s( 1) = (  1.0000000 -0.0000000  0.0000000 )
                  (  0.0000000  1.0000000  0.0000000 )
                  ( -0.0000000 -0.0000000  1.0000000 )


     point group C_1 (1)    
     there are  1 classes
     the character table:

       E    
A      1.00

     the symmetry operations in each class:
     E        1

   Cartesian axes

     site n.     atom                  positions (alat units)
         1           Mg  tau(   1) = (    0.02153123959    0.01229157749   -0.00744501448  )
         2           O   tau(   2) = (    0.30385623559    0.34482664483    0.37074592993  )
         3           Ca  tau(   3) = (    0.32239210027    0.32243382785    0.00052452816  )
         4           O   tau(   4) = (    0.63663613628    0.70080394326    0.40415560034  )
         5           Ca  tau(   5) = (    0.33960535103   -0.02314739344    0.34833018792  )
         6           O   tau(   6) = (    0.61799074868    0.33657533587    0.69010549526  )
         7           Mg  tau(   7) = (    0.62914209510    0.32646731960    0.33423377122  )
         8           O   tau(   8) = (    1.00771025859    0.66914897710    0.72021542217  )
         9           Mg  tau(   9) = (   -0.01827064296    0.31598565858    0.35176089886  )
        10           O   tau(  10) = (    0.29883257206    0.67303543574    0.68697060829  )
        11           Mg  tau(  11) = (    0.32209071934    0.67087491183    0.33723490023  )
        12           O   tau(  12) = (    0.63798877702    1.04317410149    0.76805865931  )
        13           Mg  tau(  13) = (    0.31949130558    0.33665264669    0.71022188702  )
        14           O   tau(  14) = (    0.63858293708    0.69203640812    1.08564574289  )
        15           Ca  tau(  15) = (    0.64910814770    0.68906429466    0.74026296358  )
        16           O   tau(  16) = (    0.95454959524    1.02843003472    1.08324509500  )

   Crystallographic axes

     site n.     atom                  positions (cryst. coord.)
         1           Mg  tau(   1) = (   -0.01214799070    0.00208380899    0.03073294669  )
         2           O   tau(   2) = (    0.27389025014    0.24149139645    0.23415497621  )
         3           Ca  tau(   3) = (   -0.00605295308    0.00855124582    0.48712333888  )
         4           O   tau(   4) = (    0.30660115489    0.25659253931    0.73172099883  )
         5           Ca  tau(   5) = (   -0.03436386978    0.52524499512   -0.00068824374  )
         6           O   tau(   6) = (    0.24971433388    0.71557540034    0.24540621989  )
         7           Mg  tau(   7) = (   -0.00614817114    0.47811039402    0.49212401804  )
         8           O   tau(   8) = (    0.22086984427    0.78924083741    0.77077030519  )
         9           Mg  tau(   9) = (    0.47992637377    0.00269546227   -0.01866052640  )
        10           O   tau(  10) = (    0.72882074998    0.21996984740    0.25930518834  )
        11           Mg  tau(  11) = (    0.47384631565   -0.00973783135    0.51695289182  )
        12           O   tau(  12) = (    0.79922964601    0.26343215369    0.73943879841  )
        13           Mg  tau(  13) = (    0.48550735686    0.50131663443    0.00528754457  )
        14           O   tau(  14) = (    0.75886300060    0.74999054280    0.25571901362  )
        15           Ca  tau(  15) = (    0.51571575770    0.51423579986    0.50009500727  )
        16           O   tau(  16) = (    0.76572820095    0.74120677343    0.75051752237  )

     number of k points=    36
                       cart. coord. in units 2pi/alat
        k(    1) = (   0.0000000   0.0000000   0.0000000), wk =   0.0312500
        k(    2) = (   0.1895127   0.1884853  -0.1727345), wk =   0.0625000
        k(    3) = (  -0.3790255  -0.3769706   0.3454691), wk =   0.0312500
        k(    4) = (   0.1913992  -0.1850339   0.1780724), wk =   0.0625000
        k(    5) = (   0.3809120   0.0034514   0.0053379), wk =   0.0625000
        k(    6) = (  -0.1876262  -0.5620045   0.5235415), wk =   0.0625000
        k(    7) = (   0.0018865  -0.3735192   0.3508070), wk =   0.0625000
        k(    8) = (  -0.3827984   0.3700678  -0.3561448), wk =   0.0312500
        k(    9) = (  -0.1932857   0.5585531  -0.5288794), wk =   0.0625000
        k(   10) = (  -0.7618239  -0.0069028  -0.0106757), wk =   0.0312500
        k(   11) = (  -0.1860614   0.1810695   0.1687702), wk =   0.0625000
        k(   12) = (   0.0034514   0.3695548  -0.0039644), wk =   0.0625000
        k(   13) = (  -0.5650868  -0.1959010   0.5142393), wk =   0.0625000
        k(   14) = (  -0.3755741  -0.0074157   0.3415047), wk =   0.0625000
        k(   15) = (   0.0053379  -0.0039644   0.3468426), wk =   0.0625000
        k(   16) = (   0.1948506   0.1845209   0.1741081), wk =   0.0625000
        k(   17) = (  -0.3736876  -0.3809349   0.6923117), wk =   0.0625000
        k(   18) = (  -0.1841749  -0.1924496   0.5195771), wk =   0.0625000
        k(   19) = (  -0.5688598   0.5511374  -0.1873746), wk =   0.0625000
        k(   20) = (  -0.3793471   0.7396226  -0.3601092), wk =   0.0625000
        k(   21) = (  -0.9478853   0.1741668   0.1580945), wk =   0.0625000
        k(   22) = (  -0.7583725   0.3626521  -0.0146401), wk =   0.0625000
        k(   23) = (  -0.3774606   0.3661034  -0.0093022), wk =   0.0625000
        k(   24) = (  -0.1879478   0.5545887  -0.1820368), wk =   0.0625000
        k(   25) = (  -0.7564860  -0.0108671   0.3361669), wk =   0.0625000
        k(   26) = (  -0.5669733   0.1776182   0.1634323), wk =   0.0625000
        k(   27) = (   0.3721227  -0.3621391  -0.3375404), wk =   0.0312500
        k(   28) = (   0.5616354  -0.1736538  -0.5102749), wk =   0.0625000
        k(   29) = (  -0.0069028  -0.7391097   0.0079287), wk =   0.0312500
        k(   30) = (   0.5635219  -0.5471730  -0.1594680), wk =   0.0625000
        k(   31) = (   0.7530347  -0.3586877  -0.3322025), wk =   0.0625000
        k(   32) = (   0.1844965  -0.9241436   0.1860011), wk =   0.0625000
        k(   33) = (   0.3740092  -0.7356583   0.0132666), wk =   0.0625000
        k(   34) = (  -0.0106757   0.0079287  -0.6936852), wk =   0.0312500
        k(   35) = (   0.1788370   0.1964140  -0.8664197), wk =   0.0625000
        k(   36) = (  -0.3897012  -0.3690419  -0.3482161), wk =   0.0312500

                       cryst. coord.
        k(    1) = (   0.0000000   0.0000000   0.0000000), wk =   0.0312500
        k(    2) = (  -0.0000000   0.0000000   0.2500000), wk =   0.0625000
        k(    3) = (   0.0000000  -0.0000000  -0.5000000), wk =   0.0312500
        k(    4) = (   0.0000000   0.2500000  -0.0000000), wk =   0.0625000
        k(    5) = (  -0.0000000   0.2500000   0.2500000), wk =   0.0625000
        k(    6) = (  -0.0000000   0.2500000  -0.5000000), wk =   0.0625000
        k(    7) = (  -0.0000000   0.2500000  -0.2500000), wk =   0.0625000
        k(    8) = (   0.0000000  -0.5000000   0.0000000), wk =   0.0312500
        k(    9) = (   0.0000000  -0.5000000   0.2500000), wk =   0.0625000
        k(   10) = (   0.0000000  -0.5000000  -0.5000000), wk =   0.0312500
        k(   11) = (   0.2500000  -0.0000000  -0.0000000), wk =   0.0625000
        k(   12) = (   0.2500000  -0.0000000   0.2500000), wk =   0.0625000
        k(   13) = (   0.2500000  -0.0000000  -0.5000000), wk =   0.0625000
        k(   14) = (   0.2500000   0.0000000  -0.2500000), wk =   0.0625000
        k(   15) = (   0.2500000   0.2500000  -0.0000000), wk =   0.0625000
        k(   16) = (   0.2500000   0.2500000   0.2500000), wk =   0.0625000
        k(   17) = (   0.2500000   0.2500000  -0.5000000), wk =   0.0625000
        k(   18) = (   0.2500000   0.2500000  -0.2500000), wk =   0.0625000
        k(   19) = (   0.2500000  -0.5000000  -0.0000000), wk =   0.0625000
        k(   20) = (   0.2500000  -0.5000000   0.2500000), wk =   0.0625000
        k(   21) = (   0.2500000  -0.5000000  -0.5000000), wk =   0.0625000
        k(   22) = (   0.2500000  -0.5000000  -0.2500000), wk =   0.0625000
        k(   23) = (   0.2500000  -0.2500000   0.0000000), wk =   0.0625000
        k(   24) = (   0.2500000  -0.2500000   0.2500000), wk =   0.0625000
        k(   25) = (   0.2500000  -0.2500000  -0.5000000), wk =   0.0625000
        k(   26) = (   0.2500000  -0.2500000  -0.2500000), wk =   0.0625000
        k(   27) = (  -0.5000000   0.0000000   0.0000000), wk =   0.0312500
        k(   28) = (  -0.5000000   0.0000000   0.2500000), wk =   0.0625000
        k(   29) = (  -0.5000000   0.0000000  -0.5000000), wk =   0.0312500
        k(   30) = (  -0.5000000   0.2500000  -0.0000000), wk =   0.0625000
        k(   31) = (  -0.5000000   0.2500000   0.2500000), wk =   0.0625000
        k(   32) = (  -0.5000000   0.2500000  -0.5000000), wk =   0.0625000
        k(   33) = (  -0.5000000   0.2500000  -0.2500000), wk =   0.0625000
        k(   34) = (  -0.5000000  -0.5000000   0.0000000), wk =   0.0312500
        k(   35) = (  -0.5000000  -0.5000000   0.2500000), wk =   0.0625000
        k(   36) = (  -0.5000000  -0.5000000  -0.5000000), wk =   0.0312500

     Dense  grid:    58653 G-vectors     FFT dimensions: (  60,  54,  54)

     Smooth grid:    41939 G-vectors     FFT dimensions: (  54,  50,  48)

     Largest allocated arrays     est. size (Mb)     dimensions
        Kohn-Sham Wavefunctions         0.33 Mb     (     339,   64)
        NL pseudopotentials             1.31 Mb     (     339,  253)
        Each V/rho on FFT grid          0.20 Mb     (   12960)
        Each G-vector array             0.03 Mb     (    3667)
        G-vector shells                 0.03 Mb     (    3565)
     Largest temporary arrays     est. size (Mb)     dimensions
        Auxiliary wavefunctions         1.32 Mb     (     339,  256)
        Each subspace H/S matrix        1.00 Mb     (     256,  256)
        Each <psi_i|beta_j> matrix      0.25 Mb     (     253,   64)
        Arrays for rho mixing           1.58 Mb     (   12960,    8)

     Check: negative/imaginary core charge=   -0.000003    0.000000

     Initial potential from superposition of free atoms

     starting charge  126.48332, renormalised to  128.00000
     Starting wfc are   87 randomized atomic wfcs

     total cpu time spent up to now is       13.8 secs

     Self-consistent Calculation

     iteration #  1     ecut=    40.00 Ry     beta=0.30
     Davidson diagonalization with overlap
     ethr =  1.00E-02,  avg # of iterations =  2.0

     total cpu time spent up to now is       48.7 secs

     total energy              =   -1110.15961034 Ry
     Harris-Foulkes estimate   =   -1110.76566461 Ry
     estimated scf accuracy    <       3.12101267 Ry

     iteration #  2     ecut=    40.00 Ry     beta=0.30
     Davidson diagonalization with overlap
     ethr =  2.44E-03,  avg # of iterations =  1.3

     total cpu time spent up to now is       77.8 secs

     total energy              =   -1109.67476290 Ry
     Harris-Foulkes estimate   =   -1110.24965391 Ry
     estimated scf accuracy    <       1.37527121 Ry

     iteration #  3     ecut=    40.00 Ry     beta=0.30
     Davidson diagonalization with overlap
     ethr =  1.07E-03,  avg # of iterations =  2.0

     total cpu time spent up to now is      122.0 secs

     total energy              =   -1109.88533846 Ry
     Harris-Foulkes estimate   =   -1109.92872852 Ry
     estimated scf accuracy    <       0.17122107 Ry

     iteration #  4     ecut=    40.00 Ry     beta=0.30
     Davidson diagonalization with overlap
     ethr =  1.34E-04,  avg # of iterations =  2.0

     total cpu time spent up to now is      162.1 secs

     total energy              =   -1109.83956927 Ry
     Harris-Foulkes estimate   =   -1109.90014792 Ry
     estimated scf accuracy    <       0.10301417 Ry

     iteration #  5     ecut=    40.00 Ry     beta=0.30
     Davidson diagonalization with overlap
     ethr =  8.05E-05,  avg # of iterations =  2.0

     total cpu time spent up to now is      204.1 secs

     total energy              =   -1109.85409322 Ry
     Harris-Foulkes estimate   =   -1109.85512347 Ry
     estimated scf accuracy    <       0.01151834 Ry

     iteration #  6     ecut=    40.00 Ry     beta=0.30
     Davidson diagonalization with overlap
     ethr =  9.00E-06,  avg # of iterations =  1.0

     total cpu time spent up to now is      231.3 secs

     total energy              =   -1109.85176093 Ry
     Harris-Foulkes estimate   =   -1109.85431759 Ry
     estimated scf accuracy    <       0.00711055 Ry

     iteration #  7     ecut=    40.00 Ry     beta=0.30
     Davidson diagonalization with overlap
     ethr =  5.56E-06,  avg # of iterations =  2.0

     total cpu time spent up to now is      267.1 secs

     total energy              =   -1109.85208167 Ry
     Harris-Foulkes estimate   =   -1109.85240164 Ry
     estimated scf accuracy    <       0.00086088 Ry

     iteration #  8     ecut=    40.00 Ry     beta=0.30
     Davidson diagonalization with overlap
     ethr =  6.73E-07,  avg # of iterations =  2.1

     total cpu time spent up to now is      303.3 secs

     total energy              =   -1109.85218131 Ry
     Harris-Foulkes estimate   =   -1109.85223331 Ry
     estimated scf accuracy    <       0.00013494 Ry

     iteration #  9     ecut=    40.00 Ry     beta=0.30
     Davidson diagonalization with overlap
     ethr =  1.05E-07,  avg # of iterations =  2.2

     total cpu time spent up to now is      340.4 secs

     total energy              =   -1109.85219429 Ry
     Harris-Foulkes estimate   =   -1109.85220306 Ry
     estimated scf accuracy    <       0.00007257 Ry

     iteration # 10     ecut=    40.00 Ry     beta=0.30
     Davidson diagonalization with overlap
     ethr =  5.67E-08,  avg # of iterations =  1.0

     total cpu time spent up to now is      366.4 secs

     total energy              =   -1109.85217664 Ry
     Harris-Foulkes estimate   =   -1109.85219530 Ry
     estimated scf accuracy    <       0.00004735 Ry

     iteration # 11     ecut=    40.00 Ry     beta=0.30
     Davidson diagonalization with overlap
     ethr =  3.70E-08,  avg # of iterations =  2.0

     total cpu time spent up to now is      403.3 secs

     total energy              =   -1109.85218352 Ry
     Harris-Foulkes estimate   =   -1109.85218469 Ry
     estimated scf accuracy    <       0.00000406 Ry

     iteration # 12     ecut=    40.00 Ry     beta=0.30
     Davidson diagonalization with overlap
     ethr =  3.17E-09,  avg # of iterations =  3.0

     total cpu time spent up to now is      445.1 secs

     total energy              =   -1109.85218296 Ry
     Harris-Foulkes estimate   =   -1109.85218444 Ry
     estimated scf accuracy    <       0.00000291 Ry

     iteration # 13     ecut=    40.00 Ry     beta=0.30
     Davidson diagonalization with overlap
     ethr =  2.27E-09,  avg # of iterations =  2.0

     total cpu time spent up to now is      481.2 secs

     total energy              =   -1109.85218336 Ry
     Harris-Foulkes estimate   =   -1109.85218338 Ry
     estimated scf accuracy    <       0.00000013 Ry

     iteration # 14     ecut=    40.00 Ry     beta=0.30
     Davidson diagonalization with overlap
     ethr =  1.04E-10,  avg # of iterations =  2.3

     total cpu time spent up to now is      519.5 secs

     total energy              =   -1109.85218336 Ry
     Harris-Foulkes estimate   =   -1109.85218338 Ry
     estimated scf accuracy    <       0.00000007 Ry

     iteration # 15     ecut=    40.00 Ry     beta=0.30
     Davidson diagonalization with overlap
     ethr =  5.15E-11,  avg # of iterations =  2.0

     total cpu time spent up to now is      553.7 secs

     total energy              =   -1109.85218337 Ry
     Harris-Foulkes estimate   =   -1109.85218337 Ry
     estimated scf accuracy    <          9.6E-09 Ry

     iteration # 16     ecut=    40.00 Ry     beta=0.30
     Davidson diagonalization with overlap
     ethr =  7.50E-12,  avg # of iterations =  1.0

     total cpu time spent up to now is      581.5 secs

     total energy              =   -1109.85218337 Ry
     Harris-Foulkes estimate   =   -1109.85218337 Ry
     estimated scf accuracy    <          4.5E-09 Ry

     iteration # 17     ecut=    40.00 Ry     beta=0.30
     Davidson diagonalization with overlap
     ethr =  3.51E-12,  avg # of iterations =  2.0

     total cpu time spent up to now is      615.7 secs

     total energy              =   -1109.85218337 Ry
     Harris-Foulkes estimate   =   -1109.85218337 Ry
     estimated scf accuracy    <          1.2E-09 Ry

     iteration # 18     ecut=    40.00 Ry     beta=0.30
     Davidson diagonalization with overlap
     ethr =  9.31E-13,  avg # of iterations =  1.8

     total cpu time spent up to now is      645.9 secs

     total energy              =   -1109.85218337 Ry
     Harris-Foulkes estimate   =   -1109.85218337 Ry
     estimated scf accuracy    <          4.9E-10 Ry

     iteration # 19     ecut=    40.00 Ry     beta=0.30
     Davidson diagonalization with overlap
     ethr =  3.87E-13,  avg # of iterations =  2.0

     total cpu time spent up to now is      680.7 secs

     total energy              =   -1109.85218337 Ry
     Harris-Foulkes estimate   =   -1109.85218337 Ry
     estimated scf accuracy    <          1.4E-10 Ry

     iteration # 20     ecut=    40.00 Ry     beta=0.30
     Davidson diagonalization with overlap
     ethr =  1.07E-13,  avg # of iterations =  2.0

     total cpu time spent up to now is      717.4 secs

     End of self-consistent calculation

          k = 0.0000 0.0000 0.0000 (  5243 PWs)   bands (ev):

   -65.5306 -65.2080 -65.0830 -65.0787 -64.8131 -32.5547 -32.4846 -32.4658
   -32.2126 -32.1801 -32.1518 -32.0899 -32.0654 -32.0557 -32.0490 -32.0259
   -32.0106 -31.8493 -31.7825 -31.7376 -29.6204 -29.4592 -29.2599 -11.7367
   -11.5352 -11.4757 -11.4074 -10.8162 -10.7679 -10.5790 -10.4960 -10.3983
    -8.8753  -8.1396  -7.9999  -7.9343  -7.5576  -7.3390  -7.2817  -7.1717
     3.0748   3.6892   3.8054   3.9711   4.4449   4.6266   4.7373   5.9758
     6.0702   6.0983   6.1248   6.2386   6.2991   6.3626   6.4623   6.4982
     6.5403   6.6628   6.6809   6.6958   6.7560   7.1695   7.3248   7.4239

     occupation numbers 
     1.0000   1.0000   1.0000   1.0000   1.0000   1.0000   1.0000   1.0000
     1.0000   1.0000   1.0000   1.0000   1.0000   1.0000   1.0000   1.0000
     1.0000   1.0000   1.0000   1.0000   1.0000   1.0000   1.0000   1.0000
     1.0000   1.0000   1.0000   1.0000   1.0000   1.0000   1.0000   1.0000
     1.0000   1.0000   1.0000   1.0000   1.0000   1.0000   1.0000   1.0000
     1.0000   1.0000   1.0000   1.0000   1.0000   1.0000   1.0000   1.0000
     1.0000   1.0000   1.0000   1.0000   1.0000   1.0000   1.0000   1.0000
     1.0000   1.0000   1.0000   1.0000   1.0000   1.0000   1.0000   1.0000

          k = 0.1895 0.1885-0.1727 (  5233 PWs)   bands (ev):

   -65.5306 -65.2080 -65.0830 -65.0787 -64.8131 -32.5547 -32.4845 -32.4657
   -32.2126 -32.1800 -32.1514 -32.0899 -32.0636 -32.0560 -32.0507 -32.0260
   -32.0109 -31.8494 -31.7827 -31.7377 -29.6178 -29.4579 -29.2633 -11.6595
   -11.5018 -11.4242 -11.3790 -10.8724 -10.8045 -10.6888 -10.5443 -10.5052
    -8.6444  -8.1056  -7.9983  -7.8601  -7.5430  -7.4323  -7.3136  -7.2626
     3.3561   3.8984   4.0876   4.2031   4.5956   4.6618   4.7265   5.4927
     5.7203   5.8755   5.9458   6.1204   6.1540   6.3104   6.4120   6.4693
     6.5372   6.5883   6.6956   6.7518   6.8235   6.9743   7.1902   7.2514

     occupation numbers 
     1.0000   1.0000   1.0000   1.0000   1.0000   1.0000   1.0000   1.0000
     1.0000   1.0000   1.0000   1.0000   1.0000   1.0000   1.0000   1.0000
     1.0000   1.0000   1.0000   1.0000   1.0000   1.0000   1.0000   1.0000
     1.0000   1.0000   1.0000   1.0000   1.0000   1.0000   1.0000   1.0000
     1.0000   1.0000   1.0000   1.0000   1.0000   1.0000   1.0000   1.0000
     1.0000   1.0000   1.0000   1.0000   1.0000   1.0000   1.0000   1.0000
     1.0000   1.0000   1.0000   1.0000   1.0000   1.0000   1.0000   1.0000
     1.0000   1.0000   1.0000   1.0000   1.0000   1.0000   1.0000   1.0000

          k =-0.3790-0.3770 0.3455 (  5252 PWs)   bands (ev):

   -65.5306 -65.2080 -65.0830 -65.0788 -64.8131 -32.5547 -32.4844 -32.4656
   -32.2127 -32.1799 -32.1510 -32.0899 -32.0608 -32.0566 -32.0531 -32.0262
   -32.0112 -31.8494 -31.7830 -31.7378 -29.6153 -29.4566 -29.2668 -11.5823
   -11.4302 -11.4037 -11.2882 -10.9647 -10.8583 -10.8223 -10.6711 -10.5089
    -8.3167  -8.1205  -8.0296  -7.7231  -7.6403  -7.5356  -7.3626  -7.3094
     3.8943   4.1174   4.3992   4.4057   4.5546   4.8783   5.0962   5.1493
     5.1991   5.4547   5.6648   5.7540   5.9552   6.1330   6.2552   6.3529
     6.4401   6.6121   6.7478   6.8209   6.8879   7.0345   7.1217   7.1334

     occupation numbers 
     1.0000   1.0000   1.0000   1.0000   1.0000   1.0000   1.0000   1.0000
     1.0000   1.0000   1.0000   1.0000   1.0000   1.0000   1.0000   1.0000
     1.0000   1.0000   1.0000   1.0000   1.0000   1.0000   1.0000   1.0000
     1.0000   1.0000   1.0000   1.0000   1.0000   1.0000   1.0000   1.0000
     1.0000   1.0000   1.0000   1.0000   1.0000   1.0000   1.0000   1.0000
     1.0000   1.0000   1.0000   1.0000   1.0000   1.0000   1.0000   1.0000
     1.0000   1.0000   1.0000   1.0000   1.0000   1.0000   1.0000   1.0000
     1.0000   1.0000   1.0000   1.0000   1.0000   1.0000   1.0000   1.0000

          k = 0.1914-0.1850 0.1781 (  5261 PWs)   bands (ev):

   -65.5306 -65.2080 -65.0830 -65.0787 -64.8131 -32.5546 -32.4847 -32.4658
   -32.2125 -32.1796 -32.1515 -32.0899 -32.0637 -32.0558 -32.0508 -32.0262
   -32.0105 -31.8493 -31.7827 -31.7379 -29.6133 -29.4642 -29.2619 -11.6480
   -11.5009 -11.4099 -11.3277 -10.9154 -10.8053 -10.7044 -10.6506 -10.4279
    -8.6405  -8.0832  -7.9726  -7.8701  -7.6576  -7.3979  -7.3446  -7.1862
     3.3467   3.9091   4.1355   4.2457   4.4802   4.6707   4.7741   5.6366
     5.7387   5.8710   6.0058   6.0964   6.1571   6.2395   6.3155   6.4081
     6.5083   6.6151   6.6676   6.7414   6.7955   6.9649   7.1165   7.3435

     occupation numbers 
     1.0000   1.0000   1.0000   1.0000   1.0000   1.0000   1.0000   1.0000
     1.0000   1.0000   1.0000   1.0000   1.0000   1.0000   1.0000   1.0000
     1.0000   1.0000   1.0000   1.0000   1.0000   1.0000   1.0000   1.0000
     1.0000   1.0000   1.0000   1.0000   1.0000   1.0000   1.0000   1.0000
     1.0000   1.0000   1.0000   1.0000   1.0000   1.0000   1.0000   1.0000
     1.0000   1.0000   1.0000   1.0000   1.0000   1.0000   1.0000   1.0000
     1.0000   1.0000   1.0000   1.0000   1.0000   1.0000   1.0000   1.0000
     1.0000   1.0000   1.0000   1.0000   1.0000   1.0000   1.0000   1.0000

          k = 0.3809 0.0035 0.0053 (  5235 PWs)   bands (ev):

   -65.5306 -65.2080 -65.0830 -65.0787 -64.8131 -32.5546 -32.4845 -32.4656
   -32.2126 -32.1797 -32.1513 -32.0901 -32.0659 -32.0559 -32.0492 -32.0260
   -32.0105 -31.8494 -31.7827 -31.7380 -29.6122 -29.4662 -29.2604 -11.6535
   -11.4864 -11.4204 -11.3451 -10.9381 -10.8060 -10.6971 -10.6416 -10.4275
    -8.5506  -8.0900  -7.9648  -7.8962  -7.5881  -7.4203  -7.3787  -7.2457
     3.4813   3.9860   4.1421   4.2786   4.5666   4.6873   4.8283   5.5518
     5.7488   5.8754   5.9278   6.0273   6.1150   6.1951   6.2627   6.3599
     6.3897   6.5348   6.6520   6.7420   6.7745   6.9321   7.1783   7.2311

     occupation numbers 
     1.0000   1.0000   1.0000   1.0000   1.0000   1.0000   1.0000   1.0000
     1.0000   1.0000   1.0000   1.0000   1.0000   1.0000   1.0000   1.0000
     1.0000   1.0000   1.0000   1.0000   1.0000   1.0000   1.0000   1.0000
     1.0000   1.0000   1.0000   1.0000   1.0000   1.0000   1.0000   1.0000
     1.0000   1.0000   1.0000   1.0000   1.0000   1.0000   1.0000   1.0000
     1.0000   1.0000   1.0000   1.0000   1.0000   1.0000   1.0000   1.0000
     1.0000   1.0000   1.0000   1.0000   1.0000   1.0000   1.0000   1.0000
     1.0000   1.0000   1.0000   1.0000   1.0000   1.0000   1.0000   1.0000

          k =-0.1876-0.5620 0.5235 (  5248 PWs)   bands (ev):

   -65.5306 -65.2080 -65.0830 -65.0787 -64.8131 -32.5546 -32.4844 -32.4655
   -32.2127 -32.1796 -32.1509 -32.0901 -32.0641 -32.0562 -32.0508 -32.0262
   -32.0108 -31.8495 -31.7829 -31.7381 -29.6095 -29.4651 -29.2637 -11.5451
   -11.4388 -11.3743 -11.2926 -10.9920 -10.9209 -10.7722 -10.7171 -10.5102
    -8.2581  -8.1255  -7.9453  -7.7662  -7.6295  -7.5573  -7.4064  -7.3200
     3.9957   4.2425   4.3200   4.4896   4.6121   4.7991   5.0730   5.2172
     5.3400   5.4648   5.6234   5.7959   5.9671   6.0428   6.2895   6.3631
     6.4430   6.5449   6.6123   6.6622   6.7803   6.9207   7.0477   7.0829

     occupation numbers 
     1.0000   1.0000   1.0000   1.0000   1.0000   1.0000   1.0000   1.0000
     1.0000   1.0000   1.0000   1.0000   1.0000   1.0000   1.0000   1.0000
     1.0000   1.0000   1.0000   1.0000   1.0000   1.0000   1.0000   1.0000
     1.0000   1.0000   1.0000   1.0000   1.0000   1.0000   1.0000   1.0000
     1.0000   1.0000   1.0000   1.0000   1.0000   1.0000   1.0000   1.0000
     1.0000   1.0000   1.0000   1.0000   1.0000   1.0000   1.0000   1.0000
     1.0000   1.0000   1.0000   1.0000   1.0000   1.0000   1.0000   1.0000
     1.0000   1.0000   1.0000   1.0000   1.0000   1.0000   1.0000   1.0000

          k = 0.0019-0.3735 0.3508 (  5257 PWs)   bands (ev):

   -65.5306 -65.2080 -65.0830 -65.0788 -64.8131 -32.5546 -32.4846 -32.4656
   -32.2126 -32.1795 -32.1512 -32.0899 -32.0610 -32.0564 -32.0531 -32.0264
   -32.0108 -31.8494 -31.7829 -31.7380 -29.6107 -29.4630 -29.2653 -11.5349
   -11.4574 -11.3393 -11.3097 -10.9605 -10.8962 -10.7940 -10.7329 -10.5155
    -8.4088  -8.0536  -7.9259  -7.8818  -7.5840  -7.4555  -7.4355  -7.2789
     3.7107   4.1766   4.3749   4.4467   4.5969   4.8077   4.9574   5.0237
     5.4450   5.6083   5.7645   5.8732   6.0639   6.2195   6.2992   6.3423
     6.5007   6.5567   6.6612   6.7197   6.8698   6.9449   6.9952   7.0628

     occupation numbers 
     1.0000   1.0000   1.0000   1.0000   1.0000   1.0000   1.0000   1.0000
     1.0000   1.0000   1.0000   1.0000   1.0000   1.0000   1.0000   1.0000
     1.0000   1.0000   1.0000   1.0000   1.0000   1.0000   1.0000   1.0000
     1.0000   1.0000   1.0000   1.0000   1.0000   1.0000   1.0000   1.0000
     1.0000   1.0000   1.0000   1.0000   1.0000   1.0000   1.0000   1.0000
     1.0000   1.0000   1.0000   1.0000   1.0000   1.0000   1.0000   1.0000
     1.0000   1.0000   1.0000   1.0000   1.0000   1.0000   1.0000   1.0000
     1.0000   1.0000   1.0000   1.0000   1.0000   1.0000   1.0000   1.0000

          k =-0.3828 0.3701-0.3561 (  5268 PWs)   bands (ev):

   -65.5306 -65.2080 -65.0829 -65.0788 -64.8131 -32.5546 -32.4847 -32.4657
   -32.2125 -32.1791 -32.1513 -32.0900 -32.0612 -32.0562 -32.0532 -32.0265
   -32.0103 -31.8494 -31.7828 -31.7382 -29.6055 -29.4699 -29.2639 -11.6021
   -11.3537 -11.2648 -11.1826 -11.0758 -11.0351 -10.8767 -10.7185 -10.4390
    -8.2645  -8.1027  -8.0456  -7.7933  -7.6735  -7.5411  -7.4368  -7.1675
     3.8315   4.1520   4.4702   4.5609   4.6783   4.6946   5.1002   5.2065
     5.3066   5.3815   5.5725   5.8672   6.0247   6.0632   6.2105   6.2378
     6.3525   6.5678   6.6342   6.8496   6.9287   7.0068   7.0517   7.2067

     occupation numbers 
     1.0000   1.0000   1.0000   1.0000   1.0000   1.0000   1.0000   1.0000
     1.0000   1.0000   1.0000   1.0000   1.0000   1.0000   1.0000   1.0000
     1.0000   1.0000   1.0000   1.0000   1.0000   1.0000   1.0000   1.0000
     1.0000   1.0000   1.0000   1.0000   1.0000   1.0000   1.0000   1.0000
     1.0000   1.0000   1.0000   1.0000   1.0000   1.0000   1.0000   1.0000
     1.0000   1.0000   1.0000   1.0000   1.0000   1.0000   1.0000   1.0000
     1.0000   1.0000   1.0000   1.0000   1.0000   1.0000   1.0000   1.0000
     1.0000   1.0000   1.0000   1.0000   1.0000   1.0000   1.0000   1.0000

          k =-0.1933 0.5586-0.5289 (  5257 PWs)   bands (ev):

   -65.5306 -65.2080 -65.0830 -65.0787 -64.8131 -32.5546 -32.4846 -32.4656
   -32.2126 -32.1792 -32.1511 -32.0901 -32.0642 -32.0561 -32.0510 -32.0263
   -32.0103 -31.8494 -31.7829 -31.7383 -29.6043 -29.4720 -29.2624 -11.5531
   -11.4481 -11.2618 -11.2019 -11.0752 -11.0244 -10.8018 -10.7343 -10.4723
    -8.2465  -8.0406  -7.9953  -7.8306  -7.6745  -7.5350  -7.4326  -7.2464
     3.9784   4.1951   4.4408   4.5499   4.5810   4.7863   5.0651   5.2667
     5.4118   5.4728   5.6010   5.7883   5.8908   6.0577   6.2398   6.3283
     6.3954   6.4655   6.6358   6.7468   6.7583   6.8591   7.0598   7.1056

     occupation numbers 
     1.0000   1.0000   1.0000   1.0000   1.0000   1.0000   1.0000   1.0000
     1.0000   1.0000   1.0000   1.0000   1.0000   1.0000   1.0000   1.0000
     1.0000   1.0000   1.0000   1.0000   1.0000   1.0000   1.0000   1.0000
     1.0000   1.0000   1.0000   1.0000   1.0000   1.0000   1.0000   1.0000
     1.0000   1.0000   1.0000   1.0000   1.0000   1.0000   1.0000   1.0000
     1.0000   1.0000   1.0000   1.0000   1.0000   1.0000   1.0000   1.0000
     1.0000   1.0000   1.0000   1.0000   1.0000   1.0000   1.0000   1.0000
     1.0000   1.0000   1.0000   1.0000   1.0000   1.0000   1.0000   1.0000

          k =-0.7618-0.0069-0.0107 (  5252 PWs)   bands (ev):

   -65.5306 -65.2080 -65.0830 -65.0787 -64.8131 -32.5546 -32.4844 -32.4655
   -32.2127 -32.1792 -32.1508 -32.0903 -32.0664 -32.0562 -32.0494 -32.0261
   -32.0104 -31.8495 -31.7829 -31.7384 -29.6031 -29.4741 -29.2609 -11.5977
   -11.3791 -11.2453 -11.2200 -11.0799 -11.0204 -10.9271 -10.6825 -10.4381
    -8.2861  -7.9811  -7.8714  -7.8143  -7.6520  -7.5818  -7.5021  -7.2965
     4.1257   4.2309   4.3480   4.4235   4.8472   5.0027   5.0853   5.2023
     5.2904   5.4923   5.6036   5.7893   5.9529   6.0306   6.1424   6.1866
     6.3029   6.4239   6.6297   6.6538   6.7710   6.8792   6.9507   7.0670

     occupation numbers 
     1.0000   1.0000   1.0000   1.0000   1.0000   1.0000   1.0000   1.0000
     1.0000   1.0000   1.0000   1.0000   1.0000   1.0000   1.0000   1.0000
     1.0000   1.0000   1.0000   1.0000   1.0000   1.0000   1.0000   1.0000
     1.0000   1.0000   1.0000   1.0000   1.0000   1.0000   1.0000   1.0000
     1.0000   1.0000   1.0000   1.0000   1.0000   1.0000   1.0000   1.0000
     1.0000   1.0000   1.0000   1.0000   1.0000   1.0000   1.0000   1.0000
     1.0000   1.0000   1.0000   1.0000   1.0000   1.0000   1.0000   1.0000
     1.0000   1.0000   1.0000   1.0000   1.0000   1.0000   1.0000   1.0000

          k =-0.1861 0.1811 0.1688 (  5257 PWs)   bands (ev):

   -65.5306 -65.2080 -65.0830 -65.0787 -64.8131 -32.5546 -32.4846 -32.4659
   -32.2125 -32.1796 -32.1513 -32.0899 -32.0657 -32.0558 -32.0492 -32.0259
   -32.0105 -31.8493 -31.7826 -31.7380 -29.6125 -29.4666 -29.2605 -11.6463
   -11.4733 -11.4304 -11.3303 -10.9263 -10.8183 -10.7021 -10.6403 -10.4278
    -8.6445  -8.0876  -7.9258  -7.8600  -7.6726  -7.4183  -7.3230  -7.2139
     3.3487   3.9649   4.0759   4.1850   4.4535   4.6484   4.7757   5.6350
     5.7187   5.8873   6.0219   6.0415   6.1161   6.2329   6.3389   6.4811
     6.5260   6.6025   6.6635   6.7260   6.8139   7.0008   7.2185   7.3580

     occupation numbers 
     1.0000   1.0000   1.0000   1.0000   1.0000   1.0000   1.0000   1.0000
     1.0000   1.0000   1.0000   1.0000   1.0000   1.0000   1.0000   1.0000
     1.0000   1.0000   1.0000   1.0000   1.0000   1.0000   1.0000   1.0000
     1.0000   1.0000   1.0000   1.0000   1.0000   1.0000   1.0000   1.0000
     1.0000   1.0000   1.0000   1.0000   1.0000   1.0000   1.0000   1.0000
     1.0000   1.0000   1.0000   1.0000   1.0000   1.0000   1.0000   1.0000
     1.0000   1.0000   1.0000   1.0000   1.0000   1.0000   1.0000   1.0000
     1.0000   1.0000   1.0000   1.0000   1.0000   1.0000   1.0000   1.0000

          k = 0.0035 0.3696-0.0040 (  5245 PWs)   bands (ev):

   -65.5306 -65.2080 -65.0830 -65.0787 -64.8131 -32.5546 -32.4845 -32.4657
   -32.2126 -32.1796 -32.1516 -32.0899 -32.0637 -32.0560 -32.0509 -32.0263
   -32.0105 -31.8493 -31.7828 -31.7379 -29.6131 -29.4641 -29.2618 -11.6559
   -11.4882 -11.4110 -11.3487 -10.9221 -10.8020 -10.7000 -10.6473 -10.4279
    -8.5675  -8.0834  -8.0124  -7.9273  -7.5769  -7.4103  -7.3295  -7.2354
     3.4300   3.9710   4.1752   4.2669   4.4797   4.6644   4.8320   5.4814
     5.7755   5.8164   5.9556   5.9893   6.1882   6.2381   6.3003   6.4570
     6.4998   6.6029   6.6535   6.7199   6.8111   6.9054   7.1167   7.2359

     occupation numbers 
     1.0000   1.0000   1.0000   1.0000   1.0000   1.0000   1.0000   1.0000
     1.0000   1.0000   1.0000   1.0000   1.0000   1.0000   1.0000   1.0000
     1.0000   1.0000   1.0000   1.0000   1.0000   1.0000   1.0000   1.0000
     1.0000   1.0000   1.0000   1.0000   1.0000   1.0000   1.0000   1.0000
     1.0000   1.0000   1.0000   1.0000   1.0000   1.0000   1.0000   1.0000
     1.0000   1.0000   1.0000   1.0000   1.0000   1.0000   1.0000   1.0000
     1.0000   1.0000   1.0000   1.0000   1.0000   1.0000   1.0000   1.0000
     1.0000   1.0000   1.0000   1.0000   1.0000   1.0000   1.0000   1.0000

          k =-0.5651-0.1959 0.5142 (  5239 PWs)   bands (ev):

   -65.5306 -65.2080 -65.0830 -65.0788 -64.8131 -32.5547 -32.4844 -32.4656
   -32.2127 -32.1795 -32.1512 -32.0899 -32.0610 -32.0564 -32.0533 -32.0265
   -32.0108 -31.8494 -31.7830 -31.7380 -29.6105 -29.4629 -29.2652 -11.5458
   -11.4504 -11.3602 -11.3043 -10.9664 -10.8899 -10.7929 -10.7288 -10.5153
    -8.2435  -8.1011  -8.0141  -7.8508  -7.6488  -7.4484  -7.3994  -7.3101
     3.9208   4.3107   4.3291   4.3916   4.6447   4.7913   5.0272   5.2094
     5.3542   5.4610   5.5218   5.8685   5.9706   6.1553   6.2345   6.3903
     6.4175   6.6108   6.6653   6.7103   6.8152   6.8682   7.0132   7.1341

     occupation numbers 
     1.0000   1.0000   1.0000   1.0000   1.0000   1.0000   1.0000   1.0000
     1.0000   1.0000   1.0000   1.0000   1.0000   1.0000   1.0000   1.0000
     1.0000   1.0000   1.0000   1.0000   1.0000   1.0000   1.0000   1.0000
     1.0000   1.0000   1.0000   1.0000   1.0000   1.0000   1.0000   1.0000
     1.0000   1.0000   1.0000   1.0000   1.0000   1.0000   1.0000   1.0000
     1.0000   1.0000   1.0000   1.0000   1.0000   1.0000   1.0000   1.0000
     1.0000   1.0000   1.0000   1.0000   1.0000   1.0000   1.0000   1.0000
     1.0000   1.0000   1.0000   1.0000   1.0000   1.0000   1.0000   1.0000

          k =-0.3756-0.0074 0.3415 (  5233 PWs)   bands (ev):

   -65.5306 -65.2080 -65.0830 -65.0787 -64.8131 -32.5547 -32.4845 -32.4657
   -32.2126 -32.1796 -32.1509 -32.0899 -32.0640 -32.0561 -32.0508 -32.0261
   -32.0108 -31.8494 -31.7828 -31.7381 -29.6098 -29.4654 -29.2639 -11.5310
   -11.4475 -11.3528 -11.2937 -10.9861 -10.9254 -10.7763 -10.7221 -10.5103
    -8.4116  -8.0512  -7.9273  -7.7138  -7.6474  -7.5833  -7.4097  -7.2759
     3.7606   4.2082   4.2769   4.4108   4.6097   4.8169   4.9371   5.0150
     5.4496   5.5722   5.7349   5.8567   6.0751   6.1370   6.2548   6.3883
     6.5057   6.6070   6.6784   6.7113   6.8632   7.0129   7.0591   7.1182

     occupation numbers 
     1.0000   1.0000   1.0000   1.0000   1.0000   1.0000   1.0000   1.0000
     1.0000   1.0000   1.0000   1.0000   1.0000   1.0000   1.0000   1.0000
     1.0000   1.0000   1.0000   1.0000   1.0000   1.0000   1.0000   1.0000
     1.0000   1.0000   1.0000   1.0000   1.0000   1.0000   1.0000   1.0000
     1.0000   1.0000   1.0000   1.0000   1.0000   1.0000   1.0000   1.0000
     1.0000   1.0000   1.0000   1.0000   1.0000   1.0000   1.0000   1.0000
     1.0000   1.0000   1.0000   1.0000   1.0000   1.0000   1.0000   1.0000
     1.0000   1.0000   1.0000   1.0000   1.0000   1.0000   1.0000   1.0000

          k = 0.0053-0.0040 0.3468 (  5244 PWs)   bands (ev):

   -65.5306 -65.2080 -65.0830 -65.0787 -64.8131 -32.5546 -32.4846 -32.4658
   -32.2126 -32.1800 -32.1514 -32.0900 -32.0636 -32.0559 -32.0506 -32.0259
   -32.0109 -31.8494 -31.7826 -31.7377 -29.6178 -29.4581 -29.2633 -11.6598
   -11.5019 -11.4149 -11.3850 -10.8732 -10.8023 -10.6879 -10.5471 -10.5051
    -8.6524  -8.1608  -7.9386  -7.8645  -7.5755  -7.3877  -7.3230  -7.2569
     3.3974   3.8989   4.0806   4.2042   4.4429   4.7719   4.8348   5.6370
     5.7554   5.8244   5.9750   5.9993   6.1630   6.2786   6.3796   6.4170
     6.4990   6.6120   6.6397   6.7070   6.7709   6.8828   7.1198   7.3437

     occupation numbers 
     1.0000   1.0000   1.0000   1.0000   1.0000   1.0000   1.0000   1.0000
     1.0000   1.0000   1.0000   1.0000   1.0000   1.0000   1.0000   1.0000
     1.0000   1.0000   1.0000   1.0000   1.0000   1.0000   1.0000   1.0000
     1.0000   1.0000   1.0000   1.0000   1.0000   1.0000   1.0000   1.0000
     1.0000   1.0000   1.0000   1.0000   1.0000   1.0000   1.0000   1.0000
     1.0000   1.0000   1.0000   1.0000   1.0000   1.0000   1.0000   1.0000
     1.0000   1.0000   1.0000   1.0000   1.0000   1.0000   1.0000   1.0000
     1.0000   1.0000   1.0000   1.0000   1.0000   1.0000   1.0000   1.0000

          k = 0.1949 0.1845 0.1741 (  5245 PWs)   bands (ev):

   -65.5306 -65.2080 -65.0830 -65.0787 -64.8131 -32.5546 -32.4845 -32.4656
   -32.2127 -32.1801 -32.1518 -32.0900 -32.0655 -32.0559 -32.0490 -32.0260
   -32.0106 -31.8494 -31.7826 -31.7376 -29.6199 -29.4588 -29.2596 -11.7420
   -11.5496 -11.4686 -11.4413 -10.8171 -10.7624 -10.5788 -10.4958 -10.3982
    -8.6491  -8.1817  -8.0832  -7.9890  -7.5211  -7.3446  -7.2855  -7.2235
     3.3365   3.8924   4.0358   4.2934   4.4395   4.6276   4.6649   5.6880
     5.8476   5.9010   5.9937   6.0552   6.2160   6.2683   6.3662   6.4304
     6.5711   6.6052   6.6706   6.7588   6.8425   6.8939   7.1495   7.2405

     occupation numbers 
     1.0000   1.0000   1.0000   1.0000   1.0000   1.0000   1.0000   1.0000
     1.0000   1.0000   1.0000   1.0000   1.0000   1.0000   1.0000   1.0000
     1.0000   1.0000   1.0000   1.0000   1.0000   1.0000   1.0000   1.0000
     1.0000   1.0000   1.0000   1.0000   1.0000   1.0000   1.0000   1.0000
     1.0000   1.0000   1.0000   1.0000   1.0000   1.0000   1.0000   1.0000
     1.0000   1.0000   1.0000   1.0000   1.0000   1.0000   1.0000   1.0000
     1.0000   1.0000   1.0000   1.0000   1.0000   1.0000   1.0000   1.0000
     1.0000   1.0000   1.0000   1.0000   1.0000   1.0000   1.0000   1.0000

          k =-0.3737-0.3809 0.6923 (  5235 PWs)   bands (ev):

   -65.5306 -65.2080 -65.0830 -65.0787 -64.8131 -32.5546 -32.4844 -32.4655
   -32.2127 -32.1801 -32.1514 -32.0901 -32.0637 -32.0562 -32.0507 -32.0261
   -32.0109 -31.8494 -31.7829 -31.7377 -29.6173 -29.4576 -29.2631 -11.6665
   -11.5180 -11.4454 -11.3828 -10.8690 -10.7995 -10.6901 -10.5382 -10.5049
    -8.3311  -8.1961  -8.0602  -7.9192  -7.6304  -7.4570  -7.2971  -7.2529
     3.7543   4.2345   4.3100   4.4431   4.4939   4.6193   4.9643   5.1998
     5.4440   5.6177   5.7864   5.9954   6.0457   6.1782   6.2255   6.2659
     6.4772   6.5305   6.5992   6.6932   6.9121   7.0294   7.0911   7.0974

     occupation numbers 
     1.0000   1.0000   1.0000   1.0000   1.0000   1.0000   1.0000   1.0000
     1.0000   1.0000   1.0000   1.0000   1.0000   1.0000   1.0000   1.0000
     1.0000   1.0000   1.0000   1.0000   1.0000   1.0000   1.0000   1.0000
     1.0000   1.0000   1.0000   1.0000   1.0000   1.0000   1.0000   1.0000
     1.0000   1.0000   1.0000   1.0000   1.0000   1.0000   1.0000   1.0000
     1.0000   1.0000   1.0000   1.0000   1.0000   1.0000   1.0000   1.0000
     1.0000   1.0000   1.0000   1.0000   1.0000   1.0000   1.0000   1.0000
     1.0000   1.0000   1.0000   1.0000   1.0000   1.0000   1.0000   1.0000

          k =-0.1842-0.1924 0.5196 (  5238 PWs)   bands (ev):

   -65.5306 -65.2080 -65.0830 -65.0788 -64.8131 -32.5546 -32.4845 -32.4656
   -32.2126 -32.1800 -32.1510 -32.0900 -32.0608 -32.0565 -32.0529 -32.0261
   -32.0113 -31.8495 -31.7829 -31.7378 -29.6153 -29.4567 -29.2668 -11.5878
   -11.4343 -11.3746 -11.3035 -10.9676 -10.8561 -10.8181 -10.6751 -10.5088
    -8.4213  -8.0689  -7.9644  -7.7123  -7.6770  -7.5056  -7.3822  -7.3059
     3.8648   4.1375   4.3179   4.4889   4.6587   4.8828   4.9795   5.2270
     5.2877   5.3910   5.5738   5.8118   5.9829   6.2105   6.3235   6.3896
     6.4471   6.5780   6.6665   6.7932   6.8433   6.9231   6.9926   7.0916

     occupation numbers 
     1.0000   1.0000   1.0000   1.0000   1.0000   1.0000   1.0000   1.0000
     1.0000   1.0000   1.0000   1.0000   1.0000   1.0000   1.0000   1.0000
     1.0000   1.0000   1.0000   1.0000   1.0000   1.0000   1.0000   1.0000
     1.0000   1.0000   1.0000   1.0000   1.0000   1.0000   1.0000   1.0000
     1.0000   1.0000   1.0000   1.0000   1.0000   1.0000   1.0000   1.0000
     1.0000   1.0000   1.0000   1.0000   1.0000   1.0000   1.0000   1.0000
     1.0000   1.0000   1.0000   1.0000   1.0000   1.0000   1.0000   1.0000
     1.0000   1.0000   1.0000   1.0000   1.0000   1.0000   1.0000   1.0000

          k =-0.5689 0.5511-0.1874 (  5261 PWs)   bands (ev):

   -65.5306 -65.2080 -65.0830 -65.0788 -64.8131 -32.5546 -32.4847 -32.4657
   -32.2126 -32.1796 -32.1512 -32.0900 -32.0610 -32.0564 -32.0530 -32.0263
   -32.0108 -31.8495 -31.7828 -31.7380 -29.6106 -29.4632 -29.2653 -11.5298
   -11.4675 -11.3450 -11.3027 -10.9508 -10.8942 -10.7987 -10.7378 -10.5143
    -8.3519  -8.1144  -7.9357  -7.7983  -7.7039  -7.5005  -7.3761  -7.2450
     3.8343   4.2522   4.3289   4.4564   4.5942   4.8500   5.0368   5.2247
     5.3714   5.4809   5.6076   5.8584   5.9955   6.0987   6.2697   6.3650
     6.3796   6.5402   6.5931   6.7154   6.7975   6.8573   7.0402   7.2637

     occupation numbers 
     1.0000   1.0000   1.0000   1.0000   1.0000   1.0000   1.0000   1.0000
     1.0000   1.0000   1.0000   1.0000   1.0000   1.0000   1.0000   1.0000
     1.0000   1.0000   1.0000   1.0000   1.0000   1.0000   1.0000   1.0000
     1.0000   1.0000   1.0000   1.0000   1.0000   1.0000   1.0000   1.0000
     1.0000   1.0000   1.0000   1.0000   1.0000   1.0000   1.0000   1.0000
     1.0000   1.0000   1.0000   1.0000   1.0000   1.0000   1.0000   1.0000
     1.0000   1.0000   1.0000   1.0000   1.0000   1.0000   1.0000   1.0000
     1.0000   1.0000   1.0000   1.0000   1.0000   1.0000   1.0000   1.0000

          k =-0.3793 0.7396-0.3601 (  5247 PWs)   bands (ev):

   -65.5306 -65.2080 -65.0830 -65.0787 -64.8131 -32.5545 -32.4845 -32.4656
   -32.2127 -32.1796 -32.1516 -32.0901 -32.0638 -32.0560 -32.0509 -32.0263
   -32.0105 -31.8494 -31.7828 -31.7380 -29.6128 -29.4639 -29.2617 -11.6596
   -11.5086 -11.4193 -11.3474 -10.9151 -10.7991 -10.6983 -10.6487 -10.4275
    -8.3629  -8.1559  -8.0618  -7.9392  -7.6274  -7.4520  -7.3348  -7.2012
     3.7435   4.1396   4.3233   4.3871   4.5640   4.6305   4.9881   5.4018
     5.4759   5.5741   5.8229   5.8881   6.0210   6.2038   6.2851   6.3802
     6.4242   6.5168   6.5745   6.6781   6.7752   6.9000   7.0933   7.1782

     occupation numbers 
     1.0000   1.0000   1.0000   1.0000   1.0000   1.0000   1.0000   1.0000
     1.0000   1.0000   1.0000   1.0000   1.0000   1.0000   1.0000   1.0000
     1.0000   1.0000   1.0000   1.0000   1.0000   1.0000   1.0000   1.0000
     1.0000   1.0000   1.0000   1.0000   1.0000   1.0000   1.0000   1.0000
     1.0000   1.0000   1.0000   1.0000   1.0000   1.0000   1.0000   1.0000
     1.0000   1.0000   1.0000   1.0000   1.0000   1.0000   1.0000   1.0000
     1.0000   1.0000   1.0000   1.0000   1.0000   1.0000   1.0000   1.0000
     1.0000   1.0000   1.0000   1.0000   1.0000   1.0000   1.0000   1.0000

          k =-0.9479 0.1742 0.1581 (  5249 PWs)   bands (ev):

   -65.5306 -65.2080 -65.0830 -65.0787 -64.8131 -32.5545 -32.4844 -32.4654
   -32.2127 -32.1797 -32.1513 -32.0902 -32.0660 -32.0561 -32.0492 -32.0261
   -32.0105 -31.8495 -31.7828 -31.7380 -29.6117 -29.4658 -29.2602 -11.6668
   -11.4964 -11.4186 -11.3686 -10.9356 -10.8034 -10.6889 -10.6411 -10.4268
    -8.2752  -8.1536  -8.0093  -7.9328  -7.7391  -7.4107  -7.3360  -7.2602
     3.9259   4.1957   4.3694   4.4726   4.5654   4.7593   4.8543   5.4049
     5.4606   5.5596   5.7585   5.8542   5.9471   6.0198   6.1322   6.3134
     6.3956   6.5878   6.6198   6.6973   6.8444   6.9035   6.9821   7.0617

     occupation numbers 
     1.0000   1.0000   1.0000   1.0000   1.0000   1.0000   1.0000   1.0000
     1.0000   1.0000   1.0000   1.0000   1.0000   1.0000   1.0000   1.0000
     1.0000   1.0000   1.0000   1.0000   1.0000   1.0000   1.0000   1.0000
     1.0000   1.0000   1.0000   1.0000   1.0000   1.0000   1.0000   1.0000
     1.0000   1.0000   1.0000   1.0000   1.0000   1.0000   1.0000   1.0000
     1.0000   1.0000   1.0000   1.0000   1.0000   1.0000   1.0000   1.0000
     1.0000   1.0000   1.0000   1.0000   1.0000   1.0000   1.0000   1.0000
     1.0000   1.0000   1.0000   1.0000   1.0000   1.0000   1.0000   1.0000

          k =-0.7584 0.3627-0.0146 (  5247 PWs)   bands (ev):

   -65.5306 -65.2080 -65.0830 -65.0787 -64.8131 -32.5546 -32.4845 -32.4656
   -32.2126 -32.1796 -32.1509 -32.0902 -32.0641 -32.0561 -32.0508 -32.0261
   -32.0108 -31.8495 -31.7828 -31.7381 -29.6095 -29.4652 -29.2638 -11.5451
   -11.4383 -11.3675 -11.3053 -10.9834 -10.9154 -10.7790 -10.7183 -10.5089
    -8.2544  -8.1079  -7.9663  -7.7814  -7.6698  -7.5333  -7.4094  -7.2873
     4.1414   4.2979   4.4175   4.4586   4.5940   4.8513   5.0439   5.1308
     5.2424   5.4089   5.5703   5.6910   6.0660   6.1033   6.2713   6.3292
     6.4700   6.5084   6.6002   6.7110   6.7492   6.8410   6.9828   7.0370

     occupation numbers 
     1.0000   1.0000   1.0000   1.0000   1.0000   1.0000   1.0000   1.0000
     1.0000   1.0000   1.0000   1.0000   1.0000   1.0000   1.0000   1.0000
     1.0000   1.0000   1.0000   1.0000   1.0000   1.0000   1.0000   1.0000
     1.0000   1.0000   1.0000   1.0000   1.0000   1.0000   1.0000   1.0000
     1.0000   1.0000   1.0000   1.0000   1.0000   1.0000   1.0000   1.0000
     1.0000   1.0000   1.0000   1.0000   1.0000   1.0000   1.0000   1.0000
     1.0000   1.0000   1.0000   1.0000   1.0000   1.0000   1.0000   1.0000
     1.0000   1.0000   1.0000   1.0000   1.0000   1.0000   1.0000   1.0000

          k =-0.3775 0.3661-0.0093 (  5252 PWs)   bands (ev):

   -65.5306 -65.2080 -65.0830 -65.0787 -64.8131 -32.5546 -32.4847 -32.4658
   -32.2125 -32.1792 -32.1511 -32.0900 -32.0641 -32.0559 -32.0509 -32.0262
   -32.0103 -31.8494 -31.7828 -31.7383 -29.6046 -29.4724 -29.2625 -11.5377
   -11.4527 -11.2449 -11.2028 -11.0714 -11.0322 -10.8067 -10.7351 -10.4726
    -8.3378  -8.0591  -7.9240  -7.8140  -7.7068  -7.5415  -7.4306  -7.2010
     3.7724   4.2550   4.3641   4.4752   4.5919   4.7920   4.8621   5.1387
     5.4595   5.5509   5.6606   5.8734   6.0119   6.1426   6.2023   6.2994
     6.4347   6.5528   6.6375   6.6957   6.9360   6.9701   7.0898   7.2239

     occupation numbers 
     1.0000   1.0000   1.0000   1.0000   1.0000   1.0000   1.0000   1.0000
     1.0000   1.0000   1.0000   1.0000   1.0000   1.0000   1.0000   1.0000
     1.0000   1.0000   1.0000   1.0000   1.0000   1.0000   1.0000   1.0000
     1.0000   1.0000   1.0000   1.0000   1.0000   1.0000   1.0000   1.0000
     1.0000   1.0000   1.0000   1.0000   1.0000   1.0000   1.0000   1.0000
     1.0000   1.0000   1.0000   1.0000   1.0000   1.0000   1.0000   1.0000
     1.0000   1.0000   1.0000   1.0000   1.0000   1.0000   1.0000   1.0000
     1.0000   1.0000   1.0000   1.0000   1.0000   1.0000   1.0000   1.0000

          k =-0.1879 0.5546-0.1820 (  5267 PWs)   bands (ev):

   -65.5306 -65.2080 -65.0829 -65.0788 -64.8131 -32.5546 -32.4846 -32.4657
   -32.2126 -32.1791 -32.1514 -32.0899 -32.0612 -32.0563 -32.0534 -32.0266
   -32.0103 -31.8494 -31.7829 -31.7382 -29.6054 -29.4697 -29.2638 -11.6082
   -11.3550 -11.2628 -11.1895 -11.0853 -11.0289 -10.8753 -10.7147 -10.4391
    -8.2771  -8.0870  -7.9694  -7.8278  -7.6704  -7.5480  -7.4295  -7.2053
     3.8824   4.2908   4.4274   4.5079   4.5686   4.8888   5.0164   5.0989
     5.3228   5.5288   5.5627   5.7905   6.0002   6.1185   6.2550   6.3459
     6.4252   6.5447   6.6462   6.7128   6.8542   6.8966   6.9765   7.1013

     occupation numbers 
     1.0000   1.0000   1.0000   1.0000   1.0000   1.0000   1.0000   1.0000
     1.0000   1.0000   1.0000   1.0000   1.0000   1.0000   1.0000   1.0000
     1.0000   1.0000   1.0000   1.0000   1.0000   1.0000   1.0000   1.0000
     1.0000   1.0000   1.0000   1.0000   1.0000   1.0000   1.0000   1.0000
     1.0000   1.0000   1.0000   1.0000   1.0000   1.0000   1.0000   1.0000
     1.0000   1.0000   1.0000   1.0000   1.0000   1.0000   1.0000   1.0000
     1.0000   1.0000   1.0000   1.0000   1.0000   1.0000   1.0000   1.0000
     1.0000   1.0000   1.0000   1.0000   1.0000   1.0000   1.0000   1.0000

          k =-0.7565-0.0109 0.3362 (  5247 PWs)   bands (ev):

   -65.5306 -65.2080 -65.0830 -65.0787 -64.8131 -32.5546 -32.4844 -32.4655
   -32.2127 -32.1792 -32.1511 -32.0901 -32.0642 -32.0562 -32.0510 -32.0264
   -32.0103 -31.8494 -31.7830 -31.7383 -29.6042 -29.4718 -29.2623 -11.5666
   -11.4372 -11.2685 -11.2099 -11.0773 -11.0190 -10.8019 -10.7310 -10.4724
    -8.1863  -8.0367  -7.9692  -7.8732  -7.7250  -7.5076  -7.3868  -7.3065
     4.1534   4.2965   4.4209   4.5007   4.5762   4.8789   5.0692   5.1377
     5.2289   5.3954   5.6580   5.7405   5.9828   6.1469   6.2418   6.3425
     6.4207   6.4982   6.5662   6.6802   6.8010   6.8396   6.9300   6.9835

     occupation numbers 
     1.0000   1.0000   1.0000   1.0000   1.0000   1.0000   1.0000   1.0000
     1.0000   1.0000   1.0000   1.0000   1.0000   1.0000   1.0000   1.0000
     1.0000   1.0000   1.0000   1.0000   1.0000   1.0000   1.0000   1.0000
     1.0000   1.0000   1.0000   1.0000   1.0000   1.0000   1.0000   1.0000
     1.0000   1.0000   1.0000   1.0000   1.0000   1.0000   1.0000   1.0000
     1.0000   1.0000   1.0000   1.0000   1.0000   1.0000   1.0000   1.0000
     1.0000   1.0000   1.0000   1.0000   1.0000   1.0000   1.0000   1.0000
     1.0000   1.0000   1.0000   1.0000   1.0000   1.0000   1.0000   1.0000

          k =-0.5670 0.1776 0.1634 (  5245 PWs)   bands (ev):

   -65.5306 -65.2080 -65.0830 -65.0787 -64.8131 -32.5546 -32.4845 -32.4657
   -32.2126 -32.1792 -32.1508 -32.0901 -32.0662 -32.0560 -32.0493 -32.0261
   -32.0103 -31.8494 -31.7828 -31.7384 -29.6034 -29.4745 -29.2610 -11.5881
   -11.3690 -11.2458 -11.2193 -11.0733 -11.0234 -10.9328 -10.6835 -10.4385
    -8.3020  -8.0306  -7.9291  -7.7541  -7.6842  -7.5914  -7.4476  -7.2599
     3.9812   4.2994   4.3857   4.4350   4.5081   4.8731   5.0342   5.2353
     5.2963   5.4171   5.5580   5.8462   5.9618   6.1025   6.2904   6.3426
     6.3751   6.5350   6.6294   6.7654   6.8127   6.9061   7.0264   7.1078

     occupation numbers 
     1.0000   1.0000   1.0000   1.0000   1.0000   1.0000   1.0000   1.0000
     1.0000   1.0000   1.0000   1.0000   1.0000   1.0000   1.0000   1.0000
     1.0000   1.0000   1.0000   1.0000   1.0000   1.0000   1.0000   1.0000
     1.0000   1.0000   1.0000   1.0000   1.0000   1.0000   1.0000   1.0000
     1.0000   1.0000   1.0000   1.0000   1.0000   1.0000   1.0000   1.0000
     1.0000   1.0000   1.0000   1.0000   1.0000   1.0000   1.0000   1.0000
     1.0000   1.0000   1.0000   1.0000   1.0000   1.0000   1.0000   1.0000
     1.0000   1.0000   1.0000   1.0000   1.0000   1.0000   1.0000   1.0000

          k = 0.3721-0.3621-0.3375 (  5234 PWs)   bands (ev):

   -65.5306 -65.2080 -65.0830 -65.0787 -64.8131 -32.5546 -32.4846 -32.4659
   -32.2125 -32.1792 -32.1508 -32.0900 -32.0661 -32.0559 -32.0493 -32.0260
   -32.0103 -31.8494 -31.7827 -31.7384 -29.6036 -29.4749 -29.2612 -11.5778
   -11.3590 -11.2505 -11.2139 -11.0689 -11.0262 -10.9375 -10.6844 -10.4388
    -8.3128  -8.0822  -7.9665  -7.7218  -7.6839  -7.6097  -7.4143  -7.2215
     3.9114   4.0767   4.3621   4.4760   4.6724   4.7042   5.0646   5.0922
     5.2818   5.4146   5.6734   5.7259   5.9790   5.9987   6.2538   6.2920
     6.5260   6.6312   6.7842   6.8527   6.9218   7.0089   7.1230   7.2257

     occupation numbers 
     1.0000   1.0000   1.0000   1.0000   1.0000   1.0000   1.0000   1.0000
     1.0000   1.0000   1.0000   1.0000   1.0000   1.0000   1.0000   1.0000
     1.0000   1.0000   1.0000   1.0000   1.0000   1.0000   1.0000   1.0000
     1.0000   1.0000   1.0000   1.0000   1.0000   1.0000   1.0000   1.0000
     1.0000   1.0000   1.0000   1.0000   1.0000   1.0000   1.0000   1.0000
     1.0000   1.0000   1.0000   1.0000   1.0000   1.0000   1.0000   1.0000
     1.0000   1.0000   1.0000   1.0000   1.0000   1.0000   1.0000   1.0000
     1.0000   1.0000   1.0000   1.0000   1.0000   1.0000   1.0000   1.0000

          k = 0.5616-0.1737-0.5103 (  5233 PWs)   bands (ev):

   -65.5306 -65.2080 -65.0830 -65.0787 -64.8131 -32.5546 -32.4845 -32.4657
   -32.2126 -32.1791 -32.1511 -32.0899 -32.0641 -32.0561 -32.0510 -32.0263
   -32.0103 -31.8494 -31.7829 -31.7383 -29.6045 -29.4722 -29.2624 -11.5517
   -11.4406 -11.2484 -11.2154 -11.0767 -11.0248 -10.8059 -10.7312 -10.4727
    -8.2468  -8.0906  -7.9449  -7.8742  -7.6747  -7.5083  -7.4108  -7.2538
     3.9194   4.2370   4.4166   4.4648   4.5779   4.7256   4.9833   5.2136
     5.3725   5.4948   5.5871   5.7868   6.0004   6.1202   6.2317   6.2879
     6.4317   6.5716   6.6748   6.7667   6.8835   6.9238   7.0427   7.0947

     occupation numbers 
     1.0000   1.0000   1.0000   1.0000   1.0000   1.0000   1.0000   1.0000
     1.0000   1.0000   1.0000   1.0000   1.0000   1.0000   1.0000   1.0000
     1.0000   1.0000   1.0000   1.0000   1.0000   1.0000   1.0000   1.0000
     1.0000   1.0000   1.0000   1.0000   1.0000   1.0000   1.0000   1.0000
     1.0000   1.0000   1.0000   1.0000   1.0000   1.0000   1.0000   1.0000
     1.0000   1.0000   1.0000   1.0000   1.0000   1.0000   1.0000   1.0000
     1.0000   1.0000   1.0000   1.0000   1.0000   1.0000   1.0000   1.0000
     1.0000   1.0000   1.0000   1.0000   1.0000   1.0000   1.0000   1.0000

          k =-0.0069-0.7391 0.0079 (  5230 PWs)   bands (ev):

   -65.5306 -65.2080 -65.0829 -65.0788 -64.8131 -32.5546 -32.4844 -32.4656
   -32.2127 -32.1791 -32.1514 -32.0899 -32.0612 -32.0563 -32.0536 -32.0267
   -32.0103 -31.8494 -31.7830 -31.7382 -29.6053 -29.4695 -29.2637 -11.6136
   -11.3584 -11.2527 -11.2034 -11.0920 -11.0249 -10.8746 -10.7113 -10.4392
    -8.2269  -8.1259  -7.9142  -7.8454  -7.6884  -7.5450  -7.3989  -7.2584
     3.9894   4.2540   4.2967   4.4433   4.8688   4.9051   5.0290   5.1633
     5.3895   5.4361   5.6122   5.6941   5.9388   6.1129   6.1870   6.3941
     6.4357   6.4521   6.6164   6.6670   6.7693   6.9124   6.9862   7.0444

     occupation numbers 
     1.0000   1.0000   1.0000   1.0000   1.0000   1.0000   1.0000   1.0000
     1.0000   1.0000   1.0000   1.0000   1.0000   1.0000   1.0000   1.0000
     1.0000   1.0000   1.0000   1.0000   1.0000   1.0000   1.0000   1.0000
     1.0000   1.0000   1.0000   1.0000   1.0000   1.0000   1.0000   1.0000
     1.0000   1.0000   1.0000   1.0000   1.0000   1.0000   1.0000   1.0000
     1.0000   1.0000   1.0000   1.0000   1.0000   1.0000   1.0000   1.0000
     1.0000   1.0000   1.0000   1.0000   1.0000   1.0000   1.0000   1.0000
     1.0000   1.0000   1.0000   1.0000   1.0000   1.0000   1.0000   1.0000

          k = 0.5635-0.5472-0.1595 (  5240 PWs)   bands (ev):

   -65.5306 -65.2080 -65.0830 -65.0787 -64.8131 -32.5546 -32.4846 -32.4658
   -32.2126 -32.1796 -32.1509 -32.0900 -32.0640 -32.0560 -32.0507 -32.0260
   -32.0108 -31.8495 -31.7827 -31.7381 -29.6098 -29.4656 -29.2639 -11.5289
   -11.4435 -11.3548 -11.3029 -10.9781 -10.9206 -10.7835 -10.7226 -10.5091
    -8.3663  -8.1319  -7.8655  -7.7964  -7.6397  -7.5826  -7.3673  -7.2709
     3.8570   4.2573   4.2986   4.4045   4.6046   4.7778   4.9930   5.1678
     5.3719   5.5041   5.6381   5.8521   6.0090   6.0763   6.2885   6.3525
     6.4259   6.5905   6.6370   6.7807   6.7980   6.8602   7.0383   7.2737

     occupation numbers 
     1.0000   1.0000   1.0000   1.0000   1.0000   1.0000   1.0000   1.0000
     1.0000   1.0000   1.0000   1.0000   1.0000   1.0000   1.0000   1.0000
     1.0000   1.0000   1.0000   1.0000   1.0000   1.0000   1.0000   1.0000
     1.0000   1.0000   1.0000   1.0000   1.0000   1.0000   1.0000   1.0000
     1.0000   1.0000   1.0000   1.0000   1.0000   1.0000   1.0000   1.0000
     1.0000   1.0000   1.0000   1.0000   1.0000   1.0000   1.0000   1.0000
     1.0000   1.0000   1.0000   1.0000   1.0000   1.0000   1.0000   1.0000
     1.0000   1.0000   1.0000   1.0000   1.0000   1.0000   1.0000   1.0000

          k = 0.7530-0.3587-0.3322 (  5250 PWs)   bands (ev):

   -65.5306 -65.2080 -65.0830 -65.0787 -64.8131 -32.5546 -32.4845 -32.4656
   -32.2127 -32.1797 -32.1513 -32.0901 -32.0659 -32.0560 -32.0492 -32.0260
   -32.0105 -31.8494 -31.7827 -31.7380 -29.6120 -29.4662 -29.2603 -11.6582
   -11.4762 -11.4327 -11.3606 -10.9240 -10.8164 -10.6924 -10.6399 -10.4270
    -8.3821  -8.1476  -8.0471  -7.9540  -7.6021  -7.3910  -7.3415  -7.2610
     3.6920   4.2103   4.2911   4.3737   4.5239   4.5840   4.9077   5.2419
     5.4489   5.6882   5.8182   5.9376   6.0934   6.2254   6.3165   6.4043
     6.4737   6.5638   6.6073   6.7020   6.8245   6.9576   7.0278   7.1056

     occupation numbers 
     1.0000   1.0000   1.0000   1.0000   1.0000   1.0000   1.0000   1.0000
     1.0000   1.0000   1.0000   1.0000   1.0000   1.0000   1.0000   1.0000
     1.0000   1.0000   1.0000   1.0000   1.0000   1.0000   1.0000   1.0000
     1.0000   1.0000   1.0000   1.0000   1.0000   1.0000   1.0000   1.0000
     1.0000   1.0000   1.0000   1.0000   1.0000   1.0000   1.0000   1.0000
     1.0000   1.0000   1.0000   1.0000   1.0000   1.0000   1.0000   1.0000
     1.0000   1.0000   1.0000   1.0000   1.0000   1.0000   1.0000   1.0000
     1.0000   1.0000   1.0000   1.0000   1.0000   1.0000   1.0000   1.0000

          k = 0.1845-0.9241 0.1860 (  5251 PWs)   bands (ev):

   -65.5306 -65.2080 -65.0830 -65.0787 -64.8131 -32.5546 -32.4844 -32.4655
   -32.2127 -32.1796 -32.1516 -32.0900 -32.0638 -32.0561 -32.0509 -32.0264
   -32.0105 -31.8494 -31.7829 -31.7380 -29.6126 -29.4637 -29.2616 -11.6680
   -11.4974 -11.4285 -11.3563 -10.9204 -10.7961 -10.6955 -10.6456 -10.4276
    -8.2677  -8.1390  -8.0686  -7.9751  -7.7210  -7.3974  -7.3202  -7.2376
     3.8635   4.2569   4.3325   4.4777   4.5524   4.7028   4.8736   5.3426
     5.4053   5.4836   5.7703   5.8951   5.9561   6.0974   6.2545   6.3372
     6.5303   6.5493   6.6107   6.7268   6.8150   6.8961   6.9803   7.0586

     occupation numbers 
     1.0000   1.0000   1.0000   1.0000   1.0000   1.0000   1.0000   1.0000
     1.0000   1.0000   1.0000   1.0000   1.0000   1.0000   1.0000   1.0000
     1.0000   1.0000   1.0000   1.0000   1.0000   1.0000   1.0000   1.0000
     1.0000   1.0000   1.0000   1.0000   1.0000   1.0000   1.0000   1.0000
     1.0000   1.0000   1.0000   1.0000   1.0000   1.0000   1.0000   1.0000
     1.0000   1.0000   1.0000   1.0000   1.0000   1.0000   1.0000   1.0000
     1.0000   1.0000   1.0000   1.0000   1.0000   1.0000   1.0000   1.0000
     1.0000   1.0000   1.0000   1.0000   1.0000   1.0000   1.0000   1.0000

          k = 0.3740-0.7357 0.0133 (  5229 PWs)   bands (ev):

   -65.5306 -65.2080 -65.0830 -65.0788 -64.8131 -32.5546 -32.4845 -32.4656
   -32.2126 -32.1795 -32.1512 -32.0900 -32.0610 -32.0564 -32.0532 -32.0264
   -32.0108 -31.8495 -31.7829 -31.7380 -29.6105 -29.4630 -29.2652 -11.5436
   -11.4613 -11.3588 -11.3016 -10.9559 -10.8881 -10.7945 -10.7353 -10.5140
    -8.2325  -8.0560  -8.0001  -7.9159  -7.6465  -7.5200  -7.3939  -7.2545
     4.1850   4.2959   4.3390   4.4515   4.5845   4.9363   5.0349   5.1206
     5.1986   5.3460   5.5135   5.6730   6.0625   6.1850   6.2685   6.3884
     6.4465   6.5424   6.6167   6.6950   6.7692   6.8952   6.9767   7.0645

     occupation numbers 
     1.0000   1.0000   1.0000   1.0000   1.0000   1.0000   1.0000   1.0000
     1.0000   1.0000   1.0000   1.0000   1.0000   1.0000   1.0000   1.0000
     1.0000   1.0000   1.0000   1.0000   1.0000   1.0000   1.0000   1.0000
     1.0000   1.0000   1.0000   1.0000   1.0000   1.0000   1.0000   1.0000
     1.0000   1.0000   1.0000   1.0000   1.0000   1.0000   1.0000   1.0000
     1.0000   1.0000   1.0000   1.0000   1.0000   1.0000   1.0000   1.0000
     1.0000   1.0000   1.0000   1.0000   1.0000   1.0000   1.0000   1.0000
     1.0000   1.0000   1.0000   1.0000   1.0000   1.0000   1.0000   1.0000

          k =-0.0107 0.0079-0.6937 (  5230 PWs)   bands (ev):

   -65.5306 -65.2080 -65.0830 -65.0788 -64.8131 -32.5545 -32.4846 -32.4657
   -32.2126 -32.1800 -32.1510 -32.0901 -32.0608 -32.0565 -32.0528 -32.0260
   -32.0113 -31.8495 -31.7828 -31.7378 -29.6153 -29.4568 -29.2668 -11.5929
   -11.4083 -11.3805 -11.3134 -10.9698 -10.8556 -10.8147 -10.6801 -10.5087
    -8.4406  -8.1408  -7.8799  -7.7021  -7.6293  -7.5831  -7.3443  -7.3151
     3.8910   4.0629   4.2721   4.3641   4.9401   5.0324   5.0788   5.1516
     5.3807   5.4397   5.5138   5.8097   6.0156   6.0512   6.2379   6.3216
     6.3652   6.4772   6.5461   6.7377   6.8196   6.9337   7.0095   7.2487

     occupation numbers 
     1.0000   1.0000   1.0000   1.0000   1.0000   1.0000   1.0000   1.0000
     1.0000   1.0000   1.0000   1.0000   1.0000   1.0000   1.0000   1.0000
     1.0000   1.0000   1.0000   1.0000   1.0000   1.0000   1.0000   1.0000
     1.0000   1.0000   1.0000   1.0000   1.0000   1.0000   1.0000   1.0000
     1.0000   1.0000   1.0000   1.0000   1.0000   1.0000   1.0000   1.0000
     1.0000   1.0000   1.0000   1.0000   1.0000   1.0000   1.0000   1.0000
     1.0000   1.0000   1.0000   1.0000   1.0000   1.0000   1.0000   1.0000
     1.0000   1.0000   1.0000   1.0000   1.0000   1.0000   1.0000   1.0000

          k = 0.1788 0.1964-0.8664 (  5238 PWs)   bands (ev):

   -65.5306 -65.2080 -65.0830 -65.0787 -64.8131 -32.5545 -32.4845 -32.4655
   -32.2127 -32.1801 -32.1514 -32.0901 -32.0637 -32.0560 -32.0507 -32.0260
   -32.0110 -31.8495 -31.7827 -31.7377 -29.6173 -29.4577 -29.2631 -11.6667
   -11.5238 -11.4280 -11.3908 -10.8697 -10.7979 -10.6897 -10.5402 -10.5048
    -8.3536  -8.2208  -8.0477  -7.9110  -7.6080  -7.4462  -7.3142  -7.2420
     3.8289   4.1261   4.2890   4.4656   4.6359   4.6914   4.8713   5.3804
     5.4817   5.6306   5.6713   5.7671   5.9460   6.1149   6.1969   6.3583
     6.4848   6.6178   6.6444   6.7517   6.8224   6.9456   7.0202   7.0763

     occupation numbers 
     1.0000   1.0000   1.0000   1.0000   1.0000   1.0000   1.0000   1.0000
     1.0000   1.0000   1.0000   1.0000   1.0000   1.0000   1.0000   1.0000
     1.0000   1.0000   1.0000   1.0000   1.0000   1.0000   1.0000   1.0000
     1.0000   1.0000   1.0000   1.0000   1.0000   1.0000   1.0000   1.0000
     1.0000   1.0000   1.0000   1.0000   1.0000   1.0000   1.0000   1.0000
     1.0000   1.0000   1.0000   1.0000   1.0000   1.0000   1.0000   1.0000
     1.0000   1.0000   1.0000   1.0000   1.0000   1.0000   1.0000   1.0000
     1.0000   1.0000   1.0000   1.0000   1.0000   1.0000   1.0000   1.0000

          k =-0.3897-0.3690-0.3482 (  5230 PWs)   bands (ev):

   -65.5306 -65.2080 -65.0830 -65.0787 -64.8131 -32.5545 -32.4843 -32.4654
   -32.2128 -32.1802 -32.1518 -32.0902 -32.0656 -32.0561 -32.0490 -32.0261
   -32.0106 -31.8494 -31.7827 -31.7377 -29.6194 -29.4585 -29.2594 -11.7494
   -11.5736 -11.4695 -11.4517 -10.8171 -10.7563 -10.5787 -10.4957 -10.3979
    -8.3398  -8.2301  -8.1181  -8.0307  -7.7388  -7.3528  -7.2720  -7.1785
     3.7680   4.1325   4.2988   4.3691   4.4914   4.7273   5.0097   5.2806
     5.4435   5.5986   5.8202   5.8905   5.9372   6.1142   6.1614   6.1730
     6.4406   6.6804   6.7419   6.8145   6.9203   6.9909   7.0523   7.1154

     occupation numbers 
     1.0000   1.0000   1.0000   1.0000   1.0000   1.0000   1.0000   1.0000
     1.0000   1.0000   1.0000   1.0000   1.0000   1.0000   1.0000   1.0000
     1.0000   1.0000   1.0000   1.0000   1.0000   1.0000   1.0000   1.0000
     1.0000   1.0000   1.0000   1.0000   1.0000   1.0000   1.0000   1.0000
     1.0000   1.0000   1.0000   1.0000   1.0000   1.0000   1.0000   1.0000
     1.0000   1.0000   1.0000   1.0000   1.0000   1.0000   1.0000   1.0000
     1.0000   1.0000   1.0000   1.0000   1.0000   1.0000   1.0000   1.0000
     1.0000   1.0000   1.0000   1.0000   1.0000   1.0000   1.0000   1.0000

     highest occupied level (ev):     7.4239

!    total energy              =   -1109.85218337 Ry
     Harris-Foulkes estimate   =   -1109.85218337 Ry
     estimated scf accuracy    <          6.7E-11 Ry

     The total energy is the sum of the following terms:

     one-electron contribution =    -545.93494304 Ry
     hartree contribution      =     317.82457908 Ry
     xc contribution           =    -177.73664441 Ry
     ewald contribution        =    -704.00517499 Ry

     convergence has been achieved in  20 iterations

     Forces acting on atoms (Ry/au):

     atom    1 type  2   force =  -0.52645589E-01 -0.33921842E-01 -0.30121702E-01
     atom    2 type  3   force =   0.16885378E-02  0.89366845E-02 -0.21987556E-01
     atom    3 type  1   force =  -0.10540449E-01  0.34311813E-01 -0.23230958E-01
     atom    4 type  3   force =  -0.11132701E-01 -0.29784849E-01 -0.64651406E-01
     atom    5 type  1   force =  -0.82430436E-01  0.90050742E-01  0.27157816E-01
     atom    6 type  3   force =   0.34969881E-01 -0.16448596E-01  0.43586076E-01
     atom    7 type  2   force =   0.25448193E-01  0.28775983E-01  0.67369153E-01
     atom    8 type  3   force =  -0.45533873E-01  0.42040981E-01  0.29353410E-01
     atom    9 type  2   force =   0.17552836E-01  0.38704387E-01  0.88806953E-02
     atom   10 type  3   force =   0.16692531E-01 -0.16041475E-01  0.48967636E-01
     atom   11 type  2   force =   0.90884963E-02 -0.16396526E-02  0.60044507E-01
     atom   12 type  3   force =   0.42472779E-01 -0.20282289E-01 -0.25294228E-01
     atom   13 type  2   force =  -0.20369233E-01  0.24418358E-01 -0.25541673E-01
     atom   14 type  3   force =   0.60262541E-01 -0.61482703E-02 -0.94507617E-02
     atom   15 type  1   force =  -0.57561408E-02 -0.27639732E-01 -0.55601735E-01
     atom   16 type  3   force =   0.20232626E-01 -0.11533224E+00 -0.29479273E-01
     The non-local contrib.  to forces
     atom    1 type  2   force =  -0.48723848E-01  0.59521095E-01  0.15159287E+00
     atom    2 type  3   force =   0.17293186E-01  0.69827321E-01 -0.11043353E+00
     atom    3 type  1   force =  -0.16817778E-01 -0.67658945E-03  0.16701901E-01
     atom    4 type  3   force =  -0.11594983E+00  0.18024449E+00 -0.23264586E+00
     atom    5 type  1   force =  -0.33884585E-01  0.54602090E-01 -0.23373113E-01
     atom    6 type  3   force =  -0.14367792E-01 -0.13456135E+00  0.20873952E+00
     atom    7 type  2   force =   0.12907738E-01  0.11014925E+00  0.23397188E+00
     atom    8 type  3   force =  -0.90256216E-01  0.15632877E+00  0.17845468E+00
     atom    9 type  2   force =  -0.49620426E-01  0.41543663E+00 -0.58582556E-01
     atom   10 type  3   force =  -0.13381687E+00  0.12000455E-01  0.24143182E+00
     atom   11 type  2   force =  -0.82049868E-01  0.92658392E-01 -0.68601214E-01
     atom   12 type  3   force =   0.79136617E-01 -0.11417028E+00  0.13696056E+00
     atom   13 type  2   force =  -0.24039992E+00 -0.65084493E-01  0.13407400E+00
     atom   14 type  3   force =   0.49504625E-01  0.66061351E-01 -0.12290945E+00
     atom   15 type  1   force =   0.13045118E-01  0.35090835E-02  0.28531608E-01
     atom   16 type  3   force =   0.16049043E+00 -0.13418448E+00 -0.89508713E-01
     The ionic contribution  to forces
     atom    1 type  2   force =  -0.10961748E+00 -0.58274595E+00  0.14588370E+01
     atom    2 type  3   force =  -0.91979660E+00 -0.10565446E+01 -0.30254542E+00
     atom    3 type  1   force =  -0.82136662E+00  0.70049837E+00 -0.35888353E+00
     atom    4 type  3   force =   0.20137388E+01 -0.27732008E+01  0.45763065E+00
     atom    5 type  1   force =  -0.25597845E+01  0.14240081E+01 -0.18697280E+00
     atom    6 type  3   force =   0.22569116E+01  0.20517962E+01  0.28173176E-01
     atom    7 type  2   force =   0.90205276E+00  0.22973677E+01  0.22764432E+01
     atom    8 type  3   force =  -0.18838536E+01 -0.86455576E+00 -0.15012933E+01
     atom    9 type  2   force =   0.81872766E+00  0.28045273E+01  0.35485369E+00
     atom   10 type  3   force =   0.23182463E+01 -0.13291770E+00  0.37564161E+00
     atom   11 type  2   force =  -0.35897760E+00  0.11412455E+00  0.54007076E-01
     atom   12 type  3   force =   0.21947287E+00 -0.16140908E+00 -0.29846786E+01
     atom   13 type  2   force =  -0.21075119E+01  0.16035746E-02  0.38366698E+00
     atom   14 type  3   force =   0.48011737E+00 -0.19347196E+01  0.30275569E+00
     atom   15 type  1   force =   0.48719361E+00 -0.11090069E+01 -0.96276617E+00
     atom   16 type  3   force =  -0.73555268E+00 -0.77882540E+00  0.60513075E+00
     The local contribution  to forces
     atom    1 type  2   force =   0.10569238E+00  0.48930476E+00 -0.16405448E+01
     atom    2 type  3   force =   0.90425188E+00  0.99612968E+00  0.39032323E+00
     atom    3 type  1   force =   0.82801139E+00 -0.66491945E+00  0.31833794E+00
     atom    4 type  3   force =  -0.19096086E+01  0.25632888E+01 -0.29181396E+00
     atom    5 type  1   force =   0.25108901E+01 -0.13890754E+01  0.23864227E+00
     atom    6 type  3   force =  -0.22072647E+01 -0.19345562E+01 -0.19183981E+00
     atom    7 type  2   force =  -0.88951711E+00 -0.23787345E+01 -0.24430402E+01
     atom    8 type  3   force =   0.19277200E+01  0.75168647E+00  0.13533547E+01
     atom    9 type  2   force =  -0.75154587E+00 -0.31812558E+01 -0.28739360E+00
     atom   10 type  3   force =  -0.21681380E+01  0.10431663E+00 -0.56658630E+00
     atom   11 type  2   force =   0.45011529E+00 -0.20842907E+00  0.74632882E-01
     atom   12 type  3   force =  -0.25497237E+00  0.25476210E+00  0.28224734E+01
     atom   13 type  2   force =   0.23275410E+01  0.87894769E-01 -0.54328771E+00
     atom   14 type  3   force =  -0.46802358E+00  0.18625567E+01 -0.18956232E+00
     atom   15 type  1   force =  -0.50652488E+00  0.10775476E+01  0.87699906E+00
     atom   16 type  3   force =   0.59615420E+00  0.79510935E+00 -0.54601882E+00
     The core correction contribution to forces
     atom    1 type  2   force =   0.00000000E+00  0.00000000E+00  0.00000000E+00
     atom    2 type  3   force =  -0.61047094E-04 -0.47624791E-03  0.66912932E-03
     atom    3 type  1   force =  -0.37231012E-03 -0.58831658E-03  0.61876957E-03
     atom    4 type  3   force =   0.68845433E-03 -0.11792493E-03  0.21769690E-02
     atom    5 type  1   force =   0.34341850E-03  0.52440087E-03 -0.11408226E-02
     atom    6 type  3   force =  -0.31007076E-03  0.87227755E-03 -0.14865228E-02
     atom    7 type  2   force =   0.00000000E+00  0.00000000E+00  0.00000000E+00
     atom    8 type  3   force =   0.85564121E-03 -0.14171732E-02 -0.11621787E-02
     atom    9 type  2   force =   0.00000000E+00  0.00000000E+00  0.00000000E+00
     atom   10 type  3   force =   0.39938636E-03  0.55659595E-03 -0.15190609E-02
     atom   11 type  2   force =   0.00000000E+00  0.00000000E+00  0.00000000E+00
     atom   12 type  3   force =  -0.11639000E-02  0.53558645E-03 -0.50823339E-04
     atom   13 type  2   force =   0.00000000E+00  0.00000000E+00  0.00000000E+00
     atom   14 type  3   force =  -0.13349211E-02 -0.47401785E-04  0.26584472E-03
     atom   15 type  1   force =   0.53398873E-03  0.30782712E-03  0.16330067E-02
     atom   16 type  3   force =  -0.86077733E-03  0.25670300E-02  0.91616146E-03
     The Hubbard contrib.    to forces
     atom    1 type  2   force =   0.00000000E+00  0.00000000E+00  0.00000000E+00
     atom    2 type  3   force =   0.00000000E+00  0.00000000E+00  0.00000000E+00
     atom    3 type  1   force =   0.00000000E+00  0.00000000E+00  0.00000000E+00
     atom    4 type  3   force =   0.00000000E+00  0.00000000E+00  0.00000000E+00
     atom    5 type  1   force =   0.00000000E+00  0.00000000E+00  0.00000000E+00
     atom    6 type  3   force =   0.00000000E+00  0.00000000E+00  0.00000000E+00
     atom    7 type  2   force =   0.00000000E+00  0.00000000E+00  0.00000000E+00
     atom    8 type  3   force =   0.00000000E+00  0.00000000E+00  0.00000000E+00
     atom    9 type  2   force =   0.00000000E+00  0.00000000E+00  0.00000000E+00
     atom   10 type  3   force =   0.00000000E+00  0.00000000E+00  0.00000000E+00
     atom   11 type  2   force =   0.00000000E+00  0.00000000E+00  0.00000000E+00
     atom   12 type  3   force =   0.00000000E+00  0.00000000E+00  0.00000000E+00
     atom   13 type  2   force =   0.00000000E+00  0.00000000E+00  0.00000000E+00
     atom   14 type  3   force =   0.00000000E+00  0.00000000E+00  0.00000000E+00
     atom   15 type  1   force =   0.00000000E+00  0.00000000E+00  0.00000000E+00
     atom   16 type  3   force =   0.00000000E+00  0.00000000E+00  0.00000000E+00
     The SCF correction term to forces
     atom    1 type  2   force =   0.29864857E-05 -0.20612125E-05 -0.71002230E-05
     atom    2 type  3   force =   0.74531972E-06  0.25844523E-06 -0.12741206E-05
     atom    3 type  1   force =   0.44990411E-05 -0.25157249E-05 -0.63423494E-05
     atom    4 type  3   force =  -0.18971463E-05  0.32825143E-06  0.48702549E-06
     atom    5 type  1   force =   0.47777871E-05 -0.87704914E-05  0.19794823E-05
     atom    6 type  3   force =   0.44066246E-06  0.17413387E-06 -0.59243759E-06
     atom    7 type  2   force =   0.44251687E-05 -0.68511118E-05 -0.60284774E-05
     atom    8 type  3   force =  -0.52107575E-07 -0.16460844E-05 -0.82539011E-06
     atom    9 type  2   force =  -0.88908990E-05 -0.40684604E-05  0.28501279E-05
     atom   10 type  3   force =   0.13847970E-05  0.22350115E-05 -0.74402042E-06
     atom   11 type  2   force =   0.30518708E-06  0.61588706E-05  0.54567982E-05
     atom   12 type  3   force =  -0.80724852E-06 -0.93237396E-06  0.88936633E-06
     atom   13 type  2   force =   0.11603323E-05  0.41925629E-05  0.47499694E-05
     atom   14 type  3   force =  -0.13226158E-05  0.29337255E-06 -0.83388405E-06
     atom   15 type  1   force =  -0.43552251E-05  0.23437465E-05  0.45644418E-06
     atom   16 type  3   force =   0.10783379E-05  0.95048143E-06  0.10421871E-05

     Total force =     0.278247     Total SCF correction =     0.000024


     entering subroutine stress ...

          total   stress  (Ry/bohr**3)                   (kbar)     P=   15.16
   0.0003099459   0.0002121463   0.0002051783         45.59     31.21     30.18
   0.0002121463   0.0003284246  -0.0001688891         31.21     48.31    -24.84
   0.0002051783  -0.0001688891  -0.0003291909         30.18    -24.84    -48.43

     kinetic stress (kbar)  20966.28     40.78     41.00
                               40.78  20989.05    -12.42
                               41.00    -12.42  20856.46

     local   stress (kbar)  -8476.75    222.41    810.93
                              222.41  -5357.05    940.09
                              810.93    940.09   1177.45

     nonloc. stress (kbar)   5413.98     -4.04     -5.61
                               -4.04   5392.17     -5.01
                               -5.61     -5.01   5378.92

     hartree stress (kbar)  14328.46   -170.19   -393.88
                             -170.19  13102.31   -433.56
                             -393.88   -433.56  10635.87

     exc-cor stress (kbar)  -5808.91      0.08     -0.36
                                0.08  -5810.60     -0.17
                               -0.36     -0.17  -5814.94

     corecor stress (kbar)   -869.12     -0.13     -0.13
                               -0.13   -869.08      0.03
                               -0.13      0.03   -868.58

     ewald   stress (kbar) -25508.36    -57.70   -421.76
                              -57.70 -27398.49   -513.80
                             -421.76   -513.80 -31413.62

     hubbard stress (kbar)      0.00      0.00      0.00
                                0.00      0.00      0.00
                                0.00      0.00      0.00

     london  stress (kbar)      0.00      0.00      0.00
                                0.00      0.00      0.00
                                0.00      0.00      0.00

     XDM     stress (kbar)      0.00      0.00      0.00
                                0.00      0.00      0.00
                                0.00      0.00      0.00

     dft-nl  stress (kbar)      0.00      0.00      0.00
                                0.00      0.00      0.00
                                0.00      0.00      0.00



     Writing output data file mix.dummy43016.save

     init_run     :     12.40s CPU     13.34s WALL (       1 calls)
     electrons    :    644.03s CPU    703.68s WALL (       1 calls)
     forces       :      5.00s CPU      5.42s WALL (       1 calls)
     stress       :      9.69s CPU      9.99s WALL (       1 calls)

     Called by init_run:
     wfcinit      :     10.79s CPU     11.70s WALL (       1 calls)
     potinit      :      0.44s CPU      0.45s WALL (       1 calls)

     Called by electrons:
     c_bands      :    568.80s CPU    623.99s WALL (      20 calls)
     sum_band     :     69.22s CPU     73.50s WALL (      20 calls)
     v_of_rho     :      0.72s CPU      0.78s WALL (      21 calls)
     v_h          :      0.04s CPU      0.05s WALL (      21 calls)
     v_xc         :      0.75s CPU      0.79s WALL (      23 calls)
     newd         :      4.20s CPU      4.28s WALL (      21 calls)
     mix_rho      :      1.10s CPU      1.15s WALL (      20 calls)

     Called by c_bands:
     init_us_2    :      3.56s CPU      3.60s WALL (    1548 calls)
     cegterg      :    543.71s CPU    597.58s WALL (     720 calls)

     Called by sum_band:
     sum_band:bec :      0.78s CPU      0.85s WALL (     720 calls)
     addusdens    :      3.92s CPU      3.97s WALL (      20 calls)

     Called by *egterg:
     h_psi        :    272.22s CPU    289.63s WALL (    2111 calls)
     s_psi        :     28.19s CPU     30.13s WALL (    2111 calls)
     g_psi        :      0.32s CPU      0.31s WALL (    1355 calls)
     cdiaghg      :     72.66s CPU     83.07s WALL (    2075 calls)
     cegterg:over :     84.67s CPU     94.17s WALL (    1355 calls)
     cegterg:upda :      9.57s CPU     12.79s WALL (    1355 calls)
     cegterg:last :      6.10s CPU      7.88s WALL (     720 calls)

     Called by h_psi:
     h_psi:vloc   :    166.93s CPU    170.52s WALL (    2111 calls)
     h_psi:vnl    :    104.89s CPU    118.67s WALL (    2111 calls)
     add_vuspsi   :     28.87s CPU     33.10s WALL (    2111 calls)

     General routines
     calbec       :    108.13s CPU    121.64s WALL (    2903 calls)
     fft          :      1.13s CPU      1.18s WALL (     357 calls)
     ffts         :      0.68s CPU      0.69s WALL (     536 calls)
     fftw         :    187.72s CPU    191.83s WALL (  267328 calls)
     interpolate  :      0.14s CPU      0.15s WALL (      41 calls)

     Parallel routines
     fft_scatter  :     92.95s CPU     95.46s WALL (  268221 calls)

     PWSCF        : 11m13.85s CPU    12m15.86s WALL


   This run was terminated on:   5:40:13   8Dec2017            

=------------------------------------------------------------------------------=
   JOB DONE.
=------------------------------------------------------------------------------=
