
     Program PWSCF v.5.1 starts on 16Nov2017 at  7:13:39 

     This program is part of the open-source Quantum ESPRESSO suite
     for quantum simulation of materials; please cite
         "P. Giannozzi et al., J. Phys.:Condens. Matter 21 395502 (2009);
          URL http://www.quantum-espresso.org", 
     in publications or presentations arising from this work. More details at
     http://www.quantum-espresso.org/quote

     Parallel version (MPI), running on    16 processors
     R & G space division:  proc/nbgrp/npool/nimage =      16
     Waiting for input...
     Reading input from standard input
Warning: card &IONS ignored
Warning: card   ION_DYNAMICS='BFGS', ignored
Warning: card / ignored
Warning: card &CELL ignored
Warning: card  CELL_DYNAMICS = 'BFGS' ignored
Warning: card / ignored

     Current dimensions of program PWSCF are:
     Max number of different atomic species (ntypx) = 10
     Max number of k-points (npk) =  40000
     Max angular momentum in pseudopotentials (lmaxx) =  3
 kfg - two_fermi_energies  F

     Subspace diagonalization in iterative solution of the eigenvalue problem:
     a serial algorithm will be used


     Parallelization info
     --------------------
     sticks:   dense  smooth     PW     G-vecs:    dense   smooth      PW
     Min         125     100     28                 3899     2783     431
     Max         126     101     29                 3903     2797     434
     Sum        2009    1611    463                62413    44643    6931



     bravais-lattice index     =            0
     lattice parameter (alat)  =    11.982207661  a.u.
     unit-cell volume          =    1306.9525 (a.u.)^3
     number of atoms/cell      =           16
     number of atomic types    =            3
     number of electrons       =       128.00
     number of Kohn-Sham states=           64
     kinetic-energy cutoff     =      40.0000  Ry
     charge density cutoff     =     200.0000  Ry
     convergence threshold     =      1.0E-10
     mixing beta               =       0.3000
     number of iterations used =            8  local-TF  mixing
     Exchange-correlation      = SLA  PW   PSX  PSC ( 1  4 10  8 0)
     A smooth kinetic-energy cutoff is imposed at      39.5000 Ry
     height of the smooth step-function =             800.0000 Ry
     width of the smooth step-function  =               1.0000 Ry


     celldm(1)=  11.982208  celldm(2)=   0.000000  celldm(3)=   0.000000
     celldm(4)=   0.000000  celldm(5)=   0.000000  celldm(6)=   0.000000

     crystal axes: (cart. coord. in units of alat)
               a(1) = (  -0.005667236394   0.701672452633   0.712477123596 )  
               a(2) = (   0.718444156915  -0.004908176801   0.711718064003 )  
               a(3) = (   0.740988798036   0.723458034161  -0.027452817923 )  

     reciprocal axes: (cart. coord. in units 2 pi/alat)
               b(1) = ( -0.677577  0.720139  0.688946 )  
               b(2) = (  0.703832 -0.694713  0.689776 )  
               b(3) = (  0.661948  0.679084 -0.663520 )  


     PseudoPot. # 1 for Ca read from file:
     /users/kfg/psuedo/gbrv_1.5/ca.pbesol.UPF
     MD5 check sum: 0533207b58cddeaa036efa5b63902087
     Pseudo is Ultrasoft + core correction, Zval = 10.0
     Generated by new atomic code, or converted to UPF format
     Using radial grid of  845 points,  6 beta functions with: 
                l(1) =   0
                l(2) =   0
                l(3) =   1
                l(4) =   1
                l(5) =   2
                l(6) =   2
     Q(r) pseudized with  8 coefficients,  rinner =    1.500   1.500   1.500
                                                       1.500   1.500

     PseudoPot. # 2 for Mg read from file:
     /users/kfg/psuedo/gbrv_1.5/mg.pbesol.UPF
     MD5 check sum: 4059f37963cf5867752dbf5ab2400678
     Pseudo is Ultrasoft, Zval = 10.0
     Generated by new atomic code, or converted to UPF format
     Using radial grid of  821 points,  7 beta functions with: 
                l(1) =   0
                l(2) =   0
                l(3) =   0
                l(4) =   1
                l(5) =   1
                l(6) =   2
                l(7) =   2
     Q(r) pseudized with  8 coefficients,  rinner =    1.200   1.200   1.200
                                                       1.200   1.200

     PseudoPot. # 3 for O  read from file:
     /users/kfg/psuedo/gbrv_1.5/o.pbesol.UPF
     MD5 check sum: 501638753501ef6325af9037351f7734
     Pseudo is Ultrasoft + core correction, Zval =  6.0
     Generated by new atomic code, or converted to UPF format
     Using radial grid of  737 points,  5 beta functions with: 
                l(1) =   0
                l(2) =   0
                l(3) =   1
                l(4) =   1
                l(5) =   2
     Q(r) pseudized with  8 coefficients,  rinner =    0.900   0.900   0.900
                                                       0.900   0.900

     atomic species   valence    mass     pseudopotential
        Ca            10.00    40.07800     Ca( 1.00)
        Mg            10.00    40.07800     Mg( 1.00)
        O              6.00    15.99940     O ( 1.00)

     No symmetry found


                                    s                        frac. trans.

      isym =  1     identity                                     

 cryst.   s( 1) = (     1          0          0      )
                  (     0          1          0      )
                  (     0          0          1      )

 cart.    s( 1) = (  1.0000000  0.0000000  0.0000000 )
                  (  0.0000000  1.0000000  0.0000000 )
                  (  0.0000000  0.0000000  1.0000000 )


     point group C_1 (1)    
     there are  1 classes
     the character table:

       E    
A      1.00

     the symmetry operations in each class:
     E        1

   Cartesian axes

     site n.     atom                  positions (alat units)
         1           Mg  tau(   1) = (   -0.04868981692    0.02221501440    0.01801488744  )
         2           O   tau(   2) = (    0.39462728976    0.33964866071    0.33263154410  )
         3           Ca  tau(   3) = (    0.36431151273    0.34420337667   -0.03004926879  )
         4           O   tau(   4) = (    0.75394912254    0.72773785592    0.35446862068  )
         5           Ca  tau(   5) = (    0.36961687004    0.00253166665    0.36567825713  )
         6           O   tau(   6) = (    0.70602491597    0.34381628125    0.71676476265  )
         7           Mg  tau(   7) = (    0.71571806304    0.32200445007    0.30517464675  )
         8           O   tau(   8) = (    1.06560873863    0.70449063639    0.71515775312  )
         9           Ca  tau(   9) = (    0.03314326838    0.36528046142    0.36127708423  )
        10           O   tau(  10) = (    0.35238095828    0.69499102899    0.70281093486  )
        11           Ca  tau(  11) = (    0.36650052451    0.70072552818    0.35109583549  )
        12           O   tau(  12) = (    0.70298504878    1.06313480216    0.70132726587  )
        13           Mg  tau(  13) = (    0.40713267780    0.40080193026    0.73921082369  )
        14           O   tau(  14) = (    0.73131543271    0.68993169701    1.06590521170  )
        15           Mg  tau(  15) = (    0.73708205095    0.72368848530    0.68595916857  )
        16           O   tau(  16) = (    1.07088765413    1.07613198456    0.99502669053  )

   Crystallographic axes

     site n.     atom                  positions (cryst. coord.)
         1           Mg  tau(   1) = (    0.06140026377   -0.03727628327   -0.02909749683  )
         2           O   tau(   2) = (    0.20636922256    0.27123441251    0.27116476611  )
         3           Ca  tau(   3) = (   -0.01967708792   -0.00343554522    0.49483642180  )
         4           O   tau(   4) = (    0.25742380984    0.26958888506    0.75807278918  )
         5           Ca  tau(   5) = (    0.00331208672    0.51062558788    0.00375129886  )
         6           O   tau(   6) = (    0.26302189751    0.75247668775    0.22524368001  )
         7           Mg  tau(   7) = (   -0.04281697951    0.49054701750    0.48994636849  )
         8           O   tau(   8) = (    0.27800476100    0.75388982962    0.70926377791  )
         9           Ca  tau(   9) = (    0.48949602872    0.01876255144    0.03028050181  )
        10           O   tau(  10) = (    0.74592388472    0.24998004682    0.23888563735  )
        11           Ca  tau(  11) = (    0.49817362073    0.01332939390    0.48549636375  )
        12           O   tau(  12) = (    0.77245519720    0.23996894034    0.72195214472  )
        13           Mg  tau(  13) = (    0.52204599005    0.51800077364    0.05119727429  )
        14           O   tau(  14) = (    0.73567578462    0.77065486181    0.24536430146  )
        15           Mg  tau(  15) = (    0.49431561597    0.48918466467    0.52420710198  )
        16           O   tau(  16) = (    0.73487590399    0.69246817556    0.77943506912  )

     number of k points=    36
                       cart. coord. in units 2pi/alat
        k(    1) = (   0.0000000   0.0000000   0.0000000), wk =   0.0312500
        k(    2) = (   0.1654869   0.1697710  -0.1658801), wk =   0.0625000
        k(    3) = (  -0.3309738  -0.3395419   0.3317601), wk =   0.0312500
        k(    4) = (   0.1759581  -0.1736782   0.1724440), wk =   0.0625000
        k(    5) = (   0.3414450  -0.0039072   0.0065639), wk =   0.0625000
        k(    6) = (  -0.1550158  -0.5132201   0.5042041), wk =   0.0625000
        k(    7) = (   0.0104712  -0.3434492   0.3383241), wk =   0.0625000
        k(    8) = (  -0.3519161   0.3473564  -0.3448880), wk =   0.0312500
        k(    9) = (  -0.1864292   0.5171274  -0.5107681), wk =   0.0625000
        k(   10) = (  -0.6828900   0.0078145  -0.0131278), wk =   0.0312500
        k(   11) = (  -0.1693941   0.1800347   0.1722366), wk =   0.0625000
        k(   12) = (  -0.0039072   0.3498057   0.0063565), wk =   0.0625000
        k(   13) = (  -0.5003680  -0.1595072   0.5039967), wk =   0.0625000
        k(   14) = (  -0.3348811   0.0102637   0.3381166), wk =   0.0625000
        k(   15) = (   0.0065639   0.0063565   0.3446806), wk =   0.0625000
        k(   16) = (   0.1720508   0.1761275   0.1788005), wk =   0.0625000
        k(   17) = (  -0.3244099  -0.3331854   0.6764407), wk =   0.0625000
        k(   18) = (  -0.1589230  -0.1634145   0.5105606), wk =   0.0625000
        k(   19) = (  -0.5213103   0.5273911  -0.1726514), wk =   0.0625000
        k(   20) = (  -0.3558234   0.6971621  -0.3385315), wk =   0.0625000
        k(   21) = (  -0.8522841   0.1878492   0.1591087), wk =   0.0625000
        k(   22) = (  -0.6867972   0.3576201  -0.0067713), wk =   0.0625000
        k(   23) = (  -0.3453522   0.3537129  -0.0002074), wk =   0.0625000
        k(   24) = (  -0.1798653   0.5234839  -0.1660875), wk =   0.0625000
        k(   25) = (  -0.6763261   0.0141710   0.3315527), wk =   0.0625000
        k(   26) = (  -0.5108391   0.1839419   0.1656726), wk =   0.0625000
        k(   27) = (   0.3387883  -0.3600694  -0.3444731), wk =   0.0312500
        k(   28) = (   0.5042752  -0.1902984  -0.5103532), wk =   0.0625000
        k(   29) = (   0.0078145  -0.6996113  -0.0127130), wk =   0.0312500
        k(   30) = (   0.5147464  -0.5337476  -0.1720291), wk =   0.0625000
        k(   31) = (   0.6802333  -0.3639766  -0.3379092), wk =   0.0625000
        k(   32) = (   0.1837725  -0.8732895   0.1597310), wk =   0.0625000
        k(   33) = (   0.3492595  -0.7035186  -0.0061491), wk =   0.0625000
        k(   34) = (  -0.0131278  -0.0127130  -0.6893611), wk =   0.0312500
        k(   35) = (   0.1523591   0.1570580  -0.8552412), wk =   0.0625000
        k(   36) = (  -0.3441017  -0.3522549  -0.3576010), wk =   0.0312500

                       cryst. coord.
        k(    1) = (   0.0000000   0.0000000   0.0000000), wk =   0.0312500
        k(    2) = (  -0.0000000  -0.0000000   0.2500000), wk =   0.0625000
        k(    3) = (   0.0000000   0.0000000  -0.5000000), wk =   0.0312500
        k(    4) = (   0.0000000   0.2500000   0.0000000), wk =   0.0625000
        k(    5) = (   0.0000000   0.2500000   0.2500000), wk =   0.0625000
        k(    6) = (   0.0000000   0.2500000  -0.5000000), wk =   0.0625000
        k(    7) = (   0.0000000   0.2500000  -0.2500000), wk =   0.0625000
        k(    8) = (  -0.0000000  -0.5000000  -0.0000000), wk =   0.0312500
        k(    9) = (   0.0000000  -0.5000000   0.2500000), wk =   0.0625000
        k(   10) = (  -0.0000000  -0.5000000  -0.5000000), wk =   0.0312500
        k(   11) = (   0.2500000   0.0000000   0.0000000), wk =   0.0625000
        k(   12) = (   0.2500000   0.0000000   0.2500000), wk =   0.0625000
        k(   13) = (   0.2500000   0.0000000  -0.5000000), wk =   0.0625000
        k(   14) = (   0.2500000   0.0000000  -0.2500000), wk =   0.0625000
        k(   15) = (   0.2500000   0.2500000   0.0000000), wk =   0.0625000
        k(   16) = (   0.2500000   0.2500000   0.2500000), wk =   0.0625000
        k(   17) = (   0.2500000   0.2500000  -0.5000000), wk =   0.0625000
        k(   18) = (   0.2500000   0.2500000  -0.2500000), wk =   0.0625000
        k(   19) = (   0.2500000  -0.5000000  -0.0000000), wk =   0.0625000
        k(   20) = (   0.2500000  -0.5000000   0.2500000), wk =   0.0625000
        k(   21) = (   0.2500000  -0.5000000  -0.5000000), wk =   0.0625000
        k(   22) = (   0.2500000  -0.5000000  -0.2500000), wk =   0.0625000
        k(   23) = (   0.2500000  -0.2500000  -0.0000000), wk =   0.0625000
        k(   24) = (   0.2500000  -0.2500000   0.2500000), wk =   0.0625000
        k(   25) = (   0.2500000  -0.2500000  -0.5000000), wk =   0.0625000
        k(   26) = (   0.2500000  -0.2500000  -0.2500000), wk =   0.0625000
        k(   27) = (  -0.5000000   0.0000000  -0.0000000), wk =   0.0312500
        k(   28) = (  -0.5000000  -0.0000000   0.2500000), wk =   0.0625000
        k(   29) = (  -0.5000000  -0.0000000  -0.5000000), wk =   0.0312500
        k(   30) = (  -0.5000000   0.2500000  -0.0000000), wk =   0.0625000
        k(   31) = (  -0.5000000   0.2500000   0.2500000), wk =   0.0625000
        k(   32) = (  -0.5000000   0.2500000  -0.5000000), wk =   0.0625000
        k(   33) = (  -0.5000000   0.2500000  -0.2500000), wk =   0.0625000
        k(   34) = (  -0.5000000  -0.5000000  -0.0000000), wk =   0.0312500
        k(   35) = (  -0.5000000  -0.5000000   0.2500000), wk =   0.0625000
        k(   36) = (  -0.5000000  -0.5000000  -0.5000000), wk =   0.0312500

     Dense  grid:    62413 G-vectors     FFT dimensions: (  54,  60,  60)

     Smooth grid:    44643 G-vectors     FFT dimensions: (  50,  50,  50)

     Largest allocated arrays     est. size (Mb)     dimensions
        Kohn-Sham Wavefunctions         0.36 Mb     (     367,   64)
        NL pseudopotentials             1.41 Mb     (     367,  252)
        Each V/rho on FFT grid          0.20 Mb     (   12960)
        Each G-vector array             0.03 Mb     (    3900)
        G-vector shells                 0.03 Mb     (    3703)
     Largest temporary arrays     est. size (Mb)     dimensions
        Auxiliary wavefunctions         1.43 Mb     (     367,  256)
        Each subspace H/S matrix        1.00 Mb     (     256,  256)
        Each <psi_i|beta_j> matrix      0.25 Mb     (     252,   64)
        Arrays for rho mixing           1.58 Mb     (   12960,    8)

     Check: negative/imaginary core charge=   -0.000003    0.000000

     Initial potential from superposition of free atoms

     starting charge  126.77837, renormalised to  128.00000
     Starting wfc are   92 randomized atomic wfcs

     total cpu time spent up to now is       18.5 secs

     per-process dynamical memory:    32.3 Mb

     Self-consistent Calculation

     iteration #  1     ecut=    40.00 Ry     beta=0.30
     Davidson diagonalization with overlap
     ethr =  1.00E-02,  avg # of iterations =  2.0

     total cpu time spent up to now is       55.2 secs

     total energy              =   -1059.88272519 Ry
     Harris-Foulkes estimate   =   -1060.53363175 Ry
     estimated scf accuracy    <       3.35934522 Ry

     iteration #  2     ecut=    40.00 Ry     beta=0.30
     Davidson diagonalization with overlap
     ethr =  2.62E-03,  avg # of iterations =  1.7

     total cpu time spent up to now is       89.6 secs

     total energy              =   -1059.41054701 Ry
     Harris-Foulkes estimate   =   -1059.98902963 Ry
     estimated scf accuracy    <       1.43304207 Ry

     iteration #  3     ecut=    40.00 Ry     beta=0.30
     Davidson diagonalization with overlap
     ethr =  1.12E-03,  avg # of iterations =  2.0

     total cpu time spent up to now is      133.2 secs

     total energy              =   -1059.62845977 Ry
     Harris-Foulkes estimate   =   -1059.67412293 Ry
     estimated scf accuracy    <       0.17502967 Ry

     iteration #  4     ecut=    40.00 Ry     beta=0.30
     Davidson diagonalization with overlap
     ethr =  1.37E-04,  avg # of iterations =  2.0

     total cpu time spent up to now is      173.6 secs

     total energy              =   -1059.58363126 Ry
     Harris-Foulkes estimate   =   -1059.64676964 Ry
     estimated scf accuracy    <       0.11029973 Ry

     iteration #  5     ecut=    40.00 Ry     beta=0.30
     Davidson diagonalization with overlap
     ethr =  8.62E-05,  avg # of iterations =  2.0

     total cpu time spent up to now is      216.4 secs

     total energy              =   -1059.60057019 Ry
     Harris-Foulkes estimate   =   -1059.60213623 Ry
     estimated scf accuracy    <       0.01693704 Ry

     iteration #  6     ecut=    40.00 Ry     beta=0.30
     Davidson diagonalization with overlap
     ethr =  1.32E-05,  avg # of iterations =  1.0

     total cpu time spent up to now is      246.5 secs

     total energy              =   -1059.59696981 Ry
     Harris-Foulkes estimate   =   -1059.60089424 Ry
     estimated scf accuracy    <       0.00976378 Ry

     iteration #  7     ecut=    40.00 Ry     beta=0.30
     Davidson diagonalization with overlap
     ethr =  7.63E-06,  avg # of iterations =  2.0

     total cpu time spent up to now is      293.6 secs

     total energy              =   -1059.59768749 Ry
     Harris-Foulkes estimate   =   -1059.59796103 Ry
     estimated scf accuracy    <       0.00104819 Ry

     iteration #  8     ecut=    40.00 Ry     beta=0.30
     Davidson diagonalization with overlap
     ethr =  8.19E-07,  avg # of iterations =  2.0

     total cpu time spent up to now is      338.6 secs

     total energy              =   -1059.59767641 Ry
     Harris-Foulkes estimate   =   -1059.59778892 Ry
     estimated scf accuracy    <       0.00025241 Ry

     iteration #  9     ecut=    40.00 Ry     beta=0.30
     Davidson diagonalization with overlap
     ethr =  1.97E-07,  avg # of iterations =  3.0

     total cpu time spent up to now is      386.9 secs

     total energy              =   -1059.59770693 Ry
     Harris-Foulkes estimate   =   -1059.59773007 Ry
     estimated scf accuracy    <       0.00013088 Ry

     iteration # 10     ecut=    40.00 Ry     beta=0.30
     Davidson diagonalization with overlap
     ethr =  1.02E-07,  avg # of iterations =  1.8

     total cpu time spent up to now is      421.2 secs

     total energy              =   -1059.59768966 Ry
     Harris-Foulkes estimate   =   -1059.59771068 Ry
     estimated scf accuracy    <       0.00006454 Ry

     iteration # 11     ecut=    40.00 Ry     beta=0.30
     Davidson diagonalization with overlap
     ethr =  5.04E-08,  avg # of iterations =  2.0

     total cpu time spent up to now is      460.1 secs

     total energy              =   -1059.59769579 Ry
     Harris-Foulkes estimate   =   -1059.59769779 Ry
     estimated scf accuracy    <       0.00000793 Ry

     iteration # 12     ecut=    40.00 Ry     beta=0.30
     Davidson diagonalization with overlap
     ethr =  6.19E-09,  avg # of iterations =  2.0

     total cpu time spent up to now is      498.1 secs

     total energy              =   -1059.59769490 Ry
     Harris-Foulkes estimate   =   -1059.59769625 Ry
     estimated scf accuracy    <       0.00000307 Ry

     iteration # 13     ecut=    40.00 Ry     beta=0.30
     Davidson diagonalization with overlap
     ethr =  2.40E-09,  avg # of iterations =  2.1

     total cpu time spent up to now is      537.9 secs

     total energy              =   -1059.59769537 Ry
     Harris-Foulkes estimate   =   -1059.59769543 Ry
     estimated scf accuracy    <       0.00000021 Ry

     iteration # 14     ecut=    40.00 Ry     beta=0.30
     Davidson diagonalization with overlap
     ethr =  1.67E-10,  avg # of iterations =  2.9

     total cpu time spent up to now is      584.0 secs

     total energy              =   -1059.59769539 Ry
     Harris-Foulkes estimate   =   -1059.59769542 Ry
     estimated scf accuracy    <       0.00000013 Ry

     iteration # 15     ecut=    40.00 Ry     beta=0.30
     Davidson diagonalization with overlap
     ethr =  9.85E-11,  avg # of iterations =  2.0

     total cpu time spent up to now is      622.0 secs

     total energy              =   -1059.59769538 Ry
     Harris-Foulkes estimate   =   -1059.59769539 Ry
     estimated scf accuracy    <       0.00000004 Ry

     iteration # 16     ecut=    40.00 Ry     beta=0.30
     Davidson diagonalization with overlap
     ethr =  2.87E-11,  avg # of iterations =  2.0

     total cpu time spent up to now is      660.8 secs

     total energy              =   -1059.59769538 Ry
     Harris-Foulkes estimate   =   -1059.59769539 Ry
     estimated scf accuracy    <          7.7E-09 Ry

     iteration # 17     ecut=    40.00 Ry     beta=0.30
     Davidson diagonalization with overlap
     ethr =  6.02E-12,  avg # of iterations =  2.0

     total cpu time spent up to now is      700.3 secs

     total energy              =   -1059.59769538 Ry
     Harris-Foulkes estimate   =   -1059.59769538 Ry
     estimated scf accuracy    <          2.2E-09 Ry

     iteration # 18     ecut=    40.00 Ry     beta=0.30
     Davidson diagonalization with overlap
     ethr =  1.73E-12,  avg # of iterations =  1.7

     total cpu time spent up to now is      734.4 secs

     total energy              =   -1059.59769538 Ry
     Harris-Foulkes estimate   =   -1059.59769538 Ry
     estimated scf accuracy    <          1.2E-09 Ry

     iteration # 19     ecut=    40.00 Ry     beta=0.30
     Davidson diagonalization with overlap
     ethr =  8.99E-13,  avg # of iterations =  2.0

     total cpu time spent up to now is      773.9 secs

     total energy              =   -1059.59769538 Ry
     Harris-Foulkes estimate   =   -1059.59769538 Ry
     estimated scf accuracy    <          1.7E-10 Ry

     iteration # 20     ecut=    40.00 Ry     beta=0.30
     Davidson diagonalization with overlap
     ethr =  1.30E-13,  avg # of iterations =  1.9

     total cpu time spent up to now is      808.3 secs

     End of self-consistent calculation

          k = 0.0000 0.0000 0.0000 (  5587 PWs)   bands (ev):

   -66.3484 -65.7987 -65.4760 -64.9721 -33.3291 -33.3124 -33.2800 -32.7728
   -32.7602 -32.7551 -32.4800 -32.4422 -32.4097 -32.0182 -31.9406 -31.9190
   -29.7640 -29.6925 -29.5337 -29.3817 -11.9188 -11.9069 -11.7495 -11.5326
   -11.1164 -10.8994 -10.8483 -10.8287 -10.6759 -10.6018 -10.5919 -10.5589
    -8.8524  -8.2783  -8.2011  -8.0459  -7.5974  -7.2528  -7.1206  -7.0783
     2.9015   3.6841   3.8459   4.5086   4.6730   4.6821   4.8024   5.6652
     5.7389   5.8249   5.8617   5.9309   6.0713   6.1863   6.2498   6.3436
     6.4448   6.4992   6.6377   6.8026   6.9020   7.0728   7.3113   7.4557

     occupation numbers 
     1.0000   1.0000   1.0000   1.0000   1.0000   1.0000   1.0000   1.0000
     1.0000   1.0000   1.0000   1.0000   1.0000   1.0000   1.0000   1.0000
     1.0000   1.0000   1.0000   1.0000   1.0000   1.0000   1.0000   1.0000
     1.0000   1.0000   1.0000   1.0000   1.0000   1.0000   1.0000   1.0000
     1.0000   1.0000   1.0000   1.0000   1.0000   1.0000   1.0000   1.0000
     1.0000   1.0000   1.0000   1.0000   1.0000   1.0000   1.0000   1.0000
     1.0000   1.0000   1.0000   1.0000   1.0000   1.0000   1.0000   1.0000
     1.0000   1.0000   1.0000   1.0000   1.0000   1.0000   1.0000   1.0000

          k = 0.1655 0.1698-0.1659 (  5566 PWs)   bands (ev):

   -66.3484 -65.7987 -65.4760 -64.9721 -33.3291 -33.3124 -33.2800 -32.7728
   -32.7602 -32.7551 -32.4800 -32.4423 -32.4097 -32.0182 -31.9406 -31.9190
   -29.7557 -29.6991 -29.5345 -29.3826 -11.8756 -11.8422 -11.6839 -11.4566
   -11.1608 -10.9753 -10.9149 -10.8824 -10.7646 -10.6957 -10.6025 -10.5699
    -8.6559  -8.2039  -8.1012  -7.9115  -7.6562  -7.3399  -7.2076  -7.1848
     3.1561   3.9277   4.0324   4.4820   4.7020   4.7830   4.9001   5.5393
     5.6003   5.6692   5.7923   5.8724   5.9642   6.0359   6.1735   6.2965
     6.3565   6.4347   6.5326   6.7160   6.8386   6.8820   7.2225   7.3712

     occupation numbers 
     1.0000   1.0000   1.0000   1.0000   1.0000   1.0000   1.0000   1.0000
     1.0000   1.0000   1.0000   1.0000   1.0000   1.0000   1.0000   1.0000
     1.0000   1.0000   1.0000   1.0000   1.0000   1.0000   1.0000   1.0000
     1.0000   1.0000   1.0000   1.0000   1.0000   1.0000   1.0000   1.0000
     1.0000   1.0000   1.0000   1.0000   1.0000   1.0000   1.0000   1.0000
     1.0000   1.0000   1.0000   1.0000   1.0000   1.0000   1.0000   1.0000
     1.0000   1.0000   1.0000   1.0000   1.0000   1.0000   1.0000   1.0000
     1.0000   1.0000   1.0000   1.0000   1.0000   1.0000   1.0000   1.0000

          k =-0.3310-0.3395 0.3318 (  5540 PWs)   bands (ev):

   -66.3484 -65.7987 -65.4760 -64.9721 -33.3291 -33.3124 -33.2800 -32.7728
   -32.7602 -32.7551 -32.4800 -32.4423 -32.4097 -32.0182 -31.9406 -31.9191
   -29.7445 -29.7088 -29.5353 -29.3835 -11.8261 -11.7746 -11.5677 -11.3086
   -11.2504 -11.1661 -11.0058 -10.8914 -10.8581 -10.7775 -10.6066 -10.5693
    -8.4355  -8.0864  -8.0144  -7.7866  -7.6755  -7.4476  -7.3636  -7.3031
     3.6216   4.0275   4.2865   4.4106   4.8609   4.9963   5.0186   5.2024
     5.2851   5.5235   5.6436   5.7659   5.9117   5.9365   5.9784   6.1731
     6.2539   6.4068   6.4849   6.6900   6.7687   6.8982   7.1485   7.2761

     occupation numbers 
     1.0000   1.0000   1.0000   1.0000   1.0000   1.0000   1.0000   1.0000
     1.0000   1.0000   1.0000   1.0000   1.0000   1.0000   1.0000   1.0000
     1.0000   1.0000   1.0000   1.0000   1.0000   1.0000   1.0000   1.0000
     1.0000   1.0000   1.0000   1.0000   1.0000   1.0000   1.0000   1.0000
     1.0000   1.0000   1.0000   1.0000   1.0000   1.0000   1.0000   1.0000
     1.0000   1.0000   1.0000   1.0000   1.0000   1.0000   1.0000   1.0000
     1.0000   1.0000   1.0000   1.0000   1.0000   1.0000   1.0000   1.0000
     1.0000   1.0000   1.0000   1.0000   1.0000   1.0000   1.0000   1.0000

          k = 0.1760-0.1737 0.1724 (  5581 PWs)   bands (ev):

   -66.3484 -65.7987 -65.4760 -64.9721 -33.3291 -33.3123 -33.2800 -32.7728
   -32.7602 -32.7551 -32.4800 -32.4423 -32.4097 -32.0182 -31.9406 -31.9190
   -29.7613 -29.6924 -29.5334 -29.3846 -11.8780 -11.8358 -11.6894 -11.5373
   -11.1015 -10.9478 -10.8894 -10.8329 -10.7451 -10.7016 -10.6699 -10.5880
    -8.6782  -8.2439  -8.0730  -7.9107  -7.5947  -7.3427  -7.2277  -7.1972
     3.1800   3.8738   4.1208   4.5617   4.6439   4.7743   4.8581   5.5133
     5.6225   5.7057   5.8162   5.8858   5.9755   6.1161   6.1735   6.2302
     6.3006   6.4804   6.5786   6.7078   6.8350   6.9055   7.0327   7.3036

     occupation numbers 
     1.0000   1.0000   1.0000   1.0000   1.0000   1.0000   1.0000   1.0000
     1.0000   1.0000   1.0000   1.0000   1.0000   1.0000   1.0000   1.0000
     1.0000   1.0000   1.0000   1.0000   1.0000   1.0000   1.0000   1.0000
     1.0000   1.0000   1.0000   1.0000   1.0000   1.0000   1.0000   1.0000
     1.0000   1.0000   1.0000   1.0000   1.0000   1.0000   1.0000   1.0000
     1.0000   1.0000   1.0000   1.0000   1.0000   1.0000   1.0000   1.0000
     1.0000   1.0000   1.0000   1.0000   1.0000   1.0000   1.0000   1.0000
     1.0000   1.0000   1.0000   1.0000   1.0000   1.0000   1.0000   1.0000

          k = 0.3414-0.0039 0.0066 (  5579 PWs)   bands (ev):

   -66.3484 -65.7987 -65.4760 -64.9721 -33.3291 -33.3124 -33.2800 -32.7728
   -32.7602 -32.7551 -32.4800 -32.4423 -32.4097 -32.0182 -31.9406 -31.9190
   -29.7549 -29.6989 -29.5346 -29.3834 -11.8545 -11.7916 -11.7375 -11.4656
   -11.1778 -10.9751 -10.9148 -10.8677 -10.7928 -10.6699 -10.6045 -10.5808
    -8.6286  -8.3079  -8.0307  -7.9219  -7.6352  -7.3466  -7.2615  -7.1198
     3.2628   3.9133   4.1412   4.5599   4.6930   4.8029   4.8877   5.5617
     5.5750   5.7047   5.8011   5.8077   5.9065   6.0058   6.1096   6.2180
     6.3810   6.4250   6.4484   6.6335   6.7697   6.9300   7.0758   7.3632

     occupation numbers 
     1.0000   1.0000   1.0000   1.0000   1.0000   1.0000   1.0000   1.0000
     1.0000   1.0000   1.0000   1.0000   1.0000   1.0000   1.0000   1.0000
     1.0000   1.0000   1.0000   1.0000   1.0000   1.0000   1.0000   1.0000
     1.0000   1.0000   1.0000   1.0000   1.0000   1.0000   1.0000   1.0000
     1.0000   1.0000   1.0000   1.0000   1.0000   1.0000   1.0000   1.0000
     1.0000   1.0000   1.0000   1.0000   1.0000   1.0000   1.0000   1.0000
     1.0000   1.0000   1.0000   1.0000   1.0000   1.0000   1.0000   1.0000
     1.0000   1.0000   1.0000   1.0000   1.0000   1.0000   1.0000   1.0000

          k =-0.1550-0.5132 0.5042 (  5570 PWs)   bands (ev):

   -66.3484 -65.7987 -65.4760 -64.9721 -33.3291 -33.3124 -33.2800 -32.7728
   -32.7602 -32.7551 -32.4800 -32.4423 -32.4097 -32.0182 -31.9406 -31.9191
   -29.7435 -29.7088 -29.5354 -29.3843 -11.8039 -11.7471 -11.6399 -11.3109
   -11.2486 -11.1576 -11.0021 -10.8856 -10.8237 -10.7040 -10.6627 -10.6065
    -8.4349  -8.2247  -7.9442  -7.8275  -7.7351  -7.3793  -7.3207  -7.2469
     3.7014   4.1943   4.3201   4.3775   4.8342   4.9426   5.0881   5.1612
     5.2744   5.4667   5.5995   5.6673   5.8136   5.9236   6.0744   6.1582
     6.3469   6.4135   6.4719   6.6071   6.7132   6.8852   7.0289   7.2740

     occupation numbers 
     1.0000   1.0000   1.0000   1.0000   1.0000   1.0000   1.0000   1.0000
     1.0000   1.0000   1.0000   1.0000   1.0000   1.0000   1.0000   1.0000
     1.0000   1.0000   1.0000   1.0000   1.0000   1.0000   1.0000   1.0000
     1.0000   1.0000   1.0000   1.0000   1.0000   1.0000   1.0000   1.0000
     1.0000   1.0000   1.0000   1.0000   1.0000   1.0000   1.0000   1.0000
     1.0000   1.0000   1.0000   1.0000   1.0000   1.0000   1.0000   1.0000
     1.0000   1.0000   1.0000   1.0000   1.0000   1.0000   1.0000   1.0000
     1.0000   1.0000   1.0000   1.0000   1.0000   1.0000   1.0000   1.0000

          k = 0.0105-0.3434 0.3383 (  5572 PWs)   bands (ev):

   -66.3484 -65.7987 -65.4760 -64.9721 -33.3291 -33.3124 -33.2800 -32.7728
   -32.7602 -32.7552 -32.4800 -32.4423 -32.4097 -32.0182 -31.9406 -31.9190
   -29.7527 -29.6994 -29.5342 -29.3855 -11.8285 -11.7898 -11.5926 -11.4567
   -11.1843 -11.0226 -10.9249 -10.8716 -10.8487 -10.7758 -10.6779 -10.6028
    -8.5177  -8.1318  -8.0316  -7.7512  -7.6192  -7.4693  -7.3777  -7.2317
     3.5397   4.1844   4.3055   4.3987   4.6807   4.9179   5.0448   5.2043
     5.3699   5.5193   5.6574   5.7773   5.9020   6.0191   6.0922   6.2289
     6.2609   6.3871   6.4891   6.6049   6.7833   6.8863   7.0730   7.2119

     occupation numbers 
     1.0000   1.0000   1.0000   1.0000   1.0000   1.0000   1.0000   1.0000
     1.0000   1.0000   1.0000   1.0000   1.0000   1.0000   1.0000   1.0000
     1.0000   1.0000   1.0000   1.0000   1.0000   1.0000   1.0000   1.0000
     1.0000   1.0000   1.0000   1.0000   1.0000   1.0000   1.0000   1.0000
     1.0000   1.0000   1.0000   1.0000   1.0000   1.0000   1.0000   1.0000
     1.0000   1.0000   1.0000   1.0000   1.0000   1.0000   1.0000   1.0000
     1.0000   1.0000   1.0000   1.0000   1.0000   1.0000   1.0000   1.0000
     1.0000   1.0000   1.0000   1.0000   1.0000   1.0000   1.0000   1.0000

          k =-0.3519 0.3474-0.3449 (  5580 PWs)   bands (ev):

   -66.3484 -65.7987 -65.4760 -64.9721 -33.3291 -33.3123 -33.2800 -32.7728
   -32.7602 -32.7552 -32.4800 -32.4424 -32.4097 -32.0182 -31.9407 -31.9190
   -29.7586 -29.6924 -29.5331 -29.3875 -11.8484 -11.7388 -11.5975 -11.5399
   -11.0620 -11.0438 -10.9646 -10.8870 -10.8435 -10.7988 -10.6718 -10.5892
    -8.5501  -8.0985  -7.8977  -7.7947  -7.5853  -7.4411  -7.4052  -7.3559
     3.6625   4.1916   4.2722   4.5007   4.6017   4.7809   5.1947   5.2333
     5.4872   5.5425   5.6609   5.7097   5.9259   5.9839   6.0750   6.2028
     6.2861   6.3523   6.4453   6.6038   6.7125   6.8430   7.0155   7.1210

     occupation numbers 
     1.0000   1.0000   1.0000   1.0000   1.0000   1.0000   1.0000   1.0000
     1.0000   1.0000   1.0000   1.0000   1.0000   1.0000   1.0000   1.0000
     1.0000   1.0000   1.0000   1.0000   1.0000   1.0000   1.0000   1.0000
     1.0000   1.0000   1.0000   1.0000   1.0000   1.0000   1.0000   1.0000
     1.0000   1.0000   1.0000   1.0000   1.0000   1.0000   1.0000   1.0000
     1.0000   1.0000   1.0000   1.0000   1.0000   1.0000   1.0000   1.0000
     1.0000   1.0000   1.0000   1.0000   1.0000   1.0000   1.0000   1.0000
     1.0000   1.0000   1.0000   1.0000   1.0000   1.0000   1.0000   1.0000

          k =-0.1864 0.5171-0.5108 (  5587 PWs)   bands (ev):

   -66.3484 -65.7987 -65.4760 -64.9721 -33.3291 -33.3123 -33.2800 -32.7728
   -32.7602 -32.7552 -32.4800 -32.4423 -32.4097 -32.0182 -31.9407 -31.9190
   -29.7518 -29.6993 -29.5342 -29.3862 -11.8205 -11.7169 -11.6586 -11.4681
   -11.1462 -11.0484 -10.9721 -10.8917 -10.8406 -10.7267 -10.6916 -10.6032
    -8.4785  -8.2488  -7.8921  -7.8321  -7.6808  -7.3962  -7.3372  -7.2552
     3.7411   4.1881   4.3930   4.4388   4.6584   4.8775   5.0804   5.2304
     5.3636   5.4710   5.6112   5.7445   5.8543   5.9423   5.9989   6.1648
     6.3281   6.3846   6.5008   6.5781   6.6718   6.8266   6.9973   7.2147

     occupation numbers 
     1.0000   1.0000   1.0000   1.0000   1.0000   1.0000   1.0000   1.0000
     1.0000   1.0000   1.0000   1.0000   1.0000   1.0000   1.0000   1.0000
     1.0000   1.0000   1.0000   1.0000   1.0000   1.0000   1.0000   1.0000
     1.0000   1.0000   1.0000   1.0000   1.0000   1.0000   1.0000   1.0000
     1.0000   1.0000   1.0000   1.0000   1.0000   1.0000   1.0000   1.0000
     1.0000   1.0000   1.0000   1.0000   1.0000   1.0000   1.0000   1.0000
     1.0000   1.0000   1.0000   1.0000   1.0000   1.0000   1.0000   1.0000
     1.0000   1.0000   1.0000   1.0000   1.0000   1.0000   1.0000   1.0000

          k =-0.6829 0.0078-0.0131 (  5586 PWs)   bands (ev):

   -66.3484 -65.7987 -65.4760 -64.9721 -33.3291 -33.3123 -33.2800 -32.7728
   -32.7602 -32.7551 -32.4800 -32.4423 -32.4097 -32.0183 -31.9407 -31.9191
   -29.7424 -29.7088 -29.5354 -29.3850 -11.8105 -11.7226 -11.6520 -11.3253
   -11.2335 -11.1084 -11.0566 -10.8617 -10.8517 -10.7612 -10.6122 -10.5813
    -8.4400  -8.3334  -7.9376  -7.8396  -7.7207  -7.4105  -7.2725  -7.1656
     3.8372   4.1471   4.3204   4.7181   4.7738   4.9684   5.0192   5.1182
     5.1569   5.4407   5.5683   5.6813   5.7546   5.8709   6.0203   6.0414
     6.3154   6.4383   6.4803   6.5662   6.6855   6.9579   6.9764   7.2804

     occupation numbers 
     1.0000   1.0000   1.0000   1.0000   1.0000   1.0000   1.0000   1.0000
     1.0000   1.0000   1.0000   1.0000   1.0000   1.0000   1.0000   1.0000
     1.0000   1.0000   1.0000   1.0000   1.0000   1.0000   1.0000   1.0000
     1.0000   1.0000   1.0000   1.0000   1.0000   1.0000   1.0000   1.0000
     1.0000   1.0000   1.0000   1.0000   1.0000   1.0000   1.0000   1.0000
     1.0000   1.0000   1.0000   1.0000   1.0000   1.0000   1.0000   1.0000
     1.0000   1.0000   1.0000   1.0000   1.0000   1.0000   1.0000   1.0000
     1.0000   1.0000   1.0000   1.0000   1.0000   1.0000   1.0000   1.0000

          k =-0.1694 0.1800 0.1722 (  5600 PWs)   bands (ev):

   -66.3484 -65.7987 -65.4760 -64.9721 -33.3291 -33.3124 -33.2800 -32.7727
   -32.7602 -32.7551 -32.4802 -32.4423 -32.4097 -32.0182 -31.9406 -31.9190
   -29.7538 -29.6982 -29.5367 -29.3834 -11.8524 -11.8062 -11.6518 -11.4555
   -11.1669 -10.9761 -10.9430 -10.8974 -10.8016 -10.7215 -10.6234 -10.5809
    -8.6342  -8.1853  -8.0503  -7.9122  -7.6412  -7.3891  -7.2270  -7.1742
     3.1786   3.9564   4.0460   4.5224   4.7166   4.7795   4.9242   5.5249
     5.5731   5.7161   5.7927   5.9121   5.9856   6.0671   6.1644   6.2213
     6.3420   6.4467   6.5631   6.6564   6.8093   6.9216   7.1593   7.2088

     occupation numbers 
     1.0000   1.0000   1.0000   1.0000   1.0000   1.0000   1.0000   1.0000
     1.0000   1.0000   1.0000   1.0000   1.0000   1.0000   1.0000   1.0000
     1.0000   1.0000   1.0000   1.0000   1.0000   1.0000   1.0000   1.0000
     1.0000   1.0000   1.0000   1.0000   1.0000   1.0000   1.0000   1.0000
     1.0000   1.0000   1.0000   1.0000   1.0000   1.0000   1.0000   1.0000
     1.0000   1.0000   1.0000   1.0000   1.0000   1.0000   1.0000   1.0000
     1.0000   1.0000   1.0000   1.0000   1.0000   1.0000   1.0000   1.0000
     1.0000   1.0000   1.0000   1.0000   1.0000   1.0000   1.0000   1.0000

          k =-0.0039 0.3498 0.0064 (  5607 PWs)   bands (ev):

   -66.3484 -65.7987 -65.4760 -64.9721 -33.3291 -33.3123 -33.2800 -32.7726
   -32.7602 -32.7551 -32.4802 -32.4423 -32.4097 -32.0182 -31.9406 -31.9190
   -29.7551 -29.6945 -29.5380 -29.3845 -11.8162 -11.7759 -11.6161 -11.5271
   -11.0979 -11.0562 -10.8976 -10.8637 -10.7960 -10.7616 -10.6641 -10.6514
    -8.6538  -8.2038  -8.0293  -7.7656  -7.6066  -7.3708  -7.3040  -7.2347
     3.2681   3.9814   4.1080   4.5231   4.7584   4.8333   4.9612   5.4507
     5.5618   5.6374   5.7209   5.7563   5.8841   6.0171   6.1181   6.2199
     6.4390   6.4705   6.5630   6.6790   6.8167   6.9267   7.1016   7.2228

     occupation numbers 
     1.0000   1.0000   1.0000   1.0000   1.0000   1.0000   1.0000   1.0000
     1.0000   1.0000   1.0000   1.0000   1.0000   1.0000   1.0000   1.0000
     1.0000   1.0000   1.0000   1.0000   1.0000   1.0000   1.0000   1.0000
     1.0000   1.0000   1.0000   1.0000   1.0000   1.0000   1.0000   1.0000
     1.0000   1.0000   1.0000   1.0000   1.0000   1.0000   1.0000   1.0000
     1.0000   1.0000   1.0000   1.0000   1.0000   1.0000   1.0000   1.0000
     1.0000   1.0000   1.0000   1.0000   1.0000   1.0000   1.0000   1.0000
     1.0000   1.0000   1.0000   1.0000   1.0000   1.0000   1.0000   1.0000

          k =-0.5004-0.1595 0.5040 (  5567 PWs)   bands (ev):

   -66.3484 -65.7987 -65.4760 -64.9721 -33.3291 -33.3124 -33.2800 -32.7726
   -32.7602 -32.7551 -32.4802 -32.4423 -32.4097 -32.0182 -31.9406 -31.9191
   -29.7451 -29.7027 -29.5390 -29.3854 -11.7522 -11.6926 -11.5272 -11.4641
   -11.1934 -11.0617 -11.0363 -10.9911 -10.8257 -10.7663 -10.6933 -10.6687
    -8.4930  -8.0521  -7.9204  -7.7439  -7.6867  -7.4776  -7.3624  -7.3034
     3.7126   4.1886   4.2872   4.4204   4.8663   5.0003   5.1553   5.2223
     5.2734   5.3223   5.5011   5.7333   5.8069   5.9336   6.0113   6.1547
     6.3484   6.4562   6.5095   6.5912   6.7520   6.8396   7.1284   7.1446

     occupation numbers 
     1.0000   1.0000   1.0000   1.0000   1.0000   1.0000   1.0000   1.0000
     1.0000   1.0000   1.0000   1.0000   1.0000   1.0000   1.0000   1.0000
     1.0000   1.0000   1.0000   1.0000   1.0000   1.0000   1.0000   1.0000
     1.0000   1.0000   1.0000   1.0000   1.0000   1.0000   1.0000   1.0000
     1.0000   1.0000   1.0000   1.0000   1.0000   1.0000   1.0000   1.0000
     1.0000   1.0000   1.0000   1.0000   1.0000   1.0000   1.0000   1.0000
     1.0000   1.0000   1.0000   1.0000   1.0000   1.0000   1.0000   1.0000
     1.0000   1.0000   1.0000   1.0000   1.0000   1.0000   1.0000   1.0000

          k =-0.3349 0.0103 0.3381 (  5572 PWs)   bands (ev):

   -66.3484 -65.7987 -65.4760 -64.9721 -33.3291 -33.3124 -33.2800 -32.7726
   -32.7602 -32.7551 -32.4802 -32.4423 -32.4097 -32.0182 -31.9406 -31.9191
   -29.7426 -29.7076 -29.5377 -29.3842 -11.7886 -11.7366 -11.5867 -11.3114
   -11.2444 -11.1351 -11.0414 -10.9379 -10.8418 -10.6990 -10.6656 -10.6398
    -8.4449  -8.0943  -7.9287  -7.8693  -7.6977  -7.5351  -7.3353  -7.1763
     3.5513   4.1488   4.2525   4.4159   4.8368   4.9089   4.9982   5.2483
     5.4071   5.4825   5.7742   5.8181   5.9405   5.9684   6.0526   6.1898
     6.2966   6.3793   6.4225   6.5546   6.7121   6.7819   7.1042   7.2670

     occupation numbers 
     1.0000   1.0000   1.0000   1.0000   1.0000   1.0000   1.0000   1.0000
     1.0000   1.0000   1.0000   1.0000   1.0000   1.0000   1.0000   1.0000
     1.0000   1.0000   1.0000   1.0000   1.0000   1.0000   1.0000   1.0000
     1.0000   1.0000   1.0000   1.0000   1.0000   1.0000   1.0000   1.0000
     1.0000   1.0000   1.0000   1.0000   1.0000   1.0000   1.0000   1.0000
     1.0000   1.0000   1.0000   1.0000   1.0000   1.0000   1.0000   1.0000
     1.0000   1.0000   1.0000   1.0000   1.0000   1.0000   1.0000   1.0000
     1.0000   1.0000   1.0000   1.0000   1.0000   1.0000   1.0000   1.0000

          k = 0.0066 0.0064 0.3447 (  5593 PWs)   bands (ev):

   -66.3484 -65.7987 -65.4760 -64.9721 -33.3291 -33.3124 -33.2800 -32.7727
   -32.7602 -32.7551 -32.4802 -32.4423 -32.4097 -32.0182 -31.9406 -31.9190
   -29.7545 -29.6979 -29.5368 -29.3825 -11.9203 -11.8223 -11.5913 -11.4613
   -11.1811 -10.9970 -10.9421 -10.8558 -10.8148 -10.6592 -10.6283 -10.5732
    -8.6156  -8.2712  -8.0020  -7.9366  -7.6414  -7.5051  -7.1394  -7.1280
     3.2510   3.9326   4.1060   4.5921   4.6986   4.8077   4.8804   5.5218
     5.6564   5.7286   5.8065   5.8535   5.8984   6.0794   6.1145   6.2302
     6.3095   6.3834   6.4748   6.5398   6.6761   6.8310   7.1787   7.4289

     occupation numbers 
     1.0000   1.0000   1.0000   1.0000   1.0000   1.0000   1.0000   1.0000
     1.0000   1.0000   1.0000   1.0000   1.0000   1.0000   1.0000   1.0000
     1.0000   1.0000   1.0000   1.0000   1.0000   1.0000   1.0000   1.0000
     1.0000   1.0000   1.0000   1.0000   1.0000   1.0000   1.0000   1.0000
     1.0000   1.0000   1.0000   1.0000   1.0000   1.0000   1.0000   1.0000
     1.0000   1.0000   1.0000   1.0000   1.0000   1.0000   1.0000   1.0000
     1.0000   1.0000   1.0000   1.0000   1.0000   1.0000   1.0000   1.0000
     1.0000   1.0000   1.0000   1.0000   1.0000   1.0000   1.0000   1.0000

          k = 0.1721 0.1761 0.1788 (  5597 PWs)   bands (ev):

   -66.3484 -65.7987 -65.4760 -64.9721 -33.3291 -33.3124 -33.2800 -32.7726
   -32.7602 -32.7551 -32.4802 -32.4423 -32.4097 -32.0182 -31.9406 -31.9190
   -29.7575 -29.6944 -29.5383 -29.3816 -11.8871 -11.8223 -11.6515 -11.5399
   -11.1275 -10.9808 -10.9006 -10.8731 -10.7805 -10.6936 -10.5960 -10.5599
    -8.6795  -8.2271  -8.0712  -7.9475  -7.6058  -7.3772  -7.2115  -7.1527
     3.1809   3.8713   4.1318   4.5144   4.6988   4.8187   4.8742   5.6202
     5.6512   5.7521   5.8017   5.8518   5.9335   6.0356   6.1497   6.2257
     6.3304   6.4598   6.5303   6.6348   6.8453   6.8795   6.9992   7.3411

     occupation numbers 
     1.0000   1.0000   1.0000   1.0000   1.0000   1.0000   1.0000   1.0000
     1.0000   1.0000   1.0000   1.0000   1.0000   1.0000   1.0000   1.0000
     1.0000   1.0000   1.0000   1.0000   1.0000   1.0000   1.0000   1.0000
     1.0000   1.0000   1.0000   1.0000   1.0000   1.0000   1.0000   1.0000
     1.0000   1.0000   1.0000   1.0000   1.0000   1.0000   1.0000   1.0000
     1.0000   1.0000   1.0000   1.0000   1.0000   1.0000   1.0000   1.0000
     1.0000   1.0000   1.0000   1.0000   1.0000   1.0000   1.0000   1.0000
     1.0000   1.0000   1.0000   1.0000   1.0000   1.0000   1.0000   1.0000

          k =-0.3244-0.3332 0.6764 (  5573 PWs)   bands (ev):

   -66.3484 -65.7987 -65.4760 -64.9721 -33.3291 -33.3124 -33.2800 -32.7726
   -32.7602 -32.7551 -32.4802 -32.4423 -32.4097 -32.0183 -31.9406 -31.9191
   -29.7478 -29.7025 -29.5391 -29.3825 -11.8368 -11.7349 -11.6079 -11.4662
   -11.1894 -11.0403 -11.0035 -10.9006 -10.8185 -10.7383 -10.6598 -10.5674
    -8.5215  -8.1783  -8.0081  -7.7896  -7.6783  -7.3559  -7.3293  -7.2812
     3.5485   4.1434   4.2997   4.4369   4.7736   4.9497   4.9985   5.2352
     5.3613   5.5138   5.6972   5.7650   5.8841   6.0007   6.1074   6.1905
     6.2785   6.3782   6.4393   6.5635   6.7626   6.8917   7.0187   7.2381

     occupation numbers 
     1.0000   1.0000   1.0000   1.0000   1.0000   1.0000   1.0000   1.0000
     1.0000   1.0000   1.0000   1.0000   1.0000   1.0000   1.0000   1.0000
     1.0000   1.0000   1.0000   1.0000   1.0000   1.0000   1.0000   1.0000
     1.0000   1.0000   1.0000   1.0000   1.0000   1.0000   1.0000   1.0000
     1.0000   1.0000   1.0000   1.0000   1.0000   1.0000   1.0000   1.0000
     1.0000   1.0000   1.0000   1.0000   1.0000   1.0000   1.0000   1.0000
     1.0000   1.0000   1.0000   1.0000   1.0000   1.0000   1.0000   1.0000
     1.0000   1.0000   1.0000   1.0000   1.0000   1.0000   1.0000   1.0000

          k =-0.1589-0.1634 0.5106 (  5566 PWs)   bands (ev):

   -66.3484 -65.7987 -65.4760 -64.9721 -33.3291 -33.3124 -33.2800 -32.7726
   -32.7602 -32.7551 -32.4802 -32.4423 -32.4097 -32.0182 -31.9406 -31.9191
   -29.7432 -29.7076 -29.5376 -29.3834 -11.8745 -11.7278 -11.5574 -11.3035
   -11.2541 -11.1344 -11.0000 -10.9312 -10.8303 -10.7391 -10.6740 -10.5709
    -8.4276  -8.1710  -8.0159  -7.8222  -7.7264  -7.4610  -7.2719  -7.2127
     3.6956   4.1727   4.2897   4.4163   4.8420   4.9753   5.0374   5.2004
     5.2786   5.4672   5.6113   5.7245   5.8444   5.9438   6.0655   6.1443
     6.2888   6.3708   6.5251   6.5772   6.6423   6.8539   7.0441   7.3245

     occupation numbers 
     1.0000   1.0000   1.0000   1.0000   1.0000   1.0000   1.0000   1.0000
     1.0000   1.0000   1.0000   1.0000   1.0000   1.0000   1.0000   1.0000
     1.0000   1.0000   1.0000   1.0000   1.0000   1.0000   1.0000   1.0000
     1.0000   1.0000   1.0000   1.0000   1.0000   1.0000   1.0000   1.0000
     1.0000   1.0000   1.0000   1.0000   1.0000   1.0000   1.0000   1.0000
     1.0000   1.0000   1.0000   1.0000   1.0000   1.0000   1.0000   1.0000
     1.0000   1.0000   1.0000   1.0000   1.0000   1.0000   1.0000   1.0000
     1.0000   1.0000   1.0000   1.0000   1.0000   1.0000   1.0000   1.0000

          k =-0.5213 0.5274-0.1727 (  5576 PWs)   bands (ev):

   -66.3484 -65.7986 -65.4760 -64.9721 -33.3291 -33.3124 -33.2800 -32.7727
   -32.7602 -32.7552 -32.4802 -32.4423 -32.4097 -32.0183 -31.9407 -31.9190
   -29.7514 -29.6984 -29.5364 -29.3854 -11.8633 -11.7422 -11.5701 -11.4555
   -11.1716 -11.0084 -10.9799 -10.9170 -10.8142 -10.7269 -10.7190 -10.6233
    -8.4790  -8.1548  -8.0112  -7.8193  -7.6767  -7.4602  -7.2790  -7.2340
     3.7272   4.1861   4.3624   4.4822   4.6647   4.8437   5.0931   5.2707
     5.3518   5.4986   5.6139   5.7860   5.8893   5.9496   6.0135   6.1172
     6.2822   6.3940   6.4572   6.5248   6.6969   6.8369   6.9719   7.2439

     occupation numbers 
     1.0000   1.0000   1.0000   1.0000   1.0000   1.0000   1.0000   1.0000
     1.0000   1.0000   1.0000   1.0000   1.0000   1.0000   1.0000   1.0000
     1.0000   1.0000   1.0000   1.0000   1.0000   1.0000   1.0000   1.0000
     1.0000   1.0000   1.0000   1.0000   1.0000   1.0000   1.0000   1.0000
     1.0000   1.0000   1.0000   1.0000   1.0000   1.0000   1.0000   1.0000
     1.0000   1.0000   1.0000   1.0000   1.0000   1.0000   1.0000   1.0000
     1.0000   1.0000   1.0000   1.0000   1.0000   1.0000   1.0000   1.0000
     1.0000   1.0000   1.0000   1.0000   1.0000   1.0000   1.0000   1.0000

          k =-0.3558 0.6972-0.3385 (  5589 PWs)   bands (ev):

   -66.3484 -65.7986 -65.4760 -64.9721 -33.3291 -33.3124 -33.2800 -32.7727
   -32.7602 -32.7551 -32.4802 -32.4423 -32.4097 -32.0183 -31.9407 -31.9190
   -29.7548 -29.6942 -29.5381 -29.3844 -11.8012 -11.7870 -11.5943 -11.5431
   -11.1467 -11.0433 -10.9104 -10.8639 -10.8286 -10.7380 -10.6640 -10.6396
    -8.5554  -8.1246  -7.9396  -7.8825  -7.6207  -7.5244  -7.3407  -7.1566
     3.5951   4.1140   4.2930   4.5331   4.5932   4.8258   5.1150   5.3005
     5.5031   5.6418   5.7907   5.8450   5.8817   6.0077   6.0815   6.1470
     6.2426   6.3208   6.4141   6.5133   6.5962   6.8119   6.9055   7.3082

     occupation numbers 
     1.0000   1.0000   1.0000   1.0000   1.0000   1.0000   1.0000   1.0000
     1.0000   1.0000   1.0000   1.0000   1.0000   1.0000   1.0000   1.0000
     1.0000   1.0000   1.0000   1.0000   1.0000   1.0000   1.0000   1.0000
     1.0000   1.0000   1.0000   1.0000   1.0000   1.0000   1.0000   1.0000
     1.0000   1.0000   1.0000   1.0000   1.0000   1.0000   1.0000   1.0000
     1.0000   1.0000   1.0000   1.0000   1.0000   1.0000   1.0000   1.0000
     1.0000   1.0000   1.0000   1.0000   1.0000   1.0000   1.0000   1.0000
     1.0000   1.0000   1.0000   1.0000   1.0000   1.0000   1.0000   1.0000

          k =-0.8523 0.1878 0.1591 (  5578 PWs)   bands (ev):

   -66.3484 -65.7986 -65.4760 -64.9721 -33.3291 -33.3124 -33.2800 -32.7726
   -32.7602 -32.7551 -32.4802 -32.4423 -32.4097 -32.0183 -31.9406 -31.9190
   -29.7467 -29.7026 -29.5391 -29.3833 -11.7922 -11.7222 -11.6481 -11.4701
   -11.1922 -11.0356 -10.9836 -10.9337 -10.8192 -10.7370 -10.6696 -10.5801
    -8.4802  -8.1961  -7.9603  -7.8539  -7.6859  -7.3981  -7.3457  -7.2020
     3.7548   4.1748   4.3441   4.5084   4.6816   4.9483   5.0255   5.2680
     5.3722   5.5125   5.6099   5.7260   5.8207   5.9006   6.0789   6.1713
     6.2552   6.3541   6.4618   6.6087   6.6765   6.7945   6.9425   7.2058

     occupation numbers 
     1.0000   1.0000   1.0000   1.0000   1.0000   1.0000   1.0000   1.0000
     1.0000   1.0000   1.0000   1.0000   1.0000   1.0000   1.0000   1.0000
     1.0000   1.0000   1.0000   1.0000   1.0000   1.0000   1.0000   1.0000
     1.0000   1.0000   1.0000   1.0000   1.0000   1.0000   1.0000   1.0000
     1.0000   1.0000   1.0000   1.0000   1.0000   1.0000   1.0000   1.0000
     1.0000   1.0000   1.0000   1.0000   1.0000   1.0000   1.0000   1.0000
     1.0000   1.0000   1.0000   1.0000   1.0000   1.0000   1.0000   1.0000
     1.0000   1.0000   1.0000   1.0000   1.0000   1.0000   1.0000   1.0000

          k =-0.6868 0.3576-0.0068 (  5583 PWs)   bands (ev):

   -66.3484 -65.7986 -65.4760 -64.9721 -33.3291 -33.3124 -33.2800 -32.7727
   -32.7602 -32.7551 -32.4802 -32.4423 -32.4097 -32.0183 -31.9407 -31.9191
   -29.7415 -29.7085 -29.5374 -29.3842 -11.8231 -11.7273 -11.5982 -11.3145
   -11.2612 -11.1829 -10.9364 -10.8784 -10.8297 -10.7476 -10.6646 -10.6518
    -8.3954  -8.1734  -8.1004  -7.7807  -7.6869  -7.3846  -7.3321  -7.2375
     3.9852   4.2228   4.3439   4.5117   4.7443   4.9526   5.0217   5.1080
     5.2098   5.3082   5.6087   5.7100   5.7907   5.9557   6.0879   6.1552
     6.2000   6.3900   6.4767   6.5796   6.7508   6.8138   6.9706   7.1697

     occupation numbers 
     1.0000   1.0000   1.0000   1.0000   1.0000   1.0000   1.0000   1.0000
     1.0000   1.0000   1.0000   1.0000   1.0000   1.0000   1.0000   1.0000
     1.0000   1.0000   1.0000   1.0000   1.0000   1.0000   1.0000   1.0000
     1.0000   1.0000   1.0000   1.0000   1.0000   1.0000   1.0000   1.0000
     1.0000   1.0000   1.0000   1.0000   1.0000   1.0000   1.0000   1.0000
     1.0000   1.0000   1.0000   1.0000   1.0000   1.0000   1.0000   1.0000
     1.0000   1.0000   1.0000   1.0000   1.0000   1.0000   1.0000   1.0000
     1.0000   1.0000   1.0000   1.0000   1.0000   1.0000   1.0000   1.0000

          k =-0.3454 0.3537-0.0002 (  5580 PWs)   bands (ev):

   -66.3484 -65.7986 -65.4760 -64.9721 -33.3291 -33.3123 -33.2800 -32.7727
   -32.7602 -32.7551 -32.4802 -32.4423 -32.4097 -32.0182 -31.9407 -31.9190
   -29.7506 -29.6987 -29.5363 -29.3862 -11.8000 -11.7175 -11.5984 -11.4609
   -11.1864 -11.0348 -10.9616 -10.9193 -10.8532 -10.7931 -10.6657 -10.6243
    -8.5048  -8.1918  -7.9114  -7.7687  -7.6157  -7.4066  -7.3730  -7.3226
     3.5932   4.1565   4.2797   4.5218   4.7238   4.9635   4.9952   5.1728
     5.3441   5.5380   5.6793   5.7813   5.9109   6.0559   6.1139   6.1805
     6.2673   6.3483   6.4812   6.6001   6.7877   6.8704   7.0176   7.0727

     occupation numbers 
     1.0000   1.0000   1.0000   1.0000   1.0000   1.0000   1.0000   1.0000
     1.0000   1.0000   1.0000   1.0000   1.0000   1.0000   1.0000   1.0000
     1.0000   1.0000   1.0000   1.0000   1.0000   1.0000   1.0000   1.0000
     1.0000   1.0000   1.0000   1.0000   1.0000   1.0000   1.0000   1.0000
     1.0000   1.0000   1.0000   1.0000   1.0000   1.0000   1.0000   1.0000
     1.0000   1.0000   1.0000   1.0000   1.0000   1.0000   1.0000   1.0000
     1.0000   1.0000   1.0000   1.0000   1.0000   1.0000   1.0000   1.0000
     1.0000   1.0000   1.0000   1.0000   1.0000   1.0000   1.0000   1.0000

          k =-0.1799 0.5235-0.1661 (  5569 PWs)   bands (ev):

   -66.3484 -65.7986 -65.4760 -64.9721 -33.3291 -33.3123 -33.2800 -32.7727
   -32.7602 -32.7552 -32.4802 -32.4423 -32.4097 -32.0182 -31.9407 -31.9190
   -29.7524 -29.6943 -29.5379 -29.3874 -11.7574 -11.6914 -11.5409 -11.5305
   -11.1102 -11.0470 -11.0179 -10.9713 -10.8186 -10.7862 -10.7223 -10.6686
    -8.5526  -8.0550  -7.8546  -7.7428  -7.6569  -7.4814  -7.3891  -7.3167
     3.7506   4.1546   4.3999   4.4584   4.7930   4.8772   5.0937   5.2103
     5.3346   5.4269   5.5563   5.7344   5.8199   5.9727   6.0446   6.1956
     6.2859   6.3721   6.5593   6.6139   6.7207   6.8003   6.9949   7.1095

     occupation numbers 
     1.0000   1.0000   1.0000   1.0000   1.0000   1.0000   1.0000   1.0000
     1.0000   1.0000   1.0000   1.0000   1.0000   1.0000   1.0000   1.0000
     1.0000   1.0000   1.0000   1.0000   1.0000   1.0000   1.0000   1.0000
     1.0000   1.0000   1.0000   1.0000   1.0000   1.0000   1.0000   1.0000
     1.0000   1.0000   1.0000   1.0000   1.0000   1.0000   1.0000   1.0000
     1.0000   1.0000   1.0000   1.0000   1.0000   1.0000   1.0000   1.0000
     1.0000   1.0000   1.0000   1.0000   1.0000   1.0000   1.0000   1.0000
     1.0000   1.0000   1.0000   1.0000   1.0000   1.0000   1.0000   1.0000

          k =-0.6763 0.0142 0.3316 (  5578 PWs)   bands (ev):

   -66.3484 -65.7987 -65.4760 -64.9721 -33.3291 -33.3123 -33.2800 -32.7726
   -32.7602 -32.7551 -32.4802 -32.4423 -32.4097 -32.0183 -31.9407 -31.9191
   -29.7440 -29.7028 -29.5390 -29.3861 -11.7072 -11.6681 -11.5776 -11.4703
   -11.1509 -11.0986 -11.0521 -10.9802 -10.8476 -10.7755 -10.7138 -10.6494
    -8.4709  -8.0213  -7.8578  -7.8337  -7.6994  -7.5323  -7.3963  -7.2093
     3.9942   4.2671   4.3225   4.4357   4.8301   4.9288   5.0299   5.1125
     5.2291   5.3997   5.5306   5.7398   5.8632   5.9691   5.9960   6.1440
     6.2632   6.3771   6.4758   6.5410   6.7214   6.7601   6.9658   7.1770

     occupation numbers 
     1.0000   1.0000   1.0000   1.0000   1.0000   1.0000   1.0000   1.0000
     1.0000   1.0000   1.0000   1.0000   1.0000   1.0000   1.0000   1.0000
     1.0000   1.0000   1.0000   1.0000   1.0000   1.0000   1.0000   1.0000
     1.0000   1.0000   1.0000   1.0000   1.0000   1.0000   1.0000   1.0000
     1.0000   1.0000   1.0000   1.0000   1.0000   1.0000   1.0000   1.0000
     1.0000   1.0000   1.0000   1.0000   1.0000   1.0000   1.0000   1.0000
     1.0000   1.0000   1.0000   1.0000   1.0000   1.0000   1.0000   1.0000
     1.0000   1.0000   1.0000   1.0000   1.0000   1.0000   1.0000   1.0000

          k =-0.5108 0.1839 0.1657 (  5590 PWs)   bands (ev):

   -66.3484 -65.7986 -65.4760 -64.9721 -33.3291 -33.3124 -33.2800 -32.7727
   -32.7602 -32.7551 -32.4802 -32.4423 -32.4097 -32.0182 -31.9406 -31.9191
   -29.7408 -29.7086 -29.5375 -29.3850 -11.7325 -11.7208 -11.6435 -11.3118
   -11.2318 -11.1458 -11.0310 -10.9462 -10.8505 -10.7725 -10.6743 -10.5815
    -8.4160  -8.1830  -7.9100  -7.8387  -7.6991  -7.4364  -7.3548  -7.2306
     3.7634   4.1821   4.2988   4.5172   4.7848   4.9702   5.0310   5.1608
     5.3173   5.4963   5.5550   5.7253   5.8664   5.9699   6.0368   6.1055
     6.2814   6.4467   6.4856   6.5446   6.7464   6.8590   6.9935   7.1143

     occupation numbers 
     1.0000   1.0000   1.0000   1.0000   1.0000   1.0000   1.0000   1.0000
     1.0000   1.0000   1.0000   1.0000   1.0000   1.0000   1.0000   1.0000
     1.0000   1.0000   1.0000   1.0000   1.0000   1.0000   1.0000   1.0000
     1.0000   1.0000   1.0000   1.0000   1.0000   1.0000   1.0000   1.0000
     1.0000   1.0000   1.0000   1.0000   1.0000   1.0000   1.0000   1.0000
     1.0000   1.0000   1.0000   1.0000   1.0000   1.0000   1.0000   1.0000
     1.0000   1.0000   1.0000   1.0000   1.0000   1.0000   1.0000   1.0000
     1.0000   1.0000   1.0000   1.0000   1.0000   1.0000   1.0000   1.0000

          k = 0.3388-0.3601-0.3445 (  5596 PWs)   bands (ev):

   -66.3484 -65.7986 -65.4760 -64.9721 -33.3291 -33.3124 -33.2800 -32.7725
   -32.7602 -32.7551 -32.4803 -32.4423 -32.4097 -32.0182 -31.9406 -31.9191
   -29.7392 -29.7084 -29.5396 -29.3850 -11.7817 -11.6563 -11.4417 -11.3177
   -11.2454 -11.2289 -11.1428 -10.9638 -10.8756 -10.8311 -10.6319 -10.5815
    -8.4068  -8.0162  -7.8733  -7.7505  -7.6680  -7.6151  -7.3731  -7.3227
     3.7742   3.9451   4.3303   4.6246   4.7638   4.8617   5.0792   5.2878
     5.4561   5.5361   5.7063   5.7435   5.8530   5.8906   6.0001   6.1569
     6.2935   6.3380   6.4493   6.6625   6.7407   6.8209   6.9858   7.0966

     occupation numbers 
     1.0000   1.0000   1.0000   1.0000   1.0000   1.0000   1.0000   1.0000
     1.0000   1.0000   1.0000   1.0000   1.0000   1.0000   1.0000   1.0000
     1.0000   1.0000   1.0000   1.0000   1.0000   1.0000   1.0000   1.0000
     1.0000   1.0000   1.0000   1.0000   1.0000   1.0000   1.0000   1.0000
     1.0000   1.0000   1.0000   1.0000   1.0000   1.0000   1.0000   1.0000
     1.0000   1.0000   1.0000   1.0000   1.0000   1.0000   1.0000   1.0000
     1.0000   1.0000   1.0000   1.0000   1.0000   1.0000   1.0000   1.0000
     1.0000   1.0000   1.0000   1.0000   1.0000   1.0000   1.0000   1.0000

          k = 0.5043-0.1903-0.5104 (  5590 PWs)   bands (ev):

   -66.3484 -65.7986 -65.4760 -64.9721 -33.3291 -33.3123 -33.2800 -32.7725
   -32.7602 -32.7551 -32.4803 -32.4423 -32.4097 -32.0182 -31.9407 -31.9191
   -29.7427 -29.7022 -29.5412 -29.3862 -11.7272 -11.6348 -11.4646 -11.4210
   -11.2093 -11.1902 -11.0427 -11.0315 -10.8517 -10.7989 -10.6926 -10.6545
    -8.4838  -7.9996  -7.8387  -7.7633  -7.6701  -7.5530  -7.3974  -7.2918
     3.7813   4.1681   4.3000   4.4706   4.8825   4.9937   5.1130   5.2072
     5.3391   5.3629   5.5995   5.6648   5.8371   5.9739   6.0223   6.1001
     6.3082   6.3547   6.4921   6.6422   6.6964   6.8484   7.0178   7.1023

     occupation numbers 
     1.0000   1.0000   1.0000   1.0000   1.0000   1.0000   1.0000   1.0000
     1.0000   1.0000   1.0000   1.0000   1.0000   1.0000   1.0000   1.0000
     1.0000   1.0000   1.0000   1.0000   1.0000   1.0000   1.0000   1.0000
     1.0000   1.0000   1.0000   1.0000   1.0000   1.0000   1.0000   1.0000
     1.0000   1.0000   1.0000   1.0000   1.0000   1.0000   1.0000   1.0000
     1.0000   1.0000   1.0000   1.0000   1.0000   1.0000   1.0000   1.0000
     1.0000   1.0000   1.0000   1.0000   1.0000   1.0000   1.0000   1.0000
     1.0000   1.0000   1.0000   1.0000   1.0000   1.0000   1.0000   1.0000

          k = 0.0078-0.6996-0.0127 (  5580 PWs)   bands (ev):

   -66.3484 -65.7986 -65.4760 -64.9721 -33.3291 -33.3123 -33.2800 -32.7725
   -32.7602 -32.7551 -32.4803 -32.4423 -32.4098 -32.0183 -31.9407 -31.9191
   -29.7453 -29.6969 -29.5429 -29.3873 -11.6640 -11.6291 -11.5148 -11.4001
   -11.2035 -11.1343 -11.0868 -11.0263 -10.8459 -10.7721 -10.7446 -10.7152
    -8.5491  -8.0161  -7.7957  -7.7555  -7.6471  -7.5212  -7.4246  -7.2630
     3.8603   4.1474   4.3272   4.5911   4.9482   5.0465   5.1128   5.1604
     5.2984   5.3355   5.5153   5.5733   5.7358   5.7949   5.9801   6.1084
     6.1973   6.4853   6.4933   6.5622   6.7911   6.9454   7.0727   7.0989

     occupation numbers 
     1.0000   1.0000   1.0000   1.0000   1.0000   1.0000   1.0000   1.0000
     1.0000   1.0000   1.0000   1.0000   1.0000   1.0000   1.0000   1.0000
     1.0000   1.0000   1.0000   1.0000   1.0000   1.0000   1.0000   1.0000
     1.0000   1.0000   1.0000   1.0000   1.0000   1.0000   1.0000   1.0000
     1.0000   1.0000   1.0000   1.0000   1.0000   1.0000   1.0000   1.0000
     1.0000   1.0000   1.0000   1.0000   1.0000   1.0000   1.0000   1.0000
     1.0000   1.0000   1.0000   1.0000   1.0000   1.0000   1.0000   1.0000
     1.0000   1.0000   1.0000   1.0000   1.0000   1.0000   1.0000   1.0000

          k = 0.5147-0.5337-0.1720 (  5599 PWs)   bands (ev):

   -66.3484 -65.7986 -65.4760 -64.9721 -33.3291 -33.3124 -33.2800 -32.7725
   -32.7602 -32.7551 -32.4803 -32.4423 -32.4097 -32.0182 -31.9406 -31.9191
   -29.7406 -29.7074 -29.5397 -29.3842 -11.8581 -11.6806 -11.4488 -11.3098
   -11.2534 -11.1985 -11.1231 -10.9267 -10.8287 -10.7333 -10.6556 -10.6292
    -8.4089  -8.1580  -7.9296  -7.8224  -7.7220  -7.5318  -7.2593  -7.2327
     3.7468   4.2156   4.2571   4.4922   4.7969   4.9345   5.0919   5.2073
     5.3889   5.4981   5.5776   5.7729   5.8321   5.9388   6.0076   6.1069
     6.2464   6.3715   6.4707   6.5525   6.7022   6.8158   7.0497   7.1792

     occupation numbers 
     1.0000   1.0000   1.0000   1.0000   1.0000   1.0000   1.0000   1.0000
     1.0000   1.0000   1.0000   1.0000   1.0000   1.0000   1.0000   1.0000
     1.0000   1.0000   1.0000   1.0000   1.0000   1.0000   1.0000   1.0000
     1.0000   1.0000   1.0000   1.0000   1.0000   1.0000   1.0000   1.0000
     1.0000   1.0000   1.0000   1.0000   1.0000   1.0000   1.0000   1.0000
     1.0000   1.0000   1.0000   1.0000   1.0000   1.0000   1.0000   1.0000
     1.0000   1.0000   1.0000   1.0000   1.0000   1.0000   1.0000   1.0000
     1.0000   1.0000   1.0000   1.0000   1.0000   1.0000   1.0000   1.0000

          k = 0.6802-0.3640-0.3379 (  5579 PWs)   bands (ev):

   -66.3484 -65.7986 -65.4760 -64.9721 -33.3291 -33.3124 -33.2800 -32.7725
   -32.7602 -32.7551 -32.4803 -32.4423 -32.4097 -32.0183 -31.9406 -31.9190
   -29.7455 -29.7019 -29.5413 -29.3833 -11.8230 -11.7168 -11.4755 -11.4415
   -11.2062 -11.1848 -11.0102 -10.9291 -10.8144 -10.7761 -10.6637 -10.5794
    -8.5045  -8.1270  -7.8775  -7.7862  -7.6758  -7.5952  -7.2902  -7.2343
     3.5850   4.2076   4.3424   4.4093   4.7536   4.9111   5.0286   5.2298
     5.4535   5.6351   5.6891   5.7561   5.9116   6.0004   6.0632   6.1103
     6.2197   6.3679   6.4701   6.6188   6.7113   6.7723   6.9790   7.1671

     occupation numbers 
     1.0000   1.0000   1.0000   1.0000   1.0000   1.0000   1.0000   1.0000
     1.0000   1.0000   1.0000   1.0000   1.0000   1.0000   1.0000   1.0000
     1.0000   1.0000   1.0000   1.0000   1.0000   1.0000   1.0000   1.0000
     1.0000   1.0000   1.0000   1.0000   1.0000   1.0000   1.0000   1.0000
     1.0000   1.0000   1.0000   1.0000   1.0000   1.0000   1.0000   1.0000
     1.0000   1.0000   1.0000   1.0000   1.0000   1.0000   1.0000   1.0000
     1.0000   1.0000   1.0000   1.0000   1.0000   1.0000   1.0000   1.0000
     1.0000   1.0000   1.0000   1.0000   1.0000   1.0000   1.0000   1.0000

          k = 0.1838-0.8733 0.1597 (  5579 PWs)   bands (ev):

   -66.3484 -65.7986 -65.4760 -64.9721 -33.3291 -33.3124 -33.2800 -32.7725
   -32.7601 -32.7551 -32.4804 -32.4423 -32.4097 -32.0183 -31.9406 -31.9190
   -29.7478 -29.6969 -29.5429 -29.3844 -11.7685 -11.6749 -11.5430 -11.4264
   -11.2022 -11.1266 -11.0535 -10.9742 -10.8009 -10.7579 -10.6757 -10.6555
    -8.5527  -8.0069  -7.8909  -7.7758  -7.6776  -7.5330  -7.3640  -7.2518
     3.7636   4.1752   4.3381   4.4588   4.8002   5.0459   5.0986   5.2248
     5.2799   5.4649   5.5535   5.7389   5.8594   5.9183   6.0086   6.1399
     6.2914   6.4296   6.4879   6.5623   6.6944   6.7494   6.9816   7.1542

     occupation numbers 
     1.0000   1.0000   1.0000   1.0000   1.0000   1.0000   1.0000   1.0000
     1.0000   1.0000   1.0000   1.0000   1.0000   1.0000   1.0000   1.0000
     1.0000   1.0000   1.0000   1.0000   1.0000   1.0000   1.0000   1.0000
     1.0000   1.0000   1.0000   1.0000   1.0000   1.0000   1.0000   1.0000
     1.0000   1.0000   1.0000   1.0000   1.0000   1.0000   1.0000   1.0000
     1.0000   1.0000   1.0000   1.0000   1.0000   1.0000   1.0000   1.0000
     1.0000   1.0000   1.0000   1.0000   1.0000   1.0000   1.0000   1.0000
     1.0000   1.0000   1.0000   1.0000   1.0000   1.0000   1.0000   1.0000

          k = 0.3493-0.7035-0.0061 (  5589 PWs)   bands (ev):

   -66.3484 -65.7986 -65.4760 -64.9721 -33.3291 -33.3124 -33.2800 -32.7725
   -32.7602 -32.7551 -32.4803 -32.4423 -32.4097 -32.0183 -31.9407 -31.9191
   -29.7438 -29.7016 -29.5413 -29.3853 -11.7936 -11.6601 -11.4899 -11.3927
   -11.2156 -11.1252 -11.0503 -10.9944 -10.8236 -10.7534 -10.7374 -10.6512
    -8.4665  -8.0099  -7.9525  -7.8021  -7.7318  -7.4829  -7.3543  -7.2238
     4.0246   4.1645   4.2662   4.5179   4.8849   4.9302   5.0367   5.1614
     5.2895   5.3747   5.4659   5.7626   5.8895   5.9225   6.0555   6.1901
     6.2367   6.2619   6.4232   6.5220   6.7290   6.7592   6.9714   7.2332

     occupation numbers 
     1.0000   1.0000   1.0000   1.0000   1.0000   1.0000   1.0000   1.0000
     1.0000   1.0000   1.0000   1.0000   1.0000   1.0000   1.0000   1.0000
     1.0000   1.0000   1.0000   1.0000   1.0000   1.0000   1.0000   1.0000
     1.0000   1.0000   1.0000   1.0000   1.0000   1.0000   1.0000   1.0000
     1.0000   1.0000   1.0000   1.0000   1.0000   1.0000   1.0000   1.0000
     1.0000   1.0000   1.0000   1.0000   1.0000   1.0000   1.0000   1.0000
     1.0000   1.0000   1.0000   1.0000   1.0000   1.0000   1.0000   1.0000
     1.0000   1.0000   1.0000   1.0000   1.0000   1.0000   1.0000   1.0000

          k =-0.0131-0.0127-0.6894 (  5590 PWs)   bands (ev):

   -66.3484 -65.7986 -65.4760 -64.9721 -33.3291 -33.3124 -33.2800 -32.7725
   -32.7602 -32.7552 -32.4803 -32.4423 -32.4097 -32.0183 -31.9407 -31.9191
   -29.7420 -29.7065 -29.5399 -29.3833 -11.9249 -11.7070 -11.4371 -11.3092
   -11.2590 -11.1426 -11.0985 -10.9134 -10.8360 -10.7483 -10.6374 -10.5737
    -8.3987  -8.3190  -7.9420  -7.8807  -7.7492  -7.4781  -7.2013  -7.1411
     3.8172   4.1333   4.3118   4.6723   4.8052   4.9475   5.0232   5.0974
     5.3045   5.4619   5.6199   5.7440   5.8379   5.9476   5.9640   6.1015
     6.1735   6.2426   6.4441   6.5721   6.6456   6.7963   7.0706   7.4046

     occupation numbers 
     1.0000   1.0000   1.0000   1.0000   1.0000   1.0000   1.0000   1.0000
     1.0000   1.0000   1.0000   1.0000   1.0000   1.0000   1.0000   1.0000
     1.0000   1.0000   1.0000   1.0000   1.0000   1.0000   1.0000   1.0000
     1.0000   1.0000   1.0000   1.0000   1.0000   1.0000   1.0000   1.0000
     1.0000   1.0000   1.0000   1.0000   1.0000   1.0000   1.0000   1.0000
     1.0000   1.0000   1.0000   1.0000   1.0000   1.0000   1.0000   1.0000
     1.0000   1.0000   1.0000   1.0000   1.0000   1.0000   1.0000   1.0000
     1.0000   1.0000   1.0000   1.0000   1.0000   1.0000   1.0000   1.0000

          k = 0.1524 0.1571-0.8552 (  5593 PWs)   bands (ev):

   -66.3484 -65.7986 -65.4760 -64.9721 -33.3291 -33.3124 -33.2800 -32.7725
   -32.7602 -32.7551 -32.4804 -32.4423 -32.4097 -32.0183 -31.9406 -31.9190
   -29.7465 -29.7013 -29.5414 -29.3824 -11.8796 -11.7296 -11.4906 -11.4199
   -11.2101 -11.1479 -10.9892 -10.9513 -10.8205 -10.7125 -10.6650 -10.5693
    -8.4765  -8.2027  -7.9241  -7.8373  -7.7265  -7.5130  -7.2318  -7.2088
     3.7455   4.1581   4.3279   4.4982   4.7174   4.9288   5.0635   5.2593
     5.4859   5.5199   5.6575   5.7334   5.8499   5.9012   5.9529   6.1613
     6.2534   6.3272   6.4406   6.5213   6.6571   6.8275   6.9013   7.3101

     occupation numbers 
     1.0000   1.0000   1.0000   1.0000   1.0000   1.0000   1.0000   1.0000
     1.0000   1.0000   1.0000   1.0000   1.0000   1.0000   1.0000   1.0000
     1.0000   1.0000   1.0000   1.0000   1.0000   1.0000   1.0000   1.0000
     1.0000   1.0000   1.0000   1.0000   1.0000   1.0000   1.0000   1.0000
     1.0000   1.0000   1.0000   1.0000   1.0000   1.0000   1.0000   1.0000
     1.0000   1.0000   1.0000   1.0000   1.0000   1.0000   1.0000   1.0000
     1.0000   1.0000   1.0000   1.0000   1.0000   1.0000   1.0000   1.0000
     1.0000   1.0000   1.0000   1.0000   1.0000   1.0000   1.0000   1.0000

          k =-0.3441-0.3523-0.3576 (  5584 PWs)   bands (ev):

   -66.3484 -65.7986 -65.4760 -64.9721 -33.3291 -33.3124 -33.2800 -32.7725
   -32.7601 -32.7551 -32.4804 -32.4423 -32.4097 -32.0183 -31.9406 -31.9190
   -29.7503 -29.6969 -29.5430 -29.3815 -11.8538 -11.7184 -11.5498 -11.4544
   -11.2035 -11.1216 -11.0198 -10.9534 -10.8099 -10.7415 -10.5933 -10.5589
    -8.5493  -8.0707  -7.8923  -7.8000  -7.7175  -7.5493  -7.3161  -7.2414
     3.7126   4.0450   4.3459   4.5055   4.6034   4.9850   5.2365   5.3783
     5.4489   5.5498   5.7082   5.7584   5.7964   5.9221   6.0529   6.1282
     6.1512   6.3437   6.4688   6.5870   6.6359   6.8142   6.8932   7.2140

     occupation numbers 
     1.0000   1.0000   1.0000   1.0000   1.0000   1.0000   1.0000   1.0000
     1.0000   1.0000   1.0000   1.0000   1.0000   1.0000   1.0000   1.0000
     1.0000   1.0000   1.0000   1.0000   1.0000   1.0000   1.0000   1.0000
     1.0000   1.0000   1.0000   1.0000   1.0000   1.0000   1.0000   1.0000
     1.0000   1.0000   1.0000   1.0000   1.0000   1.0000   1.0000   1.0000
     1.0000   1.0000   1.0000   1.0000   1.0000   1.0000   1.0000   1.0000
     1.0000   1.0000   1.0000   1.0000   1.0000   1.0000   1.0000   1.0000
     1.0000   1.0000   1.0000   1.0000   1.0000   1.0000   1.0000   1.0000

     highest occupied level (ev):     7.4557

!    total energy              =   -1059.59769538 Ry
     Harris-Foulkes estimate   =   -1059.59769538 Ry
     estimated scf accuracy    <          9.4E-11 Ry

     The total energy is the sum of the following terms:

     one-electron contribution =    -494.68565233 Ry
     hartree contribution      =     294.51534115 Ry
     xc contribution           =    -172.79692681 Ry
     ewald contribution        =    -686.63045740 Ry

     convergence has been achieved in  20 iterations

     Forces acting on atoms (Ry/au):

     atom    1 type  2   force =   0.30960236E-01 -0.32845392E-01  0.19364477E-01
     atom    2 type  3   force =   0.10008428E-02  0.37631927E-01  0.27058968E-01
     atom    3 type  1   force =  -0.24359397E-01  0.29628838E-01 -0.12432670E-01
     atom    4 type  3   force =  -0.48860090E-01 -0.17317387E-01 -0.16628231E-01
     atom    5 type  1   force =  -0.37733359E-01 -0.38375220E-01  0.39970679E-02
     atom    6 type  3   force =   0.13036286E-01 -0.88917053E-02 -0.28718239E-01
     atom    7 type  2   force =   0.37360435E-01  0.45265687E-01  0.12782875E-01
     atom    8 type  3   force =   0.38493455E-01  0.91437638E-02 -0.47154632E-01
     atom    9 type  1   force =  -0.29923873E-01 -0.63430976E-01  0.31341367E-01
     atom   10 type  3   force =   0.19341572E-01  0.79980109E-02  0.82090080E-02
     atom   11 type  1   force =   0.37380009E-01  0.30541584E-01 -0.22957810E-01
     atom   12 type  3   force =   0.21907556E-01 -0.21588871E-02 -0.76337754E-02
     atom   13 type  2   force =  -0.51892237E-01 -0.50966358E-01 -0.32364111E-01
     atom   14 type  3   force =  -0.31683326E-01  0.85957543E-01  0.63359024E-03
     atom   15 type  2   force =   0.25484031E-01 -0.14082358E-03 -0.16091896E-01
     atom   16 type  3   force =  -0.51214042E-03 -0.32040604E-01  0.80594014E-01
     The non-local contrib.  to forces
     atom    1 type  2   force =   0.10041190E+00 -0.15986216E+00 -0.90999918E-01
     atom    2 type  3   force =   0.86074579E-01  0.51044421E-01  0.37248113E-01
     atom    3 type  1   force =  -0.36641031E-01  0.26881282E-02 -0.34680556E-01
     atom    4 type  3   force =  -0.14762732E+00  0.23450187E-01  0.15501367E-01
     atom    5 type  1   force =   0.25516685E-01 -0.87029668E-02  0.14302649E-01
     atom    6 type  3   force =  -0.21076491E+00 -0.10453074E+00  0.25209452E-01
     atom    7 type  2   force =   0.15021757E+00  0.75858503E-01  0.30390247E+00
     atom    8 type  3   force =   0.12450891E+00 -0.36954399E-01 -0.12156726E+00
     atom    9 type  1   force =  -0.10555703E-01 -0.16451089E-01  0.13637077E-01
     atom   10 type  3   force =   0.18732024E+00 -0.16190073E+00 -0.37647510E-02
     atom   11 type  1   force =   0.22092242E-01  0.14374523E-01  0.14911714E-01
     atom   12 type  3   force =  -0.88370583E-01 -0.12936847E+00  0.11725188E+00
     atom   13 type  2   force =  -0.17502019E+00 -0.26870532E+00 -0.42114739E+00
     atom   14 type  3   force =  -0.84441820E-01  0.23475358E+00 -0.15405777E-01
     atom   15 type  2   force =  -0.22344212E+00 -0.16154787E+00  0.21116217E+00
     atom   16 type  3   force =   0.69867729E-01 -0.98248880E-02  0.15093931E-01
     The ionic contribution  to forces
     atom    1 type  2   force =   0.18688763E+01 -0.26081285E+01 -0.13532549E+00
     atom    2 type  3   force =  -0.15631630E+01  0.85864476E+00  0.14320547E+01
     atom    3 type  1   force =  -0.17671136E+01  0.87825406E+00 -0.30598479E+01
     atom    4 type  3   force =  -0.42154478E+00 -0.11970689E+01 -0.11354520E+01
     atom    5 type  1   force =  -0.11436706E+01 -0.99864863E+00  0.18583197E+01
     atom    6 type  3   force =   0.34341905E+01  0.46954325E+00 -0.19256685E+01
     atom    7 type  2   force =   0.29712721E+01  0.30847653E+01  0.33788439E+01
     atom    8 type  3   force =   0.41136116E+00  0.59282877E+00 -0.97099987E+00
     atom    9 type  1   force =  -0.56485678E+00 -0.13369769E+01  0.24492984E+01
     atom   10 type  3   force =  -0.24084333E+01  0.20847128E+01 -0.33390145E+00
     atom   11 type  1   force =   0.15619804E+01  0.13160170E+01  0.55184479E+00
     atom   12 type  3   force =   0.19879185E+01  0.24691714E+01 -0.26818166E+01
     atom   13 type  2   force =  -0.38720834E+01 -0.30612304E+01 -0.36367112E+01
     atom   14 type  3   force =   0.63943139E-01 -0.28514064E+00  0.13935116E+01
     atom   15 type  2   force =   0.81964887E-01 -0.98992117E+00 -0.10404968E+01
     atom   16 type  3   force =  -0.64064149E+00 -0.12768223E+01  0.38563468E+01
     The local contribution  to forces
     atom    1 type  2   force =  -0.19383140E+01  0.27351465E+01  0.24567900E+00
     atom    2 type  3   force =   0.14787125E+01 -0.87120913E+00 -0.14414410E+01
     atom    3 type  1   force =   0.17801157E+01 -0.85084860E+00  0.30830619E+01
     atom    4 type  3   force =   0.51879406E+00  0.11557349E+01  0.11030048E+01
     atom    5 type  1   force =   0.10791115E+01  0.96866826E+00 -0.18693127E+01
     atom    6 type  3   force =  -0.32111069E+01 -0.37434653E+00  0.18711075E+01
     atom    7 type  2   force =  -0.30841228E+01 -0.31153585E+01 -0.36699481E+01
     atom    8 type  3   force =  -0.49630993E+00 -0.54641686E+00  0.10441048E+01
     atom    9 type  1   force =   0.54476090E+00  0.12895153E+01 -0.24314507E+01
     atom   10 type  3   force =   0.22413725E+01 -0.19155520E+01  0.34617540E+00
     atom   11 type  1   force =  -0.15467146E+01 -0.12996532E+01 -0.59068760E+00
     atom   12 type  3   force =  -0.18773377E+01 -0.23423251E+01  0.25573901E+01
     atom   13 type  2   force =   0.39952066E+01  0.32789652E+01  0.40254872E+01
     atom   14 type  3   force =  -0.12073876E-01  0.13887365E+00 -0.13775057E+01
     atom   15 type  2   force =   0.16695258E+00  0.11513208E+01  0.81325001E+00
     atom   16 type  3   force =   0.57042590E+00  0.12538998E+01 -0.37896526E+01
     The core correction contribution to forces
     atom    1 type  2   force =   0.00000000E+00  0.00000000E+00  0.00000000E+00
     atom    2 type  3   force =  -0.62334956E-03 -0.84740753E-03 -0.79847749E-03
     atom    3 type  1   force =  -0.72726580E-03 -0.46948868E-03 -0.97062423E-03
     atom    4 type  3   force =   0.15162860E-02  0.56321083E-03  0.31636262E-03
     atom    5 type  1   force =   0.13122606E-02  0.30755028E-03  0.68458574E-03
     atom    6 type  3   force =   0.71955344E-03  0.44176917E-03  0.62886208E-03
     atom    7 type  2   force =   0.00000000E+00  0.00000000E+00  0.00000000E+00
     atom    8 type  3   force =  -0.10670620E-02 -0.31243544E-03  0.13067225E-02
     atom    9 type  1   force =   0.72777325E-03  0.48525616E-03 -0.14341757E-03
     atom   10 type  3   force =  -0.92128316E-03  0.73678712E-03 -0.30177445E-03
     atom   11 type  1   force =   0.17545085E-04 -0.19592471E-03  0.98021488E-03
     atom   12 type  3   force =  -0.29887800E-03  0.36546068E-03 -0.46130716E-03
     atom   13 type  2   force =   0.00000000E+00  0.00000000E+00  0.00000000E+00
     atom   14 type  3   force =   0.88961379E-03 -0.25281459E-02  0.36749889E-04
     atom   15 type  2   force =   0.00000000E+00  0.00000000E+00  0.00000000E+00
     atom   16 type  3   force =  -0.16602851E-03  0.70442926E-03 -0.11922139E-02
     The Hubbard contrib.    to forces
     atom    1 type  2   force =   0.00000000E+00  0.00000000E+00  0.00000000E+00
     atom    2 type  3   force =   0.00000000E+00  0.00000000E+00  0.00000000E+00
     atom    3 type  1   force =   0.00000000E+00  0.00000000E+00  0.00000000E+00
     atom    4 type  3   force =   0.00000000E+00  0.00000000E+00  0.00000000E+00
     atom    5 type  1   force =   0.00000000E+00  0.00000000E+00  0.00000000E+00
     atom    6 type  3   force =   0.00000000E+00  0.00000000E+00  0.00000000E+00
     atom    7 type  2   force =   0.00000000E+00  0.00000000E+00  0.00000000E+00
     atom    8 type  3   force =   0.00000000E+00  0.00000000E+00  0.00000000E+00
     atom    9 type  1   force =   0.00000000E+00  0.00000000E+00  0.00000000E+00
     atom   10 type  3   force =   0.00000000E+00  0.00000000E+00  0.00000000E+00
     atom   11 type  1   force =   0.00000000E+00  0.00000000E+00  0.00000000E+00
     atom   12 type  3   force =   0.00000000E+00  0.00000000E+00  0.00000000E+00
     atom   13 type  2   force =   0.00000000E+00  0.00000000E+00  0.00000000E+00
     atom   14 type  3   force =   0.00000000E+00  0.00000000E+00  0.00000000E+00
     atom   15 type  2   force =   0.00000000E+00  0.00000000E+00  0.00000000E+00
     atom   16 type  3   force =   0.00000000E+00  0.00000000E+00  0.00000000E+00
     The SCF correction term to forces
     atom    1 type  2   force =  -0.13881417E-04 -0.17018415E-05  0.10918932E-04
     atom    2 type  3   force =   0.20941725E-06 -0.10967079E-05 -0.43047305E-05
     atom    3 type  1   force =   0.68364635E-05  0.43569822E-05  0.45410931E-05
     atom    4 type  3   force =   0.17836287E-05  0.27534302E-05  0.13371360E-05
     atom    5 type  1   force =  -0.30187777E-05  0.18539638E-06  0.28707994E-05
     atom    6 type  3   force =  -0.17893560E-05  0.16514817E-06  0.45133531E-05
     atom    7 type  2   force =  -0.63134645E-05  0.28905785E-07 -0.15348108E-04
     atom    8 type  3   force =   0.50403398E-06 -0.16905027E-05  0.10010434E-05
     atom    9 type  1   force =   0.58358176E-07 -0.38421183E-05  0.74296622E-07
     atom   10 type  3   force =   0.35563391E-05  0.71140570E-06  0.16253129E-05
     atom   11 type  1   force =   0.45489288E-05 -0.12132303E-05 -0.68914360E-05
     atom   12 type  3   force =  -0.36506780E-05 -0.25217544E-05  0.21359302E-05
     atom   13 type  2   force =   0.48747187E-05  0.37332475E-05  0.73484493E-05
     atom   14 type  3   force =  -0.25918265E-06 -0.12816549E-05 -0.31921339E-05
     atom   15 type  2   force =   0.88161892E-05  0.70750338E-05 -0.72668880E-05
     atom   16 type  3   force =   0.18777521E-05  0.19161904E-05 -0.18498417E-05

     Total force =     0.231306     Total SCF correction =     0.000034


     entering subroutine stress ...

          total   stress  (Ry/bohr**3)                   (kbar)     P=   16.09
  -0.0000548203  -0.0001491523   0.0001815961         -8.06    -21.94     26.71
  -0.0001491523   0.0003343520   0.0002332448        -21.94     49.18     34.31
   0.0001815961   0.0002332448   0.0000485038         26.71     34.31      7.14

     kinetic stress (kbar)  19985.48    -20.40     25.13
                              -20.40  20068.41     26.73
                               25.13     26.73  19999.72

     local   stress (kbar)  -3666.87    852.28   1045.82
                              852.28  -5713.60    995.45
                             1045.82    995.45  -3435.67

     nonloc. stress (kbar)   5067.36     -4.38     -5.95
                               -4.38   5061.83     -7.84
                               -5.95     -7.84   5065.32

     hartree stress (kbar)  10854.37   -336.17   -441.88
                             -336.17  11575.96   -384.32
                             -441.88   -384.32  10719.07

     exc-cor stress (kbar)  -5076.09     -0.31     -0.77
                               -0.31  -5074.31     -0.94
                               -0.77     -0.94  -5076.15

     corecor stress (kbar)  -1007.33      0.07     -0.07
                                0.07  -1007.63     -0.06
                               -0.07     -0.06  -1007.38

     ewald   stress (kbar) -26164.98   -513.04   -595.57
                             -513.04 -24861.48   -594.71
                             -595.57   -594.71 -26257.77

     hubbard stress (kbar)      0.00      0.00      0.00
                                0.00      0.00      0.00
                                0.00      0.00      0.00

     london  stress (kbar)      0.00      0.00      0.00
                                0.00      0.00      0.00
                                0.00      0.00      0.00

     XDM     stress (kbar)      0.00      0.00      0.00
                                0.00      0.00      0.00
                                0.00      0.00      0.00

     dft-nl  stress (kbar)      0.00      0.00      0.00
                                0.00      0.00      0.00
                                0.00      0.00      0.00



     Writing output data file mix.dummy22777.save

     init_run     :     17.28s CPU     17.52s WALL (       1 calls)
     electrons    :    739.61s CPU    789.92s WALL (       1 calls)
     forces       :      6.24s CPU      6.30s WALL (       1 calls)
     stress       :     16.81s CPU     17.20s WALL (       1 calls)

     Called by init_run:
     wfcinit      :     15.07s CPU     15.30s WALL (       1 calls)
     potinit      :      0.51s CPU      0.51s WALL (       1 calls)

     Called by electrons:
     c_bands      :    645.54s CPU    691.15s WALL (      20 calls)
     sum_band     :     86.58s CPU     91.25s WALL (      20 calls)
     v_of_rho     :      0.80s CPU      0.81s WALL (      21 calls)
     v_h          :      0.04s CPU      0.04s WALL (      21 calls)
     v_xc         :      0.85s CPU      0.86s WALL (      23 calls)
     newd         :      5.54s CPU      5.55s WALL (      21 calls)
     mix_rho      :      1.34s CPU      1.35s WALL (      20 calls)

     Called by c_bands:
     init_us_2    :      3.58s CPU      3.65s WALL (    1548 calls)
     cegterg      :    619.44s CPU    663.66s WALL (     720 calls)

     Called by sum_band:
     sum_band:bec :      0.96s CPU      1.04s WALL (     720 calls)
     addusdens    :      5.92s CPU      5.94s WALL (      20 calls)

     Called by *egterg:
     h_psi        :    318.74s CPU    331.10s WALL (    2197 calls)
     s_psi        :     32.60s CPU     31.94s WALL (    2197 calls)
     g_psi        :      0.38s CPU      0.39s WALL (    1441 calls)
     cdiaghg      :     88.64s CPU     98.40s WALL (    2161 calls)
     cegterg:over :     91.93s CPU    102.00s WALL (    1441 calls)
     cegterg:upda :     11.93s CPU     14.71s WALL (    1441 calls)
     cegterg:last :      7.75s CPU      8.42s WALL (     720 calls)

     Called by h_psi:
     h_psi:vloc   :    199.69s CPU    201.89s WALL (    2197 calls)
     h_psi:vnl    :    118.55s CPU    128.70s WALL (    2197 calls)
     add_vuspsi   :     33.17s CPU     34.04s WALL (    2197 calls)

     General routines
     calbec       :    126.62s CPU    139.74s WALL (    2989 calls)
     fft          :      2.83s CPU      2.87s WALL (     357 calls)
     ffts         :      0.88s CPU      0.83s WALL (     550 calls)
     fftw         :    228.91s CPU    232.37s WALL (  265212 calls)
     interpolate  :      0.21s CPU      0.21s WALL (      41 calls)

     Parallel routines
     fft_scatter  :    114.06s CPU    116.07s WALL (  266119 calls)

     PWSCF        : 13m 3.10s CPU    13m54.94s WALL


   This run was terminated on:   7:27:34  16Nov2017            

=------------------------------------------------------------------------------=
   JOB DONE.
=------------------------------------------------------------------------------=
