
     Program PWSCF v.5.1 starts on  7Dec2017 at 22:38:39 

     This program is part of the open-source Quantum ESPRESSO suite
     for quantum simulation of materials; please cite
         "P. Giannozzi et al., J. Phys.:Condens. Matter 21 395502 (2009);
          URL http://www.quantum-espresso.org", 
     in publications or presentations arising from this work. More details at
     http://www.quantum-espresso.org/quote

     Parallel version (MPI), running on    16 processors
     R & G space division:  proc/nbgrp/npool/nimage =      16
     Waiting for input...
     Reading input from standard input
Warning: card &IONS ignored
Warning: card   ION_DYNAMICS='BFGS', ignored
Warning: card / ignored
Warning: card &CELL ignored
Warning: card  CELL_DYNAMICS = 'BFGS' ignored
Warning: card / ignored

     Current dimensions of program PWSCF are:
     Max number of different atomic species (ntypx) = 10
     Max number of k-points (npk) =  40000
     Max angular momentum in pseudopotentials (lmaxx) =  3
 kfg - two_fermi_energies  F

     Subspace diagonalization in iterative solution of the eigenvalue problem:
     a serial algorithm will be used


     Parallelization info
     --------------------
     sticks:   dense  smooth     PW     G-vecs:    dense   smooth      PW
     Min         124      99     28                 3783     2700     420
     Max         125     100     29                 3786     2714     423
     Sum        1997    1597    457                60559    43313    6737



     bravais-lattice index     =            0
     lattice parameter (alat)  =    11.843723053  a.u.
     unit-cell volume          =    1267.1364 (a.u.)^3
     number of atoms/cell      =           16
     number of atomic types    =            3
     number of electrons       =       128.00
     number of Kohn-Sham states=           64
     kinetic-energy cutoff     =      40.0000  Ry
     charge density cutoff     =     200.0000  Ry
     convergence threshold     =      1.0E-10
     mixing beta               =       0.3000
     number of iterations used =            8  local-TF  mixing
     Exchange-correlation      = SLA  PW   PSX  PSC ( 1  4 10  8 0)
     A smooth kinetic-energy cutoff is imposed at      39.5000 Ry
     height of the smooth step-function =             800.0000 Ry
     width of the smooth step-function  =               1.0000 Ry


     celldm(1)=  11.843723  celldm(2)=   0.000000  celldm(3)=   0.000000
     celldm(4)=   0.000000  celldm(5)=   0.000000  celldm(6)=   0.000000

     crystal axes: (cart. coord. in units of alat)
               a(1) = (  -0.006532254787   0.718308916661   0.695693632206 )  
               a(2) = (   0.728831698380  -0.015265765217   0.704427142636 )  
               a(3) = (   0.732829846369   0.731040575081  -0.019263913206 )  

     reciprocal axes: (cart. coord. in units 2 pi/alat)
               b(1) = ( -0.674793  0.695240  0.713238 )  
               b(2) = (  0.684951 -0.668275  0.696431 )  
               b(3) = (  0.677345  0.670826 -0.686273 )  


     PseudoPot. # 1 for Ca read from file:
     /users/kfg/psuedo/gbrv_1.5/ca.pbesol.UPF
     MD5 check sum: 0533207b58cddeaa036efa5b63902087
     Pseudo is Ultrasoft + core correction, Zval = 10.0
     Generated by new atomic code, or converted to UPF format
     Using radial grid of  845 points,  6 beta functions with: 
                l(1) =   0
                l(2) =   0
                l(3) =   1
                l(4) =   1
                l(5) =   2
                l(6) =   2
     Q(r) pseudized with  8 coefficients,  rinner =    1.500   1.500   1.500
                                                       1.500   1.500

     PseudoPot. # 2 for Mg read from file:
     /users/kfg/psuedo/gbrv_1.5/mg.pbesol.UPF
     MD5 check sum: 4059f37963cf5867752dbf5ab2400678
     Pseudo is Ultrasoft, Zval = 10.0
     Generated by new atomic code, or converted to UPF format
     Using radial grid of  821 points,  7 beta functions with: 
                l(1) =   0
                l(2) =   0
                l(3) =   0
                l(4) =   1
                l(5) =   1
                l(6) =   2
                l(7) =   2
     Q(r) pseudized with  8 coefficients,  rinner =    1.200   1.200   1.200
                                                       1.200   1.200

     PseudoPot. # 3 for O  read from file:
     /users/kfg/psuedo/gbrv_1.5/o.pbesol.UPF
     MD5 check sum: 501638753501ef6325af9037351f7734
     Pseudo is Ultrasoft + core correction, Zval =  6.0
     Generated by new atomic code, or converted to UPF format
     Using radial grid of  737 points,  5 beta functions with: 
                l(1) =   0
                l(2) =   0
                l(3) =   1
                l(4) =   1
                l(5) =   2
     Q(r) pseudized with  8 coefficients,  rinner =    0.900   0.900   0.900
                                                       0.900   0.900

     atomic species   valence    mass     pseudopotential
        Ca            10.00    40.07800     Ca( 1.00)
        Mg            10.00    40.07800     Mg( 1.00)
        O              6.00    15.99940     O ( 1.00)

     No symmetry found


                                    s                        frac. trans.

      isym =  1     identity                                     

 cryst.   s( 1) = (     1          0          0      )
                  (     0          1          0      )
                  (     0          0          1      )

 cart.    s( 1) = (  1.0000000  0.0000000  0.0000000 )
                  (  0.0000000  1.0000000  0.0000000 )
                  (  0.0000000  0.0000000  1.0000000 )


     point group C_1 (1)    
     there are  1 classes
     the character table:

       E    
A      1.00

     the symmetry operations in each class:
     E        1

   Cartesian axes

     site n.     atom                  positions (alat units)
         1           Ca  tau(   1) = (   -0.00028928148    0.00576371893   -0.04336761826  )
         2           O   tau(   2) = (    0.34674136921    0.36216647919    0.37277869473  )
         3           Ca  tau(   3) = (    0.37900489640    0.37423147467    0.00833742080  )
         4           O   tau(   4) = (    0.75687206307    0.69862908183    0.37933202724  )
         5           Ca  tau(   5) = (    0.35141431360    0.00006932519    0.33325552250  )
         6           O   tau(   6) = (    0.73495744440    0.36353156227    0.70991771712  )
         7           Mg  tau(   7) = (    0.73193632252    0.36436747094    0.35196235788  )
         8           O   tau(   8) = (    1.07691912941    0.70066061880    0.69021658225  )
         9           Mg  tau(   9) = (   -0.01302843367    0.35041948326    0.35161137541  )
        10           O   tau(  10) = (    0.37201074171    0.71879647636    0.68572076334  )
        11           Ca  tau(  11) = (    0.37992964383    0.70604126414    0.34926354733  )
        12           O   tau(  12) = (    0.70429051770    1.10583552863    0.66686641365  )
        13           Mg  tau(  13) = (    0.35978119833    0.37977281042    0.71853256011  )
        14           O   tau(  14) = (    0.71705508984    0.72377189468    1.00792172422  )
        15           Mg  tau(  15) = (    0.72150451203    0.70568753122    0.69024372565  )
        16           O   tau(  16) = (    1.11167621286    1.04475763861    1.01254835584  )

   Crystallographic axes

     site n.     atom                  positions (cryst. coord.)
         1           Ca  tau(   1) = (   -0.02672906066   -0.03425242686    0.03343255198  )
         2           O   tau(   2) = (    0.28369368653    0.25508830484    0.22198616364  )
         3           Ca  tau(   3) = (    0.01037717561    0.01531646253    0.50203954052  )
         4           O   tau(   4) = (    0.24553647624    0.31572190643    0.72099661229  )
         5           Ca  tau(   5) = (    0.00060663146    0.47274443243    0.00937072735  )
         6           O   tau(   6) = (    0.26313745380    0.75487879074    0.25448845335  )
         7           Mg  tau(   7) = (    0.01044988425    0.50295981593    0.49865808383  )
         8           O   tau(   8) = (    0.25271790346    0.75009020223    0.72578980476  )
         9           Mg  tau(   9) = (    0.50319966429    0.00177242344   -0.01505561447  )
        10           O   tau(  10) = (    0.73778762146    0.25201201550    0.26357525436  )
        11           Ca  tau(  11) = (    0.48360199991    0.03164098834    0.49128416620  )
        12           O   tau(  12) = (    0.76920473468    0.20782791410    0.76121843313  )
        13           Mg  tau(  13) = (    0.53373990881    0.49304761544    0.00534775225  )
        14           O   tau(  14) = (    0.73821904163    0.70941598197    0.27950890746  )
        15           Mg  tau(  15) = (    0.49606361545    0.50330829214    0.48840517395  )
        16           O   tau(  16) = (    0.69839326306    0.76842728080    0.75895398940  )

     number of k points=    36
                       cart. coord. in units 2pi/alat
        k(    1) = (   0.0000000   0.0000000   0.0000000), wk =   0.0312500
        k(    2) = (   0.1693362   0.1677066  -0.1715683), wk =   0.0625000
        k(    3) = (  -0.3386723  -0.3354132   0.3431367), wk =   0.0312500
        k(    4) = (   0.1712376  -0.1670688   0.1741076), wk =   0.0625000
        k(    5) = (   0.3405738   0.0006378   0.0025393), wk =   0.0625000
        k(    6) = (  -0.1674347  -0.5024820   0.5172443), wk =   0.0625000
        k(    7) = (   0.0019015  -0.3347754   0.3456760), wk =   0.0625000
        k(    8) = (  -0.3424753   0.3341376  -0.3482153), wk =   0.0312500
        k(    9) = (  -0.1731391   0.5018442  -0.5197836), wk =   0.0625000
        k(   10) = (  -0.6811476  -0.0012756  -0.0050786), wk =   0.0312500
        k(   11) = (  -0.1686984   0.1738100   0.1783095), wk =   0.0625000
        k(   12) = (   0.0006378   0.3415166   0.0067412), wk =   0.0625000
        k(   13) = (  -0.5073707  -0.1616032   0.5214462), wk =   0.0625000
        k(   14) = (  -0.3380345   0.0061034   0.3498778), wk =   0.0625000
        k(   15) = (   0.0025393   0.0067412   0.3524171), wk =   0.0625000
        k(   16) = (   0.1718755   0.1744478   0.1808488), wk =   0.0625000
        k(   17) = (  -0.3361330  -0.3286720   0.6955538), wk =   0.0625000
        k(   18) = (  -0.1667969  -0.1609654   0.5239855), wk =   0.0625000
        k(   19) = (  -0.5111736   0.5079475  -0.1699058), wk =   0.0625000
        k(   20) = (  -0.3418375   0.6756541  -0.3414741), wk =   0.0625000
        k(   21) = (  -0.8498460   0.1725343   0.1732309), wk =   0.0625000
        k(   22) = (  -0.6805098   0.3402409   0.0016626), wk =   0.0625000
        k(   23) = (  -0.3399360   0.3408787   0.0042019), wk =   0.0625000
        k(   24) = (  -0.1705998   0.5085853  -0.1673665), wk =   0.0625000
        k(   25) = (  -0.6786083   0.0054655   0.3473385), wk =   0.0625000
        k(   26) = (  -0.5092722   0.1731721   0.1757702), wk =   0.0625000
        k(   27) = (   0.3373967  -0.3476199  -0.3566190), wk =   0.0312500
        k(   28) = (   0.5067329  -0.1799133  -0.5281873), wk =   0.0625000
        k(   29) = (  -0.0012756  -0.6830331  -0.0134823), wk =   0.0312500
        k(   30) = (   0.5086344  -0.5146887  -0.1825114), wk =   0.0625000
        k(   31) = (   0.6779705  -0.3469821  -0.3540797), wk =   0.0625000
        k(   32) = (   0.1699620  -0.8501019   0.1606253), wk =   0.0625000
        k(   33) = (   0.3392982  -0.6823953  -0.0109430), wk =   0.0625000
        k(   34) = (  -0.0050786  -0.0134823  -0.7048343), wk =   0.0312500
        k(   35) = (   0.1642576   0.1542243  -0.8764026), wk =   0.0625000
        k(   36) = (  -0.3437509  -0.3488955  -0.3616976), wk =   0.0312500

                       cryst. coord.
        k(    1) = (   0.0000000   0.0000000   0.0000000), wk =   0.0312500
        k(    2) = (   0.0000000  -0.0000000   0.2500000), wk =   0.0625000
        k(    3) = (   0.0000000   0.0000000  -0.5000000), wk =   0.0312500
        k(    4) = (   0.0000000   0.2500000   0.0000000), wk =   0.0625000
        k(    5) = (   0.0000000   0.2500000   0.2500000), wk =   0.0625000
        k(    6) = (   0.0000000   0.2500000  -0.5000000), wk =   0.0625000
        k(    7) = (   0.0000000   0.2500000  -0.2500000), wk =   0.0625000
        k(    8) = (  -0.0000000  -0.5000000  -0.0000000), wk =   0.0312500
        k(    9) = (  -0.0000000  -0.5000000   0.2500000), wk =   0.0625000
        k(   10) = (  -0.0000000  -0.5000000  -0.5000000), wk =   0.0312500
        k(   11) = (   0.2500000   0.0000000   0.0000000), wk =   0.0625000
        k(   12) = (   0.2500000   0.0000000   0.2500000), wk =   0.0625000
        k(   13) = (   0.2500000   0.0000000  -0.5000000), wk =   0.0625000
        k(   14) = (   0.2500000   0.0000000  -0.2500000), wk =   0.0625000
        k(   15) = (   0.2500000   0.2500000   0.0000000), wk =   0.0625000
        k(   16) = (   0.2500000   0.2500000   0.2500000), wk =   0.0625000
        k(   17) = (   0.2500000   0.2500000  -0.5000000), wk =   0.0625000
        k(   18) = (   0.2500000   0.2500000  -0.2500000), wk =   0.0625000
        k(   19) = (   0.2500000  -0.5000000  -0.0000000), wk =   0.0625000
        k(   20) = (   0.2500000  -0.5000000   0.2500000), wk =   0.0625000
        k(   21) = (   0.2500000  -0.5000000  -0.5000000), wk =   0.0625000
        k(   22) = (   0.2500000  -0.5000000  -0.2500000), wk =   0.0625000
        k(   23) = (   0.2500000  -0.2500000  -0.0000000), wk =   0.0625000
        k(   24) = (   0.2500000  -0.2500000   0.2500000), wk =   0.0625000
        k(   25) = (   0.2500000  -0.2500000  -0.5000000), wk =   0.0625000
        k(   26) = (   0.2500000  -0.2500000  -0.2500000), wk =   0.0625000
        k(   27) = (  -0.5000000  -0.0000000   0.0000000), wk =   0.0312500
        k(   28) = (  -0.5000000  -0.0000000   0.2500000), wk =   0.0625000
        k(   29) = (  -0.5000000  -0.0000000  -0.5000000), wk =   0.0312500
        k(   30) = (  -0.5000000   0.2500000  -0.0000000), wk =   0.0625000
        k(   31) = (  -0.5000000   0.2500000   0.2500000), wk =   0.0625000
        k(   32) = (  -0.5000000   0.2500000  -0.5000000), wk =   0.0625000
        k(   33) = (  -0.5000000   0.2500000  -0.2500000), wk =   0.0625000
        k(   34) = (  -0.5000000  -0.5000000  -0.0000000), wk =   0.0312500
        k(   35) = (  -0.5000000  -0.5000000   0.2500000), wk =   0.0625000
        k(   36) = (  -0.5000000  -0.5000000  -0.5000000), wk =   0.0312500

     Dense  grid:    60559 G-vectors     FFT dimensions: (  54,  60,  60)

     Smooth grid:    43313 G-vectors     FFT dimensions: (  48,  50,  50)

     Largest allocated arrays     est. size (Mb)     dimensions
        Kohn-Sham Wavefunctions         0.33 Mb     (     342,   64)
        NL pseudopotentials             1.32 Mb     (     342,  252)
        Each V/rho on FFT grid          0.20 Mb     (   12960)
        Each G-vector array             0.03 Mb     (    3786)
        G-vector shells                 0.03 Mb     (    3744)
     Largest temporary arrays     est. size (Mb)     dimensions
        Auxiliary wavefunctions         1.34 Mb     (     342,  256)
        Each subspace H/S matrix        1.00 Mb     (     256,  256)
        Each <psi_i|beta_j> matrix      0.25 Mb     (     252,   64)
        Arrays for rho mixing           1.58 Mb     (   12960,    8)

     Check: negative/imaginary core charge=   -0.000003    0.000000

     Initial potential from superposition of free atoms

     starting charge  126.77837, renormalised to  128.00000
     Starting wfc are   92 randomized atomic wfcs

     total cpu time spent up to now is       18.0 secs

     Self-consistent Calculation

     iteration #  1     ecut=    40.00 Ry     beta=0.30
     Davidson diagonalization with overlap
     ethr =  1.00E-02,  avg # of iterations =  2.0

     total cpu time spent up to now is       52.8 secs

     total energy              =   -1059.91097403 Ry
     Harris-Foulkes estimate   =   -1060.54225086 Ry
     estimated scf accuracy    <       3.25591402 Ry

     iteration #  2     ecut=    40.00 Ry     beta=0.30
     Davidson diagonalization with overlap
     ethr =  2.54E-03,  avg # of iterations =  1.6

     total cpu time spent up to now is       86.0 secs

     total energy              =   -1059.44181053 Ry
     Harris-Foulkes estimate   =   -1060.01222821 Ry
     estimated scf accuracy    <       1.40303841 Ry

     iteration #  3     ecut=    40.00 Ry     beta=0.30
     Davidson diagonalization with overlap
     ethr =  1.10E-03,  avg # of iterations =  2.0

     total cpu time spent up to now is      124.6 secs

     total energy              =   -1059.66011952 Ry
     Harris-Foulkes estimate   =   -1059.70426297 Ry
     estimated scf accuracy    <       0.17466967 Ry

     iteration #  4     ecut=    40.00 Ry     beta=0.30
     Davidson diagonalization with overlap
     ethr =  1.36E-04,  avg # of iterations =  2.0

     total cpu time spent up to now is      159.9 secs

     total energy              =   -1059.61361079 Ry
     Harris-Foulkes estimate   =   -1059.67792106 Ry
     estimated scf accuracy    <       0.11162745 Ry

     iteration #  5     ecut=    40.00 Ry     beta=0.30
     Davidson diagonalization with overlap
     ethr =  8.72E-05,  avg # of iterations =  2.0

     total cpu time spent up to now is      208.1 secs

     total energy              =   -1059.62990088 Ry
     Harris-Foulkes estimate   =   -1059.63132013 Ry
     estimated scf accuracy    <       0.01644020 Ry

     iteration #  6     ecut=    40.00 Ry     beta=0.30
     Davidson diagonalization with overlap
     ethr =  1.28E-05,  avg # of iterations =  1.0

     total cpu time spent up to now is      239.7 secs

     total energy              =   -1059.62621506 Ry
     Harris-Foulkes estimate   =   -1059.63021454 Ry
     estimated scf accuracy    <       0.00978992 Ry

     iteration #  7     ecut=    40.00 Ry     beta=0.30
     Davidson diagonalization with overlap
     ethr =  7.65E-06,  avg # of iterations =  2.0

     total cpu time spent up to now is      280.6 secs

     total energy              =   -1059.62686290 Ry
     Harris-Foulkes estimate   =   -1059.62722147 Ry
     estimated scf accuracy    <       0.00115127 Ry

     iteration #  8     ecut=    40.00 Ry     beta=0.30
     Davidson diagonalization with overlap
     ethr =  8.99E-07,  avg # of iterations =  2.1

     total cpu time spent up to now is      317.1 secs

     total energy              =   -1059.62692540 Ry
     Harris-Foulkes estimate   =   -1059.62701129 Ry
     estimated scf accuracy    <       0.00022079 Ry

     iteration #  9     ecut=    40.00 Ry     beta=0.30
     Davidson diagonalization with overlap
     ethr =  1.72E-07,  avg # of iterations =  3.0

     total cpu time spent up to now is      359.8 secs

     total energy              =   -1059.62694390 Ry
     Harris-Foulkes estimate   =   -1059.62695798 Ry
     estimated scf accuracy    <       0.00010649 Ry

     iteration # 10     ecut=    40.00 Ry     beta=0.30
     Davidson diagonalization with overlap
     ethr =  8.32E-08,  avg # of iterations =  2.0

     total cpu time spent up to now is      393.0 secs

     total energy              =   -1059.62691855 Ry
     Harris-Foulkes estimate   =   -1059.62694760 Ry
     estimated scf accuracy    <       0.00008106 Ry

     iteration # 11     ecut=    40.00 Ry     beta=0.30
     Davidson diagonalization with overlap
     ethr =  6.33E-08,  avg # of iterations =  2.7

     total cpu time spent up to now is      433.2 secs

     total energy              =   -1059.62692613 Ry
     Harris-Foulkes estimate   =   -1059.62692857 Ry
     estimated scf accuracy    <       0.00000809 Ry

     iteration # 12     ecut=    40.00 Ry     beta=0.30
     Davidson diagonalization with overlap
     ethr =  6.32E-09,  avg # of iterations =  2.0

     total cpu time spent up to now is      469.2 secs

     total energy              =   -1059.62692617 Ry
     Harris-Foulkes estimate   =   -1059.62692716 Ry
     estimated scf accuracy    <       0.00000219 Ry

     iteration # 13     ecut=    40.00 Ry     beta=0.30
     Davidson diagonalization with overlap
     ethr =  1.71E-09,  avg # of iterations =  2.0

     total cpu time spent up to now is      506.8 secs

     total energy              =   -1059.62692629 Ry
     Harris-Foulkes estimate   =   -1059.62692641 Ry
     estimated scf accuracy    <       0.00000043 Ry

     iteration # 14     ecut=    40.00 Ry     beta=0.30
     Davidson diagonalization with overlap
     ethr =  3.36E-10,  avg # of iterations =  2.7

     total cpu time spent up to now is      546.3 secs

     total energy              =   -1059.62692630 Ry
     Harris-Foulkes estimate   =   -1059.62692633 Ry
     estimated scf accuracy    <       0.00000014 Ry

     iteration # 15     ecut=    40.00 Ry     beta=0.30
     Davidson diagonalization with overlap
     ethr =  1.07E-10,  avg # of iterations =  2.0

     total cpu time spent up to now is      583.7 secs

     total energy              =   -1059.62692629 Ry
     Harris-Foulkes estimate   =   -1059.62692631 Ry
     estimated scf accuracy    <       0.00000004 Ry

     iteration # 16     ecut=    40.00 Ry     beta=0.30
     Davidson diagonalization with overlap
     ethr =  3.08E-11,  avg # of iterations =  2.0

     total cpu time spent up to now is      621.5 secs

     total energy              =   -1059.62692629 Ry
     Harris-Foulkes estimate   =   -1059.62692630 Ry
     estimated scf accuracy    <       0.00000001 Ry

     iteration # 17     ecut=    40.00 Ry     beta=0.30
     Davidson diagonalization with overlap
     ethr =  9.21E-12,  avg # of iterations =  2.0

     total cpu time spent up to now is      657.1 secs

     total energy              =   -1059.62692630 Ry
     Harris-Foulkes estimate   =   -1059.62692630 Ry
     estimated scf accuracy    <          2.1E-09 Ry

     iteration # 18     ecut=    40.00 Ry     beta=0.30
     Davidson diagonalization with overlap
     ethr =  1.62E-12,  avg # of iterations =  2.0

     total cpu time spent up to now is      692.3 secs

     total energy              =   -1059.62692630 Ry
     Harris-Foulkes estimate   =   -1059.62692630 Ry
     estimated scf accuracy    <          5.8E-10 Ry

     iteration # 19     ecut=    40.00 Ry     beta=0.30
     Davidson diagonalization with overlap
     ethr =  4.52E-13,  avg # of iterations =  2.0

     total cpu time spent up to now is      728.0 secs

     total energy              =   -1059.62692630 Ry
     Harris-Foulkes estimate   =   -1059.62692630 Ry
     estimated scf accuracy    <          2.1E-10 Ry

     iteration # 20     ecut=    40.00 Ry     beta=0.30
     Davidson diagonalization with overlap
     ethr =  1.61E-13,  avg # of iterations =  2.0

     total cpu time spent up to now is      765.1 secs

     End of self-consistent calculation

          k = 0.0000 0.0000 0.0000 (  5427 PWs)   bands (ev):

   -65.8678 -65.4240 -65.2228 -64.3749 -32.8606 -32.8301 -32.7945 -32.4407
   -32.3717 -32.3556 -32.2237 -32.2034 -32.1438 -31.3808 -31.3553 -31.3221
   -29.7145 -29.0007 -28.9378 -28.8030 -11.7427 -11.4709 -11.4305 -11.1610
   -10.7845 -10.5891 -10.4164 -10.3701 -10.2928 -10.1498 -10.0172  -9.9108
    -8.5388  -7.8874  -7.7947  -7.6748  -7.0921  -7.0632  -6.9338  -6.1624
     3.2259   3.9181   3.9685   4.8365   4.9814   4.9879   5.0411   5.9595
     6.0689   6.1375   6.1999   6.3947   6.4213   6.5186   6.6487   6.6675
     6.8619   6.8866   6.9946   7.0144   7.0935   7.6645   7.6809   7.9643

     occupation numbers 
     1.0000   1.0000   1.0000   1.0000   1.0000   1.0000   1.0000   1.0000
     1.0000   1.0000   1.0000   1.0000   1.0000   1.0000   1.0000   1.0000
     1.0000   1.0000   1.0000   1.0000   1.0000   1.0000   1.0000   1.0000
     1.0000   1.0000   1.0000   1.0000   1.0000   1.0000   1.0000   1.0000
     1.0000   1.0000   1.0000   1.0000   1.0000   1.0000   1.0000   1.0000
     1.0000   1.0000   1.0000   1.0000   1.0000   1.0000   1.0000   1.0000
     1.0000   1.0000   1.0000   1.0000   1.0000   1.0000   1.0000   1.0000
     1.0000   1.0000   1.0000   1.0000   1.0000   1.0000   1.0000   1.0000

          k = 0.1693 0.1677-0.1716 (  5409 PWs)   bands (ev):

   -65.8678 -65.4240 -65.2228 -64.3749 -32.8606 -32.8301 -32.7945 -32.4407
   -32.3717 -32.3556 -32.2238 -32.2033 -32.1439 -31.3808 -31.3553 -31.3222
   -29.7133 -28.9947 -28.9449 -28.8032 -11.6335 -11.4410 -11.3681 -11.1199
   -10.8517 -10.6364 -10.5734 -10.4127 -10.3280 -10.1952 -10.1125  -9.9018
    -8.2676  -7.7940  -7.6911  -7.5441  -7.2016  -7.1312  -7.0397  -6.2792
     3.4979   4.1282   4.2357   4.7730   4.9854   5.0281   5.2105   5.8120
     5.8838   6.1183   6.1438   6.2647   6.3431   6.3928   6.5201   6.6868
     6.7146   6.8231   6.9499   6.9904   7.0375   7.2947   7.5958   7.8449

     occupation numbers 
     1.0000   1.0000   1.0000   1.0000   1.0000   1.0000   1.0000   1.0000
     1.0000   1.0000   1.0000   1.0000   1.0000   1.0000   1.0000   1.0000
     1.0000   1.0000   1.0000   1.0000   1.0000   1.0000   1.0000   1.0000
     1.0000   1.0000   1.0000   1.0000   1.0000   1.0000   1.0000   1.0000
     1.0000   1.0000   1.0000   1.0000   1.0000   1.0000   1.0000   1.0000
     1.0000   1.0000   1.0000   1.0000   1.0000   1.0000   1.0000   1.0000
     1.0000   1.0000   1.0000   1.0000   1.0000   1.0000   1.0000   1.0000
     1.0000   1.0000   1.0000   1.0000   1.0000   1.0000   1.0000   1.0000

          k =-0.3387-0.3354 0.3431 (  5392 PWs)   bands (ev):

   -65.8678 -65.4240 -65.2228 -64.3749 -32.8606 -32.8301 -32.7945 -32.4407
   -32.3718 -32.3556 -32.2238 -32.2033 -32.1439 -31.3808 -31.3554 -31.3222
   -29.7121 -28.9862 -28.9545 -28.8033 -11.4965 -11.3606 -11.2873 -11.1043
   -10.9731 -10.7344 -10.7018 -10.4800 -10.3388 -10.2341 -10.1749  -9.8980
    -7.8320  -7.7318  -7.6771  -7.3699  -7.3586  -7.2500  -7.1311  -6.4279
     4.1237   4.1676   4.4707   4.6260   5.1317   5.2200   5.4226   5.4990
     5.7066   5.7816   5.8838   6.0767   6.2742   6.3669   6.5317   6.6358
     6.6661   6.7363   6.8052   6.9638   7.0297   7.1827   7.4945   7.7288

     occupation numbers 
     1.0000   1.0000   1.0000   1.0000   1.0000   1.0000   1.0000   1.0000
     1.0000   1.0000   1.0000   1.0000   1.0000   1.0000   1.0000   1.0000
     1.0000   1.0000   1.0000   1.0000   1.0000   1.0000   1.0000   1.0000
     1.0000   1.0000   1.0000   1.0000   1.0000   1.0000   1.0000   1.0000
     1.0000   1.0000   1.0000   1.0000   1.0000   1.0000   1.0000   1.0000
     1.0000   1.0000   1.0000   1.0000   1.0000   1.0000   1.0000   1.0000
     1.0000   1.0000   1.0000   1.0000   1.0000   1.0000   1.0000   1.0000
     1.0000   1.0000   1.0000   1.0000   1.0000   1.0000   1.0000   1.0000

          k = 0.1712-0.1671 0.1741 (  5407 PWs)   bands (ev):

   -65.8678 -65.4240 -65.2228 -64.3749 -32.8607 -32.8302 -32.7945 -32.4407
   -32.3716 -32.3554 -32.2238 -32.2035 -32.1440 -31.3808 -31.3554 -31.3221
   -29.7134 -28.9948 -28.9445 -28.8031 -11.6791 -11.4450 -11.3923 -11.1192
   -10.7974 -10.6444 -10.4952 -10.4206 -10.3391 -10.1734 -10.1106  -9.9044
    -8.3266  -7.8151  -7.7508  -7.5609  -7.1883  -7.1110  -6.9802  -6.2654
     3.5134   4.1614   4.2231   4.7946   5.0045   5.0421   5.1962   5.8325
     5.9388   6.1049   6.1405   6.2293   6.3084   6.3704   6.4846   6.5566
     6.6585   6.8134   6.9797   7.0144   7.0505   7.3875   7.5444   7.8427

     occupation numbers 
     1.0000   1.0000   1.0000   1.0000   1.0000   1.0000   1.0000   1.0000
     1.0000   1.0000   1.0000   1.0000   1.0000   1.0000   1.0000   1.0000
     1.0000   1.0000   1.0000   1.0000   1.0000   1.0000   1.0000   1.0000
     1.0000   1.0000   1.0000   1.0000   1.0000   1.0000   1.0000   1.0000
     1.0000   1.0000   1.0000   1.0000   1.0000   1.0000   1.0000   1.0000
     1.0000   1.0000   1.0000   1.0000   1.0000   1.0000   1.0000   1.0000
     1.0000   1.0000   1.0000   1.0000   1.0000   1.0000   1.0000   1.0000
     1.0000   1.0000   1.0000   1.0000   1.0000   1.0000   1.0000   1.0000

          k = 0.3406 0.0006 0.0025 (  5409 PWs)   bands (ev):

   -65.8678 -65.4240 -65.2228 -64.3749 -32.8606 -32.8301 -32.7945 -32.4407
   -32.3716 -32.3554 -32.2238 -32.2035 -32.1440 -31.3808 -31.3554 -31.3222
   -29.7124 -29.0022 -28.9382 -28.8030 -11.6328 -11.3877 -11.3524 -11.1611
   -10.9392 -10.6611 -10.5707 -10.3991 -10.3050 -10.2101 -10.0180  -9.9057
    -8.2423  -7.8558  -7.7157  -7.5422  -7.3075  -7.1484  -6.9561  -6.2065
     3.5999   4.1719   4.2347   4.8473   4.9904   5.0382   5.1864   5.7286
     5.9407   6.0664   6.1345   6.3042   6.3439   6.3835   6.4831   6.5259
     6.7313   6.8112   6.8497   6.9184   6.9931   7.2584   7.5956   7.8922

     occupation numbers 
     1.0000   1.0000   1.0000   1.0000   1.0000   1.0000   1.0000   1.0000
     1.0000   1.0000   1.0000   1.0000   1.0000   1.0000   1.0000   1.0000
     1.0000   1.0000   1.0000   1.0000   1.0000   1.0000   1.0000   1.0000
     1.0000   1.0000   1.0000   1.0000   1.0000   1.0000   1.0000   1.0000
     1.0000   1.0000   1.0000   1.0000   1.0000   1.0000   1.0000   1.0000
     1.0000   1.0000   1.0000   1.0000   1.0000   1.0000   1.0000   1.0000
     1.0000   1.0000   1.0000   1.0000   1.0000   1.0000   1.0000   1.0000
     1.0000   1.0000   1.0000   1.0000   1.0000   1.0000   1.0000   1.0000

          k =-0.1674-0.5025 0.5172 (  5426 PWs)   bands (ev):

   -65.8678 -65.4240 -65.2228 -64.3749 -32.8606 -32.8301 -32.7945 -32.4407
   -32.3717 -32.3554 -32.2238 -32.2035 -32.1440 -31.3808 -31.3554 -31.3222
   -29.7112 -28.9963 -28.9452 -28.8031 -11.4684 -11.3414 -11.2931 -11.1174
   -11.0529 -10.8055 -10.6656 -10.4401 -10.3305 -10.2061 -10.1056  -9.8992
    -7.9301  -7.7669  -7.7166  -7.4905  -7.3863  -7.1580  -7.0420  -6.3322
     4.0952   4.3995   4.4451   4.6570   5.0720   5.2185   5.3864   5.4440
     5.6286   5.8403   5.9507   6.0073   6.2629   6.3549   6.4830   6.5338
     6.7161   6.7391   6.8196   6.8797   6.9822   7.2115   7.4245   7.7852

     occupation numbers 
     1.0000   1.0000   1.0000   1.0000   1.0000   1.0000   1.0000   1.0000
     1.0000   1.0000   1.0000   1.0000   1.0000   1.0000   1.0000   1.0000
     1.0000   1.0000   1.0000   1.0000   1.0000   1.0000   1.0000   1.0000
     1.0000   1.0000   1.0000   1.0000   1.0000   1.0000   1.0000   1.0000
     1.0000   1.0000   1.0000   1.0000   1.0000   1.0000   1.0000   1.0000
     1.0000   1.0000   1.0000   1.0000   1.0000   1.0000   1.0000   1.0000
     1.0000   1.0000   1.0000   1.0000   1.0000   1.0000   1.0000   1.0000
     1.0000   1.0000   1.0000   1.0000   1.0000   1.0000   1.0000   1.0000

          k = 0.0019-0.3348 0.3457 (  5395 PWs)   bands (ev):

   -65.8678 -65.4240 -65.2228 -64.3749 -32.8607 -32.8301 -32.7945 -32.4407
   -32.3716 -32.3554 -32.2238 -32.2035 -32.1441 -31.3808 -31.3554 -31.3222
   -29.7123 -28.9864 -28.9541 -28.8032 -11.5388 -11.4168 -11.3468 -11.0810
   -10.8931 -10.6963 -10.5869 -10.5053 -10.3941 -10.1830 -10.1611  -9.8993
    -8.0882  -7.7896  -7.6816  -7.4089  -7.2716  -7.1557  -7.0439  -6.4077
     3.9084   4.4069   4.5057   4.6368   5.0412   5.1623   5.3931   5.5241
     5.6733   5.8773   5.9393   6.0484   6.2892   6.4180   6.4765   6.5408
     6.6538   6.7724   6.8274   6.9356   6.9951   7.2815   7.4391   7.7368

     occupation numbers 
     1.0000   1.0000   1.0000   1.0000   1.0000   1.0000   1.0000   1.0000
     1.0000   1.0000   1.0000   1.0000   1.0000   1.0000   1.0000   1.0000
     1.0000   1.0000   1.0000   1.0000   1.0000   1.0000   1.0000   1.0000
     1.0000   1.0000   1.0000   1.0000   1.0000   1.0000   1.0000   1.0000
     1.0000   1.0000   1.0000   1.0000   1.0000   1.0000   1.0000   1.0000
     1.0000   1.0000   1.0000   1.0000   1.0000   1.0000   1.0000   1.0000
     1.0000   1.0000   1.0000   1.0000   1.0000   1.0000   1.0000   1.0000
     1.0000   1.0000   1.0000   1.0000   1.0000   1.0000   1.0000   1.0000

          k =-0.3425 0.3341-0.3482 (  5402 PWs)   bands (ev):

   -65.8678 -65.4240 -65.2228 -64.3749 -32.8607 -32.8302 -32.7945 -32.4407
   -32.3715 -32.3551 -32.2238 -32.2036 -32.1442 -31.3808 -31.3555 -31.3222
   -29.7124 -28.9867 -28.9536 -28.8031 -11.6122 -11.4325 -11.3094 -11.0699
   -10.8020 -10.7384 -10.6100 -10.4828 -10.3802 -10.1772 -10.1681  -9.9019
    -8.0953  -7.7659  -7.6324  -7.4723  -7.2936  -7.2300  -6.9910  -6.3896
     4.1308   4.2616   4.5234   4.6967   4.9811   5.2067   5.4576   5.5453
     5.7797   5.8996   5.9717   6.0014   6.1241   6.2003   6.3950   6.4523
     6.6544   6.7071   6.8960   6.9436   7.0649   7.3062   7.4089   7.7556

     occupation numbers 
     1.0000   1.0000   1.0000   1.0000   1.0000   1.0000   1.0000   1.0000
     1.0000   1.0000   1.0000   1.0000   1.0000   1.0000   1.0000   1.0000
     1.0000   1.0000   1.0000   1.0000   1.0000   1.0000   1.0000   1.0000
     1.0000   1.0000   1.0000   1.0000   1.0000   1.0000   1.0000   1.0000
     1.0000   1.0000   1.0000   1.0000   1.0000   1.0000   1.0000   1.0000
     1.0000   1.0000   1.0000   1.0000   1.0000   1.0000   1.0000   1.0000
     1.0000   1.0000   1.0000   1.0000   1.0000   1.0000   1.0000   1.0000
     1.0000   1.0000   1.0000   1.0000   1.0000   1.0000   1.0000   1.0000

          k =-0.1731 0.5018-0.5198 (  5418 PWs)   bands (ev):

   -65.8678 -65.4240 -65.2228 -64.3749 -32.8607 -32.8301 -32.7945 -32.4407
   -32.3716 -32.3552 -32.2239 -32.2036 -32.1442 -31.3808 -31.3555 -31.3222
   -29.7114 -28.9965 -28.9448 -28.8030 -11.5395 -11.3879 -11.2918 -11.1212
   -10.9632 -10.7958 -10.5757 -10.4746 -10.3271 -10.1866 -10.1135  -9.9012
    -7.9896  -7.8673  -7.7088  -7.5294  -7.3270  -7.1080  -7.0204  -6.3160
     4.1230   4.3996   4.5441   4.6587   4.9826   5.1785   5.4096   5.5444
     5.6450   5.7661   5.9595   6.0570   6.2167   6.2622   6.3853   6.5787
     6.6740   6.7686   6.7894   6.8855   6.9764   7.2706   7.3942   7.7868

     occupation numbers 
     1.0000   1.0000   1.0000   1.0000   1.0000   1.0000   1.0000   1.0000
     1.0000   1.0000   1.0000   1.0000   1.0000   1.0000   1.0000   1.0000
     1.0000   1.0000   1.0000   1.0000   1.0000   1.0000   1.0000   1.0000
     1.0000   1.0000   1.0000   1.0000   1.0000   1.0000   1.0000   1.0000
     1.0000   1.0000   1.0000   1.0000   1.0000   1.0000   1.0000   1.0000
     1.0000   1.0000   1.0000   1.0000   1.0000   1.0000   1.0000   1.0000
     1.0000   1.0000   1.0000   1.0000   1.0000   1.0000   1.0000   1.0000
     1.0000   1.0000   1.0000   1.0000   1.0000   1.0000   1.0000   1.0000

          k =-0.6811-0.0013-0.0051 (  5416 PWs)   bands (ev):

   -65.8678 -65.4240 -65.2228 -64.3749 -32.8607 -32.8301 -32.7946 -32.4408
   -32.3716 -32.3552 -32.2239 -32.2036 -32.1442 -31.3808 -31.3555 -31.3222
   -29.7104 -29.0037 -28.9387 -28.8029 -11.4651 -11.3190 -11.2620 -11.1406
   -11.0744 -10.8990 -10.6746 -10.4155 -10.3116 -10.1825 -10.0157  -9.9016
    -8.0540  -7.7797  -7.7152  -7.5926  -7.4148  -7.0976  -6.9680  -6.2510
     4.1818   4.3165   4.4876   4.9842   5.0476   5.1860   5.2837   5.4103
     5.5145   5.8165   5.9024   6.1213   6.1420   6.2651   6.4475   6.5556
     6.6294   6.7502   6.7998   6.8411   6.9749   7.1649   7.5070   7.8495

     occupation numbers 
     1.0000   1.0000   1.0000   1.0000   1.0000   1.0000   1.0000   1.0000
     1.0000   1.0000   1.0000   1.0000   1.0000   1.0000   1.0000   1.0000
     1.0000   1.0000   1.0000   1.0000   1.0000   1.0000   1.0000   1.0000
     1.0000   1.0000   1.0000   1.0000   1.0000   1.0000   1.0000   1.0000
     1.0000   1.0000   1.0000   1.0000   1.0000   1.0000   1.0000   1.0000
     1.0000   1.0000   1.0000   1.0000   1.0000   1.0000   1.0000   1.0000
     1.0000   1.0000   1.0000   1.0000   1.0000   1.0000   1.0000   1.0000
     1.0000   1.0000   1.0000   1.0000   1.0000   1.0000   1.0000   1.0000

          k =-0.1687 0.1738 0.1783 (  5412 PWs)   bands (ev):

   -65.8678 -65.4240 -65.2228 -64.3749 -32.8606 -32.8301 -32.7945 -32.4408
   -32.3717 -32.3556 -32.2238 -32.2034 -32.1439 -31.3808 -31.3554 -31.3222
   -29.7137 -28.9977 -28.9344 -28.8100 -11.6673 -11.4555 -11.4204 -11.0726
   -10.8016 -10.6109 -10.4556 -10.4158 -10.3549 -10.1974 -10.1074 -10.0023
    -8.2969  -7.8016  -7.7408  -7.5295  -7.1888  -7.0764  -7.0435  -6.2834
     3.5017   4.1635   4.2135   4.7686   4.9710   5.0424   5.2185   5.8359
     5.9696   6.1028   6.1656   6.2632   6.3458   6.4120   6.5046   6.6046
     6.6746   6.7848   6.9431   6.9884   7.0709   7.3563   7.5661   7.7481

     occupation numbers 
     1.0000   1.0000   1.0000   1.0000   1.0000   1.0000   1.0000   1.0000
     1.0000   1.0000   1.0000   1.0000   1.0000   1.0000   1.0000   1.0000
     1.0000   1.0000   1.0000   1.0000   1.0000   1.0000   1.0000   1.0000
     1.0000   1.0000   1.0000   1.0000   1.0000   1.0000   1.0000   1.0000
     1.0000   1.0000   1.0000   1.0000   1.0000   1.0000   1.0000   1.0000
     1.0000   1.0000   1.0000   1.0000   1.0000   1.0000   1.0000   1.0000
     1.0000   1.0000   1.0000   1.0000   1.0000   1.0000   1.0000   1.0000
     1.0000   1.0000   1.0000   1.0000   1.0000   1.0000   1.0000   1.0000

          k = 0.0006 0.3415 0.0067 (  5399 PWs)   bands (ev):

   -65.8678 -65.4240 -65.2228 -64.3749 -32.8606 -32.8301 -32.7945 -32.4408
   -32.3717 -32.3556 -32.2238 -32.2034 -32.1439 -31.3808 -31.3554 -31.3221
   -29.7136 -28.9916 -28.9411 -28.8097 -11.6403 -11.4729 -11.3785 -11.0137
   -10.7764 -10.6026 -10.5426 -10.5092 -10.3031 -10.2114 -10.1444 -10.0424
    -8.2490  -7.8227  -7.5834  -7.5345  -7.2464  -7.1209  -7.0742  -6.2497
     3.5970   4.1662   4.2618   4.8593   4.9888   5.0630   5.1692   5.7267
     5.9533   6.1145   6.1445   6.2340   6.3113   6.3764   6.4609   6.5700
     6.6442   6.7754   6.8479   6.8971   7.0624   7.4068   7.5734   7.8224

     occupation numbers 
     1.0000   1.0000   1.0000   1.0000   1.0000   1.0000   1.0000   1.0000
     1.0000   1.0000   1.0000   1.0000   1.0000   1.0000   1.0000   1.0000
     1.0000   1.0000   1.0000   1.0000   1.0000   1.0000   1.0000   1.0000
     1.0000   1.0000   1.0000   1.0000   1.0000   1.0000   1.0000   1.0000
     1.0000   1.0000   1.0000   1.0000   1.0000   1.0000   1.0000   1.0000
     1.0000   1.0000   1.0000   1.0000   1.0000   1.0000   1.0000   1.0000
     1.0000   1.0000   1.0000   1.0000   1.0000   1.0000   1.0000   1.0000
     1.0000   1.0000   1.0000   1.0000   1.0000   1.0000   1.0000   1.0000

          k =-0.5074-0.1616 0.5214 (  5418 PWs)   bands (ev):

   -65.8678 -65.4240 -65.2228 -64.3749 -32.8606 -32.8301 -32.7945 -32.4408
   -32.3717 -32.3556 -32.2238 -32.2033 -32.1439 -31.3809 -31.3554 -31.3222
   -29.7124 -28.9831 -28.9509 -28.8097 -11.5102 -11.4140 -11.2976 -11.0308
   -10.8909 -10.7277 -10.6503 -10.4750 -10.3549 -10.2095 -10.1892 -10.0591
    -7.9652  -7.7083  -7.6697  -7.3792  -7.3730  -7.1479  -7.1061  -6.3896
     4.0863   4.3716   4.5200   4.6396   5.1520   5.2187   5.3736   5.4795
     5.5869   5.7470   5.8866   5.9681   6.2601   6.3671   6.4875   6.6211
     6.6609   6.7635   6.8113   6.8928   7.0348   7.2742   7.4462   7.6898

     occupation numbers 
     1.0000   1.0000   1.0000   1.0000   1.0000   1.0000   1.0000   1.0000
     1.0000   1.0000   1.0000   1.0000   1.0000   1.0000   1.0000   1.0000
     1.0000   1.0000   1.0000   1.0000   1.0000   1.0000   1.0000   1.0000
     1.0000   1.0000   1.0000   1.0000   1.0000   1.0000   1.0000   1.0000
     1.0000   1.0000   1.0000   1.0000   1.0000   1.0000   1.0000   1.0000
     1.0000   1.0000   1.0000   1.0000   1.0000   1.0000   1.0000   1.0000
     1.0000   1.0000   1.0000   1.0000   1.0000   1.0000   1.0000   1.0000
     1.0000   1.0000   1.0000   1.0000   1.0000   1.0000   1.0000   1.0000

          k =-0.3380 0.0061 0.3499 (  5412 PWs)   bands (ev):

   -65.8678 -65.4240 -65.2228 -64.3749 -32.8606 -32.8301 -32.7945 -32.4408
   -32.3718 -32.3556 -32.2238 -32.2034 -32.1439 -31.3808 -31.3554 -31.3222
   -29.7126 -28.9916 -28.9417 -28.8101 -11.5376 -11.4087 -11.3534 -11.0654
   -10.9209 -10.7203 -10.5839 -10.4122 -10.3035 -10.2352 -10.1642 -10.0333
    -8.0187  -7.8181  -7.6782  -7.3609  -7.3125  -7.1912  -7.0017  -6.4324
     3.8871   4.3608   4.4902   4.6782   4.9855   5.1390   5.4283   5.6019
     5.7257   5.8739   5.9680   6.0804   6.2769   6.4125   6.4680   6.5131
     6.6429   6.7723   6.8503   6.9782   7.0376   7.2116   7.4757   7.6551

     occupation numbers 
     1.0000   1.0000   1.0000   1.0000   1.0000   1.0000   1.0000   1.0000
     1.0000   1.0000   1.0000   1.0000   1.0000   1.0000   1.0000   1.0000
     1.0000   1.0000   1.0000   1.0000   1.0000   1.0000   1.0000   1.0000
     1.0000   1.0000   1.0000   1.0000   1.0000   1.0000   1.0000   1.0000
     1.0000   1.0000   1.0000   1.0000   1.0000   1.0000   1.0000   1.0000
     1.0000   1.0000   1.0000   1.0000   1.0000   1.0000   1.0000   1.0000
     1.0000   1.0000   1.0000   1.0000   1.0000   1.0000   1.0000   1.0000
     1.0000   1.0000   1.0000   1.0000   1.0000   1.0000   1.0000   1.0000

          k = 0.0025 0.0067 0.3524 (  5429 PWs)   bands (ev):

   -65.8678 -65.4240 -65.2228 -64.3749 -32.8606 -32.8301 -32.7945 -32.4408
   -32.3716 -32.3554 -32.2238 -32.2035 -32.1440 -31.3808 -31.3554 -31.3222
   -29.7129 -28.9920 -28.9414 -28.8100 -11.5927 -11.4264 -11.3779 -11.0706
   -10.8062 -10.6922 -10.5794 -10.4161 -10.2974 -10.1842 -10.1683 -10.0311
    -8.2906  -7.8001  -7.7534  -7.3963  -7.1381  -7.0904  -7.0178  -6.4072
     3.5892   4.1890   4.3022   4.8859   5.0637   5.1343   5.2844   5.7880
     5.8360   6.0024   6.0977   6.2125   6.2386   6.3239   6.4262   6.5035
     6.6446   6.8254   6.9577   6.9897   7.1266   7.3067   7.5444   7.6960

     occupation numbers 
     1.0000   1.0000   1.0000   1.0000   1.0000   1.0000   1.0000   1.0000
     1.0000   1.0000   1.0000   1.0000   1.0000   1.0000   1.0000   1.0000
     1.0000   1.0000   1.0000   1.0000   1.0000   1.0000   1.0000   1.0000
     1.0000   1.0000   1.0000   1.0000   1.0000   1.0000   1.0000   1.0000
     1.0000   1.0000   1.0000   1.0000   1.0000   1.0000   1.0000   1.0000
     1.0000   1.0000   1.0000   1.0000   1.0000   1.0000   1.0000   1.0000
     1.0000   1.0000   1.0000   1.0000   1.0000   1.0000   1.0000   1.0000
     1.0000   1.0000   1.0000   1.0000   1.0000   1.0000   1.0000   1.0000

          k = 0.1719 0.1744 0.1808 (  5430 PWs)   bands (ev):

   -65.8678 -65.4240 -65.2228 -64.3749 -32.8606 -32.8301 -32.7945 -32.4408
   -32.3716 -32.3554 -32.2238 -32.2035 -32.1440 -31.3808 -31.3554 -31.3221
   -29.7128 -28.9993 -28.9346 -28.8095 -11.6097 -11.4050 -11.3667 -11.0793
   -10.8592 -10.6279 -10.5809 -10.4751 -10.3580 -10.1720 -10.0990 -10.0060
    -8.2645  -7.7457  -7.6583  -7.5138  -7.2151  -7.1589  -7.0416  -6.2921
     3.5204   4.1337   4.2525   4.8349   4.9903   5.1632   5.2292   5.7748
     5.9888   6.0721   6.1422   6.2176   6.3294   6.3746   6.5181   6.5968
     6.6601   6.8227   6.9083   6.9657   7.0271   7.4380   7.5645   7.6394

     occupation numbers 
     1.0000   1.0000   1.0000   1.0000   1.0000   1.0000   1.0000   1.0000
     1.0000   1.0000   1.0000   1.0000   1.0000   1.0000   1.0000   1.0000
     1.0000   1.0000   1.0000   1.0000   1.0000   1.0000   1.0000   1.0000
     1.0000   1.0000   1.0000   1.0000   1.0000   1.0000   1.0000   1.0000
     1.0000   1.0000   1.0000   1.0000   1.0000   1.0000   1.0000   1.0000
     1.0000   1.0000   1.0000   1.0000   1.0000   1.0000   1.0000   1.0000
     1.0000   1.0000   1.0000   1.0000   1.0000   1.0000   1.0000   1.0000
     1.0000   1.0000   1.0000   1.0000   1.0000   1.0000   1.0000   1.0000

          k =-0.3361-0.3287 0.6956 (  5401 PWs)   bands (ev):

   -65.8678 -65.4240 -65.2228 -64.3749 -32.8606 -32.8301 -32.7945 -32.4408
   -32.3717 -32.3554 -32.2238 -32.2035 -32.1440 -31.3809 -31.3554 -31.3222
   -29.7116 -28.9934 -28.9417 -28.8095 -11.4861 -11.3612 -11.2904 -11.0294
   -10.9575 -10.7534 -10.6635 -10.5370 -10.3270 -10.2229 -10.1425 -10.0434
    -7.9323  -7.6737  -7.5705  -7.4653  -7.3133  -7.3039  -7.1784  -6.2978
     3.9368   4.3634   4.4278   4.6796   5.0985   5.2186   5.3596   5.4706
     5.7223   5.9390   6.0621   6.1268   6.3306   6.4380   6.4569   6.4923
     6.5939   6.6772   6.7862   6.8435   6.9693   7.2865   7.5057   7.7089

     occupation numbers 
     1.0000   1.0000   1.0000   1.0000   1.0000   1.0000   1.0000   1.0000
     1.0000   1.0000   1.0000   1.0000   1.0000   1.0000   1.0000   1.0000
     1.0000   1.0000   1.0000   1.0000   1.0000   1.0000   1.0000   1.0000
     1.0000   1.0000   1.0000   1.0000   1.0000   1.0000   1.0000   1.0000
     1.0000   1.0000   1.0000   1.0000   1.0000   1.0000   1.0000   1.0000
     1.0000   1.0000   1.0000   1.0000   1.0000   1.0000   1.0000   1.0000
     1.0000   1.0000   1.0000   1.0000   1.0000   1.0000   1.0000   1.0000
     1.0000   1.0000   1.0000   1.0000   1.0000   1.0000   1.0000   1.0000

          k =-0.1668-0.1610 0.5240 (  5401 PWs)   bands (ev):

   -65.8678 -65.4240 -65.2228 -64.3749 -32.8606 -32.8301 -32.7945 -32.4408
   -32.3717 -32.3554 -32.2238 -32.2035 -32.1441 -31.3809 -31.3554 -31.3223
   -29.7117 -28.9834 -28.9511 -28.8101 -11.4556 -11.3945 -11.2977 -11.0332
   -10.9601 -10.7483 -10.5998 -10.4957 -10.3657 -10.2126 -10.2012 -10.0543
    -7.9666  -7.7803  -7.6441  -7.3719  -7.2826  -7.1808  -7.0956  -6.4168
     4.0682   4.3450   4.6185   4.6679   5.1506   5.2641   5.3869   5.5464
     5.6768   5.7211   5.8530   6.0668   6.1228   6.2647   6.3629   6.4805
     6.6987   6.7874   6.8839   6.9557   7.0012   7.2940   7.4628   7.6317

     occupation numbers 
     1.0000   1.0000   1.0000   1.0000   1.0000   1.0000   1.0000   1.0000
     1.0000   1.0000   1.0000   1.0000   1.0000   1.0000   1.0000   1.0000
     1.0000   1.0000   1.0000   1.0000   1.0000   1.0000   1.0000   1.0000
     1.0000   1.0000   1.0000   1.0000   1.0000   1.0000   1.0000   1.0000
     1.0000   1.0000   1.0000   1.0000   1.0000   1.0000   1.0000   1.0000
     1.0000   1.0000   1.0000   1.0000   1.0000   1.0000   1.0000   1.0000
     1.0000   1.0000   1.0000   1.0000   1.0000   1.0000   1.0000   1.0000
     1.0000   1.0000   1.0000   1.0000   1.0000   1.0000   1.0000   1.0000

          k =-0.5112 0.5079-0.1699 (  5413 PWs)   bands (ev):

   -65.8678 -65.4240 -65.2228 -64.3749 -32.8607 -32.8301 -32.7945 -32.4408
   -32.3715 -32.3552 -32.2239 -32.2037 -32.1442 -31.3808 -31.3554 -31.3222
   -29.7118 -28.9839 -28.9503 -28.8100 -11.5486 -11.4058 -11.2960 -11.0094
   -10.8642 -10.7632 -10.5933 -10.4654 -10.3706 -10.2155 -10.1792 -10.0571
    -8.0951  -7.7723  -7.6334  -7.4193  -7.2771  -7.1755  -7.0153  -6.3974
     4.0761   4.4618   4.5701   4.7114   5.1039   5.2417   5.3703   5.5879
     5.6705   5.7561   5.8063   6.0271   6.1205   6.2704   6.3258   6.4921
     6.6730   6.7574   6.8611   6.8888   7.0607   7.3352   7.4130   7.6503

     occupation numbers 
     1.0000   1.0000   1.0000   1.0000   1.0000   1.0000   1.0000   1.0000
     1.0000   1.0000   1.0000   1.0000   1.0000   1.0000   1.0000   1.0000
     1.0000   1.0000   1.0000   1.0000   1.0000   1.0000   1.0000   1.0000
     1.0000   1.0000   1.0000   1.0000   1.0000   1.0000   1.0000   1.0000
     1.0000   1.0000   1.0000   1.0000   1.0000   1.0000   1.0000   1.0000
     1.0000   1.0000   1.0000   1.0000   1.0000   1.0000   1.0000   1.0000
     1.0000   1.0000   1.0000   1.0000   1.0000   1.0000   1.0000   1.0000
     1.0000   1.0000   1.0000   1.0000   1.0000   1.0000   1.0000   1.0000

          k =-0.3418 0.6757-0.3415 (  5419 PWs)   bands (ev):

   -65.8678 -65.4240 -65.2228 -64.3749 -32.8607 -32.8302 -32.7945 -32.4408
   -32.3715 -32.3552 -32.2238 -32.2036 -32.1442 -31.3808 -31.3554 -31.3222
   -29.7118 -28.9937 -28.9411 -28.8095 -11.5178 -11.3707 -11.3087 -11.0811
   -10.8901 -10.7859 -10.6190 -10.5032 -10.3014 -10.1925 -10.1477 -10.0434
    -8.0798  -7.7855  -7.5734  -7.4457  -7.2807  -7.2251  -6.9773  -6.4254
     3.9379   4.4231   4.5118   4.6990   5.1277   5.2219   5.3485   5.5701
     5.6969   5.8306   6.0032   6.1395   6.2091   6.2993   6.4235   6.5091
     6.5382   6.7684   6.8236   6.9235   7.0613   7.2906   7.4034   7.6245

     occupation numbers 
     1.0000   1.0000   1.0000   1.0000   1.0000   1.0000   1.0000   1.0000
     1.0000   1.0000   1.0000   1.0000   1.0000   1.0000   1.0000   1.0000
     1.0000   1.0000   1.0000   1.0000   1.0000   1.0000   1.0000   1.0000
     1.0000   1.0000   1.0000   1.0000   1.0000   1.0000   1.0000   1.0000
     1.0000   1.0000   1.0000   1.0000   1.0000   1.0000   1.0000   1.0000
     1.0000   1.0000   1.0000   1.0000   1.0000   1.0000   1.0000   1.0000
     1.0000   1.0000   1.0000   1.0000   1.0000   1.0000   1.0000   1.0000
     1.0000   1.0000   1.0000   1.0000   1.0000   1.0000   1.0000   1.0000

          k =-0.8498 0.1725 0.1732 (  5416 PWs)   bands (ev):

   -65.8678 -65.4240 -65.2228 -64.3749 -32.8607 -32.8301 -32.7945 -32.4408
   -32.3716 -32.3552 -32.2239 -32.2036 -32.1441 -31.3809 -31.3555 -31.3222
   -29.7108 -29.0009 -28.9350 -28.8094 -11.4144 -11.3131 -11.2867 -11.0857
   -11.0462 -10.8555 -10.6838 -10.4654 -10.3542 -10.1955 -10.0788 -10.0090
    -7.9143  -7.7724  -7.6443  -7.4823  -7.3647  -7.1694  -7.0710  -6.3472
     4.1406   4.3949   4.5033   4.6414   5.1882   5.2871   5.4145   5.4806
     5.6601   5.7638   5.9061   6.0803   6.1966   6.3389   6.4387   6.5003
     6.6495   6.7356   6.7613   6.8780   6.9364   7.2710   7.4427   7.6206

     occupation numbers 
     1.0000   1.0000   1.0000   1.0000   1.0000   1.0000   1.0000   1.0000
     1.0000   1.0000   1.0000   1.0000   1.0000   1.0000   1.0000   1.0000
     1.0000   1.0000   1.0000   1.0000   1.0000   1.0000   1.0000   1.0000
     1.0000   1.0000   1.0000   1.0000   1.0000   1.0000   1.0000   1.0000
     1.0000   1.0000   1.0000   1.0000   1.0000   1.0000   1.0000   1.0000
     1.0000   1.0000   1.0000   1.0000   1.0000   1.0000   1.0000   1.0000
     1.0000   1.0000   1.0000   1.0000   1.0000   1.0000   1.0000   1.0000
     1.0000   1.0000   1.0000   1.0000   1.0000   1.0000   1.0000   1.0000

          k =-0.6805 0.3402 0.0017 (  5424 PWs)   bands (ev):

   -65.8678 -65.4240 -65.2228 -64.3749 -32.8607 -32.8301 -32.7945 -32.4408
   -32.3716 -32.3552 -32.2239 -32.2036 -32.1442 -31.3808 -31.3555 -31.3223
   -29.7108 -28.9936 -28.9417 -28.8099 -11.4465 -11.3775 -11.2646 -11.0314
   -11.0017 -10.8330 -10.5737 -10.5504 -10.3452 -10.1839 -10.1493 -10.0423
    -7.9053  -7.8030  -7.6548  -7.4644  -7.3344  -7.2169  -7.0533  -6.3220
     4.3294   4.5044   4.5476   4.6460   5.0700   5.2444   5.3757   5.4769
     5.5517   5.6261   5.9655   6.0766   6.2032   6.2591   6.4452   6.5058
     6.5264   6.6989   6.8046   6.8864   6.9582   7.2439   7.4586   7.6654

     occupation numbers 
     1.0000   1.0000   1.0000   1.0000   1.0000   1.0000   1.0000   1.0000
     1.0000   1.0000   1.0000   1.0000   1.0000   1.0000   1.0000   1.0000
     1.0000   1.0000   1.0000   1.0000   1.0000   1.0000   1.0000   1.0000
     1.0000   1.0000   1.0000   1.0000   1.0000   1.0000   1.0000   1.0000
     1.0000   1.0000   1.0000   1.0000   1.0000   1.0000   1.0000   1.0000
     1.0000   1.0000   1.0000   1.0000   1.0000   1.0000   1.0000   1.0000
     1.0000   1.0000   1.0000   1.0000   1.0000   1.0000   1.0000   1.0000
     1.0000   1.0000   1.0000   1.0000   1.0000   1.0000   1.0000   1.0000

          k =-0.3399 0.3409 0.0042 (  5419 PWs)   bands (ev):

   -65.8678 -65.4240 -65.2228 -64.3749 -32.8607 -32.8301 -32.7945 -32.4408
   -32.3716 -32.3554 -32.2239 -32.2035 -32.1440 -31.3808 -31.3554 -31.3222
   -29.7127 -28.9919 -28.9411 -28.8100 -11.6177 -11.4518 -11.3582 -11.0079
   -10.8623 -10.6281 -10.5387 -10.4468 -10.3374 -10.2276 -10.1735 -10.0428
    -8.0859  -7.7848  -7.6350  -7.4964  -7.3188  -7.2219  -7.0310  -6.2731
     3.9454   4.4184   4.4422   4.6284   4.9082   5.1130   5.3936   5.4761
     5.9407   6.0097   6.0457   6.1250   6.2221   6.3326   6.4248   6.5248
     6.6102   6.7280   6.7608   6.8858   6.9945   7.2545   7.5399   7.7343

     occupation numbers 
     1.0000   1.0000   1.0000   1.0000   1.0000   1.0000   1.0000   1.0000
     1.0000   1.0000   1.0000   1.0000   1.0000   1.0000   1.0000   1.0000
     1.0000   1.0000   1.0000   1.0000   1.0000   1.0000   1.0000   1.0000
     1.0000   1.0000   1.0000   1.0000   1.0000   1.0000   1.0000   1.0000
     1.0000   1.0000   1.0000   1.0000   1.0000   1.0000   1.0000   1.0000
     1.0000   1.0000   1.0000   1.0000   1.0000   1.0000   1.0000   1.0000
     1.0000   1.0000   1.0000   1.0000   1.0000   1.0000   1.0000   1.0000
     1.0000   1.0000   1.0000   1.0000   1.0000   1.0000   1.0000   1.0000

          k =-0.1706 0.5086-0.1674 (  5413 PWs)   bands (ev):

   -65.8678 -65.4240 -65.2228 -64.3749 -32.8607 -32.8302 -32.7945 -32.4408
   -32.3716 -32.3554 -32.2238 -32.2035 -32.1440 -31.3809 -31.3554 -31.3222
   -29.7125 -28.9835 -28.9502 -28.8096 -11.5521 -11.4255 -11.3675 -11.0204
   -10.7747 -10.6929 -10.5747 -10.5241 -10.3925 -10.2127 -10.1613 -10.0644
    -8.0026  -7.8446  -7.6714  -7.4111  -7.2772  -7.1606  -7.0423  -6.3716
     4.1294   4.4223   4.5458   4.6560   4.9653   5.2108   5.4079   5.5388
     5.6382   5.7743   5.8628   6.0502   6.2014   6.2891   6.4015   6.5620
     6.6694   6.7842   6.7977   6.8774   7.0634   7.3317   7.4254   7.6470

     occupation numbers 
     1.0000   1.0000   1.0000   1.0000   1.0000   1.0000   1.0000   1.0000
     1.0000   1.0000   1.0000   1.0000   1.0000   1.0000   1.0000   1.0000
     1.0000   1.0000   1.0000   1.0000   1.0000   1.0000   1.0000   1.0000
     1.0000   1.0000   1.0000   1.0000   1.0000   1.0000   1.0000   1.0000
     1.0000   1.0000   1.0000   1.0000   1.0000   1.0000   1.0000   1.0000
     1.0000   1.0000   1.0000   1.0000   1.0000   1.0000   1.0000   1.0000
     1.0000   1.0000   1.0000   1.0000   1.0000   1.0000   1.0000   1.0000
     1.0000   1.0000   1.0000   1.0000   1.0000   1.0000   1.0000   1.0000

          k =-0.6786 0.0055 0.3473 (  5410 PWs)   bands (ev):

   -65.8678 -65.4240 -65.2228 -64.3749 -32.8607 -32.8301 -32.7945 -32.4408
   -32.3717 -32.3554 -32.2239 -32.2035 -32.1440 -31.3809 -31.3554 -31.3222
   -29.7115 -28.9933 -28.9415 -28.8095 -11.4339 -11.3753 -11.3032 -11.0826
   -11.0325 -10.7692 -10.6483 -10.4699 -10.3003 -10.1783 -10.1534 -10.0377
    -7.9231  -7.8572  -7.7024  -7.3924  -7.3390  -7.0850  -7.0202  -6.4489
     4.4006   4.4665   4.5634   4.5887   5.1207   5.1999   5.3463   5.3840
     5.5046   5.6676   5.9360   5.9977   6.2550   6.3553   6.4742   6.5410
     6.6358   6.7427   6.8384   6.8716   6.9496   7.2414   7.3777   7.6023

     occupation numbers 
     1.0000   1.0000   1.0000   1.0000   1.0000   1.0000   1.0000   1.0000
     1.0000   1.0000   1.0000   1.0000   1.0000   1.0000   1.0000   1.0000
     1.0000   1.0000   1.0000   1.0000   1.0000   1.0000   1.0000   1.0000
     1.0000   1.0000   1.0000   1.0000   1.0000   1.0000   1.0000   1.0000
     1.0000   1.0000   1.0000   1.0000   1.0000   1.0000   1.0000   1.0000
     1.0000   1.0000   1.0000   1.0000   1.0000   1.0000   1.0000   1.0000
     1.0000   1.0000   1.0000   1.0000   1.0000   1.0000   1.0000   1.0000
     1.0000   1.0000   1.0000   1.0000   1.0000   1.0000   1.0000   1.0000

          k =-0.5093 0.1732 0.1758 (  5418 PWs)   bands (ev):

   -65.8678 -65.4240 -65.2228 -64.3749 -32.8606 -32.8301 -32.7945 -32.4408
   -32.3717 -32.3554 -32.2239 -32.2035 -32.1440 -31.3808 -31.3554 -31.3222
   -29.7117 -28.9992 -28.9349 -28.8099 -11.5231 -11.3926 -11.3375 -11.0705
   -10.9905 -10.7285 -10.5676 -10.4474 -10.3586 -10.2077 -10.0874 -10.0061
    -7.9398  -7.8321  -7.7424  -7.4795  -7.3465  -7.1096  -7.0442  -6.3367
     4.0990   4.3608   4.5429   4.6957   4.9074   5.1420   5.4736   5.5346
     5.7259   5.8261   5.9931   6.0752   6.1847   6.3207   6.4406   6.4975
     6.6733   6.7545   6.8378   6.9110   6.9414   7.2280   7.4558   7.6538

     occupation numbers 
     1.0000   1.0000   1.0000   1.0000   1.0000   1.0000   1.0000   1.0000
     1.0000   1.0000   1.0000   1.0000   1.0000   1.0000   1.0000   1.0000
     1.0000   1.0000   1.0000   1.0000   1.0000   1.0000   1.0000   1.0000
     1.0000   1.0000   1.0000   1.0000   1.0000   1.0000   1.0000   1.0000
     1.0000   1.0000   1.0000   1.0000   1.0000   1.0000   1.0000   1.0000
     1.0000   1.0000   1.0000   1.0000   1.0000   1.0000   1.0000   1.0000
     1.0000   1.0000   1.0000   1.0000   1.0000   1.0000   1.0000   1.0000
     1.0000   1.0000   1.0000   1.0000   1.0000   1.0000   1.0000   1.0000

          k = 0.3374-0.3476-0.3566 (  5408 PWs)   bands (ev):

   -65.8678 -65.4240 -65.2228 -64.3749 -32.8606 -32.8300 -32.7944 -32.4408
   -32.3717 -32.3556 -32.2239 -32.2034 -32.1439 -31.3808 -31.3554 -31.3223
   -29.7130 -28.9948 -28.9303 -28.8176 -11.5925 -11.4466 -11.3751 -10.9465
   -10.8000 -10.7007 -10.5242 -10.5076 -10.3887 -10.2405 -10.2313 -10.0017
    -8.0450  -7.7331  -7.5844  -7.3696  -7.3225  -7.2879  -7.0230  -6.4407
     4.0585   4.2359   4.5560   4.6843   4.9134   5.1262   5.5596   5.6938
     5.7262   5.9069   6.0306   6.0866   6.1163   6.3549   6.4795   6.5218
     6.6015   6.6635   6.8143   6.9162   7.0799   7.2466   7.4414   7.5940

     occupation numbers 
     1.0000   1.0000   1.0000   1.0000   1.0000   1.0000   1.0000   1.0000
     1.0000   1.0000   1.0000   1.0000   1.0000   1.0000   1.0000   1.0000
     1.0000   1.0000   1.0000   1.0000   1.0000   1.0000   1.0000   1.0000
     1.0000   1.0000   1.0000   1.0000   1.0000   1.0000   1.0000   1.0000
     1.0000   1.0000   1.0000   1.0000   1.0000   1.0000   1.0000   1.0000
     1.0000   1.0000   1.0000   1.0000   1.0000   1.0000   1.0000   1.0000
     1.0000   1.0000   1.0000   1.0000   1.0000   1.0000   1.0000   1.0000
     1.0000   1.0000   1.0000   1.0000   1.0000   1.0000   1.0000   1.0000

          k = 0.5067-0.1799-0.5282 (  5398 PWs)   bands (ev):

   -65.8678 -65.4240 -65.2228 -64.3749 -32.8606 -32.8301 -32.7945 -32.4408
   -32.3717 -32.3556 -32.2239 -32.2034 -32.1439 -31.3809 -31.3554 -31.3222
   -29.7128 -28.9888 -28.9371 -28.8172 -11.5465 -11.4394 -11.3844 -10.9410
   -10.7968 -10.6498 -10.5602 -10.4747 -10.4634 -10.2478 -10.1953 -10.0965
    -7.9821  -7.8404  -7.6218  -7.3701  -7.3080  -7.1770  -7.0574  -6.3955
     4.0781   4.3726   4.5727   4.6934   4.9986   5.1373   5.3853   5.5589
     5.7408   5.8071   5.8985   6.0380   6.2329   6.3223   6.3972   6.5654
     6.6601   6.7199   6.8008   6.9006   7.0571   7.3149   7.4032   7.6242

     occupation numbers 
     1.0000   1.0000   1.0000   1.0000   1.0000   1.0000   1.0000   1.0000
     1.0000   1.0000   1.0000   1.0000   1.0000   1.0000   1.0000   1.0000
     1.0000   1.0000   1.0000   1.0000   1.0000   1.0000   1.0000   1.0000
     1.0000   1.0000   1.0000   1.0000   1.0000   1.0000   1.0000   1.0000
     1.0000   1.0000   1.0000   1.0000   1.0000   1.0000   1.0000   1.0000
     1.0000   1.0000   1.0000   1.0000   1.0000   1.0000   1.0000   1.0000
     1.0000   1.0000   1.0000   1.0000   1.0000   1.0000   1.0000   1.0000
     1.0000   1.0000   1.0000   1.0000   1.0000   1.0000   1.0000   1.0000

          k =-0.0013-0.6830-0.0135 (  5408 PWs)   bands (ev):

   -65.8678 -65.4240 -65.2228 -64.3749 -32.8607 -32.8302 -32.7945 -32.4408
   -32.3717 -32.3556 -32.2238 -32.2033 -32.1439 -31.3809 -31.3554 -31.3222
   -29.7127 -28.9804 -28.9462 -28.8167 -11.5199 -11.4664 -11.3054 -10.9471
   -10.7670 -10.7109 -10.5777 -10.5137 -10.3782 -10.2683 -10.2305 -10.1445
    -8.0494  -7.7298  -7.6835  -7.3889  -7.3337  -7.0865  -7.0799  -6.3524
     4.1572   4.3444   4.5234   5.0163   5.0954   5.2381   5.2812   5.3562
     5.5862   5.6952   5.7817   6.0535   6.1593   6.2125   6.4513   6.5113
     6.6526   6.7073   6.8830   6.9513   7.0697   7.2399   7.4786   7.7351

     occupation numbers 
     1.0000   1.0000   1.0000   1.0000   1.0000   1.0000   1.0000   1.0000
     1.0000   1.0000   1.0000   1.0000   1.0000   1.0000   1.0000   1.0000
     1.0000   1.0000   1.0000   1.0000   1.0000   1.0000   1.0000   1.0000
     1.0000   1.0000   1.0000   1.0000   1.0000   1.0000   1.0000   1.0000
     1.0000   1.0000   1.0000   1.0000   1.0000   1.0000   1.0000   1.0000
     1.0000   1.0000   1.0000   1.0000   1.0000   1.0000   1.0000   1.0000
     1.0000   1.0000   1.0000   1.0000   1.0000   1.0000   1.0000   1.0000
     1.0000   1.0000   1.0000   1.0000   1.0000   1.0000   1.0000   1.0000

          k = 0.5086-0.5147-0.1825 (  5430 PWs)   bands (ev):

   -65.8678 -65.4240 -65.2228 -64.3749 -32.8606 -32.8301 -32.7944 -32.4408
   -32.3717 -32.3554 -32.2239 -32.2036 -32.1441 -31.3808 -31.3554 -31.3223
   -29.7121 -28.9892 -28.9372 -28.8176 -11.5415 -11.4120 -11.3280 -10.9401
   -10.8753 -10.7118 -10.5617 -10.4828 -10.3946 -10.2471 -10.2075 -10.0990
    -8.0591  -7.7971  -7.5906  -7.3698  -7.2807  -7.1955  -7.0395  -6.4233
     4.0464   4.4601   4.5681   4.6754   5.0406   5.2068   5.4681   5.6206
     5.6665   5.8310   5.9018   6.0564   6.1485   6.2694   6.3411   6.4045
     6.5962   6.7789   6.8965   6.8991   7.0910   7.2808   7.4477   7.5583

     occupation numbers 
     1.0000   1.0000   1.0000   1.0000   1.0000   1.0000   1.0000   1.0000
     1.0000   1.0000   1.0000   1.0000   1.0000   1.0000   1.0000   1.0000
     1.0000   1.0000   1.0000   1.0000   1.0000   1.0000   1.0000   1.0000
     1.0000   1.0000   1.0000   1.0000   1.0000   1.0000   1.0000   1.0000
     1.0000   1.0000   1.0000   1.0000   1.0000   1.0000   1.0000   1.0000
     1.0000   1.0000   1.0000   1.0000   1.0000   1.0000   1.0000   1.0000
     1.0000   1.0000   1.0000   1.0000   1.0000   1.0000   1.0000   1.0000
     1.0000   1.0000   1.0000   1.0000   1.0000   1.0000   1.0000   1.0000

          k = 0.6780-0.3470-0.3541 (  5427 PWs)   bands (ev):

   -65.8678 -65.4240 -65.2228 -64.3749 -32.8606 -32.8301 -32.7944 -32.4408
   -32.3716 -32.3554 -32.2239 -32.2035 -32.1440 -31.3809 -31.3554 -31.3222
   -29.7121 -28.9964 -28.9305 -28.8170 -11.4980 -11.3950 -11.3664 -10.9764
   -10.8838 -10.6773 -10.5859 -10.5319 -10.4728 -10.2340 -10.1717 -10.0030
    -8.0677  -7.7941  -7.4859  -7.3687  -7.3080  -7.2388  -7.0460  -6.4539
     3.9085   4.4197   4.5100   4.6798   5.1288   5.1907   5.3987   5.5521
     5.7195   5.8539   6.0287   6.1917   6.2830   6.3539   6.4407   6.5224
     6.5619   6.7371   6.8098   6.8765   6.9634   7.2890   7.4677   7.5161

     occupation numbers 
     1.0000   1.0000   1.0000   1.0000   1.0000   1.0000   1.0000   1.0000
     1.0000   1.0000   1.0000   1.0000   1.0000   1.0000   1.0000   1.0000
     1.0000   1.0000   1.0000   1.0000   1.0000   1.0000   1.0000   1.0000
     1.0000   1.0000   1.0000   1.0000   1.0000   1.0000   1.0000   1.0000
     1.0000   1.0000   1.0000   1.0000   1.0000   1.0000   1.0000   1.0000
     1.0000   1.0000   1.0000   1.0000   1.0000   1.0000   1.0000   1.0000
     1.0000   1.0000   1.0000   1.0000   1.0000   1.0000   1.0000   1.0000
     1.0000   1.0000   1.0000   1.0000   1.0000   1.0000   1.0000   1.0000

          k = 0.1700-0.8501 0.1606 (  5415 PWs)   bands (ev):

   -65.8678 -65.4240 -65.2228 -64.3749 -32.8607 -32.8302 -32.7945 -32.4408
   -32.3716 -32.3554 -32.2238 -32.2035 -32.1440 -31.3809 -31.3554 -31.3222
   -29.7119 -28.9906 -28.9371 -28.8166 -11.4517 -11.4111 -11.2993 -10.9721
   -10.8727 -10.7372 -10.6400 -10.5243 -10.4457 -10.2487 -10.1593 -10.1045
    -7.9657  -7.6876  -7.6157  -7.3685  -7.3384  -7.1691  -7.1341  -6.4081
     4.1192   4.4121   4.5165   4.6763   5.1901   5.3049   5.3914   5.5094
     5.6883   5.7369   5.8536   6.0272   6.1939   6.2704   6.4290   6.5351
     6.6398   6.7331   6.7939   6.8531   7.0418   7.3750   7.4190   7.5222

     occupation numbers 
     1.0000   1.0000   1.0000   1.0000   1.0000   1.0000   1.0000   1.0000
     1.0000   1.0000   1.0000   1.0000   1.0000   1.0000   1.0000   1.0000
     1.0000   1.0000   1.0000   1.0000   1.0000   1.0000   1.0000   1.0000
     1.0000   1.0000   1.0000   1.0000   1.0000   1.0000   1.0000   1.0000
     1.0000   1.0000   1.0000   1.0000   1.0000   1.0000   1.0000   1.0000
     1.0000   1.0000   1.0000   1.0000   1.0000   1.0000   1.0000   1.0000
     1.0000   1.0000   1.0000   1.0000   1.0000   1.0000   1.0000   1.0000
     1.0000   1.0000   1.0000   1.0000   1.0000   1.0000   1.0000   1.0000

          k = 0.3393-0.6824-0.0109 (  5407 PWs)   bands (ev):

   -65.8678 -65.4240 -65.2228 -64.3749 -32.8607 -32.8301 -32.7944 -32.4408
   -32.3716 -32.3554 -32.2239 -32.2035 -32.1441 -31.3809 -31.3554 -31.3223
   -29.7120 -28.9809 -28.9462 -28.8171 -11.4677 -11.4092 -11.3427 -10.9375
   -10.8554 -10.6837 -10.6024 -10.4883 -10.3835 -10.2711 -10.2416 -10.1915
    -7.9336  -7.7249  -7.6519  -7.3777  -7.3164  -7.2585  -7.0350  -6.3790
     4.3473   4.4329   4.5771   4.7018   5.0807   5.2540   5.4072   5.4638
     5.5379   5.6246   5.9292   5.9678   6.2297   6.2873   6.3399   6.4572
     6.5192   6.7336   6.8587   6.9532   7.0947   7.2725   7.4038   7.6018

     occupation numbers 
     1.0000   1.0000   1.0000   1.0000   1.0000   1.0000   1.0000   1.0000
     1.0000   1.0000   1.0000   1.0000   1.0000   1.0000   1.0000   1.0000
     1.0000   1.0000   1.0000   1.0000   1.0000   1.0000   1.0000   1.0000
     1.0000   1.0000   1.0000   1.0000   1.0000   1.0000   1.0000   1.0000
     1.0000   1.0000   1.0000   1.0000   1.0000   1.0000   1.0000   1.0000
     1.0000   1.0000   1.0000   1.0000   1.0000   1.0000   1.0000   1.0000
     1.0000   1.0000   1.0000   1.0000   1.0000   1.0000   1.0000   1.0000
     1.0000   1.0000   1.0000   1.0000   1.0000   1.0000   1.0000   1.0000

          k =-0.0051-0.0135-0.7048 (  5434 PWs)   bands (ev):

   -65.8678 -65.4240 -65.2228 -64.3749 -32.8606 -32.8301 -32.7944 -32.4408
   -32.3716 -32.3552 -32.2239 -32.2037 -32.1442 -31.3809 -31.3554 -31.3223
   -29.7113 -28.9814 -28.9461 -28.8175 -11.5108 -11.3309 -11.2662 -10.9470
   -10.9271 -10.8105 -10.5663 -10.4310 -10.3952 -10.2735 -10.2097 -10.1775
    -8.0429  -7.8776  -7.6264  -7.3445  -7.1884  -7.1338  -7.0878  -6.4054
     4.1524   4.3523   4.5589   5.0717   5.1993   5.2699   5.4549   5.5469
     5.5678   5.6512   5.7943   6.0157   6.0765   6.1392   6.3009   6.3403
     6.4372   6.6071   6.9669   7.0438   7.2213   7.3277   7.4834   7.5500

     occupation numbers 
     1.0000   1.0000   1.0000   1.0000   1.0000   1.0000   1.0000   1.0000
     1.0000   1.0000   1.0000   1.0000   1.0000   1.0000   1.0000   1.0000
     1.0000   1.0000   1.0000   1.0000   1.0000   1.0000   1.0000   1.0000
     1.0000   1.0000   1.0000   1.0000   1.0000   1.0000   1.0000   1.0000
     1.0000   1.0000   1.0000   1.0000   1.0000   1.0000   1.0000   1.0000
     1.0000   1.0000   1.0000   1.0000   1.0000   1.0000   1.0000   1.0000
     1.0000   1.0000   1.0000   1.0000   1.0000   1.0000   1.0000   1.0000
     1.0000   1.0000   1.0000   1.0000   1.0000   1.0000   1.0000   1.0000

          k = 0.1643 0.1542-0.8764 (  5433 PWs)   bands (ev):

   -65.8678 -65.4240 -65.2228 -64.3749 -32.8607 -32.8301 -32.7944 -32.4408
   -32.3716 -32.3552 -32.2239 -32.2037 -32.1442 -31.3809 -31.3554 -31.3223
   -29.7112 -28.9910 -28.9372 -28.8170 -11.4349 -11.3333 -11.2984 -10.9917
   -10.9224 -10.8067 -10.6062 -10.5311 -10.4169 -10.2457 -10.1927 -10.0952
    -7.9988  -7.7008  -7.5817  -7.3868  -7.2828  -7.1998  -7.1004  -6.4370
     4.1073   4.3984   4.5964   4.6845   5.2585   5.3486   5.4360   5.5656
     5.6464   5.7202   5.9172   5.9979   6.1051   6.2627   6.3034   6.4237
     6.5894   6.7545   6.8485   6.9379   7.0257   7.3609   7.4285   7.4934

     occupation numbers 
     1.0000   1.0000   1.0000   1.0000   1.0000   1.0000   1.0000   1.0000
     1.0000   1.0000   1.0000   1.0000   1.0000   1.0000   1.0000   1.0000
     1.0000   1.0000   1.0000   1.0000   1.0000   1.0000   1.0000   1.0000
     1.0000   1.0000   1.0000   1.0000   1.0000   1.0000   1.0000   1.0000
     1.0000   1.0000   1.0000   1.0000   1.0000   1.0000   1.0000   1.0000
     1.0000   1.0000   1.0000   1.0000   1.0000   1.0000   1.0000   1.0000
     1.0000   1.0000   1.0000   1.0000   1.0000   1.0000   1.0000   1.0000
     1.0000   1.0000   1.0000   1.0000   1.0000   1.0000   1.0000   1.0000

          k =-0.3438-0.3489-0.3617 (  5426 PWs)   bands (ev):

   -65.8678 -65.4240 -65.2228 -64.3749 -32.8607 -32.8301 -32.7944 -32.4408
   -32.3716 -32.3552 -32.2238 -32.2036 -32.1441 -31.3809 -31.3554 -31.3222
   -29.7112 -28.9981 -28.9306 -28.8164 -11.3776 -11.3199 -11.2917 -11.0426
   -10.9148 -10.8270 -10.6946 -10.5305 -10.4810 -10.2466 -10.1651 -10.0091
    -7.8802  -7.6316  -7.4834  -7.3975  -7.3551  -7.2458  -7.2102  -6.4693
     4.1844   4.2556   4.5036   4.6080   5.3532   5.4055   5.4381   5.5365
     5.6769   5.8580   6.0348   6.1021   6.1503   6.1927   6.3094   6.5140
     6.6410   6.6965   6.7748   6.8510   7.0069   7.3001   7.4128   7.5084

     occupation numbers 
     1.0000   1.0000   1.0000   1.0000   1.0000   1.0000   1.0000   1.0000
     1.0000   1.0000   1.0000   1.0000   1.0000   1.0000   1.0000   1.0000
     1.0000   1.0000   1.0000   1.0000   1.0000   1.0000   1.0000   1.0000
     1.0000   1.0000   1.0000   1.0000   1.0000   1.0000   1.0000   1.0000
     1.0000   1.0000   1.0000   1.0000   1.0000   1.0000   1.0000   1.0000
     1.0000   1.0000   1.0000   1.0000   1.0000   1.0000   1.0000   1.0000
     1.0000   1.0000   1.0000   1.0000   1.0000   1.0000   1.0000   1.0000
     1.0000   1.0000   1.0000   1.0000   1.0000   1.0000   1.0000   1.0000

     highest occupied level (ev):     7.9643

!    total energy              =   -1059.62692630 Ry
     Harris-Foulkes estimate   =   -1059.62692630 Ry
     estimated scf accuracy    <          4.1E-11 Ry

     The total energy is the sum of the following terms:

     one-electron contribution =    -478.56159525 Ry
     hartree contribution      =     288.39371675 Ry
     xc contribution           =    -172.96017966 Ry
     ewald contribution        =    -696.49886814 Ry

     convergence has been achieved in  20 iterations

     Forces acting on atoms (Ry/au):

     atom    1 type  1   force =  -0.29478277E-01  0.23395321E-01  0.48575275E-01
     atom    2 type  3   force =   0.10298429E-01 -0.27899023E-01  0.13688236E-01
     atom    3 type  1   force =  -0.59633438E-01 -0.13180036E-01 -0.40676032E-01
     atom    4 type  3   force =  -0.80196551E-01 -0.24102420E-02 -0.53512322E-01
     atom    5 type  1   force =   0.38143942E-01 -0.78765966E-02  0.78232239E-01
     atom    6 type  3   force =  -0.38375167E-01 -0.18504316E-01 -0.16793652E-01
     atom    7 type  2   force =   0.18614593E-01 -0.10265669E-01 -0.12684210E-02
     atom    8 type  3   force =   0.27209018E-01  0.42307422E-01 -0.13936304E-01
     atom    9 type  2   force =   0.35959792E-02  0.35483861E-04 -0.10784353E-01
     atom   10 type  3   force =  -0.73503339E-02 -0.29525306E-01  0.26397089E-01
     atom   11 type  1   force =  -0.11003785E-01  0.48943846E-01 -0.73185675E-01
     atom   12 type  3   force =   0.87585790E-01 -0.27269316E-01  0.18696247E-01
     atom   13 type  2   force =   0.39835217E-02 -0.56822616E-01 -0.34592005E-01
     atom   14 type  3   force =   0.54917622E-02  0.18165967E-01  0.31295019E-01
     atom   15 type  2   force =   0.44282920E-01  0.66768171E-03  0.21082179E-01
     atom   16 type  3   force =  -0.13168403E-01  0.60237398E-01  0.67824798E-02
     The non-local contrib.  to forces
     atom    1 type  1   force =   0.98001043E-02  0.16205154E-01  0.42646160E-01
     atom    2 type  3   force =   0.41804675E-01 -0.20050546E-01  0.27604506E-01
     atom    3 type  1   force =  -0.25734113E-01 -0.37975700E-01 -0.18031122E-02
     atom    4 type  3   force =  -0.21383319E+00 -0.89669727E-01 -0.20052848E-01
     atom    5 type  1   force =   0.28407663E-01 -0.23751584E-01  0.27429770E-02
     atom    6 type  3   force =  -0.13402712E+00 -0.42516553E-01 -0.59799761E-01
     atom    7 type  2   force =  -0.30859775E-01 -0.10151074E+00 -0.97107553E-01
     atom    8 type  3   force =   0.76089552E-01  0.19771634E-01 -0.14483447E-01
     atom    9 type  2   force =   0.11877325E+00 -0.19551123E-01 -0.35625175E-01
     atom   10 type  3   force =   0.59070526E-02 -0.19414691E+00  0.60792883E-01
     atom   11 type  1   force =  -0.36077956E-02  0.49817989E-03 -0.19587611E-01
     atom   12 type  3   force =   0.14292064E+00  0.24484264E-02 -0.24669018E-01
     atom   13 type  2   force =  -0.67585423E-01 -0.21688570E-01 -0.11171096E+00
     atom   14 type  3   force =  -0.23582812E-01  0.96192499E-01  0.62869956E-01
     atom   15 type  2   force =  -0.10881204E+00  0.16131905E+00 -0.51447125E-02
     atom   16 type  3   force =   0.38111956E-01  0.21534537E+00 -0.12113217E+00
     The ionic contribution  to forces
     atom    1 type  1   force =  -0.10342307E+01  0.15791717E+01  0.24536618E+01
     atom    2 type  3   force =   0.13301913E+00 -0.13952597E+01 -0.19948728E+00
     atom    3 type  1   force =  -0.11698629E+01 -0.82662628E+00 -0.88700367E+00
     atom    4 type  3   force =  -0.28281991E+00  0.14605154E+01 -0.37877055E+01
     atom    5 type  1   force =   0.55166373E+00  0.10075116E+00  0.17442622E+01
     atom    6 type  3   force =   0.51146608E+00 -0.25714846E+01 -0.70158655E-01
     atom    7 type  2   force =   0.88703584E+00 -0.17847002E+01 -0.14809292E+01
     atom    8 type  3   force =   0.14526745E+01  0.21295433E+01 -0.32334549E+00
     atom    9 type  2   force =   0.77688728E+00 -0.10789228E+01 -0.59905209E+00
     atom   10 type  3   force =  -0.18139671E+01  0.19346540E+01  0.24498184E+00
     atom   11 type  1   force =  -0.42232840E+00  0.16454911E+01 -0.25212319E+01
     atom   12 type  3   force =   0.14903619E+01 -0.51024072E+00  0.16325607E+01
     atom   13 type  2   force =  -0.15243417E+01 -0.36614162E+01 -0.56317026E+00
     atom   14 type  3   force =   0.59390001E+00  0.37647507E+00  0.15979772E+01
     atom   15 type  2   force =   0.15168433E+01  0.28729732E+01  0.92627910E+00
     atom   16 type  3   force =  -0.16663011E+01 -0.27092437E+00  0.18323612E+01
     The local contribution  to forces
     atom    1 type  1   force =   0.99401139E+00 -0.15724351E+01 -0.24477994E+01
     atom    2 type  3   force =  -0.16419769E+00  0.13867989E+01  0.18612847E+00
     atom    3 type  1   force =   0.11359043E+01  0.85271461E+00  0.84723331E+00
     atom    4 type  3   force =   0.41422535E+00 -0.13735167E+01  0.37532716E+01
     atom    5 type  1   force =  -0.54214217E+00 -0.84974456E-01 -0.16674065E+01
     atom    6 type  3   force =  -0.41709746E+00  0.25951164E+01  0.11267941E+00
     atom    7 type  2   force =  -0.83755897E+00  0.18759429E+01  0.15767662E+01
     atom    8 type  3   force =  -0.15011400E+01 -0.21057004E+01  0.32354927E+00
     atom    9 type  2   force =  -0.89206160E+00  0.10985040E+01  0.62389033E+00
     atom   10 type  3   force =   0.18008455E+01 -0.17713442E+01 -0.27880726E+00
     atom   11 type  1   force =   0.41441726E+00 -0.15963050E+01  0.24668830E+01
     atom   12 type  3   force =  -0.15434279E+01  0.47972959E+00 -0.15888981E+01
     atom   13 type  2   force =   0.15959096E+01  0.36262817E+01  0.64028820E+00
     atom   14 type  3   force =  -0.56472211E+00 -0.45383430E+00 -0.16291937E+01
     atom   15 type  2   force =  -0.13637522E+01 -0.30336193E+01 -0.90005231E+00
     atom   16 type  3   force =   0.16148095E+01  0.11777299E+00 -0.17047794E+01
     The core correction contribution to forces
     atom    1 type  1   force =   0.94516332E-03  0.45741866E-03  0.73410083E-04
     atom    2 type  3   force =  -0.32763455E-03  0.60975171E-03 -0.55528953E-03
     atom    3 type  1   force =   0.56142387E-04 -0.12999156E-02  0.89602916E-03
     atom    4 type  3   force =   0.22297449E-02  0.26203897E-03  0.97232637E-03
     atom    5 type  1   force =   0.21367475E-03  0.97278259E-04 -0.13709550E-02
     atom    6 type  3   force =   0.12826501E-02  0.37707016E-03  0.48545442E-03
     atom    7 type  2   force =   0.00000000E+00  0.00000000E+00  0.00000000E+00
     atom    8 type  3   force =  -0.41487193E-03 -0.13028506E-02  0.34329111E-03
     atom    9 type  2   force =   0.00000000E+00  0.00000000E+00  0.00000000E+00
     atom   10 type  3   force =  -0.13715060E-03  0.13122286E-02 -0.56900576E-03
     atom   11 type  1   force =   0.51617710E-03 -0.73823077E-03  0.75432785E-03
     atom   12 type  3   force =  -0.22641913E-02  0.78960522E-03 -0.29495009E-03
     atom   13 type  2   force =   0.00000000E+00  0.00000000E+00  0.00000000E+00
     atom   14 type  3   force =  -0.10269324E-03 -0.66645747E-03 -0.35984679E-03
     atom   15 type  2   force =   0.00000000E+00  0.00000000E+00  0.00000000E+00
     atom   16 type  3   force =   0.20971467E-03 -0.19564242E-02  0.33312743E-03
     The Hubbard contrib.    to forces
     atom    1 type  1   force =   0.00000000E+00  0.00000000E+00  0.00000000E+00
     atom    2 type  3   force =   0.00000000E+00  0.00000000E+00  0.00000000E+00
     atom    3 type  1   force =   0.00000000E+00  0.00000000E+00  0.00000000E+00
     atom    4 type  3   force =   0.00000000E+00  0.00000000E+00  0.00000000E+00
     atom    5 type  1   force =   0.00000000E+00  0.00000000E+00  0.00000000E+00
     atom    6 type  3   force =   0.00000000E+00  0.00000000E+00  0.00000000E+00
     atom    7 type  2   force =   0.00000000E+00  0.00000000E+00  0.00000000E+00
     atom    8 type  3   force =   0.00000000E+00  0.00000000E+00  0.00000000E+00
     atom    9 type  2   force =   0.00000000E+00  0.00000000E+00  0.00000000E+00
     atom   10 type  3   force =   0.00000000E+00  0.00000000E+00  0.00000000E+00
     atom   11 type  1   force =   0.00000000E+00  0.00000000E+00  0.00000000E+00
     atom   12 type  3   force =   0.00000000E+00  0.00000000E+00  0.00000000E+00
     atom   13 type  2   force =   0.00000000E+00  0.00000000E+00  0.00000000E+00
     atom   14 type  3   force =   0.00000000E+00  0.00000000E+00  0.00000000E+00
     atom   15 type  2   force =   0.00000000E+00  0.00000000E+00  0.00000000E+00
     atom   16 type  3   force =   0.00000000E+00  0.00000000E+00  0.00000000E+00
     The SCF correction term to forces
     atom    1 type  1   force =  -0.40825525E-05 -0.44327804E-05 -0.63833460E-05
     atom    2 type  3   force =   0.14182526E-06  0.19710432E-05 -0.18981934E-05
     atom    3 type  1   force =   0.33151220E-05  0.67234572E-05  0.16900034E-05
     atom    4 type  3   force =   0.16535521E-05 -0.16867798E-05  0.23397592E-05
     atom    5 type  1   force =   0.12327333E-05  0.47361721E-06  0.48444843E-05
     atom    6 type  3   force =   0.86958977E-06  0.29137435E-05  0.17335752E-06
     atom    7 type  2   force =  -0.23168086E-05  0.18740923E-05  0.23986473E-05
     atom    8 type  3   force =   0.29833951E-07 -0.47796651E-05  0.34747679E-06
     atom    9 type  2   force =  -0.27558868E-05  0.48702533E-05  0.28595089E-05
     atom   10 type  3   force =   0.15175717E-05 -0.89407778E-06 -0.10969017E-05
     atom   11 type  1   force =  -0.84188323E-06 -0.27506911E-05 -0.32936758E-05
     atom   12 type  3   force =  -0.44398330E-05  0.32615246E-05 -0.21116529E-05
     atom   13 type  2   force =   0.12519611E-05 -0.75236602E-07  0.12878487E-05
     atom   14 type  3   force =  -0.44321529E-06 -0.13714051E-05  0.17494837E-05
     atom   15 type  2   force =   0.40945126E-05 -0.57892840E-05  0.37319510E-06
     atom   16 type  3   force =   0.17523941E-05 -0.70345908E-06  0.56877413E-08

     Total force =     0.250737     Total SCF correction =     0.000020


     entering subroutine stress ...

          total   stress  (Ry/bohr**3)                   (kbar)     P=   33.81
   0.0000687856   0.0000913740   0.0000315250         10.12     13.44      4.64
   0.0000913740   0.0002099194   0.0002452983         13.44     30.88     36.08
   0.0000315250   0.0002452983   0.0004108666          4.64     36.08     60.44

     kinetic stress (kbar)  20657.20     20.35     -6.37
                               20.35  20686.78     25.55
                               -6.37     25.55  20687.39

     local   stress (kbar)  -2010.33   -331.60    511.64
                             -331.60  -2270.27    505.85
                              511.64    505.85  -7093.81

     nonloc. stress (kbar)   5212.80     -0.35      0.93
                               -0.35   5210.92     -1.64
                                0.93     -1.64   5237.97

     hartree stress (kbar)  10512.54    138.68   -157.41
                              138.68  10532.02   -212.87
                             -157.41   -212.87  12435.79

     exc-cor stress (kbar)  -5241.71      0.32     -0.63
                                0.32  -5241.01     -0.52
                               -0.63     -0.52  -5238.56

     corecor stress (kbar)  -1039.22     -0.06      0.05
                               -0.06  -1039.32     -0.07
                                0.05     -0.07  -1039.43

     ewald   stress (kbar) -28081.16    186.09   -343.56
                              186.09 -27848.24   -280.22
                             -343.56   -280.22 -24928.91

     hubbard stress (kbar)      0.00      0.00      0.00
                                0.00      0.00      0.00
                                0.00      0.00      0.00

     london  stress (kbar)      0.00      0.00      0.00
                                0.00      0.00      0.00
                                0.00      0.00      0.00

     XDM     stress (kbar)      0.00      0.00      0.00
                                0.00      0.00      0.00
                                0.00      0.00      0.00

     dft-nl  stress (kbar)      0.00      0.00      0.00
                                0.00      0.00      0.00
                                0.00      0.00      0.00



     Writing output data file mix.dummy4161.save

     init_run     :     14.22s CPU     15.79s WALL (       1 calls)
     electrons    :    683.28s CPU    747.18s WALL (       1 calls)
     forces       :      4.81s CPU      5.21s WALL (       1 calls)
     stress       :      8.78s CPU      8.99s WALL (       1 calls)

     Called by init_run:
     wfcinit      :     12.64s CPU     14.17s WALL (       1 calls)
     potinit      :      0.45s CPU      0.46s WALL (       1 calls)

     Called by electrons:
     c_bands      :    601.93s CPU    660.05s WALL (      20 calls)
     sum_band     :     75.17s CPU     80.80s WALL (      20 calls)
     v_of_rho     :      0.72s CPU      0.75s WALL (      21 calls)
     v_h          :      0.05s CPU      0.05s WALL (      21 calls)
     v_xc         :      0.72s CPU      0.76s WALL (      23 calls)
     newd         :      4.30s CPU      4.37s WALL (      21 calls)
     mix_rho      :      1.23s CPU      1.28s WALL (      20 calls)

     Called by c_bands:
     init_us_2    :      2.98s CPU      3.07s WALL (    1548 calls)
     cegterg      :    577.10s CPU    633.81s WALL (     720 calls)

     Called by sum_band:
     sum_band:bec :      0.79s CPU      0.83s WALL (     720 calls)
     addusdens    :      4.10s CPU      4.15s WALL (      20 calls)

     Called by *egterg:
     h_psi        :    295.50s CPU    314.03s WALL (    2236 calls)
     s_psi        :     26.34s CPU     29.21s WALL (    2236 calls)
     g_psi        :      0.30s CPU      0.32s WALL (    1480 calls)
     cdiaghg      :     78.14s CPU     90.02s WALL (    2200 calls)
     cegterg:over :     90.00s CPU     99.95s WALL (    1480 calls)
     cegterg:upda :     10.25s CPU     13.46s WALL (    1480 calls)
     cegterg:last :      6.39s CPU      7.56s WALL (     720 calls)

     Called by h_psi:
     h_psi:vloc   :    189.81s CPU    194.26s WALL (    2236 calls)
     h_psi:vnl    :    105.25s CPU    119.31s WALL (    2236 calls)
     add_vuspsi   :     26.85s CPU     31.10s WALL (    2236 calls)

     General routines
     calbec       :    110.18s CPU    124.82s WALL (    3028 calls)
     fft          :      1.32s CPU      1.33s WALL (     357 calls)
     ffts         :      0.76s CPU      0.79s WALL (     540 calls)
     fftw         :    217.22s CPU    222.31s WALL (  268758 calls)
     interpolate  :      0.15s CPU      0.15s WALL (      41 calls)

     Parallel routines
     fft_scatter  :     94.57s CPU     96.76s WALL (  269655 calls)

     PWSCF        : 11m55.12s CPU    13m 2.12s WALL


   This run was terminated on:  22:51:41   7Dec2017            

=------------------------------------------------------------------------------=
   JOB DONE.
=------------------------------------------------------------------------------=
