
     Program PWSCF v.5.1 starts on  7Dec2017 at 20:20:47 

     This program is part of the open-source Quantum ESPRESSO suite
     for quantum simulation of materials; please cite
         "P. Giannozzi et al., J. Phys.:Condens. Matter 21 395502 (2009);
          URL http://www.quantum-espresso.org", 
     in publications or presentations arising from this work. More details at
     http://www.quantum-espresso.org/quote

     Parallel version (MPI), running on    16 processors
     R & G space division:  proc/nbgrp/npool/nimage =      16
     Waiting for input...
     Reading input from standard input
Warning: card &IONS ignored
Warning: card   ION_DYNAMICS='BFGS', ignored
Warning: card / ignored
Warning: card &CELL ignored
Warning: card  CELL_DYNAMICS = 'BFGS' ignored
Warning: card / ignored

     Current dimensions of program PWSCF are:
     Max number of different atomic species (ntypx) = 10
     Max number of k-points (npk) =  40000
     Max angular momentum in pseudopotentials (lmaxx) =  3
 kfg - two_fermi_energies  F

     Subspace diagonalization in iterative solution of the eigenvalue problem:
     a serial algorithm will be used


     Parallelization info
     --------------------
     sticks:   dense  smooth     PW     G-vecs:    dense   smooth      PW
     Min         124      99     28                 4324     3088     483
     Max         125     100     29                 4328     3106     487
     Sum        1985    1589    459                69221    49531    7759



     bravais-lattice index     =            0
     lattice parameter (alat)  =    12.185000436  a.u.
     unit-cell volume          =    1449.5267 (a.u.)^3
     number of atoms/cell      =           16
     number of atomic types    =            3
     number of electrons       =       128.00
     number of Kohn-Sham states=           64
     kinetic-energy cutoff     =      40.0000  Ry
     charge density cutoff     =     200.0000  Ry
     convergence threshold     =      1.0E-10
     mixing beta               =       0.3000
     number of iterations used =            8  local-TF  mixing
     Exchange-correlation      = SLA  PW   PSX  PSC ( 1  4 10  8 0)
     A smooth kinetic-energy cutoff is imposed at      39.5000 Ry
     height of the smooth step-function =             800.0000 Ry
     width of the smooth step-function  =               1.0000 Ry


     celldm(1)=  12.185000  celldm(2)=   0.000000  celldm(3)=   0.000000
     celldm(4)=   0.000000  celldm(5)=   0.000000  celldm(6)=   0.000000

     crystal axes: (cart. coord. in units of alat)
               a(1) = (   0.009084004646   0.709492127852   0.704654810085 )  
               a(2) = (   0.644923569358  -0.028129434015   0.741868248746 )  
               a(3) = (   0.715042415236   0.816824412390  -0.098248279892 )  

     reciprocal axes: (cart. coord. in units 2 pi/alat)
               b(1) = ( -0.752871  0.741161  0.682591 )  
               b(2) = (  0.805383 -0.629981  0.623923 )  
               b(3) = (  0.681678  0.558787 -0.571411 )  


     PseudoPot. # 1 for Ca read from file:
     /users/kfg/psuedo/gbrv_1.5/ca.pbesol.UPF
     MD5 check sum: 0533207b58cddeaa036efa5b63902087
     Pseudo is Ultrasoft + core correction, Zval = 10.0
     Generated by new atomic code, or converted to UPF format
     Using radial grid of  845 points,  6 beta functions with: 
                l(1) =   0
                l(2) =   0
                l(3) =   1
                l(4) =   1
                l(5) =   2
                l(6) =   2
     Q(r) pseudized with  8 coefficients,  rinner =    1.500   1.500   1.500
                                                       1.500   1.500

     PseudoPot. # 2 for Mg read from file:
     /users/kfg/psuedo/gbrv_1.5/mg.pbesol.UPF
     MD5 check sum: 4059f37963cf5867752dbf5ab2400678
     Pseudo is Ultrasoft, Zval = 10.0
     Generated by new atomic code, or converted to UPF format
     Using radial grid of  821 points,  7 beta functions with: 
                l(1) =   0
                l(2) =   0
                l(3) =   0
                l(4) =   1
                l(5) =   1
                l(6) =   2
                l(7) =   2
     Q(r) pseudized with  8 coefficients,  rinner =    1.200   1.200   1.200
                                                       1.200   1.200

     PseudoPot. # 3 for O  read from file:
     /users/kfg/psuedo/gbrv_1.5/o.pbesol.UPF
     MD5 check sum: 501638753501ef6325af9037351f7734
     Pseudo is Ultrasoft + core correction, Zval =  6.0
     Generated by new atomic code, or converted to UPF format
     Using radial grid of  737 points,  5 beta functions with: 
                l(1) =   0
                l(2) =   0
                l(3) =   1
                l(4) =   1
                l(5) =   2
     Q(r) pseudized with  8 coefficients,  rinner =    0.900   0.900   0.900
                                                       0.900   0.900

     atomic species   valence    mass     pseudopotential
        Ca            10.00    40.07800     Ca( 1.00)
        Mg            10.00    40.07800     Mg( 1.00)
        O              6.00    15.99940     O ( 1.00)

     No symmetry found


                                    s                        frac. trans.

      isym =  1     identity                                     

 cryst.   s( 1) = (     1          0          0      )
                  (     0          1          0      )
                  (     0          0          1      )

 cart.    s( 1) = (  1.0000000  0.0000000  0.0000000 )
                  (  0.0000000  1.0000000  0.0000000 )
                  (  0.0000000 -0.0000000  1.0000000 )


     point group C_1 (1)    
     there are  1 classes
     the character table:

       E    
A      1.00

     the symmetry operations in each class:
     E        1

   Cartesian axes

     site n.     atom                  positions (alat units)
         1           Ca  tau(   1) = (   -0.04004200162    0.01557564224   -0.03237796452  )
         2           O   tau(   2) = (    0.35881755927    0.43226932895    0.29385858072  )
         3           Mg  tau(   3) = (    0.42176104040    0.35955575813    0.01418452455  )
         4           O   tau(   4) = (    0.68125394246    0.81055036662    0.24094377989  )
         5           Mg  tau(   5) = (    0.23644576136   -0.08365106183    0.46555522955  )
         6           O   tau(   6) = (    0.68562484911    0.33975835138    0.67334837899  )
         7           Ca  tau(   7) = (    0.67626474416    0.38091677692    0.31002381132  )
         8           O   tau(   8) = (    0.98371069034    0.80408795933    0.64253837644  )
         9           Ca  tau(   9) = (    0.00813567411    0.34171175878    0.35970408227  )
        10           O   tau(  10) = (    0.38266385979    0.78208048437    0.66394537185  )
        11           Mg  tau(  11) = (    0.39825056593    0.75335685419    0.29627381108  )
        12           O   tau(  12) = (    0.71920933970    1.15359809795    0.59836156254  )
        13           Ca  tau(  13) = (    0.34018749201    0.36419478418    0.73717815946  )
        14           O   tau(  14) = (    0.67098556926    0.71379108978    1.05613511917  )
        15           Mg  tau(  15) = (    0.67723228619    0.66865899599    0.75136858016  )
        16           O   tau(  16) = (    1.01379856297    1.15266745034    1.01860727012  )

   Crystallographic axes

     site n.     atom                  positions (cryst. coord.)
         1           Ca  tau(   1) = (    0.01958960994   -0.06226285117   -0.00009114635  )
         2           O   tau(   2) = (    0.25082301763    0.20000929263    0.31823059732  )
         3           Mg  tau(   3) = (   -0.04136086439    0.12201600768    0.48031523190  )
         4           O   tau(   4) = (    0.25231785744    0.18836954824    0.77964315485  )
         5           Mg  tau(   5) = (    0.07777186181    0.53359848702   -0.15158675505  )
         6           O   tau(   6) = (    0.19525014123    0.75826679895    0.27246924274  )
         7           Ca  tau(   7) = (   -0.01520009619    0.49811281306    0.49669519038  )
         8           O   tau(   8) = (    0.29394218200    0.68659829400    0.75273450112  )
         9           Ca  tau(   9) = (    0.49266916682    0.01570812017   -0.00904879442  )
        10           O   tau(  10) = (    0.74475420874    0.22974602912    0.31848443547  )
        11           Mg  tau(  11) = (    0.46076116879    0.03099593724    0.52315078223  )
        12           O   tau(  12) = (    0.72196617440    0.22582585316    0.79297474984  )
        13           Ca  tau(  13) = (    0.51700097869    0.50448782306    0.01417393563  )
        14           O   tau(  14) = (    0.74477698427    0.74967256437    0.25276613214  )
        15           Mg  tau(  15) = (    0.49859286588    0.59298510096    0.40595213963  )
        16           O   tau(  16) = (    0.78634474290    0.72587018152    0.75313660258  )

     number of k points=    36
                       cart. coord. in units 2pi/alat
        k(    1) = (   0.0000000   0.0000000   0.0000000), wk =   0.0312500
        k(    2) = (   0.1704195   0.1396969  -0.1428528), wk =   0.0625000
        k(    3) = (  -0.3408390  -0.2793937   0.2857056), wk =   0.0312500
        k(    4) = (   0.2013457  -0.1574952   0.1559807), wk =   0.0625000
        k(    5) = (   0.3717652  -0.0177983   0.0131279), wk =   0.0625000
        k(    6) = (  -0.1394932  -0.4368889   0.4416863), wk =   0.0625000
        k(    7) = (   0.0309262  -0.2971920   0.2988335), wk =   0.0625000
        k(    8) = (  -0.4026915   0.3149903  -0.3119614), wk =   0.0312500
        k(    9) = (  -0.2322720   0.4546872  -0.4548142), wk =   0.0625000
        k(   10) = (  -0.7435304   0.0355966  -0.0262558), wk =   0.0312500
        k(   11) = (  -0.1882178   0.1852902   0.1706478), wk =   0.0625000
        k(   12) = (  -0.0177983   0.3249871   0.0277950), wk =   0.0625000
        k(   13) = (  -0.5290568  -0.0941035   0.4563534), wk =   0.0625000
        k(   14) = (  -0.3586373   0.0455934   0.3135006), wk =   0.0625000
        k(   15) = (   0.0131279   0.0277950   0.3266286), wk =   0.0625000
        k(   16) = (   0.1835474   0.1674919   0.1837758), wk =   0.0625000
        k(   17) = (  -0.3277111  -0.2515987   0.6123341), wk =   0.0625000
        k(   18) = (  -0.1572916  -0.1119018   0.4694813), wk =   0.0625000
        k(   19) = (  -0.5909093   0.5002806  -0.1413136), wk =   0.0625000
        k(   20) = (  -0.4204898   0.6399774  -0.2841664), wk =   0.0625000
        k(   21) = (  -0.9317483   0.2208869   0.1443920), wk =   0.0625000
        k(   22) = (  -0.7613288   0.3605837   0.0015392), wk =   0.0625000
        k(   23) = (  -0.3895635   0.3427854   0.0146671), wk =   0.0625000
        k(   24) = (  -0.2191441   0.4824822  -0.1281857), wk =   0.0625000
        k(   25) = (  -0.7304025   0.0633917   0.3003727), wk =   0.0625000
        k(   26) = (  -0.5599830   0.2030885   0.1575199), wk =   0.0625000
        k(   27) = (   0.3764356  -0.3705804  -0.3412957), wk =   0.0312500
        k(   28) = (   0.5468551  -0.2308836  -0.4841485), wk =   0.0625000
        k(   29) = (   0.0355966  -0.6499741  -0.0555901), wk =   0.0312500
        k(   30) = (   0.5777814  -0.5280756  -0.1853150), wk =   0.0625000
        k(   31) = (   0.7482008  -0.3883788  -0.3281678), wk =   0.0625000
        k(   32) = (   0.2369424  -0.8074693   0.1003906), wk =   0.0625000
        k(   33) = (   0.4073619  -0.6677725  -0.0424622), wk =   0.0625000
        k(   34) = (  -0.0262558  -0.0555901  -0.6532571), wk =   0.0312500
        k(   35) = (   0.1441636   0.0841068  -0.7961099), wk =   0.0625000
        k(   36) = (  -0.3670948  -0.3349838  -0.3675515), wk =   0.0312500

                       cryst. coord.
        k(    1) = (   0.0000000   0.0000000   0.0000000), wk =   0.0312500
        k(    2) = (   0.0000000   0.0000000   0.2500000), wk =   0.0625000
        k(    3) = (  -0.0000000   0.0000000  -0.5000000), wk =   0.0312500
        k(    4) = (   0.0000000   0.2500000   0.0000000), wk =   0.0625000
        k(    5) = (   0.0000000   0.2500000   0.2500000), wk =   0.0625000
        k(    6) = (  -0.0000000   0.2500000  -0.5000000), wk =   0.0625000
        k(    7) = (  -0.0000000   0.2500000  -0.2500000), wk =   0.0625000
        k(    8) = (   0.0000000  -0.5000000  -0.0000000), wk =   0.0312500
        k(    9) = (   0.0000000  -0.5000000   0.2500000), wk =   0.0625000
        k(   10) = (  -0.0000000  -0.5000000  -0.5000000), wk =   0.0312500
        k(   11) = (   0.2500000   0.0000000  -0.0000000), wk =   0.0625000
        k(   12) = (   0.2500000   0.0000000   0.2500000), wk =   0.0625000
        k(   13) = (   0.2500000   0.0000000  -0.5000000), wk =   0.0625000
        k(   14) = (   0.2500000   0.0000000  -0.2500000), wk =   0.0625000
        k(   15) = (   0.2500000   0.2500000  -0.0000000), wk =   0.0625000
        k(   16) = (   0.2500000   0.2500000   0.2500000), wk =   0.0625000
        k(   17) = (   0.2500000   0.2500000  -0.5000000), wk =   0.0625000
        k(   18) = (   0.2500000   0.2500000  -0.2500000), wk =   0.0625000
        k(   19) = (   0.2500000  -0.5000000  -0.0000000), wk =   0.0625000
        k(   20) = (   0.2500000  -0.5000000   0.2500000), wk =   0.0625000
        k(   21) = (   0.2500000  -0.5000000  -0.5000000), wk =   0.0625000
        k(   22) = (   0.2500000  -0.5000000  -0.2500000), wk =   0.0625000
        k(   23) = (   0.2500000  -0.2500000  -0.0000000), wk =   0.0625000
        k(   24) = (   0.2500000  -0.2500000   0.2500000), wk =   0.0625000
        k(   25) = (   0.2500000  -0.2500000  -0.5000000), wk =   0.0625000
        k(   26) = (   0.2500000  -0.2500000  -0.2500000), wk =   0.0625000
        k(   27) = (  -0.5000000  -0.0000000   0.0000000), wk =   0.0312500
        k(   28) = (  -0.5000000   0.0000000   0.2500000), wk =   0.0625000
        k(   29) = (  -0.5000000  -0.0000000  -0.5000000), wk =   0.0312500
        k(   30) = (  -0.5000000   0.2500000  -0.0000000), wk =   0.0625000
        k(   31) = (  -0.5000000   0.2500000   0.2500000), wk =   0.0625000
        k(   32) = (  -0.5000000   0.2500000  -0.5000000), wk =   0.0625000
        k(   33) = (  -0.5000000   0.2500000  -0.2500000), wk =   0.0625000
        k(   34) = (  -0.5000000  -0.5000000   0.0000000), wk =   0.0312500
        k(   35) = (  -0.5000000  -0.5000000   0.2500000), wk =   0.0625000
        k(   36) = (  -0.5000000  -0.5000000  -0.5000000), wk =   0.0312500

     Dense  grid:    69221 G-vectors     FFT dimensions: (  60,  54,  60)

     Smooth grid:    49531 G-vectors     FFT dimensions: (  50,  50,  54)

     Largest allocated arrays     est. size (Mb)     dimensions
        Kohn-Sham Wavefunctions         0.39 Mb     (     398,   64)
        NL pseudopotentials             1.53 Mb     (     398,  252)
        Each V/rho on FFT grid          0.20 Mb     (   12960)
        Each G-vector array             0.03 Mb     (    4327)
        G-vector shells                 0.03 Mb     (    4152)
     Largest temporary arrays     est. size (Mb)     dimensions
        Auxiliary wavefunctions         1.55 Mb     (     398,  256)
        Each subspace H/S matrix        1.00 Mb     (     256,  256)
        Each <psi_i|beta_j> matrix      0.25 Mb     (     252,   64)
        Arrays for rho mixing           1.58 Mb     (   12960,    8)

     Check: negative/imaginary core charge=   -0.000003    0.000000

     Initial potential from superposition of free atoms

     starting charge  126.77837, renormalised to  128.00000
     Starting wfc are   92 randomized atomic wfcs

     total cpu time spent up to now is       16.6 secs

     Self-consistent Calculation

     iteration #  1     ecut=    40.00 Ry     beta=0.30
     Davidson diagonalization with overlap
     ethr =  1.00E-02,  avg # of iterations =  2.0

     total cpu time spent up to now is       52.2 secs

     total energy              =   -1059.61471232 Ry
     Harris-Foulkes estimate   =   -1060.35247140 Ry
     estimated scf accuracy    <       3.83722413 Ry

     iteration #  2     ecut=    40.00 Ry     beta=0.30
     Davidson diagonalization with overlap
     ethr =  3.00E-03,  avg # of iterations =  2.0

     total cpu time spent up to now is       84.6 secs

     total energy              =   -1059.10601387 Ry
     Harris-Foulkes estimate   =   -1059.74180315 Ry
     estimated scf accuracy    <       1.60597152 Ry

     iteration #  3     ecut=    40.00 Ry     beta=0.30
     Davidson diagonalization with overlap
     ethr =  1.25E-03,  avg # of iterations =  2.0

     total cpu time spent up to now is      124.1 secs

     total energy              =   -1059.35428464 Ry
     Harris-Foulkes estimate   =   -1059.40169992 Ry
     estimated scf accuracy    <       0.17143055 Ry

     iteration #  4     ecut=    40.00 Ry     beta=0.30
     Davidson diagonalization with overlap
     ethr =  1.34E-04,  avg # of iterations =  2.0

     total cpu time spent up to now is      163.9 secs

     total energy              =   -1059.32370233 Ry
     Harris-Foulkes estimate   =   -1059.37885968 Ry
     estimated scf accuracy    <       0.11140222 Ry

     iteration #  5     ecut=    40.00 Ry     beta=0.30
     Davidson diagonalization with overlap
     ethr =  8.70E-05,  avg # of iterations =  2.0

     total cpu time spent up to now is      202.4 secs

     total energy              =   -1059.33822348 Ry
     Harris-Foulkes estimate   =   -1059.33974559 Ry
     estimated scf accuracy    <       0.01032994 Ry

     iteration #  6     ecut=    40.00 Ry     beta=0.30
     Davidson diagonalization with overlap
     ethr =  8.07E-06,  avg # of iterations =  1.5

     total cpu time spent up to now is      233.4 secs

     total energy              =   -1059.33683074 Ry
     Harris-Foulkes estimate   =   -1059.33869130 Ry
     estimated scf accuracy    <       0.00667360 Ry

     iteration #  7     ecut=    40.00 Ry     beta=0.30
     Davidson diagonalization with overlap
     ethr =  5.21E-06,  avg # of iterations =  2.0

     total cpu time spent up to now is      276.4 secs

     total energy              =   -1059.33630757 Ry
     Harris-Foulkes estimate   =   -1059.33726480 Ry
     estimated scf accuracy    <       0.00377970 Ry

     iteration #  8     ecut=    40.00 Ry     beta=0.30
     Davidson diagonalization with overlap
     ethr =  2.95E-06,  avg # of iterations =  2.0

     total cpu time spent up to now is      319.9 secs

     total energy              =   -1059.33627514 Ry
     Harris-Foulkes estimate   =   -1059.33656211 Ry
     estimated scf accuracy    <       0.00073513 Ry

     iteration #  9     ecut=    40.00 Ry     beta=0.30
     Davidson diagonalization with overlap
     ethr =  5.74E-07,  avg # of iterations =  2.2

     total cpu time spent up to now is      362.7 secs

     total energy              =   -1059.33635405 Ry
     Harris-Foulkes estimate   =   -1059.33637334 Ry
     estimated scf accuracy    <       0.00009224 Ry

     iteration # 10     ecut=    40.00 Ry     beta=0.30
     Davidson diagonalization with overlap
     ethr =  7.21E-08,  avg # of iterations =  2.0

     total cpu time spent up to now is      401.7 secs

     total energy              =   -1059.33633997 Ry
     Harris-Foulkes estimate   =   -1059.33636521 Ry
     estimated scf accuracy    <       0.00007172 Ry

     iteration # 11     ecut=    40.00 Ry     beta=0.30
     Davidson diagonalization with overlap
     ethr =  5.60E-08,  avg # of iterations =  2.0

     total cpu time spent up to now is      438.6 secs

     total energy              =   -1059.33634664 Ry
     Harris-Foulkes estimate   =   -1059.33634840 Ry
     estimated scf accuracy    <       0.00000711 Ry

     iteration # 12     ecut=    40.00 Ry     beta=0.30
     Davidson diagonalization with overlap
     ethr =  5.55E-09,  avg # of iterations =  1.4

     total cpu time spent up to now is      467.8 secs

     total energy              =   -1059.33634533 Ry
     Harris-Foulkes estimate   =   -1059.33634694 Ry
     estimated scf accuracy    <       0.00000370 Ry

     iteration # 13     ecut=    40.00 Ry     beta=0.30
     Davidson diagonalization with overlap
     ethr =  2.89E-09,  avg # of iterations =  2.2

     total cpu time spent up to now is      507.9 secs

     total energy              =   -1059.33634586 Ry
     Harris-Foulkes estimate   =   -1059.33634588 Ry
     estimated scf accuracy    <       0.00000032 Ry

     iteration # 14     ecut=    40.00 Ry     beta=0.30
     Davidson diagonalization with overlap
     ethr =  2.53E-10,  avg # of iterations =  2.0

     total cpu time spent up to now is      544.9 secs

     total energy              =   -1059.33634584 Ry
     Harris-Foulkes estimate   =   -1059.33634589 Ry
     estimated scf accuracy    <       0.00000015 Ry

     iteration # 15     ecut=    40.00 Ry     beta=0.30
     Davidson diagonalization with overlap
     ethr =  1.20E-10,  avg # of iterations =  2.0

     total cpu time spent up to now is      581.0 secs

     total energy              =   -1059.33634584 Ry
     Harris-Foulkes estimate   =   -1059.33634585 Ry
     estimated scf accuracy    <       0.00000005 Ry

     iteration # 16     ecut=    40.00 Ry     beta=0.30
     Davidson diagonalization with overlap
     ethr =  3.76E-11,  avg # of iterations =  2.0

     total cpu time spent up to now is      618.6 secs

     total energy              =   -1059.33634584 Ry
     Harris-Foulkes estimate   =   -1059.33634584 Ry
     estimated scf accuracy    <       0.00000001 Ry

     iteration # 17     ecut=    40.00 Ry     beta=0.30
     Davidson diagonalization with overlap
     ethr =  8.52E-12,  avg # of iterations =  2.7

     total cpu time spent up to now is      658.8 secs

     total energy              =   -1059.33634584 Ry
     Harris-Foulkes estimate   =   -1059.33634584 Ry
     estimated scf accuracy    <          2.3E-09 Ry

     iteration # 18     ecut=    40.00 Ry     beta=0.30
     Davidson diagonalization with overlap
     ethr =  1.83E-12,  avg # of iterations =  1.1

     total cpu time spent up to now is      690.7 secs

     total energy              =   -1059.33634584 Ry
     Harris-Foulkes estimate   =   -1059.33634584 Ry
     estimated scf accuracy    <          1.4E-09 Ry

     iteration # 19     ecut=    40.00 Ry     beta=0.30
     Davidson diagonalization with overlap
     ethr =  1.09E-12,  avg # of iterations =  2.0

     total cpu time spent up to now is      728.7 secs

     total energy              =   -1059.33634584 Ry
     Harris-Foulkes estimate   =   -1059.33634584 Ry
     estimated scf accuracy    <          4.9E-10 Ry

     iteration # 20     ecut=    40.00 Ry     beta=0.30
     Davidson diagonalization with overlap
     ethr =  3.81E-13,  avg # of iterations =  2.0

     total cpu time spent up to now is      765.4 secs

     total energy              =   -1059.33634584 Ry
     Harris-Foulkes estimate   =   -1059.33634584 Ry
     estimated scf accuracy    <          2.6E-10 Ry

     iteration # 21     ecut=    40.00 Ry     beta=0.30
     Davidson diagonalization with overlap
     ethr =  1.99E-13,  avg # of iterations =  2.0

     total cpu time spent up to now is      802.6 secs

     total energy              =   -1059.33634584 Ry
     Harris-Foulkes estimate   =   -1059.33634584 Ry
     estimated scf accuracy    <          1.0E-10 Ry

     iteration # 22     ecut=    40.00 Ry     beta=0.30
     Davidson diagonalization with overlap
     ethr =  1.00E-13,  avg # of iterations =  2.0

     total cpu time spent up to now is      841.4 secs

     End of self-consistent calculation

          k = 0.0000 0.0000 0.0000 (  6177 PWs)   bands (ev):

   -66.8492 -66.8113 -66.7032 -66.4292 -33.8540 -33.8334 -33.8113 -33.7747
   -33.7636 -33.7589 -33.7552 -33.6593 -33.6439 -33.5109 -33.3832 -33.3364
   -31.8744 -31.3340 -31.1722 -31.1227 -13.6052 -13.3579 -13.2489 -12.9362
   -12.8976 -12.6684 -12.5644 -12.5027 -12.4029 -12.3231 -12.2995 -12.2841
    -9.7652  -9.2874  -9.2485  -8.9509  -8.7442  -8.6430  -8.3877  -8.2279
     2.3869   2.8592   3.0742   3.4572   3.5584   3.7369   4.1098   4.3907
     4.5487   4.6190   4.7754   4.9151   5.1107   5.2372   5.3235   5.3905
     5.4679   5.5209   5.6243   5.8475   5.9170   6.0319   6.1592   6.2943

     occupation numbers 
     1.0000   1.0000   1.0000   1.0000   1.0000   1.0000   1.0000   1.0000
     1.0000   1.0000   1.0000   1.0000   1.0000   1.0000   1.0000   1.0000
     1.0000   1.0000   1.0000   1.0000   1.0000   1.0000   1.0000   1.0000
     1.0000   1.0000   1.0000   1.0000   1.0000   1.0000   1.0000   1.0000
     1.0000   1.0000   1.0000   1.0000   1.0000   1.0000   1.0000   1.0000
     1.0000   1.0000   1.0000   1.0000   1.0000   1.0000   1.0000   1.0000
     1.0000   1.0000   1.0000   1.0000   1.0000   1.0000   1.0000   1.0000
     1.0000   1.0000   1.0000   1.0000   1.0000   1.0000   1.0000   1.0000

          k = 0.1704 0.1397-0.1429 (  6178 PWs)   bands (ev):

   -66.8492 -66.8113 -66.7032 -66.4292 -33.8540 -33.8334 -33.8112 -33.7746
   -33.7635 -33.7591 -33.7553 -33.6593 -33.6439 -33.5109 -33.3832 -33.3364
   -31.8743 -31.3340 -31.1724 -31.1226 -13.5969 -13.3386 -13.2165 -12.9493
   -12.8979 -12.6659 -12.5774 -12.5098 -12.4147 -12.3837 -12.3090 -12.2828
    -9.6395  -9.2792  -9.2123  -8.9171  -8.7775  -8.6473  -8.4802  -8.2627
     2.5161   2.9745   3.2578   3.4440   3.6012   3.8007   4.0140   4.2675
     4.4845   4.5625   4.7099   4.8746   5.0017   5.1312   5.2557   5.3458
     5.4185   5.4855   5.6254   5.7969   5.9154   6.0016   6.1184   6.2692

     occupation numbers 
     1.0000   1.0000   1.0000   1.0000   1.0000   1.0000   1.0000   1.0000
     1.0000   1.0000   1.0000   1.0000   1.0000   1.0000   1.0000   1.0000
     1.0000   1.0000   1.0000   1.0000   1.0000   1.0000   1.0000   1.0000
     1.0000   1.0000   1.0000   1.0000   1.0000   1.0000   1.0000   1.0000
     1.0000   1.0000   1.0000   1.0000   1.0000   1.0000   1.0000   1.0000
     1.0000   1.0000   1.0000   1.0000   1.0000   1.0000   1.0000   1.0000
     1.0000   1.0000   1.0000   1.0000   1.0000   1.0000   1.0000   1.0000
     1.0000   1.0000   1.0000   1.0000   1.0000   1.0000   1.0000   1.0000

          k =-0.3408-0.2794 0.2857 (  6182 PWs)   bands (ev):

   -66.8492 -66.8113 -66.7032 -66.4292 -33.8540 -33.8334 -33.8112 -33.7745
   -33.7634 -33.7592 -33.7554 -33.6593 -33.6439 -33.5109 -33.3832 -33.3364
   -31.8741 -31.3339 -31.1726 -31.1226 -13.5884 -13.3261 -13.1552 -12.9877
   -12.8923 -12.6649 -12.5946 -12.5090 -12.4627 -12.4103 -12.3188 -12.2819
    -9.4808  -9.2748  -9.1961  -8.8741  -8.7843  -8.6600  -8.6105  -8.2983
     2.6836   3.1611   3.2960   3.5604   3.7187   3.7999   4.0035   4.1824
     4.2535   4.3950   4.6196   4.6908   4.9394   5.0196   5.2794   5.3210
     5.4272   5.5231   5.5718   5.7886   5.9102   5.9970   6.0678   6.2496

     occupation numbers 
     1.0000   1.0000   1.0000   1.0000   1.0000   1.0000   1.0000   1.0000
     1.0000   1.0000   1.0000   1.0000   1.0000   1.0000   1.0000   1.0000
     1.0000   1.0000   1.0000   1.0000   1.0000   1.0000   1.0000   1.0000
     1.0000   1.0000   1.0000   1.0000   1.0000   1.0000   1.0000   1.0000
     1.0000   1.0000   1.0000   1.0000   1.0000   1.0000   1.0000   1.0000
     1.0000   1.0000   1.0000   1.0000   1.0000   1.0000   1.0000   1.0000
     1.0000   1.0000   1.0000   1.0000   1.0000   1.0000   1.0000   1.0000
     1.0000   1.0000   1.0000   1.0000   1.0000   1.0000   1.0000   1.0000

          k = 0.2013-0.1575 0.1560 (  6206 PWs)   bands (ev):

   -66.8492 -66.8113 -66.7032 -66.4292 -33.8539 -33.8332 -33.8112 -33.7747
   -33.7642 -33.7582 -33.7555 -33.6593 -33.6439 -33.5110 -33.3833 -33.3364
   -31.8725 -31.3355 -31.1721 -31.1233 -13.5048 -13.3175 -13.2224 -12.9355
   -12.9050 -12.6978 -12.6215 -12.5529 -12.4662 -12.3502 -12.3264 -12.2778
    -9.6286  -9.2969  -9.2003  -8.8777  -8.7536  -8.6718  -8.4718  -8.2925
     2.6071   3.0309   3.2974   3.5325   3.7157   3.8316   4.0799   4.3482
     4.5652   4.6197   4.6862   4.8869   4.9828   5.0530   5.1265   5.2609
     5.3816   5.4726   5.5785   5.6650   5.8337   5.9495   5.9902   6.0755

     occupation numbers 
     1.0000   1.0000   1.0000   1.0000   1.0000   1.0000   1.0000   1.0000
     1.0000   1.0000   1.0000   1.0000   1.0000   1.0000   1.0000   1.0000
     1.0000   1.0000   1.0000   1.0000   1.0000   1.0000   1.0000   1.0000
     1.0000   1.0000   1.0000   1.0000   1.0000   1.0000   1.0000   1.0000
     1.0000   1.0000   1.0000   1.0000   1.0000   1.0000   1.0000   1.0000
     1.0000   1.0000   1.0000   1.0000   1.0000   1.0000   1.0000   1.0000
     1.0000   1.0000   1.0000   1.0000   1.0000   1.0000   1.0000   1.0000
     1.0000   1.0000   1.0000   1.0000   1.0000   1.0000   1.0000   1.0000

          k = 0.3718-0.0178 0.0131 (  6189 PWs)   bands (ev):

   -66.8492 -66.8113 -66.7032 -66.4292 -33.8539 -33.8332 -33.8112 -33.7746
   -33.7641 -33.7583 -33.7556 -33.6593 -33.6439 -33.5110 -33.3833 -33.3364
   -31.8724 -31.3355 -31.1722 -31.1233 -13.5001 -13.2958 -13.1798 -12.9626
   -12.9262 -12.7000 -12.6367 -12.5683 -12.4675 -12.3782 -12.3124 -12.2807
    -9.5547  -9.3037  -9.1186  -8.8756  -8.7494  -8.6821  -8.5890  -8.2972
     2.6948   3.0307   3.3982   3.5851   3.7872   3.9054   4.0110   4.2988
     4.4923   4.5481   4.6269   4.7887   4.9457   5.0666   5.1537   5.2734
     5.3233   5.3950   5.5628   5.7065   5.7783   5.9568   5.9706   6.0744

     occupation numbers 
     1.0000   1.0000   1.0000   1.0000   1.0000   1.0000   1.0000   1.0000
     1.0000   1.0000   1.0000   1.0000   1.0000   1.0000   1.0000   1.0000
     1.0000   1.0000   1.0000   1.0000   1.0000   1.0000   1.0000   1.0000
     1.0000   1.0000   1.0000   1.0000   1.0000   1.0000   1.0000   1.0000
     1.0000   1.0000   1.0000   1.0000   1.0000   1.0000   1.0000   1.0000
     1.0000   1.0000   1.0000   1.0000   1.0000   1.0000   1.0000   1.0000
     1.0000   1.0000   1.0000   1.0000   1.0000   1.0000   1.0000   1.0000
     1.0000   1.0000   1.0000   1.0000   1.0000   1.0000   1.0000   1.0000

          k =-0.1395-0.4369 0.4417 (  6199 PWs)   bands (ev):

   -66.8492 -66.8113 -66.7032 -66.4292 -33.8539 -33.8332 -33.8112 -33.7745
   -33.7640 -33.7585 -33.7557 -33.6593 -33.6439 -33.5110 -33.3833 -33.3364
   -31.8722 -31.3354 -31.1724 -31.1233 -13.4888 -13.2899 -13.1544 -13.0008
   -12.9209 -12.7047 -12.6504 -12.5822 -12.4439 -12.3983 -12.3031 -12.2789
    -9.4525  -9.3309  -9.2437  -8.8579  -8.7658  -8.6757  -8.4868  -8.3492
     2.8758   3.1726   3.4291   3.6263   3.8306   3.9196   4.0516   4.1039
     4.2371   4.4440   4.6187   4.7586   4.8597   5.0015   5.0887   5.2103
     5.3600   5.4349   5.6021   5.7278   5.7503   5.9139   5.9732   6.0477

     occupation numbers 
     1.0000   1.0000   1.0000   1.0000   1.0000   1.0000   1.0000   1.0000
     1.0000   1.0000   1.0000   1.0000   1.0000   1.0000   1.0000   1.0000
     1.0000   1.0000   1.0000   1.0000   1.0000   1.0000   1.0000   1.0000
     1.0000   1.0000   1.0000   1.0000   1.0000   1.0000   1.0000   1.0000
     1.0000   1.0000   1.0000   1.0000   1.0000   1.0000   1.0000   1.0000
     1.0000   1.0000   1.0000   1.0000   1.0000   1.0000   1.0000   1.0000
     1.0000   1.0000   1.0000   1.0000   1.0000   1.0000   1.0000   1.0000
     1.0000   1.0000   1.0000   1.0000   1.0000   1.0000   1.0000   1.0000

          k = 0.0309-0.2972 0.2988 (  6194 PWs)   bands (ev):

   -66.8492 -66.8113 -66.7032 -66.4292 -33.8539 -33.8332 -33.8112 -33.7746
   -33.7641 -33.7584 -33.7555 -33.6593 -33.6439 -33.5110 -33.3833 -33.3364
   -31.8724 -31.3354 -31.1723 -31.1233 -13.4938 -13.3087 -13.2112 -12.9577
   -12.9077 -12.6975 -12.6225 -12.5738 -12.4567 -12.3876 -12.2928 -12.2755
    -9.5679  -9.3162  -9.2664  -8.8611  -8.7760  -8.6541  -8.3953  -8.3488
     2.7654   3.1814   3.3638   3.5084   3.6806   3.8592   4.1188   4.1766
     4.3704   4.5750   4.7085   4.8495   4.9708   4.9912   5.0341   5.1486
     5.3747   5.5007   5.5634   5.6952   5.8565   5.9140   5.9509   6.0583

     occupation numbers 
     1.0000   1.0000   1.0000   1.0000   1.0000   1.0000   1.0000   1.0000
     1.0000   1.0000   1.0000   1.0000   1.0000   1.0000   1.0000   1.0000
     1.0000   1.0000   1.0000   1.0000   1.0000   1.0000   1.0000   1.0000
     1.0000   1.0000   1.0000   1.0000   1.0000   1.0000   1.0000   1.0000
     1.0000   1.0000   1.0000   1.0000   1.0000   1.0000   1.0000   1.0000
     1.0000   1.0000   1.0000   1.0000   1.0000   1.0000   1.0000   1.0000
     1.0000   1.0000   1.0000   1.0000   1.0000   1.0000   1.0000   1.0000
     1.0000   1.0000   1.0000   1.0000   1.0000   1.0000   1.0000   1.0000

          k =-0.4027 0.3150-0.3120 (  6198 PWs)   bands (ev):

   -66.8492 -66.8113 -66.7032 -66.4292 -33.8538 -33.8331 -33.8112 -33.7747
   -33.7647 -33.7574 -33.7559 -33.6593 -33.6440 -33.5111 -33.3833 -33.3364
   -31.8706 -31.3369 -31.1719 -31.1240 -13.3397 -13.2847 -13.2067 -12.9579
   -12.9168 -12.7671 -12.6917 -12.5957 -12.5010 -12.3857 -12.3405 -12.2741
    -9.4041  -9.3926  -9.1174  -8.8045  -8.7913  -8.6854  -8.5621  -8.3774
     3.0168   3.2909   3.3659   3.5804   3.9137   3.9845   4.0716   4.3740
     4.3856   4.5080   4.6289   4.7279   4.8453   4.9367   5.0619   5.1070
     5.2717   5.3109   5.4823   5.5595   5.6743   5.8420   5.9548   6.0052

     occupation numbers 
     1.0000   1.0000   1.0000   1.0000   1.0000   1.0000   1.0000   1.0000
     1.0000   1.0000   1.0000   1.0000   1.0000   1.0000   1.0000   1.0000
     1.0000   1.0000   1.0000   1.0000   1.0000   1.0000   1.0000   1.0000
     1.0000   1.0000   1.0000   1.0000   1.0000   1.0000   1.0000   1.0000
     1.0000   1.0000   1.0000   1.0000   1.0000   1.0000   1.0000   1.0000
     1.0000   1.0000   1.0000   1.0000   1.0000   1.0000   1.0000   1.0000
     1.0000   1.0000   1.0000   1.0000   1.0000   1.0000   1.0000   1.0000
     1.0000   1.0000   1.0000   1.0000   1.0000   1.0000   1.0000   1.0000

          k =-0.2323 0.4547-0.4548 (  6206 PWs)   bands (ev):

   -66.8492 -66.8113 -66.7032 -66.4292 -33.8538 -33.8331 -33.8111 -33.7746
   -33.7646 -33.7576 -33.7560 -33.6593 -33.6440 -33.5111 -33.3833 -33.3364
   -31.8705 -31.3370 -31.1721 -31.1239 -13.3299 -13.2786 -13.1861 -12.9731
   -12.9594 -12.7732 -12.7218 -12.5787 -12.4796 -12.3841 -12.3108 -12.2755
    -9.4105  -9.3879  -9.2221  -8.7969  -8.7753  -8.6756  -8.4793  -8.3934
     3.0771   3.2636   3.4629   3.5942   3.8757   3.9532   4.1043   4.2809
     4.3876   4.5313   4.6537   4.7050   4.7567   4.9010   5.0287   5.1557
     5.2191   5.4071   5.4182   5.5900   5.6685   5.8230   5.9040   6.0078

     occupation numbers 
     1.0000   1.0000   1.0000   1.0000   1.0000   1.0000   1.0000   1.0000
     1.0000   1.0000   1.0000   1.0000   1.0000   1.0000   1.0000   1.0000
     1.0000   1.0000   1.0000   1.0000   1.0000   1.0000   1.0000   1.0000
     1.0000   1.0000   1.0000   1.0000   1.0000   1.0000   1.0000   1.0000
     1.0000   1.0000   1.0000   1.0000   1.0000   1.0000   1.0000   1.0000
     1.0000   1.0000   1.0000   1.0000   1.0000   1.0000   1.0000   1.0000
     1.0000   1.0000   1.0000   1.0000   1.0000   1.0000   1.0000   1.0000
     1.0000   1.0000   1.0000   1.0000   1.0000   1.0000   1.0000   1.0000

          k =-0.7435 0.0356-0.0263 (  6220 PWs)   bands (ev):

   -66.8492 -66.8113 -66.7032 -66.4292 -33.8538 -33.8331 -33.8111 -33.7745
   -33.7645 -33.7578 -33.7561 -33.6593 -33.6440 -33.5111 -33.3834 -33.3364
   -31.8703 -31.3370 -31.1722 -31.1239 -13.3206 -13.2715 -13.1611 -13.0112
   -12.9709 -12.7920 -12.7390 -12.5780 -12.4662 -12.3658 -12.2835 -12.2796
    -9.4159  -9.3878  -9.3007  -8.7910  -8.7685  -8.6595  -8.4307  -8.3935
     3.1118   3.2705   3.5839   3.6554   3.7946   3.9312   4.0792   4.2772
     4.3640   4.4810   4.6175   4.6886   4.7774   4.8926   4.9380   5.1053
     5.3172   5.3592   5.4896   5.5215   5.6522   5.8472   5.8849   6.0079

     occupation numbers 
     1.0000   1.0000   1.0000   1.0000   1.0000   1.0000   1.0000   1.0000
     1.0000   1.0000   1.0000   1.0000   1.0000   1.0000   1.0000   1.0000
     1.0000   1.0000   1.0000   1.0000   1.0000   1.0000   1.0000   1.0000
     1.0000   1.0000   1.0000   1.0000   1.0000   1.0000   1.0000   1.0000
     1.0000   1.0000   1.0000   1.0000   1.0000   1.0000   1.0000   1.0000
     1.0000   1.0000   1.0000   1.0000   1.0000   1.0000   1.0000   1.0000
     1.0000   1.0000   1.0000   1.0000   1.0000   1.0000   1.0000   1.0000
     1.0000   1.0000   1.0000   1.0000   1.0000   1.0000   1.0000   1.0000

          k =-0.1882 0.1853 0.1706 (  6180 PWs)   bands (ev):

   -66.8492 -66.8113 -66.7032 -66.4292 -33.8541 -33.8333 -33.8112 -33.7746
   -33.7634 -33.7590 -33.7552 -33.6593 -33.6439 -33.5110 -33.3833 -33.3364
   -31.8731 -31.3340 -31.1722 -31.1242 -13.5374 -13.3277 -13.2010 -12.9475
   -12.8478 -12.7006 -12.6093 -12.5616 -12.4165 -12.3677 -12.3554 -12.3102
    -9.6177  -9.2699  -9.1941  -8.8892  -8.7820  -8.6531  -8.4865  -8.2982
     2.5932   3.0634   3.3324   3.6241   3.7459   3.8121   4.1326   4.3275
     4.5284   4.6650   4.7116   4.7907   4.9758   5.0376   5.1625   5.2344
     5.3423   5.3787   5.4474   5.6672   5.7115   5.9274   6.0442   6.1951

     occupation numbers 
     1.0000   1.0000   1.0000   1.0000   1.0000   1.0000   1.0000   1.0000
     1.0000   1.0000   1.0000   1.0000   1.0000   1.0000   1.0000   1.0000
     1.0000   1.0000   1.0000   1.0000   1.0000   1.0000   1.0000   1.0000
     1.0000   1.0000   1.0000   1.0000   1.0000   1.0000   1.0000   1.0000
     1.0000   1.0000   1.0000   1.0000   1.0000   1.0000   1.0000   1.0000
     1.0000   1.0000   1.0000   1.0000   1.0000   1.0000   1.0000   1.0000
     1.0000   1.0000   1.0000   1.0000   1.0000   1.0000   1.0000   1.0000
     1.0000   1.0000   1.0000   1.0000   1.0000   1.0000   1.0000   1.0000

          k =-0.0178 0.3250 0.0278 (  6186 PWs)   bands (ev):

   -66.8492 -66.8113 -66.7032 -66.4292 -33.8541 -33.8333 -33.8113 -33.7748
   -33.7635 -33.7589 -33.7551 -33.6593 -33.6439 -33.5110 -33.3833 -33.3364
   -31.8732 -31.3339 -31.1722 -31.1241 -13.5444 -13.3501 -13.2345 -12.9240
   -12.8350 -12.6936 -12.6022 -12.5429 -12.4315 -12.3707 -12.3250 -12.3009
    -9.6302  -9.3176  -9.2306  -8.9067  -8.8066  -8.6538  -8.3919  -8.2743
     2.6225   3.0520   3.2819   3.5858   3.6967   3.8293   4.1223   4.3533
     4.4739   4.6382   4.7731   4.8160   4.9188   5.0495   5.1542   5.2214
     5.3288   5.3657   5.5171   5.6841   5.8150   5.8644   6.0470   6.2441

     occupation numbers 
     1.0000   1.0000   1.0000   1.0000   1.0000   1.0000   1.0000   1.0000
     1.0000   1.0000   1.0000   1.0000   1.0000   1.0000   1.0000   1.0000
     1.0000   1.0000   1.0000   1.0000   1.0000   1.0000   1.0000   1.0000
     1.0000   1.0000   1.0000   1.0000   1.0000   1.0000   1.0000   1.0000
     1.0000   1.0000   1.0000   1.0000   1.0000   1.0000   1.0000   1.0000
     1.0000   1.0000   1.0000   1.0000   1.0000   1.0000   1.0000   1.0000
     1.0000   1.0000   1.0000   1.0000   1.0000   1.0000   1.0000   1.0000
     1.0000   1.0000   1.0000   1.0000   1.0000   1.0000   1.0000   1.0000

          k =-0.5291-0.0941 0.4564 (  6181 PWs)   bands (ev):

   -66.8492 -66.8113 -66.7032 -66.4292 -33.8541 -33.8333 -33.8112 -33.7746
   -33.7635 -33.7590 -33.7552 -33.6593 -33.6439 -33.5110 -33.3834 -33.3364
   -31.8730 -31.3338 -31.1723 -31.1241 -13.5335 -13.3298 -13.2044 -12.9427
   -12.8338 -12.6959 -12.5950 -12.5670 -12.4514 -12.3893 -12.3482 -12.3105
    -9.4761  -9.3030  -9.2405  -8.8811  -8.8237  -8.6573  -8.4798  -8.3143
     2.8031   3.2210   3.4239   3.5741   3.7716   3.9137   4.0965   4.2063
     4.2586   4.4722   4.5730   4.7815   4.8770   4.9853   5.0936   5.1961
     5.2957   5.4258   5.5183   5.7099   5.7941   5.8675   6.0248   6.2003

     occupation numbers 
     1.0000   1.0000   1.0000   1.0000   1.0000   1.0000   1.0000   1.0000
     1.0000   1.0000   1.0000   1.0000   1.0000   1.0000   1.0000   1.0000
     1.0000   1.0000   1.0000   1.0000   1.0000   1.0000   1.0000   1.0000
     1.0000   1.0000   1.0000   1.0000   1.0000   1.0000   1.0000   1.0000
     1.0000   1.0000   1.0000   1.0000   1.0000   1.0000   1.0000   1.0000
     1.0000   1.0000   1.0000   1.0000   1.0000   1.0000   1.0000   1.0000
     1.0000   1.0000   1.0000   1.0000   1.0000   1.0000   1.0000   1.0000
     1.0000   1.0000   1.0000   1.0000   1.0000   1.0000   1.0000   1.0000

          k =-0.3586 0.0456 0.3135 (  6193 PWs)   bands (ev):

   -66.8492 -66.8113 -66.7032 -66.4292 -33.8541 -33.8333 -33.8112 -33.7745
   -33.7634 -33.7591 -33.7553 -33.6593 -33.6440 -33.5110 -33.3834 -33.3364
   -31.8729 -31.3339 -31.1724 -31.1241 -13.5263 -13.3140 -13.1419 -12.9856
   -12.8463 -12.7045 -12.6232 -12.5765 -12.4287 -12.4049 -12.3626 -12.3138
    -9.4915  -9.2754  -9.1239  -8.8782  -8.7782  -8.6625  -8.6048  -8.3416
     2.7622   3.2170   3.5031   3.6703   3.7722   3.9871   4.0228   4.1432
     4.3133   4.4963   4.5663   4.7605   4.9091   4.9967   5.0733   5.1757
     5.3180   5.3608   5.4733   5.6757   5.8335   5.8994   5.9979   6.1538

     occupation numbers 
     1.0000   1.0000   1.0000   1.0000   1.0000   1.0000   1.0000   1.0000
     1.0000   1.0000   1.0000   1.0000   1.0000   1.0000   1.0000   1.0000
     1.0000   1.0000   1.0000   1.0000   1.0000   1.0000   1.0000   1.0000
     1.0000   1.0000   1.0000   1.0000   1.0000   1.0000   1.0000   1.0000
     1.0000   1.0000   1.0000   1.0000   1.0000   1.0000   1.0000   1.0000
     1.0000   1.0000   1.0000   1.0000   1.0000   1.0000   1.0000   1.0000
     1.0000   1.0000   1.0000   1.0000   1.0000   1.0000   1.0000   1.0000
     1.0000   1.0000   1.0000   1.0000   1.0000   1.0000   1.0000   1.0000

          k = 0.0131 0.0278 0.3266 (  6201 PWs)   bands (ev):

   -66.8492 -66.8113 -66.7032 -66.4292 -33.8538 -33.8331 -33.8112 -33.7746
   -33.7641 -33.7584 -33.7556 -33.6593 -33.6439 -33.5109 -33.3833 -33.3364
   -31.8734 -31.3326 -31.1723 -31.1251 -13.5422 -13.3216 -13.2142 -12.9579
   -12.8443 -12.6674 -12.5875 -12.5124 -12.4810 -12.3981 -12.3430 -12.3028
    -9.6407  -9.3245  -9.2239  -8.8829  -8.7568  -8.6467  -8.4042  -8.3137
     2.6189   3.1114   3.3023   3.5685   3.6990   3.7860   4.1606   4.2952
     4.5108   4.6110   4.6526   4.8391   4.9173   5.0117   5.1646   5.2454
     5.3958   5.4509   5.5487   5.6432   5.7350   5.9570   6.0264   6.2092

     occupation numbers 
     1.0000   1.0000   1.0000   1.0000   1.0000   1.0000   1.0000   1.0000
     1.0000   1.0000   1.0000   1.0000   1.0000   1.0000   1.0000   1.0000
     1.0000   1.0000   1.0000   1.0000   1.0000   1.0000   1.0000   1.0000
     1.0000   1.0000   1.0000   1.0000   1.0000   1.0000   1.0000   1.0000
     1.0000   1.0000   1.0000   1.0000   1.0000   1.0000   1.0000   1.0000
     1.0000   1.0000   1.0000   1.0000   1.0000   1.0000   1.0000   1.0000
     1.0000   1.0000   1.0000   1.0000   1.0000   1.0000   1.0000   1.0000
     1.0000   1.0000   1.0000   1.0000   1.0000   1.0000   1.0000   1.0000

          k = 0.1835 0.1675 0.1838 (  6188 PWs)   bands (ev):

   -66.8492 -66.8113 -66.7032 -66.4292 -33.8539 -33.8332 -33.8112 -33.7748
   -33.7642 -33.7582 -33.7555 -33.6593 -33.6439 -33.5109 -33.3833 -33.3364
   -31.8735 -31.3326 -31.1721 -31.1252 -13.5513 -13.3312 -13.2306 -12.9266
   -12.8486 -12.6640 -12.5805 -12.5025 -12.4858 -12.3855 -12.3577 -12.3090
    -9.6119  -9.2985  -9.2053  -8.9080  -8.7627  -8.6721  -8.4787  -8.2590
     2.6030   3.0408   3.3231   3.6166   3.7152   3.7947   4.0267   4.3818
     4.5098   4.6203   4.6671   4.8020   4.9593   5.0571   5.1818   5.2994
     5.3487   5.4354   5.5302   5.6899   5.8244   5.8850   6.0184   6.2092

     occupation numbers 
     1.0000   1.0000   1.0000   1.0000   1.0000   1.0000   1.0000   1.0000
     1.0000   1.0000   1.0000   1.0000   1.0000   1.0000   1.0000   1.0000
     1.0000   1.0000   1.0000   1.0000   1.0000   1.0000   1.0000   1.0000
     1.0000   1.0000   1.0000   1.0000   1.0000   1.0000   1.0000   1.0000
     1.0000   1.0000   1.0000   1.0000   1.0000   1.0000   1.0000   1.0000
     1.0000   1.0000   1.0000   1.0000   1.0000   1.0000   1.0000   1.0000
     1.0000   1.0000   1.0000   1.0000   1.0000   1.0000   1.0000   1.0000
     1.0000   1.0000   1.0000   1.0000   1.0000   1.0000   1.0000   1.0000

          k =-0.3277-0.2516 0.6123 (  6181 PWs)   bands (ev):

   -66.8492 -66.8113 -66.7032 -66.4292 -33.8539 -33.8331 -33.8112 -33.7746
   -33.7642 -33.7583 -33.7557 -33.6593 -33.6439 -33.5109 -33.3833 -33.3364
   -31.8733 -31.3325 -31.1723 -31.1252 -13.5434 -13.3139 -13.1854 -12.9585
   -12.8381 -12.6607 -12.5968 -12.5179 -12.4810 -12.4320 -12.3817 -12.3112
    -9.4648  -9.2803  -9.1772  -8.8902  -8.7795  -8.6973  -8.5941  -8.2762
     2.8040   3.1368   3.4443   3.6525   3.7969   3.8682   4.0195   4.1900
     4.3169   4.5024   4.6127   4.6817   4.9416   5.0068   5.0660   5.1939
     5.3767   5.4203   5.5096   5.7231   5.8151   5.9077   5.9855   6.2021

     occupation numbers 
     1.0000   1.0000   1.0000   1.0000   1.0000   1.0000   1.0000   1.0000
     1.0000   1.0000   1.0000   1.0000   1.0000   1.0000   1.0000   1.0000
     1.0000   1.0000   1.0000   1.0000   1.0000   1.0000   1.0000   1.0000
     1.0000   1.0000   1.0000   1.0000   1.0000   1.0000   1.0000   1.0000
     1.0000   1.0000   1.0000   1.0000   1.0000   1.0000   1.0000   1.0000
     1.0000   1.0000   1.0000   1.0000   1.0000   1.0000   1.0000   1.0000
     1.0000   1.0000   1.0000   1.0000   1.0000   1.0000   1.0000   1.0000
     1.0000   1.0000   1.0000   1.0000   1.0000   1.0000   1.0000   1.0000

          k =-0.1573-0.1119 0.4695 (  6182 PWs)   bands (ev):

   -66.8492 -66.8113 -66.7032 -66.4292 -33.8539 -33.8332 -33.8112 -33.7745
   -33.7641 -33.7585 -33.7557 -33.6593 -33.6439 -33.5109 -33.3833 -33.3364
   -31.8732 -31.3325 -31.1725 -31.1251 -13.5343 -13.3053 -13.1552 -13.0009
   -12.8324 -12.6679 -12.6062 -12.5153 -12.4968 -12.4296 -12.3660 -12.3100
    -9.4930  -9.3083  -9.2090  -8.8750  -8.7690  -8.6685  -8.5035  -8.3302
     2.8078   3.2563   3.4570   3.5795   3.7442   3.8966   4.0471   4.1633
     4.3066   4.4777   4.5736   4.7266   4.8847   4.9992   5.0499   5.1922
     5.3799   5.4763   5.5181   5.6653   5.7721   5.9236   6.0040   6.1983

     occupation numbers 
     1.0000   1.0000   1.0000   1.0000   1.0000   1.0000   1.0000   1.0000
     1.0000   1.0000   1.0000   1.0000   1.0000   1.0000   1.0000   1.0000
     1.0000   1.0000   1.0000   1.0000   1.0000   1.0000   1.0000   1.0000
     1.0000   1.0000   1.0000   1.0000   1.0000   1.0000   1.0000   1.0000
     1.0000   1.0000   1.0000   1.0000   1.0000   1.0000   1.0000   1.0000
     1.0000   1.0000   1.0000   1.0000   1.0000   1.0000   1.0000   1.0000
     1.0000   1.0000   1.0000   1.0000   1.0000   1.0000   1.0000   1.0000
     1.0000   1.0000   1.0000   1.0000   1.0000   1.0000   1.0000   1.0000

          k =-0.5909 0.5003-0.1413 (  6209 PWs)   bands (ev):

   -66.8492 -66.8113 -66.7032 -66.4292 -33.8537 -33.8330 -33.8112 -33.7746
   -33.7647 -33.7576 -33.7561 -33.6593 -33.6440 -33.5111 -33.3834 -33.3364
   -31.8715 -31.3341 -31.1722 -31.1258 -13.4239 -13.2648 -13.1865 -12.9636
   -12.8821 -12.6995 -12.6694 -12.5815 -12.4919 -12.4211 -12.3502 -12.3197
    -9.4612  -9.3604  -9.1822  -8.8284  -8.7656  -8.6694  -8.4960  -8.3716
     2.9690   3.3324   3.5507   3.6063   3.8415   3.9171   4.0381   4.2570
     4.4413   4.5478   4.6175   4.7225   4.7995   4.9224   4.9784   5.0689
     5.2231   5.3930   5.5101   5.5452   5.7094   5.8668   5.9501   6.0161

     occupation numbers 
     1.0000   1.0000   1.0000   1.0000   1.0000   1.0000   1.0000   1.0000
     1.0000   1.0000   1.0000   1.0000   1.0000   1.0000   1.0000   1.0000
     1.0000   1.0000   1.0000   1.0000   1.0000   1.0000   1.0000   1.0000
     1.0000   1.0000   1.0000   1.0000   1.0000   1.0000   1.0000   1.0000
     1.0000   1.0000   1.0000   1.0000   1.0000   1.0000   1.0000   1.0000
     1.0000   1.0000   1.0000   1.0000   1.0000   1.0000   1.0000   1.0000
     1.0000   1.0000   1.0000   1.0000   1.0000   1.0000   1.0000   1.0000
     1.0000   1.0000   1.0000   1.0000   1.0000   1.0000   1.0000   1.0000

          k =-0.4205 0.6400-0.2842 (  6187 PWs)   bands (ev):

   -66.8492 -66.8113 -66.7032 -66.4292 -33.8537 -33.8330 -33.8112 -33.7748
   -33.7648 -33.7574 -33.7560 -33.6593 -33.6439 -33.5111 -33.3834 -33.3364
   -31.8716 -31.3341 -31.1720 -31.1258 -13.4354 -13.2765 -13.2053 -12.9238
   -12.8899 -12.6947 -12.6716 -12.5700 -12.4976 -12.3907 -12.3771 -12.3211
    -9.4470  -9.3493  -9.1230  -8.8515  -8.7596  -8.7021  -8.5759  -8.3313
     2.9375   3.2753   3.5306   3.6578   3.8117   3.9826   4.0850   4.2263
     4.4553   4.4828   4.6071   4.6956   4.8117   4.9463   5.0638   5.2136
     5.2530   5.2760   5.4211   5.6271   5.7367   5.8222   5.9636   6.0076

     occupation numbers 
     1.0000   1.0000   1.0000   1.0000   1.0000   1.0000   1.0000   1.0000
     1.0000   1.0000   1.0000   1.0000   1.0000   1.0000   1.0000   1.0000
     1.0000   1.0000   1.0000   1.0000   1.0000   1.0000   1.0000   1.0000
     1.0000   1.0000   1.0000   1.0000   1.0000   1.0000   1.0000   1.0000
     1.0000   1.0000   1.0000   1.0000   1.0000   1.0000   1.0000   1.0000
     1.0000   1.0000   1.0000   1.0000   1.0000   1.0000   1.0000   1.0000
     1.0000   1.0000   1.0000   1.0000   1.0000   1.0000   1.0000   1.0000
     1.0000   1.0000   1.0000   1.0000   1.0000   1.0000   1.0000   1.0000

          k =-0.9317 0.2209 0.1444 (  6176 PWs)   bands (ev):

   -66.8492 -66.8113 -66.7032 -66.4292 -33.8537 -33.8330 -33.8112 -33.7747
   -33.7647 -33.7576 -33.7561 -33.6593 -33.6440 -33.5111 -33.3834 -33.3364
   -31.8714 -31.3341 -31.1721 -31.1258 -13.4301 -13.2687 -13.1805 -12.9779
   -12.8954 -12.7055 -12.6795 -12.5709 -12.4771 -12.3895 -12.3689 -12.3020
    -9.4013  -9.3436  -9.2632  -8.8402  -8.7749  -8.6936  -8.4831  -8.3439
     3.0570   3.2832   3.5105   3.6973   3.8488   4.0304   4.0735   4.2098
     4.2404   4.4598   4.6143   4.6794   4.7718   4.9176   5.0692   5.1774
     5.2624   5.3750   5.4464   5.5745   5.7135   5.8035   5.9322   5.9844

     occupation numbers 
     1.0000   1.0000   1.0000   1.0000   1.0000   1.0000   1.0000   1.0000
     1.0000   1.0000   1.0000   1.0000   1.0000   1.0000   1.0000   1.0000
     1.0000   1.0000   1.0000   1.0000   1.0000   1.0000   1.0000   1.0000
     1.0000   1.0000   1.0000   1.0000   1.0000   1.0000   1.0000   1.0000
     1.0000   1.0000   1.0000   1.0000   1.0000   1.0000   1.0000   1.0000
     1.0000   1.0000   1.0000   1.0000   1.0000   1.0000   1.0000   1.0000
     1.0000   1.0000   1.0000   1.0000   1.0000   1.0000   1.0000   1.0000
     1.0000   1.0000   1.0000   1.0000   1.0000   1.0000   1.0000   1.0000

          k =-0.7613 0.3606 0.0015 (  6181 PWs)   bands (ev):

   -66.8492 -66.8113 -66.7032 -66.4292 -33.8537 -33.8330 -33.8111 -33.7745
   -33.7646 -33.7577 -33.7561 -33.6594 -33.6440 -33.5111 -33.3834 -33.3364
   -31.8713 -31.3341 -31.1723 -31.1257 -13.4190 -13.2559 -13.1571 -13.0131
   -12.8876 -12.7149 -12.6836 -12.5865 -12.4788 -12.4064 -12.3488 -12.2948
    -9.4347  -9.3667  -9.2672  -8.8242  -8.7880  -8.6521  -8.4120  -8.3947
     3.0839   3.3849   3.5055   3.6418   3.8536   3.9670   4.0555   4.1323
     4.3421   4.4654   4.5953   4.6972   4.8075   4.9169   5.0367   5.0700
     5.2605   5.3791   5.4723   5.5439   5.6787   5.8716   5.9216   5.9840

     occupation numbers 
     1.0000   1.0000   1.0000   1.0000   1.0000   1.0000   1.0000   1.0000
     1.0000   1.0000   1.0000   1.0000   1.0000   1.0000   1.0000   1.0000
     1.0000   1.0000   1.0000   1.0000   1.0000   1.0000   1.0000   1.0000
     1.0000   1.0000   1.0000   1.0000   1.0000   1.0000   1.0000   1.0000
     1.0000   1.0000   1.0000   1.0000   1.0000   1.0000   1.0000   1.0000
     1.0000   1.0000   1.0000   1.0000   1.0000   1.0000   1.0000   1.0000
     1.0000   1.0000   1.0000   1.0000   1.0000   1.0000   1.0000   1.0000
     1.0000   1.0000   1.0000   1.0000   1.0000   1.0000   1.0000   1.0000

          k =-0.3896 0.3428 0.0147 (  6193 PWs)   bands (ev):

   -66.8492 -66.8113 -66.7032 -66.4292 -33.8539 -33.8332 -33.8112 -33.7746
   -33.7641 -33.7582 -33.7555 -33.6593 -33.6440 -33.5111 -33.3834 -33.3364
   -31.8712 -31.3354 -31.1721 -31.1248 -13.4015 -13.2956 -13.1712 -12.9512
   -12.8743 -12.7560 -12.6809 -12.5844 -12.4706 -12.4056 -12.3549 -12.3179
    -9.4629  -9.2895  -9.1046  -8.8644  -8.7873  -8.6872  -8.5780  -8.3585
     2.9451   3.2859   3.4644   3.6345   3.9813   3.9941   4.1587   4.2958
     4.4337   4.5137   4.6588   4.6717   4.8279   4.9158   4.9957   5.0979
     5.1472   5.3014   5.4078   5.4942   5.7903   5.8642   5.9362   6.0017

     occupation numbers 
     1.0000   1.0000   1.0000   1.0000   1.0000   1.0000   1.0000   1.0000
     1.0000   1.0000   1.0000   1.0000   1.0000   1.0000   1.0000   1.0000
     1.0000   1.0000   1.0000   1.0000   1.0000   1.0000   1.0000   1.0000
     1.0000   1.0000   1.0000   1.0000   1.0000   1.0000   1.0000   1.0000
     1.0000   1.0000   1.0000   1.0000   1.0000   1.0000   1.0000   1.0000
     1.0000   1.0000   1.0000   1.0000   1.0000   1.0000   1.0000   1.0000
     1.0000   1.0000   1.0000   1.0000   1.0000   1.0000   1.0000   1.0000
     1.0000   1.0000   1.0000   1.0000   1.0000   1.0000   1.0000   1.0000

          k =-0.2191 0.4825-0.1282 (  6201 PWs)   bands (ev):

   -66.8492 -66.8113 -66.7032 -66.4292 -33.8539 -33.8332 -33.8112 -33.7748
   -33.7641 -33.7582 -33.7554 -33.6593 -33.6440 -33.5111 -33.3834 -33.3364
   -31.8713 -31.3353 -31.1720 -31.1248 -13.4111 -13.3156 -13.2143 -12.9237
   -12.8710 -12.7528 -12.6436 -12.5844 -12.4668 -12.3853 -12.3500 -12.3176
    -9.4661  -9.2987  -9.2520  -8.8392  -8.8039  -8.6719  -8.4695  -8.3526
     2.9705   3.2832   3.4756   3.5754   3.9253   4.0331   4.0659   4.2514
     4.4649   4.5331   4.6028   4.7368   4.8096   4.8770   4.9730   5.0571
     5.1700   5.3552   5.4786   5.6200   5.7715   5.8050   5.9361   6.0403

     occupation numbers 
     1.0000   1.0000   1.0000   1.0000   1.0000   1.0000   1.0000   1.0000
     1.0000   1.0000   1.0000   1.0000   1.0000   1.0000   1.0000   1.0000
     1.0000   1.0000   1.0000   1.0000   1.0000   1.0000   1.0000   1.0000
     1.0000   1.0000   1.0000   1.0000   1.0000   1.0000   1.0000   1.0000
     1.0000   1.0000   1.0000   1.0000   1.0000   1.0000   1.0000   1.0000
     1.0000   1.0000   1.0000   1.0000   1.0000   1.0000   1.0000   1.0000
     1.0000   1.0000   1.0000   1.0000   1.0000   1.0000   1.0000   1.0000
     1.0000   1.0000   1.0000   1.0000   1.0000   1.0000   1.0000   1.0000

          k =-0.7304 0.0634 0.3004 (  6198 PWs)   bands (ev):

   -66.8492 -66.8113 -66.7032 -66.4292 -33.8539 -33.8332 -33.8112 -33.7746
   -33.7640 -33.7583 -33.7555 -33.6593 -33.6440 -33.5111 -33.3834 -33.3364
   -31.8711 -31.3354 -31.1722 -31.1248 -13.4013 -13.3082 -13.1998 -12.9618
   -12.8849 -12.7526 -12.6856 -12.5682 -12.4436 -12.3873 -12.3399 -12.2937
    -9.4272  -9.3706  -9.2989  -8.8441  -8.7763  -8.6446  -8.4084  -8.3903
     3.0458   3.3152   3.5745   3.6434   3.9239   4.0356   4.0482   4.1599
     4.3079   4.3428   4.5999   4.7559   4.8369   4.9268   4.9841   5.1106
     5.2224   5.3286   5.4440   5.6235   5.6952   5.7651   5.8845   6.0692

     occupation numbers 
     1.0000   1.0000   1.0000   1.0000   1.0000   1.0000   1.0000   1.0000
     1.0000   1.0000   1.0000   1.0000   1.0000   1.0000   1.0000   1.0000
     1.0000   1.0000   1.0000   1.0000   1.0000   1.0000   1.0000   1.0000
     1.0000   1.0000   1.0000   1.0000   1.0000   1.0000   1.0000   1.0000
     1.0000   1.0000   1.0000   1.0000   1.0000   1.0000   1.0000   1.0000
     1.0000   1.0000   1.0000   1.0000   1.0000   1.0000   1.0000   1.0000
     1.0000   1.0000   1.0000   1.0000   1.0000   1.0000   1.0000   1.0000
     1.0000   1.0000   1.0000   1.0000   1.0000   1.0000   1.0000   1.0000

          k =-0.5600 0.2031 0.1575 (  6199 PWs)   bands (ev):

   -66.8492 -66.8113 -66.7032 -66.4292 -33.8539 -33.8332 -33.8111 -33.7745
   -33.7640 -33.7584 -33.7556 -33.6593 -33.6440 -33.5111 -33.3834 -33.3364
   -31.8710 -31.3354 -31.1722 -31.1248 -13.3902 -13.2926 -13.1407 -12.9993
   -12.8881 -12.7573 -12.7196 -12.5773 -12.4489 -12.3884 -12.3496 -12.3035
    -9.4358  -9.3122  -9.2220  -8.8590  -8.7534  -8.6629  -8.4893  -8.4040
     3.0184   3.3054   3.5761   3.7160   3.9002   4.0359   4.1529   4.2267
     4.3110   4.3610   4.6226   4.7419   4.7800   4.8868   5.0150   5.1294
     5.1957   5.3135   5.3991   5.5084   5.7238   5.7882   5.9263   6.0175

     occupation numbers 
     1.0000   1.0000   1.0000   1.0000   1.0000   1.0000   1.0000   1.0000
     1.0000   1.0000   1.0000   1.0000   1.0000   1.0000   1.0000   1.0000
     1.0000   1.0000   1.0000   1.0000   1.0000   1.0000   1.0000   1.0000
     1.0000   1.0000   1.0000   1.0000   1.0000   1.0000   1.0000   1.0000
     1.0000   1.0000   1.0000   1.0000   1.0000   1.0000   1.0000   1.0000
     1.0000   1.0000   1.0000   1.0000   1.0000   1.0000   1.0000   1.0000
     1.0000   1.0000   1.0000   1.0000   1.0000   1.0000   1.0000   1.0000
     1.0000   1.0000   1.0000   1.0000   1.0000   1.0000   1.0000   1.0000

          k = 0.3764-0.3706-0.3413 (  6210 PWs)   bands (ev):

   -66.8492 -66.8113 -66.7032 -66.4292 -33.8541 -33.8332 -33.8112 -33.7745
   -33.7633 -33.7591 -33.7553 -33.6593 -33.6440 -33.5111 -33.3835 -33.3364
   -31.8717 -31.3339 -31.1722 -31.1257 -13.4542 -13.2955 -13.1283 -12.9832
   -12.7705 -12.7386 -12.7109 -12.5690 -12.5115 -12.4136 -12.3781 -12.3170
    -9.4529  -9.2447  -9.0873  -8.9273  -8.7667  -8.6602  -8.6002  -8.3910
     2.9095   3.4099   3.5680   3.7949   3.8273   4.0921   4.2669   4.3311
     4.4200   4.4401   4.4912   4.7263   4.7355   4.8710   4.9698   5.0975
     5.1616   5.1854   5.2611   5.3457   5.8114   5.8665   5.9845   6.1086

     occupation numbers 
     1.0000   1.0000   1.0000   1.0000   1.0000   1.0000   1.0000   1.0000
     1.0000   1.0000   1.0000   1.0000   1.0000   1.0000   1.0000   1.0000
     1.0000   1.0000   1.0000   1.0000   1.0000   1.0000   1.0000   1.0000
     1.0000   1.0000   1.0000   1.0000   1.0000   1.0000   1.0000   1.0000
     1.0000   1.0000   1.0000   1.0000   1.0000   1.0000   1.0000   1.0000
     1.0000   1.0000   1.0000   1.0000   1.0000   1.0000   1.0000   1.0000
     1.0000   1.0000   1.0000   1.0000   1.0000   1.0000   1.0000   1.0000
     1.0000   1.0000   1.0000   1.0000   1.0000   1.0000   1.0000   1.0000

          k = 0.5469-0.2309-0.4841 (  6191 PWs)   bands (ev):

   -66.8492 -66.8113 -66.7032 -66.4292 -33.8541 -33.8332 -33.8112 -33.7747
   -33.7634 -33.7590 -33.7552 -33.6593 -33.6440 -33.5111 -33.3835 -33.3364
   -31.8718 -31.3338 -31.1722 -31.1256 -13.4661 -13.3087 -13.1912 -12.9435
   -12.7685 -12.7284 -12.6752 -12.5751 -12.5047 -12.3922 -12.3622 -12.3249
    -9.4571  -9.2841  -9.2213  -8.8920  -8.7988  -8.6545  -8.4843  -8.3596
     2.9228   3.3302   3.5202   3.7685   3.8938   4.0527   4.1718   4.3332
     4.3837   4.4225   4.5354   4.7153   4.7942   4.8340   4.9589   5.1126
     5.1529   5.2409   5.3936   5.4590   5.6965   5.8122   6.0411   6.1609

     occupation numbers 
     1.0000   1.0000   1.0000   1.0000   1.0000   1.0000   1.0000   1.0000
     1.0000   1.0000   1.0000   1.0000   1.0000   1.0000   1.0000   1.0000
     1.0000   1.0000   1.0000   1.0000   1.0000   1.0000   1.0000   1.0000
     1.0000   1.0000   1.0000   1.0000   1.0000   1.0000   1.0000   1.0000
     1.0000   1.0000   1.0000   1.0000   1.0000   1.0000   1.0000   1.0000
     1.0000   1.0000   1.0000   1.0000   1.0000   1.0000   1.0000   1.0000
     1.0000   1.0000   1.0000   1.0000   1.0000   1.0000   1.0000   1.0000
     1.0000   1.0000   1.0000   1.0000   1.0000   1.0000   1.0000   1.0000

          k = 0.0356-0.6500-0.0556 (  6180 PWs)   bands (ev):

   -66.8492 -66.8113 -66.7032 -66.4292 -33.8541 -33.8332 -33.8112 -33.7748
   -33.7635 -33.7588 -33.7551 -33.6593 -33.6440 -33.5111 -33.3835 -33.3364
   -31.8719 -31.3337 -31.1721 -31.1256 -13.4776 -13.3292 -13.2234 -12.9226
   -12.7670 -12.7183 -12.6361 -12.5965 -12.4938 -12.3813 -12.3536 -12.3103
    -9.4422  -9.4153  -9.2315  -8.8714  -8.8360  -8.6503  -8.3955  -8.3323
     2.9422   3.2546   3.4299   3.7564   3.9897   4.0960   4.1854   4.2409
     4.3228   4.4067   4.5137   4.7095   4.7711   4.8175   4.9896   5.1072
     5.2286   5.2627   5.4087   5.6180   5.6794   5.7347   6.0594   6.2212

     occupation numbers 
     1.0000   1.0000   1.0000   1.0000   1.0000   1.0000   1.0000   1.0000
     1.0000   1.0000   1.0000   1.0000   1.0000   1.0000   1.0000   1.0000
     1.0000   1.0000   1.0000   1.0000   1.0000   1.0000   1.0000   1.0000
     1.0000   1.0000   1.0000   1.0000   1.0000   1.0000   1.0000   1.0000
     1.0000   1.0000   1.0000   1.0000   1.0000   1.0000   1.0000   1.0000
     1.0000   1.0000   1.0000   1.0000   1.0000   1.0000   1.0000   1.0000
     1.0000   1.0000   1.0000   1.0000   1.0000   1.0000   1.0000   1.0000
     1.0000   1.0000   1.0000   1.0000   1.0000   1.0000   1.0000   1.0000

          k = 0.5778-0.5281-0.1853 (  6204 PWs)   bands (ev):

   -66.8492 -66.8113 -66.7032 -66.4292 -33.8539 -33.8331 -33.8111 -33.7745
   -33.7640 -33.7584 -33.7557 -33.6594 -33.6440 -33.5110 -33.3834 -33.3364
   -31.8720 -31.3325 -31.1723 -31.1266 -13.4542 -13.3039 -13.1407 -13.0009
   -12.7567 -12.6934 -12.6693 -12.5800 -12.5091 -12.4523 -12.3746 -12.3236
    -9.4654  -9.3122  -9.1778  -8.8612  -8.7737  -8.6538  -8.5084  -8.3801
     2.9322   3.3682   3.6124   3.7114   3.9011   3.9974   4.1353   4.2901
     4.3114   4.4121   4.6282   4.6637   4.7484   4.8326   4.9674   5.1096
     5.1867   5.3577   5.3895   5.5723   5.6862   5.8282   5.9683   6.1053

     occupation numbers 
     1.0000   1.0000   1.0000   1.0000   1.0000   1.0000   1.0000   1.0000
     1.0000   1.0000   1.0000   1.0000   1.0000   1.0000   1.0000   1.0000
     1.0000   1.0000   1.0000   1.0000   1.0000   1.0000   1.0000   1.0000
     1.0000   1.0000   1.0000   1.0000   1.0000   1.0000   1.0000   1.0000
     1.0000   1.0000   1.0000   1.0000   1.0000   1.0000   1.0000   1.0000
     1.0000   1.0000   1.0000   1.0000   1.0000   1.0000   1.0000   1.0000
     1.0000   1.0000   1.0000   1.0000   1.0000   1.0000   1.0000   1.0000
     1.0000   1.0000   1.0000   1.0000   1.0000   1.0000   1.0000   1.0000

          k = 0.7482-0.3884-0.3282 (  6203 PWs)   bands (ev):

   -66.8492 -66.8113 -66.7032 -66.4292 -33.8539 -33.8331 -33.8112 -33.7747
   -33.7641 -33.7583 -33.7555 -33.6593 -33.6440 -33.5110 -33.3834 -33.3364
   -31.8721 -31.3325 -31.1721 -31.1266 -13.4656 -13.3231 -13.1983 -12.9643
   -12.7642 -12.6898 -12.6546 -12.5539 -12.5149 -12.4383 -12.3511 -12.3019
    -9.5119  -9.3430  -9.2386  -8.8586  -8.8037  -8.6508  -8.4051  -8.3528
     2.8665   3.3192   3.5436   3.6991   3.8411   3.9261   4.1203   4.2885
     4.3824   4.4901   4.6430   4.6923   4.8293   5.0141   5.0542   5.1043
     5.1946   5.3177   5.3890   5.5122   5.7019   5.8408   5.8884   6.1455

     occupation numbers 
     1.0000   1.0000   1.0000   1.0000   1.0000   1.0000   1.0000   1.0000
     1.0000   1.0000   1.0000   1.0000   1.0000   1.0000   1.0000   1.0000
     1.0000   1.0000   1.0000   1.0000   1.0000   1.0000   1.0000   1.0000
     1.0000   1.0000   1.0000   1.0000   1.0000   1.0000   1.0000   1.0000
     1.0000   1.0000   1.0000   1.0000   1.0000   1.0000   1.0000   1.0000
     1.0000   1.0000   1.0000   1.0000   1.0000   1.0000   1.0000   1.0000
     1.0000   1.0000   1.0000   1.0000   1.0000   1.0000   1.0000   1.0000
     1.0000   1.0000   1.0000   1.0000   1.0000   1.0000   1.0000   1.0000

          k = 0.2369-0.8075 0.1004 (  6192 PWs)   bands (ev):

   -66.8492 -66.8113 -66.7032 -66.4292 -33.8539 -33.8331 -33.8112 -33.7748
   -33.7642 -33.7582 -33.7555 -33.6593 -33.6439 -33.5110 -33.3834 -33.3364
   -31.8722 -31.3325 -31.1720 -31.1267 -13.4726 -13.3318 -13.2180 -12.9265
   -12.7586 -12.6821 -12.6330 -12.5673 -12.5039 -12.4364 -12.3783 -12.3228
    -9.4360  -9.3049  -9.2637  -8.8664  -8.8170  -8.6847  -8.4743  -8.3102
     2.9577   3.3030   3.5315   3.6525   3.8705   4.0359   4.0966   4.2038
     4.4265   4.4779   4.5652   4.7037   4.7605   4.8488   4.9978   5.0820
     5.1997   5.3617   5.4225   5.6648   5.7552   5.8260   5.9394   6.0998

     occupation numbers 
     1.0000   1.0000   1.0000   1.0000   1.0000   1.0000   1.0000   1.0000
     1.0000   1.0000   1.0000   1.0000   1.0000   1.0000   1.0000   1.0000
     1.0000   1.0000   1.0000   1.0000   1.0000   1.0000   1.0000   1.0000
     1.0000   1.0000   1.0000   1.0000   1.0000   1.0000   1.0000   1.0000
     1.0000   1.0000   1.0000   1.0000   1.0000   1.0000   1.0000   1.0000
     1.0000   1.0000   1.0000   1.0000   1.0000   1.0000   1.0000   1.0000
     1.0000   1.0000   1.0000   1.0000   1.0000   1.0000   1.0000   1.0000
     1.0000   1.0000   1.0000   1.0000   1.0000   1.0000   1.0000   1.0000

          k = 0.4074-0.6678-0.0425 (  6184 PWs)   bands (ev):

   -66.8492 -66.8113 -66.7032 -66.4292 -33.8539 -33.8331 -33.8112 -33.7747
   -33.7642 -33.7582 -33.7556 -33.6593 -33.6440 -33.5110 -33.3834 -33.3364
   -31.8721 -31.3324 -31.1722 -31.1267 -13.4613 -13.3118 -13.1750 -12.9516
   -12.7514 -12.6823 -12.6359 -12.5960 -12.5013 -12.4641 -12.3947 -12.3441
    -9.4128  -9.2862  -9.1339  -8.8775  -8.7947  -8.6979  -8.5871  -8.3358
     3.0506   3.3526   3.5675   3.6631   4.0244   4.0342   4.0893   4.2035
     4.3101   4.4561   4.5144   4.5636   4.7147   4.8459   4.9220   5.1291
     5.2068   5.3419   5.4161   5.6145   5.7973   5.8391   5.9765   6.0580

     occupation numbers 
     1.0000   1.0000   1.0000   1.0000   1.0000   1.0000   1.0000   1.0000
     1.0000   1.0000   1.0000   1.0000   1.0000   1.0000   1.0000   1.0000
     1.0000   1.0000   1.0000   1.0000   1.0000   1.0000   1.0000   1.0000
     1.0000   1.0000   1.0000   1.0000   1.0000   1.0000   1.0000   1.0000
     1.0000   1.0000   1.0000   1.0000   1.0000   1.0000   1.0000   1.0000
     1.0000   1.0000   1.0000   1.0000   1.0000   1.0000   1.0000   1.0000
     1.0000   1.0000   1.0000   1.0000   1.0000   1.0000   1.0000   1.0000
     1.0000   1.0000   1.0000   1.0000   1.0000   1.0000   1.0000   1.0000

          k =-0.0263-0.0556-0.6533 (  6186 PWs)   bands (ev):

   -66.8492 -66.8113 -66.7032 -66.4292 -33.8537 -33.8329 -33.8111 -33.7746
   -33.7647 -33.7577 -33.7562 -33.6594 -33.6439 -33.5110 -33.3834 -33.3364
   -31.8723 -31.3311 -31.1724 -31.1276 -13.4822 -13.2625 -13.1555 -13.0156
   -12.7497 -12.6543 -12.6376 -12.5982 -12.5105 -12.4927 -12.3675 -12.3202
    -9.4703  -9.4032  -9.2017  -8.8427  -8.7783  -8.6357  -8.4204  -8.3833
     2.9615   3.3481   3.5271   3.7109   3.8667   3.9859   4.0813   4.2648
     4.3740   4.4272   4.5802   4.6364   4.7191   4.8732   4.9926   5.0790
     5.2369   5.3611   5.4832   5.5490   5.6186   5.9655   6.0090   6.1212

     occupation numbers 
     1.0000   1.0000   1.0000   1.0000   1.0000   1.0000   1.0000   1.0000
     1.0000   1.0000   1.0000   1.0000   1.0000   1.0000   1.0000   1.0000
     1.0000   1.0000   1.0000   1.0000   1.0000   1.0000   1.0000   1.0000
     1.0000   1.0000   1.0000   1.0000   1.0000   1.0000   1.0000   1.0000
     1.0000   1.0000   1.0000   1.0000   1.0000   1.0000   1.0000   1.0000
     1.0000   1.0000   1.0000   1.0000   1.0000   1.0000   1.0000   1.0000
     1.0000   1.0000   1.0000   1.0000   1.0000   1.0000   1.0000   1.0000
     1.0000   1.0000   1.0000   1.0000   1.0000   1.0000   1.0000   1.0000

          k = 0.1442 0.0841-0.7961 (  6200 PWs)   bands (ev):

   -66.8492 -66.8113 -66.7032 -66.4292 -33.8537 -33.8329 -33.8112 -33.7747
   -33.7647 -33.7576 -33.7561 -33.6594 -33.6439 -33.5110 -33.3834 -33.3364
   -31.8725 -31.3311 -31.1722 -31.1277 -13.4904 -13.2749 -13.1851 -12.9720
   -12.7574 -12.6551 -12.6277 -12.5800 -12.5190 -12.4756 -12.3861 -12.3259
    -9.4341  -9.3611  -9.1961  -8.8668  -8.7734  -8.6770  -8.5035  -8.3261
     2.9617   3.3425   3.5303   3.6964   3.8709   3.9640   4.0636   4.2909
     4.3326   4.4796   4.5452   4.6943   4.7160   4.9063   4.9982   5.1672
     5.2347   5.3222   5.4176   5.5618   5.6786   5.8958   5.9827   6.1489

     occupation numbers 
     1.0000   1.0000   1.0000   1.0000   1.0000   1.0000   1.0000   1.0000
     1.0000   1.0000   1.0000   1.0000   1.0000   1.0000   1.0000   1.0000
     1.0000   1.0000   1.0000   1.0000   1.0000   1.0000   1.0000   1.0000
     1.0000   1.0000   1.0000   1.0000   1.0000   1.0000   1.0000   1.0000
     1.0000   1.0000   1.0000   1.0000   1.0000   1.0000   1.0000   1.0000
     1.0000   1.0000   1.0000   1.0000   1.0000   1.0000   1.0000   1.0000
     1.0000   1.0000   1.0000   1.0000   1.0000   1.0000   1.0000   1.0000
     1.0000   1.0000   1.0000   1.0000   1.0000   1.0000   1.0000   1.0000

          k =-0.3671-0.3350-0.3676 (  6178 PWs)   bands (ev):

   -66.8492 -66.8113 -66.7032 -66.4292 -33.8537 -33.8329 -33.8112 -33.7748
   -33.7648 -33.7574 -33.7560 -33.6593 -33.6439 -33.5110 -33.3834 -33.3364
   -31.8726 -31.3312 -31.1720 -31.1277 -13.4991 -13.2854 -13.2094 -12.9261
   -12.7676 -12.6561 -12.6186 -12.5589 -12.5348 -12.4583 -12.4247 -12.3129
    -9.4031  -9.3261  -9.1594  -8.8954  -8.7785  -8.7000  -8.5882  -8.2903
     2.9871   3.2685   3.4971   3.7598   3.8379   3.9826   4.1534   4.2387
     4.3651   4.4501   4.5692   4.6412   4.8186   4.8254   5.0817   5.1731
     5.2342   5.2779   5.3512   5.6148   5.7675   5.8232   5.9464   6.1728

     occupation numbers 
     1.0000   1.0000   1.0000   1.0000   1.0000   1.0000   1.0000   1.0000
     1.0000   1.0000   1.0000   1.0000   1.0000   1.0000   1.0000   1.0000
     1.0000   1.0000   1.0000   1.0000   1.0000   1.0000   1.0000   1.0000
     1.0000   1.0000   1.0000   1.0000   1.0000   1.0000   1.0000   1.0000
     1.0000   1.0000   1.0000   1.0000   1.0000   1.0000   1.0000   1.0000
     1.0000   1.0000   1.0000   1.0000   1.0000   1.0000   1.0000   1.0000
     1.0000   1.0000   1.0000   1.0000   1.0000   1.0000   1.0000   1.0000
     1.0000   1.0000   1.0000   1.0000   1.0000   1.0000   1.0000   1.0000

     highest occupied level (ev):     6.2943

!    total energy              =   -1059.33634584 Ry
     Harris-Foulkes estimate   =   -1059.33634584 Ry
     estimated scf accuracy    <          4.0E-11 Ry

     The total energy is the sum of the following terms:

     one-electron contribution =    -553.90885411 Ry
     hartree contribution      =     318.23486124 Ry
     xc contribution           =    -172.35712533 Ry
     ewald contribution        =    -651.30522764 Ry

     convergence has been achieved in  22 iterations

     Forces acting on atoms (Ry/au):

     atom    1 type  1   force =   0.95513384E-01 -0.18006734E-01  0.99516366E-02
     atom    2 type  3   force =  -0.34063002E-01  0.34895637E-01  0.12563815E-01
     atom    3 type  2   force =  -0.71461329E-01 -0.39900785E-02 -0.11643544E+00
     atom    4 type  3   force =   0.44599332E-01 -0.19878272E-01 -0.75386274E-02
     atom    5 type  2   force =  -0.16723221E-01 -0.39620002E-02 -0.57249310E-01
     atom    6 type  3   force =  -0.23122951E-01  0.63219108E-01  0.36877803E-01
     atom    7 type  1   force =   0.75380303E-01 -0.55501347E-01  0.64628886E-01
     atom    8 type  3   force =  -0.16615882E-01 -0.90837573E-02  0.57985387E-01
     atom    9 type  1   force =   0.89510711E-02  0.10381904E-01 -0.62278718E-02
     atom   10 type  3   force =   0.43146874E-01 -0.73242693E-01 -0.15278668E-01
     atom   11 type  2   force =  -0.63601893E-01  0.85074772E-02  0.53180161E-01
     atom   12 type  3   force =  -0.34394581E-01  0.34558362E-01  0.44199485E-01
     atom   13 type  1   force =  -0.48736657E-01  0.12304465E-01  0.17718777E-03
     atom   14 type  3   force =   0.13852412E-02 -0.40562037E-02 -0.21345593E-01
     atom   15 type  2   force =   0.18418264E-02  0.83506603E-02 -0.15693222E-01
     atom   16 type  3   force =   0.37901483E-01  0.15503472E-01 -0.39795628E-01
     The non-local contrib.  to forces
     atom    1 type  1   force =   0.22926225E-01 -0.41379461E-02 -0.29138409E-02
     atom    2 type  3   force =   0.18755042E+00  0.16983646E+00 -0.26443718E+00
     atom    3 type  2   force =   0.48612387E-01  0.37295281E+00 -0.16280246E+00
     atom    4 type  3   force =   0.48394432E-01 -0.11031793E+00  0.78530833E-01
     atom    5 type  2   force =   0.25923647E+00  0.30345778E+00 -0.35061670E+00
     atom    6 type  3   force =  -0.23955788E+00  0.33015711E+00  0.16312313E+00
     atom    7 type  1   force =   0.27487063E-02  0.17620520E-01 -0.56758849E-01
     atom    8 type  3   force =   0.14899810E-02 -0.14405644E+00 -0.22115387E+00
     atom    9 type  1   force =   0.24730714E-01  0.24355395E-01 -0.60259012E-01
     atom   10 type  3   force =   0.40600300E+00 -0.29703011E-01 -0.76797855E-02
     atom   11 type  2   force =  -0.34941793E+00  0.20964662E+00 -0.84743475E-01
     atom   12 type  3   force =  -0.15825741E+00  0.18255932E+00  0.10818083E+00
     atom   13 type  1   force =   0.27784842E-01  0.21586282E-01 -0.17472047E-01
     atom   14 type  3   force =   0.44624947E-01 -0.43135254E-01 -0.29398936E+00
     atom   15 type  2   force =   0.21198837E+00  0.91620002E-02 -0.26893987E+00
     atom   16 type  3   force =   0.10454038E-01  0.33944886E+00 -0.17332548E+00
     The ionic contribution  to forces
     atom    1 type  1   force =   0.38617954E+01 -0.61671064E+00  0.11763757E+00
     atom    2 type  3   force =  -0.37205960E+01 -0.24185312E+01  0.48420981E+01
     atom    3 type  2   force =  -0.22737637E+01  0.82482140E+00 -0.42418230E+01
     atom    4 type  3   force =   0.20022771E+01  0.10605813E+01 -0.17838515E+01
     atom    5 type  2   force =   0.28918210E+01  0.38578227E+01 -0.49648443E+01
     atom    6 type  3   force =   0.11043475E+01 -0.16082622E+01 -0.23086256E+00
     atom    7 type  1   force =   0.19637304E+01 -0.19866857E+01  0.15395271E+01
     atom    8 type  3   force =  -0.35363835E+00  0.17064470E+01  0.35174889E+01
     atom    9 type  1   force =   0.17153928E+01  0.30634033E+00 -0.12739251E+01
     atom   10 type  3   force =  -0.38414903E+01 -0.34949082E+01  0.47743006E+00
     atom   11 type  2   force =  -0.31712894E+01  0.28977147E+01  0.17612200E+01
     atom   12 type  3   force =   0.13166398E+01  0.24395751E+00  0.49345433E-01
     atom   13 type  1   force =  -0.69334247E+00  0.20198420E+01 -0.91070292E+00
     atom   14 type  3   force =  -0.18618768E+01  0.36829477E+00  0.27936042E+01
     atom   15 type  2   force =  -0.43438779E+00  0.33858502E-01 -0.15255312E+01
     atom   16 type  3   force =   0.14943808E+01 -0.31945822E+01 -0.16681093E+00
     The local contribution  to forces
     atom    1 type  1   force =  -0.37884974E+01  0.60301605E+00 -0.10482667E+00
     atom    2 type  3   force =   0.34988637E+01  0.22847811E+01 -0.45657972E+01
     atom    3 type  2   force =   0.21536892E+01 -0.12017691E+01  0.42881920E+01
     atom    4 type  3   force =  -0.20052580E+01 -0.97117822E+00  0.16980720E+01
     atom    5 type  2   force =  -0.31677828E+01 -0.41652385E+01  0.52582101E+01
     atom    6 type  3   force =  -0.88871396E+00  0.13437840E+01  0.10590818E+00
     atom    7 type  1   force =  -0.18905720E+01  0.19137147E+01 -0.14166282E+01
     atom    8 type  3   force =   0.33478867E+00 -0.15722873E+01 -0.32381918E+01
     atom    9 type  1   force =  -0.17315397E+01 -0.32029814E+00  0.13291773E+01
     atom   10 type  3   force =   0.34809145E+01  0.34499861E+01 -0.48531108E+00
     atom   11 type  2   force =   0.34571089E+01 -0.30988546E+01 -0.16232925E+01
     atom   12 type  3   force =  -0.11943948E+01 -0.39083498E+00 -0.11185274E+00
     atom   13 type  1   force =   0.61544033E+00 -0.20297090E+01  0.92795333E+00
     atom   14 type  3   force =   0.18187305E+01 -0.32949437E+00 -0.25226228E+01
     atom   15 type  2   force =   0.22423764E+00 -0.34666307E-01  0.17787770E+01
     atom   16 type  3   force =  -0.14661545E+01  0.28720332E+01  0.29928040E+00
     The core correction contribution to forces
     atom    1 type  1   force =  -0.70819739E-03 -0.17271785E-03  0.55795834E-04
     atom    2 type  3   force =   0.12113652E-03 -0.11892914E-02  0.69814250E-03
     atom    3 type  2   force =   0.00000000E+00  0.00000000E+00  0.00000000E+00
     atom    4 type  3   force =  -0.81561780E-03  0.10378064E-02 -0.28958591E-03
     atom    5 type  2   force =   0.00000000E+00  0.00000000E+00  0.00000000E+00
     atom    6 type  3   force =   0.80145060E-03 -0.24603266E-02 -0.12913591E-02
     atom    7 type  1   force =  -0.53019766E-03 -0.14960420E-03 -0.15108803E-02
     atom    8 type  3   force =   0.74508689E-03  0.81378803E-03 -0.15933005E-03
     atom    9 type  1   force =   0.36938330E-03 -0.16576017E-04 -0.12200182E-02
     atom   10 type  3   force =  -0.22805829E-02  0.13860769E-02  0.28203447E-03
     atom   11 type  2   force =   0.00000000E+00  0.00000000E+00  0.00000000E+00
     atom   12 type  3   force =   0.16176007E-02 -0.11223260E-02 -0.14747104E-02
     atom   13 type  1   force =   0.13803408E-02  0.58846771E-03  0.39660195E-03
     atom   14 type  3   force =  -0.92325027E-04  0.28057497E-03  0.16630715E-02
     atom   15 type  2   force =   0.00000000E+00  0.00000000E+00  0.00000000E+00
     atom   16 type  3   force =  -0.78028075E-03 -0.13953114E-02  0.10612658E-02
     The Hubbard contrib.    to forces
     atom    1 type  1   force =   0.00000000E+00  0.00000000E+00  0.00000000E+00
     atom    2 type  3   force =   0.00000000E+00  0.00000000E+00  0.00000000E+00
     atom    3 type  2   force =   0.00000000E+00  0.00000000E+00  0.00000000E+00
     atom    4 type  3   force =   0.00000000E+00  0.00000000E+00  0.00000000E+00
     atom    5 type  2   force =   0.00000000E+00  0.00000000E+00  0.00000000E+00
     atom    6 type  3   force =   0.00000000E+00  0.00000000E+00  0.00000000E+00
     atom    7 type  1   force =   0.00000000E+00  0.00000000E+00  0.00000000E+00
     atom    8 type  3   force =   0.00000000E+00  0.00000000E+00  0.00000000E+00
     atom    9 type  1   force =   0.00000000E+00  0.00000000E+00  0.00000000E+00
     atom   10 type  3   force =   0.00000000E+00  0.00000000E+00  0.00000000E+00
     atom   11 type  2   force =   0.00000000E+00  0.00000000E+00  0.00000000E+00
     atom   12 type  3   force =   0.00000000E+00  0.00000000E+00  0.00000000E+00
     atom   13 type  1   force =   0.00000000E+00  0.00000000E+00  0.00000000E+00
     atom   14 type  3   force =   0.00000000E+00  0.00000000E+00  0.00000000E+00
     atom   15 type  2   force =   0.00000000E+00  0.00000000E+00  0.00000000E+00
     atom   16 type  3   force =   0.00000000E+00  0.00000000E+00  0.00000000E+00
     The SCF correction term to forces
     atom    1 type  1   force =  -0.26580611E-05 -0.35763572E-06 -0.11485325E-05
     atom    2 type  3   force =  -0.23077141E-05 -0.20968990E-06  0.20173025E-05
     atom    3 type  2   force =   0.71691278E-06  0.59569603E-05 -0.19049857E-05
     atom    4 type  3   force =   0.13779270E-05 -0.76206000E-07 -0.30005579E-06
     atom    5 type  2   force =   0.20204278E-05 -0.28762339E-05  0.16483794E-05
     atom    6 type  3   force =  -0.18079135E-06  0.16513641E-05  0.48074492E-06
     atom    7 type  1   force =   0.33437234E-05 -0.12677757E-06 -0.23645733E-06
     atom    8 type  3   force =  -0.13390029E-05  0.33467705E-06  0.15285954E-05
     atom    9 type  1   force =  -0.22166279E-05  0.20203442E-05 -0.96915977E-06
     atom   10 type  3   force =   0.16218044E-06 -0.25567573E-05  0.17207780E-06
     atom   11 type  2   force =  -0.34910669E-05  0.19690809E-05 -0.37831707E-05
     atom   12 type  3   force =   0.14955353E-06 -0.34166662E-07  0.73611442E-06
     atom   13 type  1   force =   0.23270500E-06 -0.21333061E-05  0.22816815E-05
     atom   14 type  3   force =  -0.11405137E-05 -0.80194438E-06 -0.61525667E-06
     atom   15 type  2   force =   0.35381992E-05 -0.24071250E-05  0.92801157E-06
     atom   16 type  3   force =   0.14131335E-05  0.55042067E-08 -0.82006138E-06

     Total force =     0.291326     Total SCF correction =     0.000013


     entering subroutine stress ...

          total   stress  (Ry/bohr**3)                   (kbar)     P=  -12.80
   0.0001309517  -0.0004446492   0.0006080107         19.26    -65.41     89.44
  -0.0004446492  -0.0002086113   0.0005395970        -65.41    -30.69     79.38
   0.0006080107   0.0005395970  -0.0001833109         89.44     79.38    -26.97

     kinetic stress (kbar)  18072.31    -66.14     50.61
                              -66.14  17940.26     48.20
                               50.61     48.20  17948.62

     local   stress (kbar)  -9262.96   -516.94  -1277.33
                             -516.94  -4200.81  -2782.26
                            -1277.33  -2782.26  -4052.94

     nonloc. stress (kbar)   4570.32     -0.55     -3.87
                               -0.55   4581.52     12.03
                               -3.87     12.03   4581.31

     hartree stress (kbar)  11995.24    109.90    544.39
                              109.90  10209.30   1176.04
                              544.39   1176.04  10091.49

     exc-cor stress (kbar)  -4560.49      1.04     -0.40
                                1.04  -4565.40      0.48
                               -0.40      0.48  -4564.78

     corecor stress (kbar)   -908.25      0.17     -0.14
                                0.17   -907.73     -0.18
                               -0.14     -0.18   -907.75

     ewald   stress (kbar) -19886.91    407.11    776.19
                              407.11 -23087.82   1625.08
                              776.19   1625.08 -23122.91

     hubbard stress (kbar)      0.00      0.00      0.00
                                0.00      0.00      0.00
                                0.00      0.00      0.00

     london  stress (kbar)      0.00      0.00      0.00
                                0.00      0.00      0.00
                                0.00      0.00      0.00

     XDM     stress (kbar)      0.00      0.00      0.00
                                0.00      0.00      0.00
                                0.00      0.00      0.00

     dft-nl  stress (kbar)      0.00      0.00      0.00
                                0.00      0.00      0.00
                                0.00      0.00      0.00



     Writing output data file mix.dummy44136.save

     init_run     :     15.00s CPU     16.14s WALL (       1 calls)
     electrons    :    755.66s CPU    824.82s WALL (       1 calls)
     forces       :      5.70s CPU      6.00s WALL (       1 calls)
     stress       :      9.99s CPU     10.18s WALL (       1 calls)

     Called by init_run:
     wfcinit      :     13.22s CPU     14.33s WALL (       1 calls)
     potinit      :      0.50s CPU      0.52s WALL (       1 calls)

     Called by electrons:
     c_bands      :    661.49s CPU    724.19s WALL (      22 calls)
     sum_band     :     86.35s CPU     92.59s WALL (      22 calls)
     v_of_rho     :      0.78s CPU      0.81s WALL (      23 calls)
     v_h          :      0.06s CPU      0.05s WALL (      23 calls)
     v_xc         :      0.78s CPU      0.81s WALL (      25 calls)
     newd         :      5.48s CPU      5.55s WALL (      23 calls)
     mix_rho      :      1.62s CPU      1.74s WALL (      22 calls)

     Called by c_bands:
     init_us_2    :      3.67s CPU      3.82s WALL (    1692 calls)
     cegterg      :    633.15s CPU    694.21s WALL (     792 calls)

     Called by sum_band:
     sum_band:bec :      0.85s CPU      0.92s WALL (     792 calls)
     addusdens    :      5.30s CPU      5.38s WALL (      22 calls)

     Called by *egterg:
     h_psi        :    327.02s CPU    346.10s WALL (    2382 calls)
     s_psi        :     33.27s CPU     35.07s WALL (    2382 calls)
     g_psi        :      0.36s CPU      0.39s WALL (    1554 calls)
     cdiaghg      :     80.12s CPU     92.81s WALL (    2346 calls)
     cegterg:over :     95.82s CPU    106.33s WALL (    1554 calls)
     cegterg:upda :     12.40s CPU     15.97s WALL (    1554 calls)
     cegterg:last :      7.78s CPU      9.62s WALL (     792 calls)

     Called by h_psi:
     h_psi:vloc   :    202.75s CPU    207.51s WALL (    2382 calls)
     h_psi:vnl    :    123.76s CPU    138.02s WALL (    2382 calls)
     add_vuspsi   :     33.81s CPU     38.01s WALL (    2382 calls)

     General routines
     calbec       :    127.15s CPU    142.70s WALL (    3246 calls)
     fft          :      1.76s CPU      1.77s WALL (     389 calls)
     ffts         :      1.02s CPU      1.08s WALL (     682 calls)
     fftw         :    232.80s CPU    238.02s WALL (  289824 calls)
     interpolate  :      0.17s CPU      0.18s WALL (      45 calls)

     Parallel routines
     fft_scatter  :    106.77s CPU    109.12s WALL (  290895 calls)

     PWSCF        : 13m 9.07s CPU    14m20.32s WALL


   This run was terminated on:  20:35: 8   7Dec2017            

=------------------------------------------------------------------------------=
   JOB DONE.
=------------------------------------------------------------------------------=
