
     Program PWSCF v.5.1 starts on 16Nov2017 at  7:53:50 

     This program is part of the open-source Quantum ESPRESSO suite
     for quantum simulation of materials; please cite
         "P. Giannozzi et al., J. Phys.:Condens. Matter 21 395502 (2009);
          URL http://www.quantum-espresso.org", 
     in publications or presentations arising from this work. More details at
     http://www.quantum-espresso.org/quote

     Parallel version (MPI), running on    16 processors
     R & G space division:  proc/nbgrp/npool/nimage =      16
     Waiting for input...
     Reading input from standard input
Warning: card &IONS ignored
Warning: card   ION_DYNAMICS='BFGS', ignored
Warning: card / ignored
Warning: card &CELL ignored
Warning: card  CELL_DYNAMICS = 'BFGS' ignored
Warning: card / ignored

     Current dimensions of program PWSCF are:
     Max number of different atomic species (ntypx) = 10
     Max number of k-points (npk) =  40000
     Max angular momentum in pseudopotentials (lmaxx) =  3
 kfg - two_fermi_energies  F

     Subspace diagonalization in iterative solution of the eigenvalue problem:
     a serial algorithm will be used


     Parallelization info
     --------------------
     sticks:   dense  smooth     PW     G-vecs:    dense   smooth      PW
     Min         128     102     29                 3764     2687     418
     Max         129     103     30                 3766     2705     421
     Sum        2055    1639    475                60231    43123    6709



     bravais-lattice index     =            0
     lattice parameter (alat)  =    12.129220639  a.u.
     unit-cell volume          =    1260.4808 (a.u.)^3
     number of atoms/cell      =           16
     number of atomic types    =            3
     number of electrons       =       128.00
     number of Kohn-Sham states=           64
     kinetic-energy cutoff     =      40.0000  Ry
     charge density cutoff     =     200.0000  Ry
     convergence threshold     =      1.0E-10
     mixing beta               =       0.3000
     number of iterations used =            8  local-TF  mixing
     Exchange-correlation      = SLA  PW   PSX  PSC ( 1  4 10  8 0)
     A smooth kinetic-energy cutoff is imposed at      39.5000 Ry
     height of the smooth step-function =             800.0000 Ry
     width of the smooth step-function  =               1.0000 Ry


     celldm(1)=  12.129221  celldm(2)=   0.000000  celldm(3)=   0.000000
     celldm(4)=   0.000000  celldm(5)=   0.000000  celldm(6)=   0.000000

     crystal axes: (cart. coord. in units of alat)
               a(1) = (  -0.016871162896   0.689455331394   0.724131693737 )  
               a(2) = (   0.695282753649  -0.021769106798   0.729029637639 )  
               a(3) = (   0.680339325181   0.679409846828  -0.006825678329 )  

     reciprocal axes: (cart. coord. in units 2 pi/alat)
               b(1) = ( -0.700986  0.708874  0.689704 )  
               b(2) = (  0.703147 -0.697275  0.680267 )  
               b(3) = (  0.733880  0.730169 -0.678105 )  


     PseudoPot. # 1 for Ca read from file:
     /users/kfg/psuedo/gbrv_1.5/ca.pbesol.UPF
     MD5 check sum: 0533207b58cddeaa036efa5b63902087
     Pseudo is Ultrasoft + core correction, Zval = 10.0
     Generated by new atomic code, or converted to UPF format
     Using radial grid of  845 points,  6 beta functions with: 
                l(1) =   0
                l(2) =   0
                l(3) =   1
                l(4) =   1
                l(5) =   2
                l(6) =   2
     Q(r) pseudized with  8 coefficients,  rinner =    1.500   1.500   1.500
                                                       1.500   1.500

     PseudoPot. # 2 for Mg read from file:
     /users/kfg/psuedo/gbrv_1.5/mg.pbesol.UPF
     MD5 check sum: 4059f37963cf5867752dbf5ab2400678
     Pseudo is Ultrasoft, Zval = 10.0
     Generated by new atomic code, or converted to UPF format
     Using radial grid of  821 points,  7 beta functions with: 
                l(1) =   0
                l(2) =   0
                l(3) =   0
                l(4) =   1
                l(5) =   1
                l(6) =   2
                l(7) =   2
     Q(r) pseudized with  8 coefficients,  rinner =    1.200   1.200   1.200
                                                       1.200   1.200

     PseudoPot. # 3 for O  read from file:
     /users/kfg/psuedo/gbrv_1.5/o.pbesol.UPF
     MD5 check sum: 501638753501ef6325af9037351f7734
     Pseudo is Ultrasoft + core correction, Zval =  6.0
     Generated by new atomic code, or converted to UPF format
     Using radial grid of  737 points,  5 beta functions with: 
                l(1) =   0
                l(2) =   0
                l(3) =   1
                l(4) =   1
                l(5) =   2
     Q(r) pseudized with  8 coefficients,  rinner =    0.900   0.900   0.900
                                                       0.900   0.900

     atomic species   valence    mass     pseudopotential
        Ca            10.00    40.07800     Ca( 1.00)
        Mg            10.00    40.07800     Mg( 1.00)
        O              6.00    15.99940     O ( 1.00)

     No symmetry found


                                    s                        frac. trans.

      isym =  1     identity                                     

 cryst.   s( 1) = (     1          0          0      )
                  (     0          1          0      )
                  (     0          0          1      )

 cart.    s( 1) = (  1.0000000  0.0000000 -0.0000000 )
                  (  0.0000000  1.0000000 -0.0000000 )
                  (  0.0000000 -0.0000000  1.0000000 )


     point group C_1 (1)    
     there are  1 classes
     the character table:

       E    
A      1.00

     the symmetry operations in each class:
     E        1

   Cartesian axes

     site n.     atom                  positions (alat units)
         1           Mg  tau(   1) = (   -0.02538187083    0.01999049913   -0.00661088995  )
         2           O   tau(   2) = (    0.36398305383    0.32873011248    0.36839954053  )
         3           Ca  tau(   3) = (    0.34904900440    0.34203181923   -0.02937277091  )
         4           O   tau(   4) = (    0.70077604396    0.64317597249    0.31256319524  )
         5           Ca  tau(   5) = (    0.33271003737   -0.01481283650    0.39091602237  )
         6           O   tau(   6) = (    0.68056358075    0.32972622944    0.70393047220  )
         7           Mg  tau(   7) = (    0.66595105113    0.31506649460    0.36966460802  )
         8           O   tau(   8) = (    1.02543318780    0.68994595522    0.74957881051  )
         9           Ca  tau(   9) = (    0.00959794368    0.33454520774    0.35363229549  )
        10           O   tau(  10) = (    0.32879380621    0.68671370895    0.74692948985  )
        11           Ca  tau(  11) = (    0.34499740359    0.68556737694    0.38243331339  )
        12           O   tau(  12) = (    0.65958609591    0.98877692665    0.67270983290  )
        13           Mg  tau(  13) = (    0.30299106812    0.35112226344    0.71991185110  )
        14           O   tau(  14) = (    0.68041744394    0.68550518721    1.11911037775  )
        15           Mg  tau(  15) = (    0.69976086179    0.67498288058    0.75467839221  )
        16           O   tau(  16) = (    1.03327678395    1.02150863093    1.06953937758  )

   Crystallographic axes

     site n.     atom                  positions (cryst. coord.)
         1           Mg  tau(   1) = (    0.02740351227   -0.03628323813    0.00045208031  )
         2           O   tau(   2) = (    0.23196797688    0.27732845162    0.25733472601  )
         3           Ca  tau(   3) = (   -0.02247949183   -0.01303868429    0.52581896756  )
         4           O   tau(   4) = (    0.18027277170    0.25690468790    0.77196192692  )
         5           Ca  tau(   5) = (    0.02589102135    0.51020002840   -0.03172891944  )
         6           O   tau(   6) = (    0.24217277568    0.72748722493    0.26286882072  )
         7           Mg  tau(   7) = (    0.01147945884    0.50004431426    0.46810837386  )
         8           O   tau(   8) = (    0.28725829118    0.74986221719    0.74802864272  )
         9           Ca  tau(   9) = (    0.47432402180    0.01404313119    0.01151836194  )
        10           O   tau(  10) = (    0.77147405931    0.26047363961    0.23621542277  )
        11           Ca  tau(  11) = (    0.50790839958    0.02471176590    0.49443671980  )
        12           O   tau(  12) = (    0.70252848011    0.23195904688    0.74986322943  )
        13           Mg  tau(  13) = (    0.53303523561    0.45795081901   -0.00943839909  )
        14           O   tau(  14) = (    0.78082895735    0.76174187437    0.24100466109  )
        15           Mg  tau(  15) = (    0.50846021792    0.53476905620    0.49464063377  )
        16           O   tau(  16) = (    0.73747431225    0.74184566495    0.77891475162  )

     number of k points=    36
                       cart. coord. in units 2pi/alat
        k(    1) = (   0.0000000   0.0000000   0.0000000), wk =   0.0312500
        k(    2) = (   0.1834700   0.1825423  -0.1695263), wk =   0.0625000
        k(    3) = (  -0.3669400  -0.3650846   0.3390527), wk =   0.0312500
        k(    4) = (   0.1757868  -0.1743187   0.1700667), wk =   0.0625000
        k(    5) = (   0.3592568   0.0082235   0.0005404), wk =   0.0625000
        k(    6) = (  -0.1911531  -0.5394033   0.5091194), wk =   0.0625000
        k(    7) = (  -0.0076832  -0.3568610   0.3395931), wk =   0.0625000
        k(    8) = (  -0.3515736   0.3486375  -0.3401335), wk =   0.0312500
        k(    9) = (  -0.1681037   0.5311798  -0.5096598), wk =   0.0625000
        k(   10) = (  -0.7185136  -0.0164471  -0.0010808), wk =   0.0312500
        k(   11) = (  -0.1752464   0.1772185   0.1724261), wk =   0.0625000
        k(   12) = (   0.0082235   0.3597607   0.0028997), wk =   0.0625000
        k(   13) = (  -0.5421864  -0.1878661   0.5114788), wk =   0.0625000
        k(   14) = (  -0.3587164  -0.0053238   0.3419524), wk =   0.0625000
        k(   15) = (   0.0005404   0.0028997   0.3424928), wk =   0.0625000
        k(   16) = (   0.1840104   0.1854420   0.1729665), wk =   0.0625000
        k(   17) = (  -0.3663996  -0.3621849   0.6815455), wk =   0.0625000
        k(   18) = (  -0.1829296  -0.1796426   0.5120191), wk =   0.0625000
        k(   19) = (  -0.5268201   0.5258559  -0.1677074), wk =   0.0625000
        k(   20) = (  -0.3433501   0.7083982  -0.3372338), wk =   0.0625000
        k(   21) = (  -0.8937600   0.1607714   0.1713453), wk =   0.0625000
        k(   22) = (  -0.7102901   0.3433137   0.0018189), wk =   0.0625000
        k(   23) = (  -0.3510333   0.3515372   0.0023593), wk =   0.0625000
        k(   24) = (  -0.1675633   0.5340795  -0.1671670), wk =   0.0625000
        k(   25) = (  -0.7179732  -0.0135474   0.3414120), wk =   0.0625000
        k(   26) = (  -0.5345032   0.1689949   0.1718857), wk =   0.0625000
        k(   27) = (   0.3504929  -0.3544369  -0.3448521), wk =   0.0312500
        k(   28) = (   0.5339628  -0.1718946  -0.5143785), wk =   0.0625000
        k(   29) = (  -0.0164471  -0.7195215  -0.0057994), wk =   0.0312500
        k(   30) = (   0.5262797  -0.5287557  -0.1747854), wk =   0.0625000
        k(   31) = (   0.7097497  -0.3462134  -0.3443117), wk =   0.0625000
        k(   32) = (   0.1593397  -0.8938402   0.1642673), wk =   0.0625000
        k(   33) = (   0.3428097  -0.7112979  -0.0052590), wk =   0.0625000
        k(   34) = (  -0.0010808  -0.0057994  -0.6849856), wk =   0.0312500
        k(   35) = (   0.1823892   0.1767428  -0.8545119), wk =   0.0625000
        k(   36) = (  -0.3680207  -0.3708840  -0.3459329), wk =   0.0312500

                       cryst. coord.
        k(    1) = (   0.0000000   0.0000000   0.0000000), wk =   0.0312500
        k(    2) = (   0.0000000  -0.0000000   0.2500000), wk =   0.0625000
        k(    3) = (  -0.0000000   0.0000000  -0.5000000), wk =   0.0312500
        k(    4) = (   0.0000000   0.2500000  -0.0000000), wk =   0.0625000
        k(    5) = (   0.0000000   0.2500000   0.2500000), wk =   0.0625000
        k(    6) = (  -0.0000000   0.2500000  -0.5000000), wk =   0.0625000
        k(    7) = (  -0.0000000   0.2500000  -0.2500000), wk =   0.0625000
        k(    8) = (   0.0000000  -0.5000000   0.0000000), wk =   0.0312500
        k(    9) = (   0.0000000  -0.5000000   0.2500000), wk =   0.0625000
        k(   10) = (  -0.0000000  -0.5000000  -0.5000000), wk =   0.0312500
        k(   11) = (   0.2500000   0.0000000   0.0000000), wk =   0.0625000
        k(   12) = (   0.2500000   0.0000000   0.2500000), wk =   0.0625000
        k(   13) = (   0.2500000   0.0000000  -0.5000000), wk =   0.0625000
        k(   14) = (   0.2500000  -0.0000000  -0.2500000), wk =   0.0625000
        k(   15) = (   0.2500000   0.2500000  -0.0000000), wk =   0.0625000
        k(   16) = (   0.2500000   0.2500000   0.2500000), wk =   0.0625000
        k(   17) = (   0.2500000   0.2500000  -0.5000000), wk =   0.0625000
        k(   18) = (   0.2500000   0.2500000  -0.2500000), wk =   0.0625000
        k(   19) = (   0.2500000  -0.5000000   0.0000000), wk =   0.0625000
        k(   20) = (   0.2500000  -0.5000000   0.2500000), wk =   0.0625000
        k(   21) = (   0.2500000  -0.5000000  -0.5000000), wk =   0.0625000
        k(   22) = (   0.2500000  -0.5000000  -0.2500000), wk =   0.0625000
        k(   23) = (   0.2500000  -0.2500000   0.0000000), wk =   0.0625000
        k(   24) = (   0.2500000  -0.2500000   0.2500000), wk =   0.0625000
        k(   25) = (   0.2500000  -0.2500000  -0.5000000), wk =   0.0625000
        k(   26) = (   0.2500000  -0.2500000  -0.2500000), wk =   0.0625000
        k(   27) = (  -0.5000000  -0.0000000  -0.0000000), wk =   0.0312500
        k(   28) = (  -0.5000000   0.0000000   0.2500000), wk =   0.0625000
        k(   29) = (  -0.5000000  -0.0000000  -0.5000000), wk =   0.0312500
        k(   30) = (  -0.5000000   0.2500000  -0.0000000), wk =   0.0625000
        k(   31) = (  -0.5000000   0.2500000   0.2500000), wk =   0.0625000
        k(   32) = (  -0.5000000   0.2500000  -0.5000000), wk =   0.0625000
        k(   33) = (  -0.5000000   0.2500000  -0.2500000), wk =   0.0625000
        k(   34) = (  -0.5000000  -0.5000000   0.0000000), wk =   0.0312500
        k(   35) = (  -0.5000000  -0.5000000   0.2500000), wk =   0.0625000
        k(   36) = (  -0.5000000  -0.5000000  -0.5000000), wk =   0.0312500

     Dense  grid:    60231 G-vectors     FFT dimensions: (  60,  60,  54)

     Smooth grid:    43123 G-vectors     FFT dimensions: (  50,  50,  48)

     Largest allocated arrays     est. size (Mb)     dimensions
        Kohn-Sham Wavefunctions         0.35 Mb     (     354,   64)
        NL pseudopotentials             1.36 Mb     (     354,  252)
        Each V/rho on FFT grid          0.22 Mb     (   14400)
        Each G-vector array             0.03 Mb     (    3765)
        G-vector shells                 0.03 Mb     (    3668)
     Largest temporary arrays     est. size (Mb)     dimensions
        Auxiliary wavefunctions         1.38 Mb     (     354,  256)
        Each subspace H/S matrix        1.00 Mb     (     256,  256)
        Each <psi_i|beta_j> matrix      0.25 Mb     (     252,   64)
        Arrays for rho mixing           1.76 Mb     (   14400,    8)

     Check: negative/imaginary core charge=   -0.000003    0.000000

     Initial potential from superposition of free atoms

     starting charge  126.77837, renormalised to  128.00000
     Starting wfc are   92 randomized atomic wfcs

     total cpu time spent up to now is       17.9 secs

     per-process dynamical memory:    33.3 Mb

     Self-consistent Calculation

     iteration #  1     ecut=    40.00 Ry     beta=0.30
     Davidson diagonalization with overlap
     ethr =  1.00E-02,  avg # of iterations =  2.0

     total cpu time spent up to now is       54.5 secs

     total energy              =   -1059.91554538 Ry
     Harris-Foulkes estimate   =   -1060.54250546 Ry
     estimated scf accuracy    <       3.23692229 Ry

     iteration #  2     ecut=    40.00 Ry     beta=0.30
     Davidson diagonalization with overlap
     ethr =  2.53E-03,  avg # of iterations =  1.7

     total cpu time spent up to now is       86.7 secs

     total energy              =   -1059.44783472 Ry
     Harris-Foulkes estimate   =   -1060.01616433 Ry
     estimated scf accuracy    <       1.39655452 Ry

     iteration #  3     ecut=    40.00 Ry     beta=0.30
     Davidson diagonalization with overlap
     ethr =  1.09E-03,  avg # of iterations =  2.0

     total cpu time spent up to now is      130.3 secs

     total energy              =   -1059.66275458 Ry
     Harris-Foulkes estimate   =   -1059.70736091 Ry
     estimated scf accuracy    <       0.17455599 Ry

     iteration #  4     ecut=    40.00 Ry     beta=0.30
     Davidson diagonalization with overlap
     ethr =  1.36E-04,  avg # of iterations =  2.0

     total cpu time spent up to now is      175.3 secs

     total energy              =   -1059.61616753 Ry
     Harris-Foulkes estimate   =   -1059.68032901 Ry
     estimated scf accuracy    <       0.11047760 Ry

     iteration #  5     ecut=    40.00 Ry     beta=0.30
     Davidson diagonalization with overlap
     ethr =  8.63E-05,  avg # of iterations =  2.0

     total cpu time spent up to now is      219.3 secs

     total energy              =   -1059.63322425 Ry
     Harris-Foulkes estimate   =   -1059.63465570 Ry
     estimated scf accuracy    <       0.01684751 Ry

     iteration #  6     ecut=    40.00 Ry     beta=0.30
     Davidson diagonalization with overlap
     ethr =  1.32E-05,  avg # of iterations =  1.0

     total cpu time spent up to now is      247.5 secs

     total energy              =   -1059.62959510 Ry
     Harris-Foulkes estimate   =   -1059.63351373 Ry
     estimated scf accuracy    <       0.00973935 Ry

     iteration #  7     ecut=    40.00 Ry     beta=0.30
     Davidson diagonalization with overlap
     ethr =  7.61E-06,  avg # of iterations =  2.0

     total cpu time spent up to now is      285.6 secs

     total energy              =   -1059.63033400 Ry
     Harris-Foulkes estimate   =   -1059.63061492 Ry
     estimated scf accuracy    <       0.00086728 Ry

     iteration #  8     ecut=    40.00 Ry     beta=0.30
     Davidson diagonalization with overlap
     ethr =  6.78E-07,  avg # of iterations =  2.0

     total cpu time spent up to now is      325.5 secs

     total energy              =   -1059.63038629 Ry
     Harris-Foulkes estimate   =   -1059.63045420 Ry
     estimated scf accuracy    <       0.00018000 Ry

     iteration #  9     ecut=    40.00 Ry     beta=0.30
     Davidson diagonalization with overlap
     ethr =  1.41E-07,  avg # of iterations =  2.0

     total cpu time spent up to now is      367.1 secs

     total energy              =   -1059.63039436 Ry
     Harris-Foulkes estimate   =   -1059.63040940 Ry
     estimated scf accuracy    <       0.00008572 Ry

     iteration # 10     ecut=    40.00 Ry     beta=0.30
     Davidson diagonalization with overlap
     ethr =  6.70E-08,  avg # of iterations =  1.1

     total cpu time spent up to now is      395.1 secs

     total energy              =   -1059.63037950 Ry
     Harris-Foulkes estimate   =   -1059.63039707 Ry
     estimated scf accuracy    <       0.00005302 Ry

     iteration # 11     ecut=    40.00 Ry     beta=0.30
     Davidson diagonalization with overlap
     ethr =  4.14E-08,  avg # of iterations =  2.0

     total cpu time spent up to now is      433.7 secs

     total energy              =   -1059.63038354 Ry
     Harris-Foulkes estimate   =   -1059.63038581 Ry
     estimated scf accuracy    <       0.00000801 Ry

     iteration # 12     ecut=    40.00 Ry     beta=0.30
     Davidson diagonalization with overlap
     ethr =  6.26E-09,  avg # of iterations =  2.0

     total cpu time spent up to now is      472.1 secs

     total energy              =   -1059.63038316 Ry
     Harris-Foulkes estimate   =   -1059.63038431 Ry
     estimated scf accuracy    <       0.00000234 Ry

     iteration # 13     ecut=    40.00 Ry     beta=0.30
     Davidson diagonalization with overlap
     ethr =  1.83E-09,  avg # of iterations =  2.0

     total cpu time spent up to now is      511.6 secs

     total energy              =   -1059.63038346 Ry
     Harris-Foulkes estimate   =   -1059.63038349 Ry
     estimated scf accuracy    <       0.00000020 Ry

     iteration # 14     ecut=    40.00 Ry     beta=0.30
     Davidson diagonalization with overlap
     ethr =  1.56E-10,  avg # of iterations =  2.0

     total cpu time spent up to now is      549.1 secs

     total energy              =   -1059.63038345 Ry
     Harris-Foulkes estimate   =   -1059.63038347 Ry
     estimated scf accuracy    <       0.00000009 Ry

     iteration # 15     ecut=    40.00 Ry     beta=0.30
     Davidson diagonalization with overlap
     ethr =  7.22E-11,  avg # of iterations =  2.0

     total cpu time spent up to now is      585.1 secs

     total energy              =   -1059.63038344 Ry
     Harris-Foulkes estimate   =   -1059.63038345 Ry
     estimated scf accuracy    <       0.00000003 Ry

     iteration # 16     ecut=    40.00 Ry     beta=0.30
     Davidson diagonalization with overlap
     ethr =  2.23E-11,  avg # of iterations =  2.0

     total cpu time spent up to now is      623.9 secs

     total energy              =   -1059.63038344 Ry
     Harris-Foulkes estimate   =   -1059.63038345 Ry
     estimated scf accuracy    <          5.9E-09 Ry

     iteration # 17     ecut=    40.00 Ry     beta=0.30
     Davidson diagonalization with overlap
     ethr =  4.59E-12,  avg # of iterations =  2.0

     total cpu time spent up to now is      663.9 secs

     total energy              =   -1059.63038344 Ry
     Harris-Foulkes estimate   =   -1059.63038344 Ry
     estimated scf accuracy    <          1.9E-09 Ry

     iteration # 18     ecut=    40.00 Ry     beta=0.30
     Davidson diagonalization with overlap
     ethr =  1.45E-12,  avg # of iterations =  2.0

     total cpu time spent up to now is      699.2 secs

     total energy              =   -1059.63038344 Ry
     Harris-Foulkes estimate   =   -1059.63038344 Ry
     estimated scf accuracy    <          6.9E-10 Ry

     iteration # 19     ecut=    40.00 Ry     beta=0.30
     Davidson diagonalization with overlap
     ethr =  5.36E-13,  avg # of iterations =  2.0

     total cpu time spent up to now is      737.9 secs

     total energy              =   -1059.63038345 Ry
     Harris-Foulkes estimate   =   -1059.63038344 Ry
     estimated scf accuracy    <          1.0E-10 Ry

     iteration # 20     ecut=    40.00 Ry     beta=0.30
     Davidson diagonalization with overlap
     ethr =  1.00E-13,  avg # of iterations =  1.3

     total cpu time spent up to now is      768.0 secs

     End of self-consistent calculation

          k = 0.0000 0.0000 0.0000 (  5411 PWs)   bands (ev):

   -65.6698 -65.1551 -65.1098 -64.6834 -32.6816 -32.6135 -32.6072 -32.1637
   -32.1169 -32.0922 -32.0899 -32.0732 -32.0591 -31.6925 -31.6538 -31.6266
   -29.3653 -29.2653 -29.1982 -28.4864 -11.6697 -11.4045 -11.2868 -11.2044
   -10.6418 -10.5313 -10.3883 -10.3008 -10.2485 -10.1693  -9.9114  -9.8180
    -8.5065  -7.8669  -7.7876  -7.7419  -7.1298  -6.8221  -6.6225  -6.3478
     3.2804   3.9867   4.0828   4.8198   5.0644   5.0849   5.1377   6.0762
     6.2006   6.2398   6.2707   6.2954   6.5321   6.6049   6.7494   6.8665
     6.9191   7.0014   7.1230   7.1572   7.2294   7.6039   7.6925   7.8586

     occupation numbers 
     1.0000   1.0000   1.0000   1.0000   1.0000   1.0000   1.0000   1.0000
     1.0000   1.0000   1.0000   1.0000   1.0000   1.0000   1.0000   1.0000
     1.0000   1.0000   1.0000   1.0000   1.0000   1.0000   1.0000   1.0000
     1.0000   1.0000   1.0000   1.0000   1.0000   1.0000   1.0000   1.0000
     1.0000   1.0000   1.0000   1.0000   1.0000   1.0000   1.0000   1.0000
     1.0000   1.0000   1.0000   1.0000   1.0000   1.0000   1.0000   1.0000
     1.0000   1.0000   1.0000   1.0000   1.0000   1.0000   1.0000   1.0000
     1.0000   1.0000   1.0000   1.0000   1.0000   1.0000   1.0000   1.0000

          k = 0.1835 0.1825-0.1695 (  5394 PWs)   bands (ev):

   -65.6698 -65.1551 -65.1098 -64.6834 -32.6817 -32.6134 -32.6073 -32.1637
   -32.1170 -32.0921 -32.0899 -32.0733 -32.0592 -31.6926 -31.6539 -31.6267
   -29.3497 -29.2747 -29.2042 -28.4868 -11.5379 -11.3273 -11.2120 -11.1531
   -10.7271 -10.5827 -10.5297 -10.4629 -10.2817 -10.1877  -9.9912  -9.8657
    -8.2515  -7.7873  -7.6862  -7.5631  -7.2318  -6.8838  -6.7049  -6.4739
     3.5744   4.1614   4.4284   4.8857   5.0153   5.1876   5.3085   5.8926
     5.9635   6.1244   6.1716   6.2950   6.3438   6.5096   6.6342   6.6902
     6.9024   7.0167   7.0457   7.1719   7.1850   7.3438   7.5393   7.5978

     occupation numbers 
     1.0000   1.0000   1.0000   1.0000   1.0000   1.0000   1.0000   1.0000
     1.0000   1.0000   1.0000   1.0000   1.0000   1.0000   1.0000   1.0000
     1.0000   1.0000   1.0000   1.0000   1.0000   1.0000   1.0000   1.0000
     1.0000   1.0000   1.0000   1.0000   1.0000   1.0000   1.0000   1.0000
     1.0000   1.0000   1.0000   1.0000   1.0000   1.0000   1.0000   1.0000
     1.0000   1.0000   1.0000   1.0000   1.0000   1.0000   1.0000   1.0000
     1.0000   1.0000   1.0000   1.0000   1.0000   1.0000   1.0000   1.0000
     1.0000   1.0000   1.0000   1.0000   1.0000   1.0000   1.0000   1.0000

          k =-0.3669-0.3651 0.3391 (  5390 PWs)   bands (ev):

   -65.6698 -65.1551 -65.1098 -64.6834 -32.6817 -32.6133 -32.6073 -32.1638
   -32.1170 -32.0921 -32.0899 -32.0733 -32.0593 -31.6926 -31.6540 -31.6268
   -29.3233 -29.2956 -29.2096 -28.4871 -11.3232 -11.2059 -11.1641 -10.9655
   -10.9488 -10.7919 -10.7259 -10.5164 -10.2835 -10.2076 -10.0967  -9.8797
    -7.8934  -7.7836  -7.5354  -7.4555  -7.2937  -6.9529  -6.8161  -6.6431
     4.1973   4.3467   4.5467   4.9021   5.2239   5.3437   5.4908   5.5565
     5.7397   5.8807   6.0471   6.0736   6.2081   6.2795   6.4934   6.7047
     6.8643   6.9429   7.0224   7.0701   7.1970   7.2682   7.3553   7.4566

     occupation numbers 
     1.0000   1.0000   1.0000   1.0000   1.0000   1.0000   1.0000   1.0000
     1.0000   1.0000   1.0000   1.0000   1.0000   1.0000   1.0000   1.0000
     1.0000   1.0000   1.0000   1.0000   1.0000   1.0000   1.0000   1.0000
     1.0000   1.0000   1.0000   1.0000   1.0000   1.0000   1.0000   1.0000
     1.0000   1.0000   1.0000   1.0000   1.0000   1.0000   1.0000   1.0000
     1.0000   1.0000   1.0000   1.0000   1.0000   1.0000   1.0000   1.0000
     1.0000   1.0000   1.0000   1.0000   1.0000   1.0000   1.0000   1.0000
     1.0000   1.0000   1.0000   1.0000   1.0000   1.0000   1.0000   1.0000

          k = 0.1758-0.1743 0.1701 (  5390 PWs)   bands (ev):

   -65.6698 -65.1551 -65.1098 -64.6834 -32.6817 -32.6135 -32.6073 -32.1636
   -32.1163 -32.0919 -32.0901 -32.0736 -32.0595 -31.6926 -31.6538 -31.6267
   -29.3637 -29.2659 -29.1979 -28.4877 -11.6334 -11.3880 -11.2244 -11.1627
   -10.6489 -10.5263 -10.3979 -10.3361 -10.2711 -10.2100 -10.0695  -9.9539
    -8.2730  -7.8093  -7.7422  -7.5572  -7.1388  -6.8885  -6.7172  -6.4829
     3.5270   4.2575   4.3009   4.7480   5.0458   5.1549   5.2819   5.7832
     5.9877   6.1123   6.2071   6.3372   6.4085   6.5640   6.6622   6.7735
     6.9073   7.0193   7.0686   7.1542   7.2253   7.2874   7.5576   7.7201

     occupation numbers 
     1.0000   1.0000   1.0000   1.0000   1.0000   1.0000   1.0000   1.0000
     1.0000   1.0000   1.0000   1.0000   1.0000   1.0000   1.0000   1.0000
     1.0000   1.0000   1.0000   1.0000   1.0000   1.0000   1.0000   1.0000
     1.0000   1.0000   1.0000   1.0000   1.0000   1.0000   1.0000   1.0000
     1.0000   1.0000   1.0000   1.0000   1.0000   1.0000   1.0000   1.0000
     1.0000   1.0000   1.0000   1.0000   1.0000   1.0000   1.0000   1.0000
     1.0000   1.0000   1.0000   1.0000   1.0000   1.0000   1.0000   1.0000
     1.0000   1.0000   1.0000   1.0000   1.0000   1.0000   1.0000   1.0000

          k = 0.3593 0.0082 0.0005 (  5377 PWs)   bands (ev):

   -65.6698 -65.1551 -65.1098 -64.6834 -32.6817 -32.6134 -32.6073 -32.1637
   -32.1164 -32.0920 -32.0900 -32.0737 -32.0596 -31.6926 -31.6539 -31.6267
   -29.3493 -29.2747 -29.2043 -28.4869 -11.5401 -11.3391 -11.2416 -11.0683
   -10.7457 -10.5900 -10.5461 -10.4710 -10.2653 -10.2249 -10.0126  -9.8333
    -8.2080  -7.8230  -7.6324  -7.5888  -7.2151  -6.8478  -6.8117  -6.4364
     3.6580   4.2260   4.4649   4.8455   5.0597   5.1758   5.2917   5.7864
     5.8594   6.1480   6.2276   6.2504   6.3806   6.5252   6.6289   6.7955
     6.8790   6.9192   6.9773   7.1017   7.1628   7.2300   7.5514   7.6317

     occupation numbers 
     1.0000   1.0000   1.0000   1.0000   1.0000   1.0000   1.0000   1.0000
     1.0000   1.0000   1.0000   1.0000   1.0000   1.0000   1.0000   1.0000
     1.0000   1.0000   1.0000   1.0000   1.0000   1.0000   1.0000   1.0000
     1.0000   1.0000   1.0000   1.0000   1.0000   1.0000   1.0000   1.0000
     1.0000   1.0000   1.0000   1.0000   1.0000   1.0000   1.0000   1.0000
     1.0000   1.0000   1.0000   1.0000   1.0000   1.0000   1.0000   1.0000
     1.0000   1.0000   1.0000   1.0000   1.0000   1.0000   1.0000   1.0000
     1.0000   1.0000   1.0000   1.0000   1.0000   1.0000   1.0000   1.0000

          k =-0.1912-0.5394 0.5091 (  5363 PWs)   bands (ev):

   -65.6698 -65.1551 -65.1098 -64.6834 -32.6817 -32.6133 -32.6073 -32.1638
   -32.1164 -32.0919 -32.0900 -32.0737 -32.0596 -31.6926 -31.6540 -31.6268
   -29.3228 -29.2957 -29.2097 -28.4872 -11.3397 -11.2334 -11.1676 -10.9568
   -10.9122 -10.7900 -10.7322 -10.5241 -10.2780 -10.2008 -10.0169  -9.9304
    -7.9702  -7.7758  -7.5654  -7.4721  -7.3434  -6.8972  -6.7752  -6.5883
     4.2089   4.4098   4.6662   4.8014   5.1806   5.3589   5.4343   5.5835
     5.6233   5.8965   5.9791   6.1269   6.2229   6.3805   6.4660   6.6450
     6.8656   6.9339   6.9800   7.0843   7.1231   7.2369   7.3395   7.5095

     occupation numbers 
     1.0000   1.0000   1.0000   1.0000   1.0000   1.0000   1.0000   1.0000
     1.0000   1.0000   1.0000   1.0000   1.0000   1.0000   1.0000   1.0000
     1.0000   1.0000   1.0000   1.0000   1.0000   1.0000   1.0000   1.0000
     1.0000   1.0000   1.0000   1.0000   1.0000   1.0000   1.0000   1.0000
     1.0000   1.0000   1.0000   1.0000   1.0000   1.0000   1.0000   1.0000
     1.0000   1.0000   1.0000   1.0000   1.0000   1.0000   1.0000   1.0000
     1.0000   1.0000   1.0000   1.0000   1.0000   1.0000   1.0000   1.0000
     1.0000   1.0000   1.0000   1.0000   1.0000   1.0000   1.0000   1.0000

          k =-0.0077-0.3569 0.3396 (  5378 PWs)   bands (ev):

   -65.6698 -65.1551 -65.1098 -64.6834 -32.6817 -32.6134 -32.6073 -32.1637
   -32.1164 -32.0918 -32.0901 -32.0737 -32.0596 -31.6926 -31.6539 -31.6268
   -29.3477 -29.2757 -29.2039 -28.4881 -11.4984 -11.2802 -11.1606 -11.1240
   -10.8071 -10.5939 -10.5334 -10.4323 -10.2923 -10.2054 -10.0993  -9.9977
    -8.0772  -7.7803  -7.6991  -7.3483  -7.2262  -6.9619  -6.6855  -6.6565
     3.9162   4.4392   4.6197   4.7755   5.0792   5.2344   5.4329   5.5620
     5.7315   5.9318   6.1293   6.2092   6.3612   6.4419   6.5467   6.6161
     6.8047   6.9840   7.0278   7.1282   7.1561   7.2338   7.3775   7.6050

     occupation numbers 
     1.0000   1.0000   1.0000   1.0000   1.0000   1.0000   1.0000   1.0000
     1.0000   1.0000   1.0000   1.0000   1.0000   1.0000   1.0000   1.0000
     1.0000   1.0000   1.0000   1.0000   1.0000   1.0000   1.0000   1.0000
     1.0000   1.0000   1.0000   1.0000   1.0000   1.0000   1.0000   1.0000
     1.0000   1.0000   1.0000   1.0000   1.0000   1.0000   1.0000   1.0000
     1.0000   1.0000   1.0000   1.0000   1.0000   1.0000   1.0000   1.0000
     1.0000   1.0000   1.0000   1.0000   1.0000   1.0000   1.0000   1.0000
     1.0000   1.0000   1.0000   1.0000   1.0000   1.0000   1.0000   1.0000

          k =-0.3516 0.3486-0.3401 (  5386 PWs)   bands (ev):

   -65.6698 -65.1551 -65.1098 -64.6834 -32.6817 -32.6136 -32.6073 -32.1636
   -32.1157 -32.0915 -32.0903 -32.0740 -32.0599 -31.6926 -31.6538 -31.6268
   -29.3620 -29.2665 -29.1976 -28.4890 -11.6058 -11.3582 -11.1474 -11.0932
   -10.6856 -10.5131 -10.4483 -10.4014 -10.3038 -10.2164 -10.1668 -10.0925
    -8.0359  -7.8079  -7.6096  -7.3658  -7.1477  -6.9592  -6.8182  -6.6854
     3.9483   4.3864   4.7010   4.7978   4.9338   5.1464   5.4177   5.6441
     5.7061   5.9305   6.1153   6.1498   6.2498   6.4362   6.5342   6.6679
     6.8480   6.9786   7.0896   7.2361   7.2714   7.3126   7.4212   7.4813

     occupation numbers 
     1.0000   1.0000   1.0000   1.0000   1.0000   1.0000   1.0000   1.0000
     1.0000   1.0000   1.0000   1.0000   1.0000   1.0000   1.0000   1.0000
     1.0000   1.0000   1.0000   1.0000   1.0000   1.0000   1.0000   1.0000
     1.0000   1.0000   1.0000   1.0000   1.0000   1.0000   1.0000   1.0000
     1.0000   1.0000   1.0000   1.0000   1.0000   1.0000   1.0000   1.0000
     1.0000   1.0000   1.0000   1.0000   1.0000   1.0000   1.0000   1.0000
     1.0000   1.0000   1.0000   1.0000   1.0000   1.0000   1.0000   1.0000
     1.0000   1.0000   1.0000   1.0000   1.0000   1.0000   1.0000   1.0000

          k =-0.1681 0.5312-0.5097 (  5392 PWs)   bands (ev):

   -65.6698 -65.1551 -65.1098 -64.6834 -32.6817 -32.6134 -32.6073 -32.1637
   -32.1158 -32.0916 -32.0902 -32.0741 -32.0600 -31.6926 -31.6539 -31.6268
   -29.3473 -29.2758 -29.2039 -28.4882 -11.5022 -11.2951 -11.1942 -11.0382
   -10.7718 -10.6235 -10.5680 -10.4558 -10.2754 -10.2448 -10.1183  -9.9586
    -7.9688  -7.8468  -7.6725  -7.4052  -7.2293  -6.9094  -6.7777  -6.6037
     4.0974   4.4336   4.6350   4.8279   5.0108   5.2375   5.4721   5.5440
     5.7236   5.8642   5.9994   6.1926   6.2634   6.4023   6.5402   6.6540
     6.8487   6.9671   6.9832   7.1148   7.1742   7.2484   7.4169   7.4983

     occupation numbers 
     1.0000   1.0000   1.0000   1.0000   1.0000   1.0000   1.0000   1.0000
     1.0000   1.0000   1.0000   1.0000   1.0000   1.0000   1.0000   1.0000
     1.0000   1.0000   1.0000   1.0000   1.0000   1.0000   1.0000   1.0000
     1.0000   1.0000   1.0000   1.0000   1.0000   1.0000   1.0000   1.0000
     1.0000   1.0000   1.0000   1.0000   1.0000   1.0000   1.0000   1.0000
     1.0000   1.0000   1.0000   1.0000   1.0000   1.0000   1.0000   1.0000
     1.0000   1.0000   1.0000   1.0000   1.0000   1.0000   1.0000   1.0000
     1.0000   1.0000   1.0000   1.0000   1.0000   1.0000   1.0000   1.0000

          k =-0.7185-0.0164-0.0011 (  5372 PWs)   bands (ev):

   -65.6698 -65.1551 -65.1098 -64.6834 -32.6817 -32.6133 -32.6073 -32.1637
   -32.1158 -32.0917 -32.0902 -32.0741 -32.0600 -31.6926 -31.6540 -31.6268
   -29.3223 -29.2958 -29.2097 -28.4874 -11.3556 -11.2466 -11.2108 -10.9091
   -10.8584 -10.7908 -10.7340 -10.5327 -10.2840 -10.2000 -10.0907  -9.8361
    -8.0524  -7.7725  -7.5639  -7.5003  -7.3940  -6.8460  -6.7402  -6.5381
     4.2899   4.3740   4.7055   4.9057   5.1516   5.2031   5.3916   5.5293
     5.6955   5.8633   6.0805   6.1565   6.2575   6.3473   6.4321   6.6326
     6.6650   6.8563   6.8988   7.0055   7.1883   7.2605   7.4519   7.5840

     occupation numbers 
     1.0000   1.0000   1.0000   1.0000   1.0000   1.0000   1.0000   1.0000
     1.0000   1.0000   1.0000   1.0000   1.0000   1.0000   1.0000   1.0000
     1.0000   1.0000   1.0000   1.0000   1.0000   1.0000   1.0000   1.0000
     1.0000   1.0000   1.0000   1.0000   1.0000   1.0000   1.0000   1.0000
     1.0000   1.0000   1.0000   1.0000   1.0000   1.0000   1.0000   1.0000
     1.0000   1.0000   1.0000   1.0000   1.0000   1.0000   1.0000   1.0000
     1.0000   1.0000   1.0000   1.0000   1.0000   1.0000   1.0000   1.0000
     1.0000   1.0000   1.0000   1.0000   1.0000   1.0000   1.0000   1.0000

          k =-0.1752 0.1772 0.1724 (  5388 PWs)   bands (ev):

   -65.6698 -65.1551 -65.1098 -64.6834 -32.6816 -32.6135 -32.6073 -32.1637
   -32.1163 -32.0919 -32.0900 -32.0736 -32.0595 -31.6926 -31.6538 -31.6267
   -29.3529 -29.2765 -29.1990 -28.4871 -11.5532 -11.3313 -11.2227 -11.1226
   -10.7352 -10.6078 -10.5066 -10.4281 -10.2939 -10.2142 -10.0182  -9.8363
    -8.2353  -7.7697  -7.6807  -7.5525  -7.2301  -6.8924  -6.7246  -6.4825
     3.5465   4.1603   4.4071   4.8250   4.9961   5.1986   5.2954   5.8856
     5.9873   6.0881   6.2015   6.3262   6.3783   6.4974   6.6421   6.8259
     6.9254   6.9444   7.0230   7.1523   7.2382   7.3167   7.4697   7.7081

     occupation numbers 
     1.0000   1.0000   1.0000   1.0000   1.0000   1.0000   1.0000   1.0000
     1.0000   1.0000   1.0000   1.0000   1.0000   1.0000   1.0000   1.0000
     1.0000   1.0000   1.0000   1.0000   1.0000   1.0000   1.0000   1.0000
     1.0000   1.0000   1.0000   1.0000   1.0000   1.0000   1.0000   1.0000
     1.0000   1.0000   1.0000   1.0000   1.0000   1.0000   1.0000   1.0000
     1.0000   1.0000   1.0000   1.0000   1.0000   1.0000   1.0000   1.0000
     1.0000   1.0000   1.0000   1.0000   1.0000   1.0000   1.0000   1.0000
     1.0000   1.0000   1.0000   1.0000   1.0000   1.0000   1.0000   1.0000

          k = 0.0082 0.3598 0.0029 (  5375 PWs)   bands (ev):

   -65.6698 -65.1551 -65.1098 -64.6834 -32.6816 -32.6134 -32.6073 -32.1637
   -32.1163 -32.0919 -32.0901 -32.0737 -32.0596 -31.6926 -31.6539 -31.6268
   -29.3520 -29.2676 -29.2083 -28.4875 -11.5662 -11.3125 -11.1784 -11.0943
   -10.7446 -10.5980 -10.4987 -10.4335 -10.3249 -10.2026 -10.0307  -9.9204
    -8.2602  -7.8158  -7.7678  -7.3865  -7.1380  -6.8804  -6.6770  -6.6162
     3.6188   4.2852   4.3969   4.8786   5.1178   5.2454   5.3616   5.7104
     5.9870   6.1015   6.2215   6.3245   6.3657   6.4465   6.5192   6.6472
     6.8767   6.9507   7.0034   7.0943   7.1221   7.2375   7.5338   7.7244

     occupation numbers 
     1.0000   1.0000   1.0000   1.0000   1.0000   1.0000   1.0000   1.0000
     1.0000   1.0000   1.0000   1.0000   1.0000   1.0000   1.0000   1.0000
     1.0000   1.0000   1.0000   1.0000   1.0000   1.0000   1.0000   1.0000
     1.0000   1.0000   1.0000   1.0000   1.0000   1.0000   1.0000   1.0000
     1.0000   1.0000   1.0000   1.0000   1.0000   1.0000   1.0000   1.0000
     1.0000   1.0000   1.0000   1.0000   1.0000   1.0000   1.0000   1.0000
     1.0000   1.0000   1.0000   1.0000   1.0000   1.0000   1.0000   1.0000
     1.0000   1.0000   1.0000   1.0000   1.0000   1.0000   1.0000   1.0000

          k =-0.5422-0.1879 0.5115 (  5381 PWs)   bands (ev):

   -65.6698 -65.1551 -65.1098 -64.6834 -32.6817 -32.6133 -32.6073 -32.1638
   -32.1164 -32.0918 -32.0901 -32.0737 -32.0597 -31.6926 -31.6540 -31.6269
   -29.3310 -29.2825 -29.2143 -28.4879 -11.4361 -11.1469 -11.0990 -10.9430
   -10.9215 -10.7682 -10.6225 -10.5800 -10.3616 -10.2118 -10.0429  -9.9863
    -7.9807  -7.7578  -7.6963  -7.3410  -7.2210  -6.9464  -6.7759  -6.6341
     4.1039   4.4913   4.7228   4.8446   5.2013   5.3732   5.4395   5.5544
     5.6623   5.8505   6.0374   6.1160   6.2582   6.3359   6.3953   6.5577
     6.8366   6.8806   6.9669   7.0700   7.2015   7.2697   7.3530   7.5357

     occupation numbers 
     1.0000   1.0000   1.0000   1.0000   1.0000   1.0000   1.0000   1.0000
     1.0000   1.0000   1.0000   1.0000   1.0000   1.0000   1.0000   1.0000
     1.0000   1.0000   1.0000   1.0000   1.0000   1.0000   1.0000   1.0000
     1.0000   1.0000   1.0000   1.0000   1.0000   1.0000   1.0000   1.0000
     1.0000   1.0000   1.0000   1.0000   1.0000   1.0000   1.0000   1.0000
     1.0000   1.0000   1.0000   1.0000   1.0000   1.0000   1.0000   1.0000
     1.0000   1.0000   1.0000   1.0000   1.0000   1.0000   1.0000   1.0000
     1.0000   1.0000   1.0000   1.0000   1.0000   1.0000   1.0000   1.0000

          k =-0.3587-0.0053 0.3420 (  5384 PWs)   bands (ev):

   -65.6698 -65.1551 -65.1098 -64.6834 -32.6817 -32.6134 -32.6073 -32.1637
   -32.1164 -32.0919 -32.0900 -32.0736 -32.0596 -31.6926 -31.6540 -31.6268
   -29.3300 -29.2934 -29.2049 -28.4874 -11.3881 -11.2415 -11.1148 -11.0668
   -10.8277 -10.7658 -10.6495 -10.5198 -10.3438 -10.2361 -10.0098  -9.9236
    -7.9431  -7.7218  -7.5520  -7.4867  -7.3879  -6.9689  -6.8184  -6.4983
     3.9998   4.3419   4.6611   4.7666   5.1634   5.2452   5.4347   5.5751
     5.7436   5.9549   6.1037   6.2020   6.2834   6.4239   6.5532   6.7069
     6.7855   6.8994   6.9497   7.0678   7.2082   7.2616   7.4347   7.5392

     occupation numbers 
     1.0000   1.0000   1.0000   1.0000   1.0000   1.0000   1.0000   1.0000
     1.0000   1.0000   1.0000   1.0000   1.0000   1.0000   1.0000   1.0000
     1.0000   1.0000   1.0000   1.0000   1.0000   1.0000   1.0000   1.0000
     1.0000   1.0000   1.0000   1.0000   1.0000   1.0000   1.0000   1.0000
     1.0000   1.0000   1.0000   1.0000   1.0000   1.0000   1.0000   1.0000
     1.0000   1.0000   1.0000   1.0000   1.0000   1.0000   1.0000   1.0000
     1.0000   1.0000   1.0000   1.0000   1.0000   1.0000   1.0000   1.0000
     1.0000   1.0000   1.0000   1.0000   1.0000   1.0000   1.0000   1.0000

          k = 0.0005 0.0029 0.3425 (  5379 PWs)   bands (ev):

   -65.6698 -65.1551 -65.1098 -64.6834 -32.6817 -32.6135 -32.6073 -32.1637
   -32.1170 -32.0922 -32.0899 -32.0732 -32.0591 -31.6926 -31.6538 -31.6267
   -29.3532 -29.2759 -29.1993 -28.4868 -11.5719 -11.3486 -11.2738 -11.0893
   -10.7227 -10.5857 -10.5185 -10.4279 -10.2547 -10.1919  -9.9723  -9.8608
    -8.2372  -7.8394  -7.6676  -7.6477  -7.2230  -6.9604  -6.6339  -6.4004
     3.6177   4.2045   4.3813   4.8805   4.9989   5.1931   5.2672   5.9082
     5.9655   6.1726   6.2216   6.2663   6.3463   6.4139   6.5127   6.7281
     6.8719   6.9302   7.0124   7.0707   7.1748   7.2988   7.6022   7.8027

     occupation numbers 
     1.0000   1.0000   1.0000   1.0000   1.0000   1.0000   1.0000   1.0000
     1.0000   1.0000   1.0000   1.0000   1.0000   1.0000   1.0000   1.0000
     1.0000   1.0000   1.0000   1.0000   1.0000   1.0000   1.0000   1.0000
     1.0000   1.0000   1.0000   1.0000   1.0000   1.0000   1.0000   1.0000
     1.0000   1.0000   1.0000   1.0000   1.0000   1.0000   1.0000   1.0000
     1.0000   1.0000   1.0000   1.0000   1.0000   1.0000   1.0000   1.0000
     1.0000   1.0000   1.0000   1.0000   1.0000   1.0000   1.0000   1.0000
     1.0000   1.0000   1.0000   1.0000   1.0000   1.0000   1.0000   1.0000

          k = 0.1840 0.1854 0.1730 (  5388 PWs)   bands (ev):

   -65.6698 -65.1551 -65.1098 -64.6834 -32.6816 -32.6134 -32.6072 -32.1638
   -32.1170 -32.0922 -32.0899 -32.0733 -32.0592 -31.6926 -31.6538 -31.6267
   -29.3535 -29.2668 -29.2087 -28.4862 -11.5958 -11.3823 -11.2190 -11.1072
   -10.6670 -10.6187 -10.5227 -10.4265 -10.3189 -10.1863  -9.9131  -9.8164
    -8.2783  -7.8321  -7.7629  -7.6139  -7.1299  -6.8973  -6.7047  -6.4469
     3.5413   4.2684   4.3635   4.8282   5.0558   5.1441   5.3322   5.9824
     6.0814   6.1396   6.1875   6.3208   6.3685   6.4688   6.5021   6.7335
     6.8317   6.9369   7.0193   7.1668   7.1926   7.2902   7.4563   7.6762

     occupation numbers 
     1.0000   1.0000   1.0000   1.0000   1.0000   1.0000   1.0000   1.0000
     1.0000   1.0000   1.0000   1.0000   1.0000   1.0000   1.0000   1.0000
     1.0000   1.0000   1.0000   1.0000   1.0000   1.0000   1.0000   1.0000
     1.0000   1.0000   1.0000   1.0000   1.0000   1.0000   1.0000   1.0000
     1.0000   1.0000   1.0000   1.0000   1.0000   1.0000   1.0000   1.0000
     1.0000   1.0000   1.0000   1.0000   1.0000   1.0000   1.0000   1.0000
     1.0000   1.0000   1.0000   1.0000   1.0000   1.0000   1.0000   1.0000
     1.0000   1.0000   1.0000   1.0000   1.0000   1.0000   1.0000   1.0000

          k =-0.3664-0.3622 0.6815 (  5394 PWs)   bands (ev):

   -65.6698 -65.1551 -65.1098 -64.6834 -32.6817 -32.6133 -32.6072 -32.1638
   -32.1170 -32.0922 -32.0899 -32.0734 -32.0593 -31.6926 -31.6540 -31.6268
   -29.3329 -29.2816 -29.2143 -28.4865 -11.4450 -11.2590 -11.1635 -10.9723
   -10.8743 -10.7507 -10.6180 -10.5450 -10.3593 -10.2023  -9.9521  -9.8642
    -8.0354  -7.8194  -7.6703  -7.4107  -7.2408  -6.8764  -6.8142  -6.6015
     3.9583   4.5141   4.7327   4.8133   5.0561   5.2968   5.5075   5.6309
     5.7725   5.8716   6.0401   6.1624   6.2913   6.4041   6.5431   6.6410
     6.8269   6.8755   6.9738   7.0263   7.1004   7.2135   7.3775   7.5206

     occupation numbers 
     1.0000   1.0000   1.0000   1.0000   1.0000   1.0000   1.0000   1.0000
     1.0000   1.0000   1.0000   1.0000   1.0000   1.0000   1.0000   1.0000
     1.0000   1.0000   1.0000   1.0000   1.0000   1.0000   1.0000   1.0000
     1.0000   1.0000   1.0000   1.0000   1.0000   1.0000   1.0000   1.0000
     1.0000   1.0000   1.0000   1.0000   1.0000   1.0000   1.0000   1.0000
     1.0000   1.0000   1.0000   1.0000   1.0000   1.0000   1.0000   1.0000
     1.0000   1.0000   1.0000   1.0000   1.0000   1.0000   1.0000   1.0000
     1.0000   1.0000   1.0000   1.0000   1.0000   1.0000   1.0000   1.0000

          k =-0.1829-0.1796 0.5120 (  5377 PWs)   bands (ev):

   -65.6698 -65.1551 -65.1098 -64.6834 -32.6817 -32.6134 -32.6073 -32.1638
   -32.1170 -32.0921 -32.0899 -32.0733 -32.0592 -31.6927 -31.6540 -31.6268
   -29.3301 -29.2933 -29.2048 -28.4872 -11.3801 -11.2449 -11.1790 -11.0907
   -10.8249 -10.7728 -10.5980 -10.4842 -10.3427 -10.2149 -10.0382  -9.8772
    -7.9674  -7.8020  -7.5391  -7.4934  -7.4122  -6.9386  -6.7187  -6.5432
     4.1319   4.4273   4.6217   4.8560   5.1751   5.2466   5.4667   5.5588
     5.7312   5.8458   5.9485   6.1062   6.2557   6.3920   6.4800   6.6717
     6.7333   6.9278   7.0113   7.1140   7.1739   7.3033   7.3946   7.5329

     occupation numbers 
     1.0000   1.0000   1.0000   1.0000   1.0000   1.0000   1.0000   1.0000
     1.0000   1.0000   1.0000   1.0000   1.0000   1.0000   1.0000   1.0000
     1.0000   1.0000   1.0000   1.0000   1.0000   1.0000   1.0000   1.0000
     1.0000   1.0000   1.0000   1.0000   1.0000   1.0000   1.0000   1.0000
     1.0000   1.0000   1.0000   1.0000   1.0000   1.0000   1.0000   1.0000
     1.0000   1.0000   1.0000   1.0000   1.0000   1.0000   1.0000   1.0000
     1.0000   1.0000   1.0000   1.0000   1.0000   1.0000   1.0000   1.0000
     1.0000   1.0000   1.0000   1.0000   1.0000   1.0000   1.0000   1.0000

          k =-0.5268 0.5259-0.1677 (  5383 PWs)   bands (ev):

   -65.6698 -65.1551 -65.1098 -64.6834 -32.6817 -32.6135 -32.6073 -32.1637
   -32.1164 -32.0919 -32.0900 -32.0736 -32.0595 -31.6927 -31.6539 -31.6268
   -29.3512 -29.2768 -29.1989 -28.4881 -11.5260 -11.3349 -11.1915 -11.0670
   -10.7418 -10.5839 -10.5588 -10.4137 -10.3245 -10.2148 -10.0515 -10.0056
    -7.9753  -7.7987  -7.7273  -7.4640  -7.2474  -6.9430  -6.7270  -6.5550
     4.0291   4.4701   4.6431   4.7422   4.9851   5.2619   5.5032   5.6211
     5.7497   5.8151   5.9682   6.1174   6.2034   6.4298   6.5614   6.7087
     6.7584   6.9575   7.0110   7.1083   7.1821   7.3148   7.4162   7.6458

     occupation numbers 
     1.0000   1.0000   1.0000   1.0000   1.0000   1.0000   1.0000   1.0000
     1.0000   1.0000   1.0000   1.0000   1.0000   1.0000   1.0000   1.0000
     1.0000   1.0000   1.0000   1.0000   1.0000   1.0000   1.0000   1.0000
     1.0000   1.0000   1.0000   1.0000   1.0000   1.0000   1.0000   1.0000
     1.0000   1.0000   1.0000   1.0000   1.0000   1.0000   1.0000   1.0000
     1.0000   1.0000   1.0000   1.0000   1.0000   1.0000   1.0000   1.0000
     1.0000   1.0000   1.0000   1.0000   1.0000   1.0000   1.0000   1.0000
     1.0000   1.0000   1.0000   1.0000   1.0000   1.0000   1.0000   1.0000

          k =-0.3434 0.7084-0.3372 (  5378 PWs)   bands (ev):

   -65.6698 -65.1551 -65.1098 -64.6834 -32.6817 -32.6134 -32.6073 -32.1637
   -32.1164 -32.0919 -32.0901 -32.0737 -32.0596 -31.6926 -31.6539 -31.6268
   -29.3519 -29.2671 -29.2086 -28.4874 -11.5760 -11.3689 -11.1411 -11.0446
   -10.6845 -10.6370 -10.5388 -10.4386 -10.3175 -10.2431 -10.0434  -9.9287
    -8.0425  -7.8507  -7.6420  -7.5534  -7.1502  -6.9860  -6.8027  -6.4659
     3.8960   4.5181   4.6324   4.7165   5.0008   5.2124   5.4889   5.6405
     5.7433   5.9017   6.1032   6.2713   6.3288   6.5026   6.5895   6.6858
     6.7770   6.8859   6.9321   6.9801   7.0847   7.2901   7.5156   7.5621

     occupation numbers 
     1.0000   1.0000   1.0000   1.0000   1.0000   1.0000   1.0000   1.0000
     1.0000   1.0000   1.0000   1.0000   1.0000   1.0000   1.0000   1.0000
     1.0000   1.0000   1.0000   1.0000   1.0000   1.0000   1.0000   1.0000
     1.0000   1.0000   1.0000   1.0000   1.0000   1.0000   1.0000   1.0000
     1.0000   1.0000   1.0000   1.0000   1.0000   1.0000   1.0000   1.0000
     1.0000   1.0000   1.0000   1.0000   1.0000   1.0000   1.0000   1.0000
     1.0000   1.0000   1.0000   1.0000   1.0000   1.0000   1.0000   1.0000
     1.0000   1.0000   1.0000   1.0000   1.0000   1.0000   1.0000   1.0000

          k =-0.8938 0.1608 0.1713 (  5393 PWs)   bands (ev):

   -65.6698 -65.1551 -65.1098 -64.6834 -32.6817 -32.6133 -32.6073 -32.1638
   -32.1164 -32.0920 -32.0900 -32.0738 -32.0597 -31.6926 -31.6540 -31.6267
   -29.3325 -29.2816 -29.2144 -28.4866 -11.4483 -11.2761 -11.1805 -10.9414
   -10.8455 -10.7600 -10.6148 -10.5538 -10.3544 -10.1967 -10.0029  -9.8309
    -7.9625  -7.8600  -7.7087  -7.4474  -7.2572  -6.9118  -6.7637  -6.5509
     4.1031   4.5085   4.7355   4.8170   5.0732   5.2320   5.5344   5.6023
     5.7576   5.9513   6.0173   6.1333   6.1957   6.3322   6.4326   6.6785
     6.7736   6.9297   7.0146   7.0310   7.0793   7.1908   7.3249   7.5107

     occupation numbers 
     1.0000   1.0000   1.0000   1.0000   1.0000   1.0000   1.0000   1.0000
     1.0000   1.0000   1.0000   1.0000   1.0000   1.0000   1.0000   1.0000
     1.0000   1.0000   1.0000   1.0000   1.0000   1.0000   1.0000   1.0000
     1.0000   1.0000   1.0000   1.0000   1.0000   1.0000   1.0000   1.0000
     1.0000   1.0000   1.0000   1.0000   1.0000   1.0000   1.0000   1.0000
     1.0000   1.0000   1.0000   1.0000   1.0000   1.0000   1.0000   1.0000
     1.0000   1.0000   1.0000   1.0000   1.0000   1.0000   1.0000   1.0000
     1.0000   1.0000   1.0000   1.0000   1.0000   1.0000   1.0000   1.0000

          k =-0.7103 0.3433 0.0018 (  5382 PWs)   bands (ev):

   -65.6698 -65.1551 -65.1098 -64.6834 -32.6817 -32.6134 -32.6073 -32.1637
   -32.1164 -32.0919 -32.0900 -32.0737 -32.0596 -31.6927 -31.6540 -31.6268
   -29.3287 -29.2947 -29.2045 -28.4873 -11.3556 -11.2005 -11.1779 -11.0971
   -10.9748 -10.7667 -10.5539 -10.4706 -10.3246 -10.2197  -9.9977  -9.9159
    -7.9447  -7.8633  -7.5694  -7.4876  -7.3007  -6.8842  -6.7013  -6.6577
     4.3628   4.5089   4.5891   4.8154   5.1341   5.3057   5.4363   5.5037
     5.6438   5.7209   5.9390   6.1182   6.2600   6.4135   6.5803   6.6608
     6.8158   6.8773   6.9711   7.0549   7.1161   7.1856   7.2981   7.5802

     occupation numbers 
     1.0000   1.0000   1.0000   1.0000   1.0000   1.0000   1.0000   1.0000
     1.0000   1.0000   1.0000   1.0000   1.0000   1.0000   1.0000   1.0000
     1.0000   1.0000   1.0000   1.0000   1.0000   1.0000   1.0000   1.0000
     1.0000   1.0000   1.0000   1.0000   1.0000   1.0000   1.0000   1.0000
     1.0000   1.0000   1.0000   1.0000   1.0000   1.0000   1.0000   1.0000
     1.0000   1.0000   1.0000   1.0000   1.0000   1.0000   1.0000   1.0000
     1.0000   1.0000   1.0000   1.0000   1.0000   1.0000   1.0000   1.0000
     1.0000   1.0000   1.0000   1.0000   1.0000   1.0000   1.0000   1.0000

          k =-0.3510 0.3515 0.0024 (  5392 PWs)   bands (ev):

   -65.6698 -65.1551 -65.1098 -64.6834 -32.6817 -32.6135 -32.6073 -32.1636
   -32.1157 -32.0916 -32.0902 -32.0740 -32.0599 -31.6926 -31.6539 -31.6268
   -29.3508 -29.2775 -29.1987 -28.4883 -11.5123 -11.3037 -11.1431 -11.0677
   -10.8024 -10.6090 -10.5201 -10.4452 -10.3796 -10.2187 -10.1250  -9.9282
    -8.0292  -7.8017  -7.5907  -7.3662  -7.2111  -6.8842  -6.8376  -6.6865
     3.9085   4.4601   4.5395   4.7814   5.0879   5.2696   5.4376   5.5058
     5.7777   5.8651   6.1025   6.2161   6.3092   6.4120   6.6179   6.6878
     6.8541   6.9515   6.9984   7.1237   7.2419   7.2864   7.4146   7.5395

     occupation numbers 
     1.0000   1.0000   1.0000   1.0000   1.0000   1.0000   1.0000   1.0000
     1.0000   1.0000   1.0000   1.0000   1.0000   1.0000   1.0000   1.0000
     1.0000   1.0000   1.0000   1.0000   1.0000   1.0000   1.0000   1.0000
     1.0000   1.0000   1.0000   1.0000   1.0000   1.0000   1.0000   1.0000
     1.0000   1.0000   1.0000   1.0000   1.0000   1.0000   1.0000   1.0000
     1.0000   1.0000   1.0000   1.0000   1.0000   1.0000   1.0000   1.0000
     1.0000   1.0000   1.0000   1.0000   1.0000   1.0000   1.0000   1.0000
     1.0000   1.0000   1.0000   1.0000   1.0000   1.0000   1.0000   1.0000

          k =-0.1676 0.5341-0.1672 (  5376 PWs)   bands (ev):

   -65.6698 -65.1551 -65.1098 -64.6834 -32.6817 -32.6134 -32.6073 -32.1637
   -32.1157 -32.0915 -32.0903 -32.0741 -32.0600 -31.6926 -31.6539 -31.6269
   -29.3503 -29.2680 -29.2083 -28.4888 -11.5566 -11.2849 -11.0699 -11.0303
   -10.7407 -10.6434 -10.5398 -10.4703 -10.3171 -10.2627 -10.1309 -10.0322
    -8.0600  -7.8076  -7.6466  -7.3290  -7.1641  -6.9437  -6.7762  -6.6567
     4.0101   4.5763   4.6435   4.7483   5.1420   5.2856   5.4358   5.5599
     5.7191   5.8604   5.9981   6.1172   6.2440   6.4516   6.5102   6.5559
     6.8229   6.9335   6.9849   7.0723   7.2320   7.2915   7.3940   7.5622

     occupation numbers 
     1.0000   1.0000   1.0000   1.0000   1.0000   1.0000   1.0000   1.0000
     1.0000   1.0000   1.0000   1.0000   1.0000   1.0000   1.0000   1.0000
     1.0000   1.0000   1.0000   1.0000   1.0000   1.0000   1.0000   1.0000
     1.0000   1.0000   1.0000   1.0000   1.0000   1.0000   1.0000   1.0000
     1.0000   1.0000   1.0000   1.0000   1.0000   1.0000   1.0000   1.0000
     1.0000   1.0000   1.0000   1.0000   1.0000   1.0000   1.0000   1.0000
     1.0000   1.0000   1.0000   1.0000   1.0000   1.0000   1.0000   1.0000
     1.0000   1.0000   1.0000   1.0000   1.0000   1.0000   1.0000   1.0000

          k =-0.7180-0.0135 0.3414 (  5372 PWs)   bands (ev):

   -65.6698 -65.1551 -65.1098 -64.6834 -32.6817 -32.6133 -32.6073 -32.1637
   -32.1158 -32.0916 -32.0903 -32.0741 -32.0600 -31.6926 -31.6540 -31.6268
   -29.3306 -29.2825 -29.2144 -28.4880 -11.4409 -11.1940 -11.1028 -10.9018
   -10.8740 -10.7744 -10.6305 -10.5777 -10.3663 -10.2146 -10.1053  -9.9380
    -7.9233  -7.7870  -7.7123  -7.3808  -7.2573  -6.9802  -6.7268  -6.5786
     4.2612   4.5914   4.6908   4.8196   5.1400   5.2617   5.4736   5.5288
     5.6818   5.7754   5.9826   6.1972   6.2666   6.3356   6.4711   6.6152
     6.7004   6.7803   6.9300   7.0653   7.1324   7.2126   7.4110   7.5363

     occupation numbers 
     1.0000   1.0000   1.0000   1.0000   1.0000   1.0000   1.0000   1.0000
     1.0000   1.0000   1.0000   1.0000   1.0000   1.0000   1.0000   1.0000
     1.0000   1.0000   1.0000   1.0000   1.0000   1.0000   1.0000   1.0000
     1.0000   1.0000   1.0000   1.0000   1.0000   1.0000   1.0000   1.0000
     1.0000   1.0000   1.0000   1.0000   1.0000   1.0000   1.0000   1.0000
     1.0000   1.0000   1.0000   1.0000   1.0000   1.0000   1.0000   1.0000
     1.0000   1.0000   1.0000   1.0000   1.0000   1.0000   1.0000   1.0000
     1.0000   1.0000   1.0000   1.0000   1.0000   1.0000   1.0000   1.0000

          k =-0.5345 0.1690 0.1719 (  5380 PWs)   bands (ev):

   -65.6698 -65.1551 -65.1098 -64.6834 -32.6817 -32.6134 -32.6073 -32.1637
   -32.1158 -32.0917 -32.0902 -32.0741 -32.0600 -31.6926 -31.6540 -31.6267
   -29.3286 -29.2947 -29.2046 -28.4875 -11.3593 -11.2157 -11.1643 -11.0464
   -10.8958 -10.7712 -10.6119 -10.5166 -10.3243 -10.2552 -10.0924  -9.8368
    -7.9606  -7.7384  -7.5515  -7.4998  -7.3255  -6.9057  -6.7889  -6.6057
     4.1829   4.3807   4.5762   4.8063   5.2002   5.3187   5.4352   5.5321
     5.7055   5.9224   5.9858   6.1236   6.2116   6.4027   6.5242   6.7537
     6.8597   6.9053   6.9777   7.0584   7.1311   7.2772   7.3675   7.4592

     occupation numbers 
     1.0000   1.0000   1.0000   1.0000   1.0000   1.0000   1.0000   1.0000
     1.0000   1.0000   1.0000   1.0000   1.0000   1.0000   1.0000   1.0000
     1.0000   1.0000   1.0000   1.0000   1.0000   1.0000   1.0000   1.0000
     1.0000   1.0000   1.0000   1.0000   1.0000   1.0000   1.0000   1.0000
     1.0000   1.0000   1.0000   1.0000   1.0000   1.0000   1.0000   1.0000
     1.0000   1.0000   1.0000   1.0000   1.0000   1.0000   1.0000   1.0000
     1.0000   1.0000   1.0000   1.0000   1.0000   1.0000   1.0000   1.0000
     1.0000   1.0000   1.0000   1.0000   1.0000   1.0000   1.0000   1.0000

          k = 0.3505-0.3544-0.3449 (  5388 PWs)   bands (ev):

   -65.6698 -65.1551 -65.1098 -64.6834 -32.6816 -32.6135 -32.6073 -32.1636
   -32.1158 -32.0917 -32.0901 -32.0740 -32.0599 -31.6926 -31.6539 -31.6267
   -29.3339 -29.2944 -29.1997 -28.4877 -11.3809 -11.2358 -11.0886 -11.0296
   -10.8704 -10.7939 -10.6988 -10.4795 -10.3927 -10.2199 -10.0987  -9.8384
    -7.8734  -7.7095  -7.5114  -7.4901  -7.2555  -6.9815  -6.8417  -6.6857
     4.1556   4.2273   4.5132   4.7984   5.2553   5.3429   5.5239   5.6551
     5.7015   5.8475   6.0128   6.1497   6.1895   6.3300   6.5940   6.6595
     6.8738   6.9348   7.0545   7.1009   7.2526   7.2970   7.3704   7.4671

     occupation numbers 
     1.0000   1.0000   1.0000   1.0000   1.0000   1.0000   1.0000   1.0000
     1.0000   1.0000   1.0000   1.0000   1.0000   1.0000   1.0000   1.0000
     1.0000   1.0000   1.0000   1.0000   1.0000   1.0000   1.0000   1.0000
     1.0000   1.0000   1.0000   1.0000   1.0000   1.0000   1.0000   1.0000
     1.0000   1.0000   1.0000   1.0000   1.0000   1.0000   1.0000   1.0000
     1.0000   1.0000   1.0000   1.0000   1.0000   1.0000   1.0000   1.0000
     1.0000   1.0000   1.0000   1.0000   1.0000   1.0000   1.0000   1.0000
     1.0000   1.0000   1.0000   1.0000   1.0000   1.0000   1.0000   1.0000

          k = 0.5340-0.1719-0.5144 (  5388 PWs)   bands (ev):

   -65.6698 -65.1551 -65.1098 -64.6834 -32.6816 -32.6134 -32.6073 -32.1637
   -32.1158 -32.0916 -32.0902 -32.0741 -32.0600 -31.6926 -31.6539 -31.6268
   -29.3352 -29.2838 -29.2085 -28.4882 -11.4462 -11.1941 -11.0454 -10.9970
   -10.8679 -10.7407 -10.6310 -10.5847 -10.3450 -10.2560 -10.1017  -9.9189
    -7.9674  -7.7532  -7.6623  -7.3524  -7.2056  -6.9585  -6.7837  -6.6578
     4.0595   4.4701   4.6753   4.8012   5.2135   5.3695   5.4545   5.5503
     5.6967   5.8737   5.9996   6.1517   6.2685   6.3117   6.4628   6.5971
     6.7975   6.9156   6.9855   7.0699   7.1620   7.2762   7.3805   7.5619

     occupation numbers 
     1.0000   1.0000   1.0000   1.0000   1.0000   1.0000   1.0000   1.0000
     1.0000   1.0000   1.0000   1.0000   1.0000   1.0000   1.0000   1.0000
     1.0000   1.0000   1.0000   1.0000   1.0000   1.0000   1.0000   1.0000
     1.0000   1.0000   1.0000   1.0000   1.0000   1.0000   1.0000   1.0000
     1.0000   1.0000   1.0000   1.0000   1.0000   1.0000   1.0000   1.0000
     1.0000   1.0000   1.0000   1.0000   1.0000   1.0000   1.0000   1.0000
     1.0000   1.0000   1.0000   1.0000   1.0000   1.0000   1.0000   1.0000
     1.0000   1.0000   1.0000   1.0000   1.0000   1.0000   1.0000   1.0000

          k =-0.0164-0.7195-0.0058 (  5378 PWs)   bands (ev):

   -65.6698 -65.1551 -65.1098 -64.6834 -32.6816 -32.6133 -32.6073 -32.1638
   -32.1157 -32.0915 -32.0903 -32.0741 -32.0601 -31.6926 -31.6539 -31.6269
   -29.3359 -29.2709 -29.2203 -28.4886 -11.5216 -11.0886 -10.9764 -10.8958
   -10.8821 -10.8001 -10.7212 -10.5487 -10.3626 -10.2127 -10.1151  -9.9994
    -8.0407  -7.8622  -7.6728  -7.3141  -7.1452  -6.9397  -6.7371  -6.6267
     4.1008   4.5460   4.6292   5.0221   5.2614   5.4058   5.4312   5.6074
     5.7986   5.8297   5.9022   6.0423   6.1504   6.2658   6.3817   6.4629
     6.6202   6.7523   7.0050   7.1297   7.2269   7.3154   7.4268   7.6180

     occupation numbers 
     1.0000   1.0000   1.0000   1.0000   1.0000   1.0000   1.0000   1.0000
     1.0000   1.0000   1.0000   1.0000   1.0000   1.0000   1.0000   1.0000
     1.0000   1.0000   1.0000   1.0000   1.0000   1.0000   1.0000   1.0000
     1.0000   1.0000   1.0000   1.0000   1.0000   1.0000   1.0000   1.0000
     1.0000   1.0000   1.0000   1.0000   1.0000   1.0000   1.0000   1.0000
     1.0000   1.0000   1.0000   1.0000   1.0000   1.0000   1.0000   1.0000
     1.0000   1.0000   1.0000   1.0000   1.0000   1.0000   1.0000   1.0000
     1.0000   1.0000   1.0000   1.0000   1.0000   1.0000   1.0000   1.0000

          k = 0.5263-0.5288-0.1748 (  5385 PWs)   bands (ev):

   -65.6698 -65.1551 -65.1098 -64.6834 -32.6816 -32.6135 -32.6073 -32.1637
   -32.1164 -32.0919 -32.0900 -32.0736 -32.0595 -31.6927 -31.6539 -31.6268
   -29.3348 -29.2932 -29.1999 -28.4875 -11.4146 -11.2599 -11.1830 -10.9797
   -10.8287 -10.7841 -10.7036 -10.4669 -10.3048 -10.2169 -10.0037  -9.9130
    -7.9364  -7.7806  -7.5434  -7.5152  -7.3844  -6.9508  -6.7335  -6.5553
     4.0926   4.3949   4.6365   4.7054   5.2256   5.3477   5.4568   5.5704
     5.7304   5.8812   6.0001   6.0529   6.1974   6.3095   6.5168   6.6852
     6.8371   6.9196   6.9916   7.1358   7.1837   7.2449   7.3947   7.6501

     occupation numbers 
     1.0000   1.0000   1.0000   1.0000   1.0000   1.0000   1.0000   1.0000
     1.0000   1.0000   1.0000   1.0000   1.0000   1.0000   1.0000   1.0000
     1.0000   1.0000   1.0000   1.0000   1.0000   1.0000   1.0000   1.0000
     1.0000   1.0000   1.0000   1.0000   1.0000   1.0000   1.0000   1.0000
     1.0000   1.0000   1.0000   1.0000   1.0000   1.0000   1.0000   1.0000
     1.0000   1.0000   1.0000   1.0000   1.0000   1.0000   1.0000   1.0000
     1.0000   1.0000   1.0000   1.0000   1.0000   1.0000   1.0000   1.0000
     1.0000   1.0000   1.0000   1.0000   1.0000   1.0000   1.0000   1.0000

          k = 0.7097-0.3462-0.3443 (  5384 PWs)   bands (ev):

   -65.6698 -65.1551 -65.1098 -64.6834 -32.6816 -32.6134 -32.6073 -32.1638
   -32.1164 -32.0920 -32.0900 -32.0737 -32.0596 -31.6926 -31.6539 -31.6267
   -29.3370 -29.2830 -29.2085 -28.4868 -11.4580 -11.2614 -11.1806 -11.0192
   -10.8460 -10.7291 -10.6108 -10.5019 -10.3420 -10.2075 -10.0044  -9.8336
    -8.0450  -7.8022  -7.7102  -7.4020  -7.2278  -6.9870  -6.6803  -6.6159
     3.8967   4.4601   4.6697   4.7758   5.1032   5.2359   5.4987   5.6534
     5.7793   5.9500   6.1261   6.2685   6.2765   6.3925   6.5623   6.6264
     6.8284   6.8660   6.9578   7.0078   7.1125   7.1708   7.3293   7.6525

     occupation numbers 
     1.0000   1.0000   1.0000   1.0000   1.0000   1.0000   1.0000   1.0000
     1.0000   1.0000   1.0000   1.0000   1.0000   1.0000   1.0000   1.0000
     1.0000   1.0000   1.0000   1.0000   1.0000   1.0000   1.0000   1.0000
     1.0000   1.0000   1.0000   1.0000   1.0000   1.0000   1.0000   1.0000
     1.0000   1.0000   1.0000   1.0000   1.0000   1.0000   1.0000   1.0000
     1.0000   1.0000   1.0000   1.0000   1.0000   1.0000   1.0000   1.0000
     1.0000   1.0000   1.0000   1.0000   1.0000   1.0000   1.0000   1.0000
     1.0000   1.0000   1.0000   1.0000   1.0000   1.0000   1.0000   1.0000

          k = 0.1593-0.8938 0.1643 (  5395 PWs)   bands (ev):

   -65.6698 -65.1551 -65.1098 -64.6834 -32.6816 -32.6133 -32.6073 -32.1638
   -32.1164 -32.0919 -32.0901 -32.0738 -32.0597 -31.6926 -31.6539 -31.6268
   -29.3375 -29.2703 -29.2203 -28.4873 -11.5264 -11.2312 -11.0229 -10.9448
   -10.8102 -10.7663 -10.7124 -10.5499 -10.3493 -10.1980 -10.0202  -9.9094
    -8.0422  -7.8458  -7.6652  -7.3884  -7.1800  -6.9524  -6.7646  -6.5915
     4.0247   4.6260   4.7054   4.8132   5.1897   5.2653   5.4875   5.6895
     5.7862   5.8265   6.0473   6.1049   6.2261   6.2977   6.4541   6.5158
     6.7464   6.8406   6.9569   7.0524   7.1548   7.2421   7.3356   7.5758

     occupation numbers 
     1.0000   1.0000   1.0000   1.0000   1.0000   1.0000   1.0000   1.0000
     1.0000   1.0000   1.0000   1.0000   1.0000   1.0000   1.0000   1.0000
     1.0000   1.0000   1.0000   1.0000   1.0000   1.0000   1.0000   1.0000
     1.0000   1.0000   1.0000   1.0000   1.0000   1.0000   1.0000   1.0000
     1.0000   1.0000   1.0000   1.0000   1.0000   1.0000   1.0000   1.0000
     1.0000   1.0000   1.0000   1.0000   1.0000   1.0000   1.0000   1.0000
     1.0000   1.0000   1.0000   1.0000   1.0000   1.0000   1.0000   1.0000
     1.0000   1.0000   1.0000   1.0000   1.0000   1.0000   1.0000   1.0000

          k = 0.3428-0.7113-0.0053 (  5383 PWs)   bands (ev):

   -65.6698 -65.1551 -65.1098 -64.6834 -32.6816 -32.6134 -32.6073 -32.1637
   -32.1164 -32.0919 -32.0901 -32.0737 -32.0596 -31.6927 -31.6539 -31.6268
   -29.3358 -29.2829 -29.2088 -28.4879 -11.4547 -11.2739 -11.0839 -10.9264
   -10.7829 -10.7683 -10.6427 -10.5732 -10.3513 -10.2468 -10.0235  -9.9817
    -7.8762  -7.8213  -7.6497  -7.4582  -7.2655  -6.9297  -6.8204  -6.5349
     4.2521   4.5612   4.7069   4.8071   5.2201   5.3061   5.4215   5.5420
     5.6228   5.7213   5.8782   6.0931   6.2127   6.3263   6.5838   6.6330
     6.7538   6.8628   6.9478   7.0672   7.1639   7.2503   7.4486   7.5247

     occupation numbers 
     1.0000   1.0000   1.0000   1.0000   1.0000   1.0000   1.0000   1.0000
     1.0000   1.0000   1.0000   1.0000   1.0000   1.0000   1.0000   1.0000
     1.0000   1.0000   1.0000   1.0000   1.0000   1.0000   1.0000   1.0000
     1.0000   1.0000   1.0000   1.0000   1.0000   1.0000   1.0000   1.0000
     1.0000   1.0000   1.0000   1.0000   1.0000   1.0000   1.0000   1.0000
     1.0000   1.0000   1.0000   1.0000   1.0000   1.0000   1.0000   1.0000
     1.0000   1.0000   1.0000   1.0000   1.0000   1.0000   1.0000   1.0000
     1.0000   1.0000   1.0000   1.0000   1.0000   1.0000   1.0000   1.0000

          k =-0.0011-0.0058-0.6850 (  5388 PWs)   bands (ev):

   -65.6698 -65.1551 -65.1098 -64.6834 -32.6817 -32.6135 -32.6073 -32.1637
   -32.1170 -32.0921 -32.0899 -32.0732 -32.0592 -31.6927 -31.6539 -31.6268
   -29.3357 -29.2921 -29.2002 -28.4873 -11.4482 -11.2705 -11.2636 -10.9196
   -10.8215 -10.7453 -10.7018 -10.4694 -10.2554 -10.2034 -10.0067  -9.8748
    -8.0441  -7.8247  -7.5801  -7.5377  -7.4434  -6.9248  -6.6478  -6.4584
     4.1381   4.3570   4.5850   5.0399   5.1769   5.3176   5.4164   5.4290
     5.6668   5.8965   6.0508   6.1468   6.2067   6.2463   6.3576   6.4812
     6.7721   6.8961   6.9619   7.0945   7.1394   7.3662   7.5280   7.7684

     occupation numbers 
     1.0000   1.0000   1.0000   1.0000   1.0000   1.0000   1.0000   1.0000
     1.0000   1.0000   1.0000   1.0000   1.0000   1.0000   1.0000   1.0000
     1.0000   1.0000   1.0000   1.0000   1.0000   1.0000   1.0000   1.0000
     1.0000   1.0000   1.0000   1.0000   1.0000   1.0000   1.0000   1.0000
     1.0000   1.0000   1.0000   1.0000   1.0000   1.0000   1.0000   1.0000
     1.0000   1.0000   1.0000   1.0000   1.0000   1.0000   1.0000   1.0000
     1.0000   1.0000   1.0000   1.0000   1.0000   1.0000   1.0000   1.0000
     1.0000   1.0000   1.0000   1.0000   1.0000   1.0000   1.0000   1.0000

          k = 0.1824 0.1767-0.8545 (  5373 PWs)   bands (ev):

   -65.6698 -65.1551 -65.1098 -64.6834 -32.6816 -32.6134 -32.6072 -32.1638
   -32.1170 -32.0922 -32.0899 -32.0733 -32.0592 -31.6927 -31.6539 -31.6268
   -29.3376 -29.2822 -29.2088 -28.4866 -11.4720 -11.3173 -11.1974 -10.9788
   -10.7829 -10.7353 -10.6058 -10.5251 -10.3438 -10.2071  -9.9467  -9.8594
    -7.9654  -7.8493  -7.7262  -7.5179  -7.2569  -6.9485  -6.7157  -6.5090
     4.0311   4.5379   4.6854   4.8126   5.1017   5.2051   5.5603   5.6873
     5.7694   5.9256   5.9879   6.0691   6.1212   6.2619   6.4610   6.7113
     6.8179   6.8507   6.9839   7.0716   7.1533   7.2523   7.3797   7.5745

     occupation numbers 
     1.0000   1.0000   1.0000   1.0000   1.0000   1.0000   1.0000   1.0000
     1.0000   1.0000   1.0000   1.0000   1.0000   1.0000   1.0000   1.0000
     1.0000   1.0000   1.0000   1.0000   1.0000   1.0000   1.0000   1.0000
     1.0000   1.0000   1.0000   1.0000   1.0000   1.0000   1.0000   1.0000
     1.0000   1.0000   1.0000   1.0000   1.0000   1.0000   1.0000   1.0000
     1.0000   1.0000   1.0000   1.0000   1.0000   1.0000   1.0000   1.0000
     1.0000   1.0000   1.0000   1.0000   1.0000   1.0000   1.0000   1.0000
     1.0000   1.0000   1.0000   1.0000   1.0000   1.0000   1.0000   1.0000

          k =-0.3680-0.3709-0.3459 (  5410 PWs)   bands (ev):

   -65.6698 -65.1551 -65.1098 -64.6834 -32.6816 -32.6133 -32.6072 -32.1639
   -32.1170 -32.0923 -32.0900 -32.0734 -32.0593 -31.6926 -31.6539 -31.6267
   -29.3390 -29.2698 -29.2203 -28.4859 -11.5363 -11.3162 -11.0650 -10.9714
   -10.7917 -10.7349 -10.7123 -10.5527 -10.3489 -10.1922  -9.9142  -9.8153
    -8.0249  -7.8602  -7.6544  -7.4580  -7.2156  -6.9592  -6.7933  -6.5624
     3.9842   4.5168   4.6890   4.8958   5.0619   5.2665   5.5857   5.7598
     5.8591   5.9205   6.0564   6.1154   6.1918   6.2935   6.4267   6.5768
     6.7591   6.8214   7.0077   7.0532   7.0903   7.2617   7.2883   7.5400

     occupation numbers 
     1.0000   1.0000   1.0000   1.0000   1.0000   1.0000   1.0000   1.0000
     1.0000   1.0000   1.0000   1.0000   1.0000   1.0000   1.0000   1.0000
     1.0000   1.0000   1.0000   1.0000   1.0000   1.0000   1.0000   1.0000
     1.0000   1.0000   1.0000   1.0000   1.0000   1.0000   1.0000   1.0000
     1.0000   1.0000   1.0000   1.0000   1.0000   1.0000   1.0000   1.0000
     1.0000   1.0000   1.0000   1.0000   1.0000   1.0000   1.0000   1.0000
     1.0000   1.0000   1.0000   1.0000   1.0000   1.0000   1.0000   1.0000
     1.0000   1.0000   1.0000   1.0000   1.0000   1.0000   1.0000   1.0000

     highest occupied level (ev):     7.8586

!    total energy              =   -1059.63038345 Ry
     Harris-Foulkes estimate   =   -1059.63038345 Ry
     estimated scf accuracy    <          5.8E-11 Ry

     The total energy is the sum of the following terms:

     one-electron contribution =    -473.82115374 Ry
     hartree contribution      =     286.32659983 Ry
     xc contribution           =    -172.95958019 Ry
     ewald contribution        =    -699.17624934 Ry

     convergence has been achieved in  20 iterations

     Forces acting on atoms (Ry/au):

     atom    1 type  2   force =   0.33935639E-01  0.12822770E-01  0.18934561E-01
     atom    2 type  3   force =  -0.34072381E-01  0.32208915E-01  0.11312119E-01
     atom    3 type  1   force =  -0.41072747E-01 -0.87995304E-02  0.48597620E-01
     atom    4 type  3   force =  -0.89476999E-01  0.37314528E-02 -0.32216280E-02
     atom    5 type  1   force =   0.52265573E-01  0.42804609E-02 -0.44235301E-01
     atom    6 type  3   force =   0.82044596E-03  0.25840940E-01  0.93879343E-02
     atom    7 type  2   force =   0.38339881E-01  0.29193175E-01  0.19557633E-01
     atom    8 type  3   force =  -0.22313782E-01 -0.94794735E-02 -0.24969621E-01
     atom    9 type  1   force =  -0.24145357E-01  0.13617677E-01 -0.62251479E-01
     atom   10 type  3   force =   0.72313657E-02 -0.42626734E-01 -0.39912719E-01
     atom   11 type  1   force =   0.10272771E-01  0.23757791E-02 -0.15438772E-01
     atom   12 type  3   force =   0.77284635E-01 -0.39306374E-02  0.74002803E-01
     atom   13 type  2   force =   0.52017961E-01  0.32475654E-02  0.39671106E-01
     atom   14 type  3   force =   0.12968682E-01 -0.50330246E-02 -0.29027853E-01
     atom   15 type  2   force =  -0.41717884E-01 -0.15667067E-01  0.44421562E-02
     atom   16 type  3   force =  -0.32337806E-01 -0.41782268E-01 -0.68485596E-02
     The non-local contrib.  to forces
     atom    1 type  2   force =   0.55927155E-01 -0.21507689E+00 -0.33834920E-01
     atom    2 type  3   force =   0.40457844E-01  0.72785199E-01  0.10929315E+00
     atom    3 type  1   force =  -0.21353486E-01  0.34531004E-01  0.20642987E-01
     atom    4 type  3   force =  -0.18295350E+00  0.89719862E-02 -0.22329266E-01
     atom    5 type  1   force =   0.31466902E-01  0.12047128E-01  0.39468941E-01
     atom    6 type  3   force =   0.71076178E-01  0.40140471E-01 -0.11073975E-01
     atom    7 type  2   force =   0.29381528E+00 -0.30604406E-03 -0.24092588E+00
     atom    8 type  3   force =  -0.10414902E+00 -0.48237960E-01 -0.14061707E+00
     atom    9 type  1   force =   0.12707604E-01  0.45233248E-02 -0.41817799E-01
     atom   10 type  3   force =   0.25708090E-01 -0.16434099E+00 -0.20452112E+00
     atom   11 type  1   force =   0.46962671E-02  0.13612284E-02  0.12191215E-01
     atom   12 type  3   force =   0.27137587E+00 -0.86655996E-01  0.12352200E+00
     atom   13 type  2   force =   0.45743829E-01 -0.41462537E-01 -0.37732806E-01
     atom   14 type  3   force =   0.33954856E-01  0.95380979E-01 -0.43906511E-01
     atom   15 type  2   force =  -0.86249602E-01 -0.76017660E-01 -0.17351220E-01
     atom   16 type  3   force =  -0.96203755E-01 -0.79328118E-01  0.56417527E-01
     The ionic contribution  to forces
     atom    1 type  2   force =   0.16006112E+01 -0.20056895E+01  0.12008014E+01
     atom    2 type  3   force =  -0.20671644E+01  0.99859810E+00 -0.19319914E+01
     atom    3 type  1   force =  -0.12077982E+01  0.53387347E+00  0.19233499E+01
     atom    4 type  3   force =  -0.11463005E+01  0.35016609E+00  0.81481919E+00
     atom    5 type  1   force =   0.41183534E+00 -0.50823702E+00 -0.66175585E+00
     atom    6 type  3   force =   0.10930495E+00  0.16683609E+01  0.17667056E+01
     atom    7 type  2   force =   0.27317353E+01  0.14683805E+01 -0.24880291E+01
     atom    8 type  3   force =  -0.83952631E-01 -0.10191990E+01  0.11759889E+01
     atom    9 type  1   force =  -0.26943289E-01  0.67881524E+00 -0.25968949E+01
     atom   10 type  3   force =   0.49956024E+00  0.31755155E+00  0.51182250E+00
     atom   11 type  1   force =   0.39660821E+00 -0.11143438E+00  0.24059579E+00
     atom   12 type  3   force =  -0.87427983E+00  0.11116905E+01  0.12016482E+01
     atom   13 type  2   force =   0.11140916E+01  0.15539107E+01  0.14551401E+01
     atom   14 type  3   force =   0.71985352E+00 -0.22885676E+01 -0.15133716E+01
     atom   15 type  2   force =  -0.20917110E+01 -0.21520205E+01 -0.11420618E+00
     atom   16 type  3   force =  -0.85450561E-01 -0.59619885E+00 -0.98462255E+00
     The local contribution  to forces
     atom    1 type  2   force =  -0.16225999E+01  0.22335831E+01 -0.11480287E+01
     atom    2 type  3   force =   0.19925865E+01 -0.10384110E+01  0.18346318E+01
     atom    3 type  1   force =   0.11881583E+01 -0.57841844E+00 -0.18952024E+01
     atom    4 type  3   force =   0.12376164E+01 -0.35555367E+00 -0.79587445E+00
     atom    5 type  1   force =  -0.39103532E+00  0.50015191E+00  0.57588438E+00
     atom    6 type  3   force =  -0.17947486E+00 -0.16819854E+01 -0.17461792E+01
     atom    7 type  2   force =  -0.29872119E+01 -0.14388798E+01  0.27485040E+01
     atom    8 type  3   force =   0.16506487E+00  0.10577494E+01 -0.10612083E+01
     atom    9 type  1   force =  -0.10917568E-01 -0.66967530E+00  0.25768279E+01
     atom   10 type  3   force =  -0.51781264E+00 -0.19738889E+00 -0.34841103E+00
     atom   11 type  1   force =  -0.39091749E+00  0.11250085E+00 -0.26895445E+00
     atom   12 type  3   force =   0.68255358E+00 -0.10292825E+01 -0.12492403E+01
     atom   13 type  2   force =  -0.11078155E+01 -0.15091982E+01 -0.13777354E+01
     atom   14 type  3   force =  -0.74056694E+00  0.21884906E+01  0.15275354E+01
     atom   15 type  2   force =   0.21362382E+01  0.22123708E+01  0.13599986E+00
     atom   16 type  3   force =   0.14806778E+00  0.63281724E+00  0.92099240E+00
     The core correction contribution to forces
     atom    1 type  2   force =   0.00000000E+00  0.00000000E+00  0.00000000E+00
     atom    2 type  3   force =   0.47824726E-04 -0.76043033E-03 -0.62360853E-03
     atom    3 type  1   force =  -0.79447417E-04  0.12168884E-02 -0.18947006E-03
     atom    4 type  3   force =   0.21596574E-02  0.14587997E-03  0.16348725E-03
     atom    5 type  1   force =  -0.96075624E-07  0.32128704E-03  0.21708173E-02
     atom    6 type  3   force =  -0.84388067E-04 -0.67290360E-03 -0.62379042E-04
     atom    7 type  2   force =   0.00000000E+00  0.00000000E+00  0.00000000E+00
     atom    8 type  3   force =   0.72331668E-03  0.20668780E-03  0.86966397E-03
     atom    9 type  1   force =   0.10120964E-02 -0.43636607E-04 -0.36906737E-03
     atom   10 type  3   force =  -0.22212508E-03  0.15524819E-02  0.11961732E-02
     atom   11 type  1   force =  -0.11393917E-03 -0.54755648E-04  0.72869643E-03
     atom   12 type  3   force =  -0.23656807E-02  0.31839568E-03 -0.19264649E-02
     atom   13 type  2   force =   0.00000000E+00  0.00000000E+00  0.00000000E+00
     atom   14 type  3   force =  -0.27034721E-03 -0.33699596E-03  0.71357592E-03
     atom   15 type  2   force =   0.00000000E+00  0.00000000E+00  0.00000000E+00
     atom   16 type  3   force =   0.12500182E-02  0.92679001E-03  0.36444180E-03
     The Hubbard contrib.    to forces
     atom    1 type  2   force =   0.00000000E+00  0.00000000E+00  0.00000000E+00
     atom    2 type  3   force =   0.00000000E+00  0.00000000E+00  0.00000000E+00
     atom    3 type  1   force =   0.00000000E+00  0.00000000E+00  0.00000000E+00
     atom    4 type  3   force =   0.00000000E+00  0.00000000E+00  0.00000000E+00
     atom    5 type  1   force =   0.00000000E+00  0.00000000E+00  0.00000000E+00
     atom    6 type  3   force =   0.00000000E+00  0.00000000E+00  0.00000000E+00
     atom    7 type  2   force =   0.00000000E+00  0.00000000E+00  0.00000000E+00
     atom    8 type  3   force =   0.00000000E+00  0.00000000E+00  0.00000000E+00
     atom    9 type  1   force =   0.00000000E+00  0.00000000E+00  0.00000000E+00
     atom   10 type  3   force =   0.00000000E+00  0.00000000E+00  0.00000000E+00
     atom   11 type  1   force =   0.00000000E+00  0.00000000E+00  0.00000000E+00
     atom   12 type  3   force =   0.00000000E+00  0.00000000E+00  0.00000000E+00
     atom   13 type  2   force =   0.00000000E+00  0.00000000E+00  0.00000000E+00
     atom   14 type  3   force =   0.00000000E+00  0.00000000E+00  0.00000000E+00
     atom   15 type  2   force =   0.00000000E+00  0.00000000E+00  0.00000000E+00
     atom   16 type  3   force =   0.00000000E+00  0.00000000E+00  0.00000000E+00
     The SCF correction term to forces
     atom    1 type  2   force =  -0.22039320E-05  0.63687240E-05 -0.28093325E-05
     atom    2 type  3   force =   0.48547385E-06 -0.26516317E-05  0.26605193E-05
     atom    3 type  1   force =   0.74687326E-06 -0.21084074E-05 -0.28682317E-05
     atom    4 type  3   force =   0.15163770E-05  0.15114032E-05 -0.12386252E-06
     atom    5 type  1   force =  -0.64765879E-06 -0.24947900E-05 -0.31212476E-05
     atom    6 type  3   force =  -0.81832439E-06 -0.17799437E-05 -0.16073514E-05
     atom    7 type  2   force =   0.17815117E-05 -0.10695233E-05  0.91391677E-05
     atom    8 type  3   force =   0.29811746E-06  0.17466317E-05 -0.24075034E-05
     atom    9 type  1   force =  -0.35916115E-05 -0.16086642E-05  0.28701166E-05
     atom   10 type  3   force =  -0.15882905E-05 -0.54675704E-06  0.12311174E-05
     atom   11 type  1   force =   0.33029945E-06  0.31818296E-05  0.45195156E-06
     atom   12 type  3   force =   0.13043595E-05 -0.76310952E-06 -0.22169723E-06
     atom   13 type  2   force =  -0.14150842E-05 -0.19909626E-05 -0.29876737E-06
     atom   14 type  3   force =  -0.18039654E-05  0.30413092E-06  0.18145178E-05
     atom   15 type  2   force =   0.51294289E-05  0.68733385E-06  0.17024632E-06
     atom   16 type  3   force =  -0.68366875E-06  0.10147903E-05  0.10359386E-06

     Total force =     0.235855     Total SCF correction =     0.000017


     entering subroutine stress ...

          total   stress  (Ry/bohr**3)                   (kbar)     P=   31.21
   0.0004423511   0.0002577350   0.0000010933         65.07     37.91      0.16
   0.0002577350   0.0002121102   0.0000604925         37.91     31.20      8.90
   0.0000010933   0.0000604925  -0.0000179278          0.16      8.90     -2.64

     kinetic stress (kbar)  20836.76     17.64     -1.93
                               17.64  20773.42     10.44
                               -1.93     10.44  20742.25

     local   stress (kbar)  -5430.45    465.13   -169.94
                              465.13  -4820.78   1086.66
                             -169.94   1086.66   -630.70

     nonloc. stress (kbar)   5251.83     -1.07      0.91
                               -1.07   5252.49     -2.96
                                0.91     -2.96   5239.14

     hartree stress (kbar)  11818.81   -174.46     50.01
                             -174.46  11601.50   -442.36
                               50.01   -442.36   9995.58

     exc-cor stress (kbar)  -5266.70     -0.68      0.09
                               -0.68  -5267.51     -0.58
                                0.09     -0.58  -5270.01

     corecor stress (kbar)  -1044.96     -0.03     -0.00
                               -0.03  -1044.74     -0.02
                               -0.00     -0.02  -1044.57

     ewald   stress (kbar) -26100.22   -268.61    121.03
                             -268.61 -26463.17   -642.28
                              121.03   -642.28 -29034.33

     hubbard stress (kbar)      0.00      0.00      0.00
                                0.00      0.00      0.00
                                0.00      0.00      0.00

     london  stress (kbar)      0.00      0.00      0.00
                                0.00      0.00      0.00
                                0.00      0.00      0.00

     XDM     stress (kbar)      0.00      0.00      0.00
                                0.00      0.00      0.00
                                0.00      0.00      0.00

     dft-nl  stress (kbar)      0.00      0.00      0.00
                                0.00      0.00      0.00
                                0.00      0.00      0.00



     Writing output data file mix.dummy28919.save

     init_run     :     16.65s CPU     17.12s WALL (       1 calls)
     electrons    :    702.14s CPU    750.14s WALL (       1 calls)
     forces       :      6.35s CPU      6.50s WALL (       1 calls)
     stress       :     11.07s CPU     11.03s WALL (       1 calls)

     Called by init_run:
     wfcinit      :     14.54s CPU     15.00s WALL (       1 calls)
     potinit      :      0.58s CPU      0.58s WALL (       1 calls)

     Called by electrons:
     c_bands      :    612.66s CPU    657.68s WALL (      20 calls)
     sum_band     :     82.08s CPU     85.02s WALL (      20 calls)
     v_of_rho     :      0.86s CPU      0.87s WALL (      21 calls)
     v_h          :      0.04s CPU      0.05s WALL (      21 calls)
     v_xc         :      0.90s CPU      0.90s WALL (      23 calls)
     newd         :      5.44s CPU      5.45s WALL (      21 calls)
     mix_rho      :      1.18s CPU      1.19s WALL (      20 calls)

     Called by c_bands:
     init_us_2    :      3.06s CPU      3.25s WALL (    1548 calls)
     cegterg      :    586.80s CPU    630.61s WALL (     720 calls)

     Called by sum_band:
     sum_band:bec :      0.96s CPU      0.99s WALL (     720 calls)
     addusdens    :      5.03s CPU      5.07s WALL (      20 calls)

     Called by *egterg:
     h_psi        :    298.81s CPU    312.40s WALL (    2090 calls)
     s_psi        :     31.00s CPU     30.10s WALL (    2090 calls)
     g_psi        :      0.39s CPU      0.36s WALL (    1334 calls)
     cdiaghg      :     82.43s CPU     90.96s WALL (    2054 calls)
     cegterg:over :     88.91s CPU     98.64s WALL (    1334 calls)
     cegterg:upda :     11.11s CPU     13.65s WALL (    1334 calls)
     cegterg:last :      7.19s CPU      7.44s WALL (     720 calls)

     Called by h_psi:
     h_psi:vloc   :    183.66s CPU    186.71s WALL (    2090 calls)
     h_psi:vnl    :    114.70s CPU    125.19s WALL (    2090 calls)
     add_vuspsi   :     31.29s CPU     32.84s WALL (    2090 calls)

     General routines
     calbec       :    121.33s CPU    132.44s WALL (    2882 calls)
     fft          :      2.15s CPU      2.15s WALL (     357 calls)
     ffts         :      0.70s CPU      0.67s WALL (     546 calls)
     fftw         :    210.57s CPU    214.07s WALL (  265254 calls)
     interpolate  :      0.18s CPU      0.17s WALL (      41 calls)

     Parallel routines
     fft_scatter  :    122.79s CPU    125.71s WALL (  266157 calls)

     PWSCF        : 12m18.91s CPU    13m 8.01s WALL


   This run was terminated on:   8: 6:58  16Nov2017            

=------------------------------------------------------------------------------=
   JOB DONE.
=------------------------------------------------------------------------------=
