
     Program PWSCF v.5.1 starts on 15Nov2017 at 10:41:53 

     This program is part of the open-source Quantum ESPRESSO suite
     for quantum simulation of materials; please cite
         "P. Giannozzi et al., J. Phys.:Condens. Matter 21 395502 (2009);
          URL http://www.quantum-espresso.org", 
     in publications or presentations arising from this work. More details at
     http://www.quantum-espresso.org/quote

     Parallel version (MPI), running on    16 processors
     R & G space division:  proc/nbgrp/npool/nimage =      16
     Waiting for input...
     Reading input from standard input
Warning: card &IONS ignored
Warning: card   ION_DYNAMICS='BFGS', ignored
Warning: card / ignored
Warning: card &CELL ignored
Warning: card  CELL_DYNAMICS = 'BFGS' ignored
Warning: card / ignored

     Current dimensions of program PWSCF are:
     Max number of different atomic species (ntypx) = 10
     Max number of k-points (npk) =  40000
     Max angular momentum in pseudopotentials (lmaxx) =  3
 kfg - two_fermi_energies  F

     Subspace diagonalization in iterative solution of the eigenvalue problem:
     a serial algorithm will be used


     Parallelization info
     --------------------
     sticks:   dense  smooth     PW     G-vecs:    dense   smooth      PW
     Min         114      92     26                 3256     2320     365
     Max         115      93     27                 3261     2341     369
     Sum        1837    1479    429                52151    37315    5881



     bravais-lattice index     =            0
     lattice parameter (alat)  =    11.480995333  a.u.
     unit-cell volume          =    1092.3965 (a.u.)^3
     number of atoms/cell      =           16
     number of atomic types    =            3
     number of electrons       =       128.00
     number of Kohn-Sham states=           64
     kinetic-energy cutoff     =      40.0000  Ry
     charge density cutoff     =     200.0000  Ry
     convergence threshold     =      1.0E-10
     mixing beta               =       0.3000
     number of iterations used =            8  local-TF  mixing
     Exchange-correlation      = SLA  PW   PSX  PSC ( 1  4 10  8 0)
     A smooth kinetic-energy cutoff is imposed at      39.5000 Ry
     height of the smooth step-function =             800.0000 Ry
     width of the smooth step-function  =               1.0000 Ry


     celldm(1)=  11.480995  celldm(2)=   0.000000  celldm(3)=   0.000000
     celldm(4)=   0.000000  celldm(5)=   0.000000  celldm(6)=   0.000000

     crystal axes: (cart. coord. in units of alat)
               a(1) = (  -0.012453320922   0.709618451986   0.704476094270 )  
               a(2) = (   0.708741568874  -0.014994496751   0.707017270100 )  
               a(3) = (   0.701772998571   0.705191057512  -0.008025926447 )  

     reciprocal axes: (cart. coord. in units 2 pi/alat)
               b(1) = ( -0.690542  0.695241  0.706971 )  
               b(2) = (  0.696116 -0.684752  0.702056 )  
               b(3) = (  0.709679  0.703889 -0.696482 )  


     PseudoPot. # 1 for Ca read from file:
     /users/kfg/psuedo/gbrv_1.5/ca.pbesol.UPF
     MD5 check sum: 0533207b58cddeaa036efa5b63902087
     Pseudo is Ultrasoft + core correction, Zval = 10.0
     Generated by new atomic code, or converted to UPF format
     Using radial grid of  845 points,  6 beta functions with: 
                l(1) =   0
                l(2) =   0
                l(3) =   1
                l(4) =   1
                l(5) =   2
                l(6) =   2
     Q(r) pseudized with  8 coefficients,  rinner =    1.500   1.500   1.500
                                                       1.500   1.500

     PseudoPot. # 2 for Mg read from file:
     /users/kfg/psuedo/gbrv_1.5/mg.pbesol.UPF
     MD5 check sum: 4059f37963cf5867752dbf5ab2400678
     Pseudo is Ultrasoft, Zval = 10.0
     Generated by new atomic code, or converted to UPF format
     Using radial grid of  821 points,  7 beta functions with: 
                l(1) =   0
                l(2) =   0
                l(3) =   0
                l(4) =   1
                l(5) =   1
                l(6) =   2
                l(7) =   2
     Q(r) pseudized with  8 coefficients,  rinner =    1.200   1.200   1.200
                                                       1.200   1.200

     PseudoPot. # 3 for O  read from file:
     /users/kfg/psuedo/gbrv_1.5/o.pbesol.UPF
     MD5 check sum: 501638753501ef6325af9037351f7734
     Pseudo is Ultrasoft + core correction, Zval =  6.0
     Generated by new atomic code, or converted to UPF format
     Using radial grid of  737 points,  5 beta functions with: 
                l(1) =   0
                l(2) =   0
                l(3) =   1
                l(4) =   1
                l(5) =   2
     Q(r) pseudized with  8 coefficients,  rinner =    0.900   0.900   0.900
                                                       0.900   0.900

     atomic species   valence    mass     pseudopotential
        Ca            10.00    40.07800     Ca( 1.00)
        Mg            10.00    40.07800     Mg( 1.00)
        O              6.00    15.99940     O ( 1.00)

     No symmetry found


                                    s                        frac. trans.

      isym =  1     identity                                     

 cryst.   s( 1) = (     1          0          0      )
                  (     0          1          0      )
                  (     0          0          1      )

 cart.    s( 1) = (  1.0000000 -0.0000000 -0.0000000 )
                  (  0.0000000  1.0000000 -0.0000000 )
                  ( -0.0000000  0.0000000  1.0000000 )


     point group C_1 (1)    
     there are  1 classes
     the character table:

       E    
A      1.00

     the symmetry operations in each class:
     E        1

   Cartesian axes

     site n.     atom                  positions (alat units)
         1           Mg  tau(   1) = (    0.01127398872    0.02864011776    0.00283851560  )
         2           O   tau(   2) = (    0.32985864745    0.33198769329    0.33655527076  )
         3           Mg  tau(   3) = (    0.35982835091    0.36516222028    0.00747287676  )
         4           O   tau(   4) = (    0.72118183125    0.71575250835    0.34584290795  )
         5           Mg  tau(   5) = (    0.37369053893   -0.03206215936    0.36870800651  )
         6           O   tau(   6) = (    0.67062351560    0.35940454812    0.73868977781  )
         7           Mg  tau(   7) = (    0.68939403775    0.31694177911    0.32548647090  )
         8           O   tau(   8) = (    1.06923398385    0.68047967054    0.70611984593  )
         9           Mg  tau(   9) = (   -0.01421492701    0.32239400709    0.35830841615  )
        10           O   tau(  10) = (    0.35914170195    0.71620064805    0.67160715239  )
        11           Mg  tau(  11) = (    0.31325671806    0.67186138157    0.32341500046  )
        12           O   tau(  12) = (    0.71931185429    1.09728361416    0.69312707660  )
        13           Mg  tau(  13) = (    0.35374090361    0.37031623971    0.72089120425  )
        14           O   tau(  14) = (    0.71677554392    0.70877157089    1.05822126326  )
        15           Mg  tau(  15) = (    0.68436113900    0.68555955107    0.68505095298  )
        16           O   tau(  16) = (    1.03090965085    1.06019668580    1.07846988915  )

   Crystallographic axes

     site n.     atom                  positions (cryst. coord.)
         1           Mg  tau(   1) = (    0.01413337927   -0.00977057619    0.02618340940  )
         2           O   tau(   2) = (    0.24096512810    0.23857143221    0.23337172092  )
         3           Mg  tau(   3) = (    0.01068231574    0.00568320511    0.50719172472  )
         4           O   tau(   4) = (    0.24411520728    0.25471460644    0.77474489271  )
         5           Mg  tau(   5) = (   -0.01967413442    0.54094048749   -0.01416623206  )
         6           O   tau(   6) = (    0.30901141080    0.73933071147    0.21442450167  )
         7           Mg  tau(   7) = (   -0.02559513722    0.49138175228    0.48564510171  )
         8           O   tau(   8) = (    0.23395274421    0.77408722622    0.74599575413  )
         9           Mg  tau(   9) = (    0.48727140850    0.02089736712   -0.03271373021  )
        10           O   tau(  10) = (    0.72473673443    0.23109041099    0.29123904890  )
        11           Mg  tau(  11) = (    0.47943394350   -0.01493989878    0.46997503578  )
        12           O   tau(  12) = (    0.75618264190    0.23597159976    0.80009626863  )
        13           Mg  tau(  13) = (    0.52283544391    0.49877609625    0.00961648313  )
        14           O   tau(  14) = (    0.74593546806    0.75655710007    0.27054539293  )
        15           Mg  tau(  15) = (    0.48836037161    0.48790088597    0.49110924581  )
        16           O   tau(  16) = (    0.78765307424    0.74880759358    0.72674138181  )

     number of k points=    36
                       cart. coord. in units 2pi/alat
        k(    1) = (   0.0000000   0.0000000   0.0000000), wk =   0.0312500
        k(    2) = (   0.1774198   0.1759723  -0.1741205), wk =   0.0625000
        k(    3) = (  -0.3548396  -0.3519446   0.3482410), wk =   0.0312500
        k(    4) = (   0.1740291  -0.1711880   0.1755140), wk =   0.0625000
        k(    5) = (   0.3514489   0.0047842   0.0013935), wk =   0.0625000
        k(    6) = (  -0.1808105  -0.5231326   0.5237550), wk =   0.0625000
        k(    7) = (  -0.0033907  -0.3471603   0.3496345), wk =   0.0625000
        k(    8) = (  -0.3480582   0.3423761  -0.3510281), wk =   0.0312500
        k(    9) = (  -0.1706384   0.5183484  -0.5251485), wk =   0.0625000
        k(   10) = (  -0.7028979  -0.0095685  -0.0027871), wk =   0.0312500
        k(   11) = (  -0.1726356   0.1738104   0.1767428), wk =   0.0625000
        k(   12) = (   0.0047842   0.3497826   0.0026223), wk =   0.0625000
        k(   13) = (  -0.5274752  -0.1781342   0.5249838), wk =   0.0625000
        k(   14) = (  -0.3500554  -0.0021619   0.3508633), wk =   0.0625000
        k(   15) = (   0.0013935   0.0026223   0.3522568), wk =   0.0625000
        k(   16) = (   0.1788134   0.1785946   0.1781363), wk =   0.0625000
        k(   17) = (  -0.3534461  -0.3493223   0.7004978), wk =   0.0625000
        k(   18) = (  -0.1760263  -0.1733500   0.5263773), wk =   0.0625000
        k(   19) = (  -0.5206938   0.5161864  -0.1742853), wk =   0.0625000
        k(   20) = (  -0.3432740   0.6921587  -0.3484057), wk =   0.0625000
        k(   21) = (  -0.8755335   0.1642419   0.1739557), wk =   0.0625000
        k(   22) = (  -0.6981136   0.3402142  -0.0001648), wk =   0.0625000
        k(   23) = (  -0.3466647   0.3449984   0.0012288), wk =   0.0625000
        k(   24) = (  -0.1692449   0.5209707  -0.1728917), wk =   0.0625000
        k(   25) = (  -0.7015043  -0.0069462   0.3494697), wk =   0.0625000
        k(   26) = (  -0.5240845   0.1690261   0.1753493), wk =   0.0625000
        k(   27) = (   0.3452712  -0.3476207  -0.3534856), wk =   0.0312500
        k(   28) = (   0.5226910  -0.1716484  -0.5276061), wk =   0.0625000
        k(   29) = (  -0.0095685  -0.6995653  -0.0052446), wk =   0.0312500
        k(   30) = (   0.5193003  -0.5188088  -0.1779716), wk =   0.0625000
        k(   31) = (   0.6967201  -0.3428365  -0.3520920), wk =   0.0625000
        k(   32) = (   0.1644606  -0.8707533   0.1702694), wk =   0.0625000
        k(   33) = (   0.3418805  -0.6947811  -0.0038511), wk =   0.0625000
        k(   34) = (  -0.0027871  -0.0052446  -0.7045136), wk =   0.0312500
        k(   35) = (   0.1746327   0.1707277  -0.8786341), wk =   0.0625000
        k(   36) = (  -0.3576267  -0.3571892  -0.3562727), wk =   0.0312500

                       cryst. coord.
        k(    1) = (   0.0000000   0.0000000   0.0000000), wk =   0.0312500
        k(    2) = (  -0.0000000   0.0000000   0.2500000), wk =   0.0625000
        k(    3) = (   0.0000000   0.0000000  -0.5000000), wk =   0.0312500
        k(    4) = (   0.0000000   0.2500000  -0.0000000), wk =   0.0625000
        k(    5) = (  -0.0000000   0.2500000   0.2500000), wk =   0.0625000
        k(    6) = (   0.0000000   0.2500000  -0.5000000), wk =   0.0625000
        k(    7) = (   0.0000000   0.2500000  -0.2500000), wk =   0.0625000
        k(    8) = (   0.0000000  -0.5000000   0.0000000), wk =   0.0312500
        k(    9) = (  -0.0000000  -0.5000000   0.2500000), wk =   0.0625000
        k(   10) = (   0.0000000  -0.5000000  -0.5000000), wk =   0.0312500
        k(   11) = (   0.2500000   0.0000000   0.0000000), wk =   0.0625000
        k(   12) = (   0.2500000   0.0000000   0.2500000), wk =   0.0625000
        k(   13) = (   0.2500000   0.0000000  -0.5000000), wk =   0.0625000
        k(   14) = (   0.2500000  -0.0000000  -0.2500000), wk =   0.0625000
        k(   15) = (   0.2500000   0.2500000  -0.0000000), wk =   0.0625000
        k(   16) = (   0.2500000   0.2500000   0.2500000), wk =   0.0625000
        k(   17) = (   0.2500000   0.2500000  -0.5000000), wk =   0.0625000
        k(   18) = (   0.2500000   0.2500000  -0.2500000), wk =   0.0625000
        k(   19) = (   0.2500000  -0.5000000  -0.0000000), wk =   0.0625000
        k(   20) = (   0.2500000  -0.5000000   0.2500000), wk =   0.0625000
        k(   21) = (   0.2500000  -0.5000000  -0.5000000), wk =   0.0625000
        k(   22) = (   0.2500000  -0.5000000  -0.2500000), wk =   0.0625000
        k(   23) = (   0.2500000  -0.2500000  -0.0000000), wk =   0.0625000
        k(   24) = (   0.2500000  -0.2500000   0.2500000), wk =   0.0625000
        k(   25) = (   0.2500000  -0.2500000  -0.5000000), wk =   0.0625000
        k(   26) = (   0.2500000  -0.2500000  -0.2500000), wk =   0.0625000
        k(   27) = (  -0.5000000   0.0000000  -0.0000000), wk =   0.0312500
        k(   28) = (  -0.5000000   0.0000000   0.2500000), wk =   0.0625000
        k(   29) = (  -0.5000000  -0.0000000  -0.5000000), wk =   0.0312500
        k(   30) = (  -0.5000000   0.2500000   0.0000000), wk =   0.0625000
        k(   31) = (  -0.5000000   0.2500000   0.2500000), wk =   0.0625000
        k(   32) = (  -0.5000000   0.2500000  -0.5000000), wk =   0.0625000
        k(   33) = (  -0.5000000   0.2500000  -0.2500000), wk =   0.0625000
        k(   34) = (  -0.5000000  -0.5000000   0.0000000), wk =   0.0312500
        k(   35) = (  -0.5000000  -0.5000000   0.2500000), wk =   0.0625000
        k(   36) = (  -0.5000000  -0.5000000  -0.5000000), wk =   0.0312500

     Dense  grid:    52151 G-vectors     FFT dimensions: (  54,  54,  54)

     Smooth grid:    37315 G-vectors     FFT dimensions: (  48,  48,  45)

     Largest allocated arrays     est. size (Mb)     dimensions
        Kohn-Sham Wavefunctions         0.30 Mb     (     303,   64)
        NL pseudopotentials             1.18 Mb     (     303,  256)
        Each V/rho on FFT grid          0.18 Mb     (   11664)
        Each G-vector array             0.02 Mb     (    3261)
        G-vector shells                 0.02 Mb     (    3158)
     Largest temporary arrays     est. size (Mb)     dimensions
        Auxiliary wavefunctions         1.18 Mb     (     303,  256)
        Each subspace H/S matrix        1.00 Mb     (     256,  256)
        Each <psi_i|beta_j> matrix      0.25 Mb     (     256,   64)
        Arrays for rho mixing           1.42 Mb     (   11664,    8)

     Check: negative/imaginary core charge=   -0.000003    0.000000

     Initial potential from superposition of free atoms

     starting charge  125.59817, renormalised to  128.00000
     Starting wfc are   72 randomized atomic wfcs

     total cpu time spent up to now is       13.7 secs

     per-process dynamical memory:    29.5 Mb

     Self-consistent Calculation

     iteration #  1     ecut=    40.00 Ry     beta=0.30
     Davidson diagonalization with overlap
     ethr =  1.00E-02,  avg # of iterations =  2.0

     total cpu time spent up to now is       48.0 secs

     total energy              =   -1261.06585025 Ry
     Harris-Foulkes estimate   =   -1261.66442899 Ry
     estimated scf accuracy    <       3.03890522 Ry

     iteration #  2     ecut=    40.00 Ry     beta=0.30
     Davidson diagonalization with overlap
     ethr =  2.37E-03,  avg # of iterations =  1.0

     total cpu time spent up to now is       74.1 secs

     total energy              =   -1260.50875511 Ry
     Harris-Foulkes estimate   =   -1261.14860569 Ry
     estimated scf accuracy    <       1.41711619 Ry

     iteration #  3     ecut=    40.00 Ry     beta=0.30
     Davidson diagonalization with overlap
     ethr =  1.11E-03,  avg # of iterations =  2.0

     total cpu time spent up to now is      109.8 secs

     total energy              =   -1260.66113097 Ry
     Harris-Foulkes estimate   =   -1260.73122771 Ry
     estimated scf accuracy    <       0.17469728 Ry

     iteration #  4     ecut=    40.00 Ry     beta=0.30
     Davidson diagonalization with overlap
     ethr =  1.36E-04,  avg # of iterations =  1.0

     total cpu time spent up to now is      135.1 secs

     total energy              =   -1260.63518696 Ry
     Harris-Foulkes estimate   =   -1260.66900048 Ry
     estimated scf accuracy    <       0.05375473 Ry

     iteration #  5     ecut=    40.00 Ry     beta=0.30
     Davidson diagonalization with overlap
     ethr =  4.20E-05,  avg # of iterations =  2.0

     total cpu time spent up to now is      169.9 secs

     total energy              =   -1260.63614958 Ry
     Harris-Foulkes estimate   =   -1260.63973760 Ry
     estimated scf accuracy    <       0.00616468 Ry

     iteration #  6     ecut=    40.00 Ry     beta=0.30
     Davidson diagonalization with overlap
     ethr =  4.82E-06,  avg # of iterations =  3.0

     total cpu time spent up to now is      221.5 secs

     total energy              =   -1260.63556658 Ry
     Harris-Foulkes estimate   =   -1260.64197950 Ry
     estimated scf accuracy    <       0.01501797 Ry

     iteration #  7     ecut=    40.00 Ry     beta=0.30
     Davidson diagonalization with overlap
     ethr =  4.82E-06,  avg # of iterations =  2.1

     total cpu time spent up to now is      262.0 secs

     total energy              =   -1260.63819448 Ry
     Harris-Foulkes estimate   =   -1260.63820066 Ry
     estimated scf accuracy    <       0.00012642 Ry

     iteration #  8     ecut=    40.00 Ry     beta=0.30
     Davidson diagonalization with overlap
     ethr =  9.88E-08,  avg # of iterations =  2.0

     total cpu time spent up to now is      298.0 secs

     total energy              =   -1260.63819699 Ry
     Harris-Foulkes estimate   =   -1260.63821972 Ry
     estimated scf accuracy    <       0.00013935 Ry

     iteration #  9     ecut=    40.00 Ry     beta=0.30
     Davidson diagonalization with overlap
     ethr =  9.88E-08,  avg # of iterations =  1.0

     total cpu time spent up to now is      323.6 secs

     total energy              =   -1260.63816395 Ry
     Harris-Foulkes estimate   =   -1260.63819990 Ry
     estimated scf accuracy    <       0.00009234 Ry

     iteration # 10     ecut=    40.00 Ry     beta=0.30
     Davidson diagonalization with overlap
     ethr =  7.21E-08,  avg # of iterations =  2.0

     total cpu time spent up to now is      359.2 secs

     total energy              =   -1260.63817781 Ry
     Harris-Foulkes estimate   =   -1260.63817782 Ry
     estimated scf accuracy    <       0.00000487 Ry

     iteration # 11     ecut=    40.00 Ry     beta=0.30
     Davidson diagonalization with overlap
     ethr =  3.81E-09,  avg # of iterations =  2.0

     total cpu time spent up to now is      400.8 secs

     total energy              =   -1260.63817544 Ry
     Harris-Foulkes estimate   =   -1260.63817891 Ry
     estimated scf accuracy    <       0.00000826 Ry

     iteration # 12     ecut=    40.00 Ry     beta=0.30
     Davidson diagonalization with overlap
     ethr =  3.81E-09,  avg # of iterations =  2.0

     total cpu time spent up to now is      435.6 secs

     total energy              =   -1260.63817670 Ry
     Harris-Foulkes estimate   =   -1260.63817670 Ry
     estimated scf accuracy    <       0.00000006 Ry

     iteration # 13     ecut=    40.00 Ry     beta=0.30
     Davidson diagonalization with overlap
     ethr =  4.80E-11,  avg # of iterations =  2.0

     total cpu time spent up to now is      473.9 secs

     total energy              =   -1260.63817671 Ry
     Harris-Foulkes estimate   =   -1260.63817671 Ry
     estimated scf accuracy    <       0.00000002 Ry

     iteration # 14     ecut=    40.00 Ry     beta=0.30
     Davidson diagonalization with overlap
     ethr =  1.71E-11,  avg # of iterations =  2.0

     total cpu time spent up to now is      510.3 secs

     total energy              =   -1260.63817672 Ry
     Harris-Foulkes estimate   =   -1260.63817672 Ry
     estimated scf accuracy    <          3.5E-09 Ry

     iteration # 15     ecut=    40.00 Ry     beta=0.30
     Davidson diagonalization with overlap
     ethr =  2.72E-12,  avg # of iterations =  2.0

     total cpu time spent up to now is      542.3 secs

     total energy              =   -1260.63817672 Ry
     Harris-Foulkes estimate   =   -1260.63817672 Ry
     estimated scf accuracy    <          1.2E-09 Ry

     iteration # 16     ecut=    40.00 Ry     beta=0.30
     Davidson diagonalization with overlap
     ethr =  9.00E-13,  avg # of iterations =  2.0

     total cpu time spent up to now is      578.0 secs

     total energy              =   -1260.63817672 Ry
     Harris-Foulkes estimate   =   -1260.63817672 Ry
     estimated scf accuracy    <          5.4E-10 Ry

     iteration # 17     ecut=    40.00 Ry     beta=0.30
     Davidson diagonalization with overlap
     ethr =  4.18E-13,  avg # of iterations =  2.0

     total cpu time spent up to now is      615.4 secs

     End of self-consistent calculation

          k = 0.0000 0.0000 0.0000 (  4675 PWs)   bands (ev):

   -65.7248 -65.4996 -65.4162 -65.3591 -65.3334 -65.3304 -65.2242 -64.9964
   -32.7296 -32.6878 -32.6849 -32.5041 -32.4743 -32.4612 -32.4221 -32.3859
   -32.3796 -32.3551 -32.3517 -32.3453 -32.3226 -32.3115 -32.3107 -32.3005
   -32.2813 -32.2802 -32.2268 -32.2054 -32.1801 -31.9960 -31.9731 -31.9667
   -10.0897  -9.1560  -9.0300  -8.9351  -8.8259  -8.5577  -8.4877  -8.4164
     2.3088   2.3728   2.4855   2.5540   3.0120   3.0486   3.1230   5.1407
     5.3350   5.4101   5.4903   5.5686   5.6111   5.9570   6.0588   6.1285
     6.1557   6.2282   6.2658   6.3780   6.4707   6.7504   6.8149   6.9759

     occupation numbers 
     1.0000   1.0000   1.0000   1.0000   1.0000   1.0000   1.0000   1.0000
     1.0000   1.0000   1.0000   1.0000   1.0000   1.0000   1.0000   1.0000
     1.0000   1.0000   1.0000   1.0000   1.0000   1.0000   1.0000   1.0000
     1.0000   1.0000   1.0000   1.0000   1.0000   1.0000   1.0000   1.0000
     1.0000   1.0000   1.0000   1.0000   1.0000   1.0000   1.0000   1.0000
     1.0000   1.0000   1.0000   1.0000   1.0000   1.0000   1.0000   1.0000
     1.0000   1.0000   1.0000   1.0000   1.0000   1.0000   1.0000   1.0000
     1.0000   1.0000   1.0000   1.0000   1.0000   1.0000   1.0000   1.0000

          k = 0.1774 0.1760-0.1741 (  4687 PWs)   bands (ev):

   -65.7248 -65.4996 -65.4162 -65.3591 -65.3331 -65.3306 -65.2242 -64.9964
   -32.7294 -32.6870 -32.6847 -32.5035 -32.4722 -32.4608 -32.4231 -32.3867
   -32.3790 -32.3551 -32.3494 -32.3454 -32.3215 -32.3118 -32.3112 -32.3017
   -32.2832 -32.2807 -32.2268 -32.2057 -32.1808 -31.9968 -31.9734 -31.9669
    -9.9571  -9.1763  -9.0776  -9.0118  -8.8050  -8.6306  -8.4801  -8.4233
     2.5240   2.5858   2.7898   2.9375   3.1868   3.2877   3.3662   4.8887
     5.0098   5.1988   5.2429   5.4587   5.5618   5.6934   5.7381   5.8573
     5.9883   6.0682   6.1420   6.2346   6.3173   6.4526   6.7585   6.8347

     occupation numbers 
     1.0000   1.0000   1.0000   1.0000   1.0000   1.0000   1.0000   1.0000
     1.0000   1.0000   1.0000   1.0000   1.0000   1.0000   1.0000   1.0000
     1.0000   1.0000   1.0000   1.0000   1.0000   1.0000   1.0000   1.0000
     1.0000   1.0000   1.0000   1.0000   1.0000   1.0000   1.0000   1.0000
     1.0000   1.0000   1.0000   1.0000   1.0000   1.0000   1.0000   1.0000
     1.0000   1.0000   1.0000   1.0000   1.0000   1.0000   1.0000   1.0000
     1.0000   1.0000   1.0000   1.0000   1.0000   1.0000   1.0000   1.0000
     1.0000   1.0000   1.0000   1.0000   1.0000   1.0000   1.0000   1.0000

          k =-0.3548-0.3519 0.3482 (  4650 PWs)   bands (ev):

   -65.7248 -65.4996 -65.4162 -65.3591 -65.3328 -65.3310 -65.2242 -64.9964
   -32.7292 -32.6863 -32.6846 -32.5028 -32.4700 -32.4602 -32.4243 -32.3877
   -32.3784 -32.3551 -32.3467 -32.3455 -32.3198 -32.3125 -32.3118 -32.3032
   -32.2855 -32.2807 -32.2268 -32.2060 -32.1814 -31.9977 -31.9737 -31.9671
    -9.7315  -9.3713  -9.1242  -9.0159  -8.7504  -8.7178  -8.4835  -8.4298
     2.8505   2.9841   3.0842   3.3264   3.4700   3.5445   4.1706   4.2386
     4.6351   4.7324   4.8855   5.0344   5.1094   5.3441   5.4086   5.7142
     5.8774   5.9711   6.1299   6.1792   6.1875   6.4838   6.6932   6.7525

     occupation numbers 
     1.0000   1.0000   1.0000   1.0000   1.0000   1.0000   1.0000   1.0000
     1.0000   1.0000   1.0000   1.0000   1.0000   1.0000   1.0000   1.0000
     1.0000   1.0000   1.0000   1.0000   1.0000   1.0000   1.0000   1.0000
     1.0000   1.0000   1.0000   1.0000   1.0000   1.0000   1.0000   1.0000
     1.0000   1.0000   1.0000   1.0000   1.0000   1.0000   1.0000   1.0000
     1.0000   1.0000   1.0000   1.0000   1.0000   1.0000   1.0000   1.0000
     1.0000   1.0000   1.0000   1.0000   1.0000   1.0000   1.0000   1.0000
     1.0000   1.0000   1.0000   1.0000   1.0000   1.0000   1.0000   1.0000

          k = 0.1740-0.1712 0.1755 (  4680 PWs)   bands (ev):

   -65.7248 -65.4996 -65.4162 -65.3590 -65.3334 -65.3304 -65.2242 -64.9964
   -32.7294 -32.6876 -32.6844 -32.5039 -32.4738 -32.4602 -32.4213 -32.3853
   -32.3778 -32.3548 -32.3524 -32.3447 -32.3239 -32.3126 -32.3071 -32.3007
   -32.2847 -32.2819 -32.2271 -32.2060 -32.1804 -31.9962 -31.9733 -31.9674
    -9.9571  -9.2155  -9.1078  -8.9451  -8.8121  -8.6094  -8.4902  -8.4187
     2.5173   2.6751   2.7833   2.8251   3.1232   3.2569   3.3906   4.6592
     5.0167   5.2344   5.3850   5.4765   5.5985   5.6600   5.7197   5.8489
     5.9999   6.0925   6.1700   6.2940   6.3774   6.4977   6.7294   6.9163

     occupation numbers 
     1.0000   1.0000   1.0000   1.0000   1.0000   1.0000   1.0000   1.0000
     1.0000   1.0000   1.0000   1.0000   1.0000   1.0000   1.0000   1.0000
     1.0000   1.0000   1.0000   1.0000   1.0000   1.0000   1.0000   1.0000
     1.0000   1.0000   1.0000   1.0000   1.0000   1.0000   1.0000   1.0000
     1.0000   1.0000   1.0000   1.0000   1.0000   1.0000   1.0000   1.0000
     1.0000   1.0000   1.0000   1.0000   1.0000   1.0000   1.0000   1.0000
     1.0000   1.0000   1.0000   1.0000   1.0000   1.0000   1.0000   1.0000
     1.0000   1.0000   1.0000   1.0000   1.0000   1.0000   1.0000   1.0000

          k = 0.3514 0.0048 0.0014 (  4674 PWs)   bands (ev):

   -65.7248 -65.4996 -65.4162 -65.3591 -65.3331 -65.3306 -65.2242 -64.9964
   -32.7292 -32.6872 -32.6844 -32.5033 -32.4719 -32.4603 -32.4226 -32.3870
   -32.3786 -32.3549 -32.3498 -32.3457 -32.3224 -32.3125 -32.3076 -32.3018
   -32.2845 -32.2821 -32.2270 -32.2058 -32.1807 -31.9968 -31.9736 -31.9672
    -9.9095  -9.2001  -9.1090  -8.9768  -8.8212  -8.6530  -8.5092  -8.4031
     2.6242   2.7170   2.8528   3.0102   3.2785   3.3599   3.4736   4.6910
     4.9049   5.1538   5.3086   5.4078   5.4628   5.5085   5.7530   5.8399
     5.9110   5.9935   6.0973   6.2153   6.3155   6.4325   6.6024   6.7562

     occupation numbers 
     1.0000   1.0000   1.0000   1.0000   1.0000   1.0000   1.0000   1.0000
     1.0000   1.0000   1.0000   1.0000   1.0000   1.0000   1.0000   1.0000
     1.0000   1.0000   1.0000   1.0000   1.0000   1.0000   1.0000   1.0000
     1.0000   1.0000   1.0000   1.0000   1.0000   1.0000   1.0000   1.0000
     1.0000   1.0000   1.0000   1.0000   1.0000   1.0000   1.0000   1.0000
     1.0000   1.0000   1.0000   1.0000   1.0000   1.0000   1.0000   1.0000
     1.0000   1.0000   1.0000   1.0000   1.0000   1.0000   1.0000   1.0000
     1.0000   1.0000   1.0000   1.0000   1.0000   1.0000   1.0000   1.0000

          k =-0.1808-0.5231 0.5238 (  4656 PWs)   bands (ev):

   -65.7248 -65.4996 -65.4162 -65.3591 -65.3328 -65.3310 -65.2242 -64.9964
   -32.7290 -32.6864 -32.6842 -32.5027 -32.4696 -32.4598 -32.4237 -32.3879
   -32.3781 -32.3550 -32.3472 -32.3459 -32.3210 -32.3130 -32.3084 -32.3031
   -32.2848 -32.2841 -32.2270 -32.2061 -32.1813 -31.9976 -31.9738 -31.9674
    -9.6826  -9.2919  -9.1773  -9.0866  -8.7832  -8.7142  -8.5135  -8.3950
     2.9870   3.0824   3.3895   3.4613   3.6592   3.7236   3.8581   4.2327
     4.4565   4.5033   4.6727   4.9246   5.2495   5.4284   5.5596   5.6763
     5.7343   5.9195   5.9589   6.1015   6.2462   6.3494   6.5222   6.6679

     occupation numbers 
     1.0000   1.0000   1.0000   1.0000   1.0000   1.0000   1.0000   1.0000
     1.0000   1.0000   1.0000   1.0000   1.0000   1.0000   1.0000   1.0000
     1.0000   1.0000   1.0000   1.0000   1.0000   1.0000   1.0000   1.0000
     1.0000   1.0000   1.0000   1.0000   1.0000   1.0000   1.0000   1.0000
     1.0000   1.0000   1.0000   1.0000   1.0000   1.0000   1.0000   1.0000
     1.0000   1.0000   1.0000   1.0000   1.0000   1.0000   1.0000   1.0000
     1.0000   1.0000   1.0000   1.0000   1.0000   1.0000   1.0000   1.0000
     1.0000   1.0000   1.0000   1.0000   1.0000   1.0000   1.0000   1.0000

          k =-0.0034-0.3472 0.3496 (  4674 PWs)   bands (ev):

   -65.7248 -65.4996 -65.4162 -65.3590 -65.3331 -65.3306 -65.2242 -64.9964
   -32.7292 -32.6869 -32.6842 -32.5032 -32.4717 -32.4598 -32.4223 -32.3862
   -32.3772 -32.3548 -32.3500 -32.3448 -32.3230 -32.3127 -32.3077 -32.3017
   -32.2847 -32.2843 -32.2271 -32.2064 -32.1811 -31.9970 -31.9736 -31.9676
    -9.7749  -9.2371  -9.1633  -9.0875  -8.7719  -8.6846  -8.4925  -8.4066
     2.8215   3.0555   3.1551   3.2400   3.3997   3.5945   3.7528   4.1281
     4.6306   4.7282   5.0249   5.1289   5.2580   5.5622   5.6359   5.7698
     5.8972   5.9769   6.0369   6.1167   6.2716   6.3788   6.5243   6.7874

     occupation numbers 
     1.0000   1.0000   1.0000   1.0000   1.0000   1.0000   1.0000   1.0000
     1.0000   1.0000   1.0000   1.0000   1.0000   1.0000   1.0000   1.0000
     1.0000   1.0000   1.0000   1.0000   1.0000   1.0000   1.0000   1.0000
     1.0000   1.0000   1.0000   1.0000   1.0000   1.0000   1.0000   1.0000
     1.0000   1.0000   1.0000   1.0000   1.0000   1.0000   1.0000   1.0000
     1.0000   1.0000   1.0000   1.0000   1.0000   1.0000   1.0000   1.0000
     1.0000   1.0000   1.0000   1.0000   1.0000   1.0000   1.0000   1.0000
     1.0000   1.0000   1.0000   1.0000   1.0000   1.0000   1.0000   1.0000

          k =-0.3481 0.3424-0.3510 (  4668 PWs)   bands (ev):

   -65.7248 -65.4996 -65.4162 -65.3590 -65.3334 -65.3304 -65.2242 -64.9964
   -32.7291 -32.6874 -32.6838 -32.5037 -32.4733 -32.4591 -32.4205 -32.3848
   -32.3759 -32.3545 -32.3531 -32.3441 -32.3253 -32.3138 -32.3014 -32.3007
   -32.2908 -32.2830 -32.2274 -32.2067 -32.1807 -31.9963 -31.9735 -31.9681
    -9.7141  -9.4514  -9.1354  -8.9475  -8.7912  -8.6558  -8.4997  -8.4174
     2.8320   3.0005   3.1416   3.1696   3.4462   3.5510   3.9746   4.1352
     4.3393   4.7895   4.9443   5.0314   5.2918   5.4872   5.6305   5.7802
     5.8190   5.9587   6.0052   6.2349   6.4129   6.5659   6.6531   6.8355

     occupation numbers 
     1.0000   1.0000   1.0000   1.0000   1.0000   1.0000   1.0000   1.0000
     1.0000   1.0000   1.0000   1.0000   1.0000   1.0000   1.0000   1.0000
     1.0000   1.0000   1.0000   1.0000   1.0000   1.0000   1.0000   1.0000
     1.0000   1.0000   1.0000   1.0000   1.0000   1.0000   1.0000   1.0000
     1.0000   1.0000   1.0000   1.0000   1.0000   1.0000   1.0000   1.0000
     1.0000   1.0000   1.0000   1.0000   1.0000   1.0000   1.0000   1.0000
     1.0000   1.0000   1.0000   1.0000   1.0000   1.0000   1.0000   1.0000
     1.0000   1.0000   1.0000   1.0000   1.0000   1.0000   1.0000   1.0000

          k =-0.1706 0.5183-0.5251 (  4668 PWs)   bands (ev):

   -65.7248 -65.4996 -65.4162 -65.3590 -65.3331 -65.3307 -65.2242 -64.9964
   -32.7290 -32.6870 -32.6838 -32.5031 -32.4714 -32.4593 -32.4218 -32.3864
   -32.3768 -32.3547 -32.3505 -32.3452 -32.3240 -32.3135 -32.3026 -32.3011
   -32.2905 -32.2833 -32.2273 -32.2064 -32.1810 -31.9969 -31.9737 -31.9679
    -9.6736  -9.3577  -9.1643  -9.0535  -8.7814  -8.7042  -8.5028  -8.4007
     2.9722   3.1499   3.3439   3.4465   3.6280   3.6846   3.8107   4.1082
     4.2445   4.6038   4.7154   5.0374   5.2794   5.4560   5.5872   5.6984
     5.8669   5.8973   6.0069   6.1063   6.1926   6.4187   6.5555   6.6596

     occupation numbers 
     1.0000   1.0000   1.0000   1.0000   1.0000   1.0000   1.0000   1.0000
     1.0000   1.0000   1.0000   1.0000   1.0000   1.0000   1.0000   1.0000
     1.0000   1.0000   1.0000   1.0000   1.0000   1.0000   1.0000   1.0000
     1.0000   1.0000   1.0000   1.0000   1.0000   1.0000   1.0000   1.0000
     1.0000   1.0000   1.0000   1.0000   1.0000   1.0000   1.0000   1.0000
     1.0000   1.0000   1.0000   1.0000   1.0000   1.0000   1.0000   1.0000
     1.0000   1.0000   1.0000   1.0000   1.0000   1.0000   1.0000   1.0000
     1.0000   1.0000   1.0000   1.0000   1.0000   1.0000   1.0000   1.0000

          k =-0.7029-0.0096-0.0028 (  4670 PWs)   bands (ev):

   -65.7248 -65.4996 -65.4162 -65.3590 -65.3328 -65.3310 -65.2242 -64.9964
   -32.7289 -32.6866 -32.6838 -32.5026 -32.4693 -32.4594 -32.4232 -32.3881
   -32.3776 -32.3548 -32.3477 -32.3462 -32.3224 -32.3136 -32.3044 -32.3015
   -32.2901 -32.2834 -32.2272 -32.2062 -32.1813 -31.9975 -31.9740 -31.9678
    -9.5681  -9.3945  -9.1919  -9.0226  -8.8033  -8.7902  -8.5115  -8.3818
     3.1605   3.3279   3.4571   3.6279   3.9092   3.9352   4.0579   4.1215
     4.1877   4.3022   4.6864   4.7798   5.0334   5.1138   5.1896   5.4604
     5.9038   5.9755   6.0043   6.0984   6.2132   6.3617   6.4954   6.5683

     occupation numbers 
     1.0000   1.0000   1.0000   1.0000   1.0000   1.0000   1.0000   1.0000
     1.0000   1.0000   1.0000   1.0000   1.0000   1.0000   1.0000   1.0000
     1.0000   1.0000   1.0000   1.0000   1.0000   1.0000   1.0000   1.0000
     1.0000   1.0000   1.0000   1.0000   1.0000   1.0000   1.0000   1.0000
     1.0000   1.0000   1.0000   1.0000   1.0000   1.0000   1.0000   1.0000
     1.0000   1.0000   1.0000   1.0000   1.0000   1.0000   1.0000   1.0000
     1.0000   1.0000   1.0000   1.0000   1.0000   1.0000   1.0000   1.0000
     1.0000   1.0000   1.0000   1.0000   1.0000   1.0000   1.0000   1.0000

          k =-0.1726 0.1738 0.1767 (  4681 PWs)   bands (ev):

   -65.7248 -65.4996 -65.4162 -65.3591 -65.3333 -65.3304 -65.2242 -64.9964
   -32.7290 -32.6876 -32.6845 -32.5046 -32.4724 -32.4608 -32.4216 -32.3864
   -32.3787 -32.3573 -32.3517 -32.3452 -32.3221 -32.3102 -32.3072 -32.3006
   -32.2843 -32.2807 -32.2277 -32.2059 -32.1813 -31.9962 -31.9739 -31.9669
    -9.9535  -9.2636  -9.0306  -8.9527  -8.8420  -8.5726  -8.5031  -8.4401
     2.5295   2.6225   2.7134   2.9641   3.1865   3.2524   3.3268   4.7860
     5.0038   5.1347   5.3633   5.5201   5.5792   5.7016   5.7618   5.9143
     5.9853   6.0745   6.1379   6.2321   6.2893   6.5034   6.7084   6.9009

     occupation numbers 
     1.0000   1.0000   1.0000   1.0000   1.0000   1.0000   1.0000   1.0000
     1.0000   1.0000   1.0000   1.0000   1.0000   1.0000   1.0000   1.0000
     1.0000   1.0000   1.0000   1.0000   1.0000   1.0000   1.0000   1.0000
     1.0000   1.0000   1.0000   1.0000   1.0000   1.0000   1.0000   1.0000
     1.0000   1.0000   1.0000   1.0000   1.0000   1.0000   1.0000   1.0000
     1.0000   1.0000   1.0000   1.0000   1.0000   1.0000   1.0000   1.0000
     1.0000   1.0000   1.0000   1.0000   1.0000   1.0000   1.0000   1.0000
     1.0000   1.0000   1.0000   1.0000   1.0000   1.0000   1.0000   1.0000

          k = 0.0048 0.3498 0.0026 (  4668 PWs)   bands (ev):

   -65.7248 -65.4996 -65.4162 -65.3591 -65.3331 -65.3306 -65.2242 -64.9964
   -32.7289 -32.6872 -32.6844 -32.5039 -32.4734 -32.4607 -32.4207 -32.3858
   -32.3778 -32.3575 -32.3497 -32.3452 -32.3215 -32.3113 -32.3076 -32.3021
   -32.2847 -32.2832 -32.2269 -32.2061 -32.1808 -31.9969 -31.9736 -31.9671
    -9.9108  -9.2264  -9.0655  -8.9812  -8.8404  -8.6626  -8.4722  -8.4210
     2.5789   2.6921   2.9000   3.0034   3.2800   3.3519   3.4746   4.6802
     4.8675   5.0842   5.3260   5.3891   5.5583   5.6474   5.6902   5.8043
     5.9305   6.0560   6.1544   6.1961   6.2792   6.4053   6.5898   6.7689

     occupation numbers 
     1.0000   1.0000   1.0000   1.0000   1.0000   1.0000   1.0000   1.0000
     1.0000   1.0000   1.0000   1.0000   1.0000   1.0000   1.0000   1.0000
     1.0000   1.0000   1.0000   1.0000   1.0000   1.0000   1.0000   1.0000
     1.0000   1.0000   1.0000   1.0000   1.0000   1.0000   1.0000   1.0000
     1.0000   1.0000   1.0000   1.0000   1.0000   1.0000   1.0000   1.0000
     1.0000   1.0000   1.0000   1.0000   1.0000   1.0000   1.0000   1.0000
     1.0000   1.0000   1.0000   1.0000   1.0000   1.0000   1.0000   1.0000
     1.0000   1.0000   1.0000   1.0000   1.0000   1.0000   1.0000   1.0000

          k =-0.5275-0.1781 0.5250 (  4664 PWs)   bands (ev):

   -65.7248 -65.4996 -65.4162 -65.3591 -65.3328 -65.3310 -65.2242 -64.9964
   -32.7287 -32.6864 -32.6843 -32.5033 -32.4713 -32.4602 -32.4217 -32.3867
   -32.3772 -32.3575 -32.3471 -32.3453 -32.3197 -32.3118 -32.3085 -32.3037
   -32.2857 -32.2846 -32.2269 -32.2064 -32.1815 -31.9977 -31.9739 -31.9672
    -9.6850  -9.2891  -9.2041  -9.0431  -8.8086  -8.7266  -8.4790  -8.4066
     2.9805   3.0966   3.2724   3.5085   3.6015   3.7564   3.8708   4.2947
     4.3459   4.5044   4.7238   5.0026   5.2099   5.3854   5.5826   5.6956
     5.7988   5.9481   6.0101   6.1172   6.2055   6.3124   6.4920   6.6819

     occupation numbers 
     1.0000   1.0000   1.0000   1.0000   1.0000   1.0000   1.0000   1.0000
     1.0000   1.0000   1.0000   1.0000   1.0000   1.0000   1.0000   1.0000
     1.0000   1.0000   1.0000   1.0000   1.0000   1.0000   1.0000   1.0000
     1.0000   1.0000   1.0000   1.0000   1.0000   1.0000   1.0000   1.0000
     1.0000   1.0000   1.0000   1.0000   1.0000   1.0000   1.0000   1.0000
     1.0000   1.0000   1.0000   1.0000   1.0000   1.0000   1.0000   1.0000
     1.0000   1.0000   1.0000   1.0000   1.0000   1.0000   1.0000   1.0000
     1.0000   1.0000   1.0000   1.0000   1.0000   1.0000   1.0000   1.0000

          k =-0.3501-0.0022 0.3509 (  4666 PWs)   bands (ev):

   -65.7248 -65.4996 -65.4162 -65.3591 -65.3331 -65.3307 -65.2242 -64.9964
   -32.7288 -32.6868 -32.6843 -32.5039 -32.4703 -32.4604 -32.4227 -32.3874
   -32.3781 -32.3573 -32.3493 -32.3454 -32.3211 -32.3102 -32.3077 -32.3021
   -32.2843 -32.2829 -32.2277 -32.2062 -32.1820 -31.9970 -31.9741 -31.9671
    -9.7663  -9.3020  -9.1420  -9.0133  -8.8222  -8.6624  -8.5038  -8.4088
     2.8363   2.9534   3.2105   3.3620   3.4399   3.5244   3.7154   4.0907
     4.6593   4.8617   5.0391   5.1947   5.2292   5.5011   5.6188   5.7083
     5.9054   5.9548   6.0275   6.1131   6.2183   6.3723   6.5153   6.7733

     occupation numbers 
     1.0000   1.0000   1.0000   1.0000   1.0000   1.0000   1.0000   1.0000
     1.0000   1.0000   1.0000   1.0000   1.0000   1.0000   1.0000   1.0000
     1.0000   1.0000   1.0000   1.0000   1.0000   1.0000   1.0000   1.0000
     1.0000   1.0000   1.0000   1.0000   1.0000   1.0000   1.0000   1.0000
     1.0000   1.0000   1.0000   1.0000   1.0000   1.0000   1.0000   1.0000
     1.0000   1.0000   1.0000   1.0000   1.0000   1.0000   1.0000   1.0000
     1.0000   1.0000   1.0000   1.0000   1.0000   1.0000   1.0000   1.0000
     1.0000   1.0000   1.0000   1.0000   1.0000   1.0000   1.0000   1.0000

          k = 0.0014 0.0026 0.3523 (  4687 PWs)   bands (ev):

   -65.7248 -65.4996 -65.4162 -65.3591 -65.3334 -65.3304 -65.2242 -64.9964
   -32.7288 -32.6874 -32.6845 -32.5045 -32.4726 -32.4604 -32.4208 -32.3859
   -32.3774 -32.3576 -32.3520 -32.3450 -32.3228 -32.3117 -32.3095 -32.3005
   -32.2817 -32.2805 -32.2281 -32.2062 -32.1817 -31.9963 -31.9737 -31.9673
    -9.9104  -9.2038  -9.0813  -8.9746  -8.8617  -8.6465  -8.4939  -8.4102
     2.6599   2.7657   2.8450   2.9383   3.1818   3.4156   3.5129   4.8206
     4.9384   5.1358   5.1526   5.3464   5.5240   5.6019   5.6944   5.8098
     5.8983   5.9495   6.0389   6.2023   6.3101   6.4470   6.6655   6.8079

     occupation numbers 
     1.0000   1.0000   1.0000   1.0000   1.0000   1.0000   1.0000   1.0000
     1.0000   1.0000   1.0000   1.0000   1.0000   1.0000   1.0000   1.0000
     1.0000   1.0000   1.0000   1.0000   1.0000   1.0000   1.0000   1.0000
     1.0000   1.0000   1.0000   1.0000   1.0000   1.0000   1.0000   1.0000
     1.0000   1.0000   1.0000   1.0000   1.0000   1.0000   1.0000   1.0000
     1.0000   1.0000   1.0000   1.0000   1.0000   1.0000   1.0000   1.0000
     1.0000   1.0000   1.0000   1.0000   1.0000   1.0000   1.0000   1.0000
     1.0000   1.0000   1.0000   1.0000   1.0000   1.0000   1.0000   1.0000

          k = 0.1788 0.1786 0.1781 (  4695 PWs)   bands (ev):

   -65.7248 -65.4996 -65.4162 -65.3591 -65.3331 -65.3306 -65.2242 -64.9964
   -32.7288 -32.6873 -32.6846 -32.5039 -32.4737 -32.4607 -32.4202 -32.3860
   -32.3778 -32.3579 -32.3497 -32.3458 -32.3218 -32.3119 -32.3105 -32.3020
   -32.2823 -32.2807 -32.2272 -32.2058 -32.1808 -31.9968 -31.9735 -31.9672
    -9.9460  -9.2130  -9.0925  -8.9339  -8.8371  -8.5933  -8.5248  -8.4264
     2.4878   2.5926   2.8066   3.0185   3.1430   3.2964   3.3754   4.8932
     5.0929   5.2822   5.3630   5.4076   5.5368   5.7034   5.7924   5.9022
     5.9737   6.0304   6.0589   6.1925   6.2615   6.3622   6.7264   6.7485

     occupation numbers 
     1.0000   1.0000   1.0000   1.0000   1.0000   1.0000   1.0000   1.0000
     1.0000   1.0000   1.0000   1.0000   1.0000   1.0000   1.0000   1.0000
     1.0000   1.0000   1.0000   1.0000   1.0000   1.0000   1.0000   1.0000
     1.0000   1.0000   1.0000   1.0000   1.0000   1.0000   1.0000   1.0000
     1.0000   1.0000   1.0000   1.0000   1.0000   1.0000   1.0000   1.0000
     1.0000   1.0000   1.0000   1.0000   1.0000   1.0000   1.0000   1.0000
     1.0000   1.0000   1.0000   1.0000   1.0000   1.0000   1.0000   1.0000
     1.0000   1.0000   1.0000   1.0000   1.0000   1.0000   1.0000   1.0000

          k =-0.3534-0.3493 0.7005 (  4648 PWs)   bands (ev):

   -65.7248 -65.4996 -65.4162 -65.3591 -65.3328 -65.3310 -65.2242 -64.9964
   -32.7286 -32.6865 -32.6844 -32.5033 -32.4716 -32.4603 -32.4212 -32.3868
   -32.3774 -32.3579 -32.3470 -32.3459 -32.3206 -32.3117 -32.3113 -32.3039
   -32.2844 -32.2808 -32.2271 -32.2061 -32.1815 -31.9976 -31.9737 -31.9674
    -9.7546  -9.2577  -9.1693  -9.0386  -8.7959  -8.7029  -8.4857  -8.4248
     2.7769   2.9141   3.3246   3.3680   3.4973   3.5762   3.7394   4.2164
     4.7594   4.8978   5.0515   5.0982   5.2527   5.3675   5.5977   5.7143
     5.9124   5.9581   5.9876   6.0581   6.2008   6.3108   6.4125   6.7037

     occupation numbers 
     1.0000   1.0000   1.0000   1.0000   1.0000   1.0000   1.0000   1.0000
     1.0000   1.0000   1.0000   1.0000   1.0000   1.0000   1.0000   1.0000
     1.0000   1.0000   1.0000   1.0000   1.0000   1.0000   1.0000   1.0000
     1.0000   1.0000   1.0000   1.0000   1.0000   1.0000   1.0000   1.0000
     1.0000   1.0000   1.0000   1.0000   1.0000   1.0000   1.0000   1.0000
     1.0000   1.0000   1.0000   1.0000   1.0000   1.0000   1.0000   1.0000
     1.0000   1.0000   1.0000   1.0000   1.0000   1.0000   1.0000   1.0000
     1.0000   1.0000   1.0000   1.0000   1.0000   1.0000   1.0000   1.0000

          k =-0.1760-0.1733 0.5264 (  4662 PWs)   bands (ev):

   -65.7248 -65.4996 -65.4162 -65.3591 -65.3331 -65.3306 -65.2242 -64.9964
   -32.7286 -32.6867 -32.6843 -32.5038 -32.4704 -32.4599 -32.4219 -32.3869
   -32.3768 -32.3575 -32.3496 -32.3451 -32.3221 -32.3118 -32.3095 -32.3021
   -32.2841 -32.2806 -32.2281 -32.2065 -32.1824 -31.9972 -31.9740 -31.9675
    -9.6875  -9.2749  -9.1696  -9.0864  -8.8354  -8.7011  -8.4726  -8.4170
     3.0056   3.1816   3.2438   3.4986   3.5857   3.7908   3.9143   4.1773
     4.3748   4.5309   4.7474   4.9655   5.1968   5.4056   5.5150   5.6302
     5.7623   5.9982   6.0150   6.1270   6.2096   6.2903   6.5557   6.6291

     occupation numbers 
     1.0000   1.0000   1.0000   1.0000   1.0000   1.0000   1.0000   1.0000
     1.0000   1.0000   1.0000   1.0000   1.0000   1.0000   1.0000   1.0000
     1.0000   1.0000   1.0000   1.0000   1.0000   1.0000   1.0000   1.0000
     1.0000   1.0000   1.0000   1.0000   1.0000   1.0000   1.0000   1.0000
     1.0000   1.0000   1.0000   1.0000   1.0000   1.0000   1.0000   1.0000
     1.0000   1.0000   1.0000   1.0000   1.0000   1.0000   1.0000   1.0000
     1.0000   1.0000   1.0000   1.0000   1.0000   1.0000   1.0000   1.0000
     1.0000   1.0000   1.0000   1.0000   1.0000   1.0000   1.0000   1.0000

          k =-0.5207 0.5162-0.1743 (  4678 PWs)   bands (ev):

   -65.7248 -65.4996 -65.4162 -65.3591 -65.3334 -65.3304 -65.2242 -64.9964
   -32.7286 -32.6872 -32.6839 -32.5043 -32.4721 -32.4594 -32.4199 -32.3854
   -32.3756 -32.3573 -32.3527 -32.3443 -32.3243 -32.3122 -32.3065 -32.3006
   -32.2846 -32.2828 -32.2284 -32.2068 -32.1819 -31.9965 -31.9739 -31.9680
    -9.6752  -9.3185  -9.2452  -8.9800  -8.8100  -8.7158  -8.4917  -8.4024
     3.0358   3.1909   3.2565   3.3563   3.5902   3.7229   3.8119   4.1968
     4.4175   4.5289   4.7034   5.1143   5.2059   5.3602   5.4733   5.6780
     5.8070   5.9340   6.0313   6.0939   6.2977   6.4037   6.5052   6.7480

     occupation numbers 
     1.0000   1.0000   1.0000   1.0000   1.0000   1.0000   1.0000   1.0000
     1.0000   1.0000   1.0000   1.0000   1.0000   1.0000   1.0000   1.0000
     1.0000   1.0000   1.0000   1.0000   1.0000   1.0000   1.0000   1.0000
     1.0000   1.0000   1.0000   1.0000   1.0000   1.0000   1.0000   1.0000
     1.0000   1.0000   1.0000   1.0000   1.0000   1.0000   1.0000   1.0000
     1.0000   1.0000   1.0000   1.0000   1.0000   1.0000   1.0000   1.0000
     1.0000   1.0000   1.0000   1.0000   1.0000   1.0000   1.0000   1.0000
     1.0000   1.0000   1.0000   1.0000   1.0000   1.0000   1.0000   1.0000

          k =-0.3433 0.6922-0.3484 (  4657 PWs)   bands (ev):

   -65.7248 -65.4996 -65.4162 -65.3591 -65.3331 -65.3306 -65.2242 -64.9964
   -32.7286 -32.6871 -32.6841 -32.5037 -32.4732 -32.4597 -32.4193 -32.3855
   -32.3760 -32.3577 -32.3504 -32.3453 -32.3234 -32.3127 -32.3071 -32.3020
   -32.2848 -32.2833 -32.2275 -32.2064 -32.1811 -31.9969 -31.9736 -31.9679
    -9.7518  -9.2525  -9.2470  -8.9776  -8.7935  -8.6774  -8.5174  -8.4064
     2.8025   3.0193   3.1332   3.3367   3.4463   3.6300   3.6988   4.1558
     4.7125   4.8105   4.9670   5.1321   5.3736   5.5096   5.6120   5.7341
     5.8876   5.9373   6.0052   6.0995   6.2742   6.3253   6.5022   6.7051

     occupation numbers 
     1.0000   1.0000   1.0000   1.0000   1.0000   1.0000   1.0000   1.0000
     1.0000   1.0000   1.0000   1.0000   1.0000   1.0000   1.0000   1.0000
     1.0000   1.0000   1.0000   1.0000   1.0000   1.0000   1.0000   1.0000
     1.0000   1.0000   1.0000   1.0000   1.0000   1.0000   1.0000   1.0000
     1.0000   1.0000   1.0000   1.0000   1.0000   1.0000   1.0000   1.0000
     1.0000   1.0000   1.0000   1.0000   1.0000   1.0000   1.0000   1.0000
     1.0000   1.0000   1.0000   1.0000   1.0000   1.0000   1.0000   1.0000
     1.0000   1.0000   1.0000   1.0000   1.0000   1.0000   1.0000   1.0000

          k =-0.8755 0.1642 0.1740 (  4662 PWs)   bands (ev):

   -65.7248 -65.4996 -65.4162 -65.3591 -65.3328 -65.3310 -65.2242 -64.9964
   -32.7284 -32.6867 -32.6840 -32.5032 -32.4713 -32.4598 -32.4206 -32.3871
   -32.3769 -32.3578 -32.3476 -32.3463 -32.3220 -32.3120 -32.3080 -32.3037
   -32.2846 -32.2833 -32.2273 -32.2062 -32.1814 -31.9975 -31.9739 -31.9677
    -9.6485  -9.3344  -9.2368  -8.9852  -8.7934  -8.7251  -8.5259  -8.4001
     2.9788   3.1461   3.2987   3.4812   3.5732   3.8181   3.8881   4.3220
     4.4483   4.5729   4.7006   4.9936   5.2631   5.3172   5.5281   5.7469
     5.8306   5.8742   5.9133   6.0583   6.2259   6.2652   6.4699   6.5820

     occupation numbers 
     1.0000   1.0000   1.0000   1.0000   1.0000   1.0000   1.0000   1.0000
     1.0000   1.0000   1.0000   1.0000   1.0000   1.0000   1.0000   1.0000
     1.0000   1.0000   1.0000   1.0000   1.0000   1.0000   1.0000   1.0000
     1.0000   1.0000   1.0000   1.0000   1.0000   1.0000   1.0000   1.0000
     1.0000   1.0000   1.0000   1.0000   1.0000   1.0000   1.0000   1.0000
     1.0000   1.0000   1.0000   1.0000   1.0000   1.0000   1.0000   1.0000
     1.0000   1.0000   1.0000   1.0000   1.0000   1.0000   1.0000   1.0000
     1.0000   1.0000   1.0000   1.0000   1.0000   1.0000   1.0000   1.0000

          k =-0.6981 0.3402-0.0002 (  4661 PWs)   bands (ev):

   -65.7248 -65.4996 -65.4162 -65.3591 -65.3331 -65.3307 -65.2242 -64.9964
   -32.7284 -32.6868 -32.6839 -32.5037 -32.4700 -32.4595 -32.4214 -32.3870
   -32.3765 -32.3573 -32.3501 -32.3454 -32.3233 -32.3114 -32.3071 -32.3019
   -32.2844 -32.2830 -32.2283 -32.2066 -32.1823 -31.9971 -31.9742 -31.9679
    -9.5418  -9.3525  -9.2530  -9.1010  -8.8001  -8.7148  -8.4951  -8.4059
     3.3104   3.3487   3.6144   3.6939   3.7366   3.7940   3.9266   3.9916
     4.1902   4.4063   4.4658   4.5116   5.3007   5.4162   5.6026   5.6641
     5.6883   5.8442   5.8852   6.0166   6.1809   6.3374   6.5027   6.5152

     occupation numbers 
     1.0000   1.0000   1.0000   1.0000   1.0000   1.0000   1.0000   1.0000
     1.0000   1.0000   1.0000   1.0000   1.0000   1.0000   1.0000   1.0000
     1.0000   1.0000   1.0000   1.0000   1.0000   1.0000   1.0000   1.0000
     1.0000   1.0000   1.0000   1.0000   1.0000   1.0000   1.0000   1.0000
     1.0000   1.0000   1.0000   1.0000   1.0000   1.0000   1.0000   1.0000
     1.0000   1.0000   1.0000   1.0000   1.0000   1.0000   1.0000   1.0000
     1.0000   1.0000   1.0000   1.0000   1.0000   1.0000   1.0000   1.0000
     1.0000   1.0000   1.0000   1.0000   1.0000   1.0000   1.0000   1.0000

          k =-0.3467 0.3450 0.0012 (  4661 PWs)   bands (ev):

   -65.7248 -65.4996 -65.4162 -65.3590 -65.3334 -65.3304 -65.2242 -64.9964
   -32.7288 -32.6874 -32.6840 -32.5044 -32.4719 -32.4598 -32.4207 -32.3859
   -32.3770 -32.3570 -32.3524 -32.3446 -32.3235 -32.3113 -32.3015 -32.3009
   -32.2901 -32.2818 -32.2280 -32.2066 -32.1816 -31.9964 -31.9740 -31.9675
    -9.7619  -9.3292  -9.1883  -8.9575  -8.8009  -8.6582  -8.5076  -8.4112
     2.8402   2.9751   3.1885   3.2680   3.4672   3.4929   3.6945   3.9853
     4.5916   4.8870   5.1051   5.1890   5.3298   5.4838   5.5976   5.7584
     5.8603   5.9933   6.1362   6.1541   6.2924   6.3328   6.4598   6.8522

     occupation numbers 
     1.0000   1.0000   1.0000   1.0000   1.0000   1.0000   1.0000   1.0000
     1.0000   1.0000   1.0000   1.0000   1.0000   1.0000   1.0000   1.0000
     1.0000   1.0000   1.0000   1.0000   1.0000   1.0000   1.0000   1.0000
     1.0000   1.0000   1.0000   1.0000   1.0000   1.0000   1.0000   1.0000
     1.0000   1.0000   1.0000   1.0000   1.0000   1.0000   1.0000   1.0000
     1.0000   1.0000   1.0000   1.0000   1.0000   1.0000   1.0000   1.0000
     1.0000   1.0000   1.0000   1.0000   1.0000   1.0000   1.0000   1.0000
     1.0000   1.0000   1.0000   1.0000   1.0000   1.0000   1.0000   1.0000

          k =-0.1692 0.5210-0.1729 (  4671 PWs)   bands (ev):

   -65.7248 -65.4996 -65.4162 -65.3590 -65.3331 -65.3307 -65.2242 -64.9964
   -32.7287 -32.6870 -32.6839 -32.5037 -32.4729 -32.4596 -32.4198 -32.3853
   -32.3760 -32.3572 -32.3504 -32.3446 -32.3230 -32.3122 -32.3028 -32.3013
   -32.2906 -32.2845 -32.2273 -32.2067 -32.1811 -31.9970 -31.9738 -31.9677
    -9.6785  -9.3408  -9.2048  -9.0128  -8.7918  -8.7177  -8.4959  -8.3939
     2.9138   3.1898   3.3340   3.4292   3.6067   3.6936   3.7984   4.0959
     4.3644   4.5156   4.6619   4.9834   5.3200   5.6026   5.6428   5.6829
     5.7567   5.9797   6.0418   6.1031   6.2791   6.3555   6.4933   6.6602

     occupation numbers 
     1.0000   1.0000   1.0000   1.0000   1.0000   1.0000   1.0000   1.0000
     1.0000   1.0000   1.0000   1.0000   1.0000   1.0000   1.0000   1.0000
     1.0000   1.0000   1.0000   1.0000   1.0000   1.0000   1.0000   1.0000
     1.0000   1.0000   1.0000   1.0000   1.0000   1.0000   1.0000   1.0000
     1.0000   1.0000   1.0000   1.0000   1.0000   1.0000   1.0000   1.0000
     1.0000   1.0000   1.0000   1.0000   1.0000   1.0000   1.0000   1.0000
     1.0000   1.0000   1.0000   1.0000   1.0000   1.0000   1.0000   1.0000
     1.0000   1.0000   1.0000   1.0000   1.0000   1.0000   1.0000   1.0000

          k =-0.7015-0.0069 0.3495 (  4670 PWs)   bands (ev):

   -65.7248 -65.4996 -65.4162 -65.3591 -65.3328 -65.3310 -65.2242 -64.9964
   -32.7286 -32.6865 -32.6839 -32.5032 -32.4709 -32.4597 -32.4211 -32.3869
   -32.3769 -32.3574 -32.3476 -32.3457 -32.3209 -32.3122 -32.3050 -32.3017
   -32.2903 -32.2845 -32.2271 -32.2065 -32.1814 -31.9976 -31.9740 -31.9676
    -9.5433  -9.3702  -9.2273  -9.1162  -8.7854  -8.7161  -8.5161  -8.3874
     3.2503   3.4552   3.4892   3.6000   3.7987   3.8412   3.9184   3.9967
     4.2363   4.3304   4.3969   4.5019   5.3801   5.5177   5.6072   5.6741
     5.7278   5.8340   5.9686   6.0878   6.1984   6.2433   6.4332   6.5008

     occupation numbers 
     1.0000   1.0000   1.0000   1.0000   1.0000   1.0000   1.0000   1.0000
     1.0000   1.0000   1.0000   1.0000   1.0000   1.0000   1.0000   1.0000
     1.0000   1.0000   1.0000   1.0000   1.0000   1.0000   1.0000   1.0000
     1.0000   1.0000   1.0000   1.0000   1.0000   1.0000   1.0000   1.0000
     1.0000   1.0000   1.0000   1.0000   1.0000   1.0000   1.0000   1.0000
     1.0000   1.0000   1.0000   1.0000   1.0000   1.0000   1.0000   1.0000
     1.0000   1.0000   1.0000   1.0000   1.0000   1.0000   1.0000   1.0000
     1.0000   1.0000   1.0000   1.0000   1.0000   1.0000   1.0000   1.0000

          k =-0.5241 0.1690 0.1753 (  4663 PWs)   bands (ev):

   -65.7248 -65.4996 -65.4162 -65.3591 -65.3331 -65.3307 -65.2242 -64.9964
   -32.7286 -32.6870 -32.6839 -32.5038 -32.4699 -32.4599 -32.4221 -32.3875
   -32.3778 -32.3571 -32.3498 -32.3457 -32.3221 -32.3108 -32.3029 -32.3016
   -32.2898 -32.2820 -32.2279 -32.2063 -32.1819 -31.9969 -31.9743 -31.9674
    -9.6581  -9.3999  -9.1628  -8.9996  -8.8018  -8.7006  -8.5149  -8.4029
     3.0794   3.1364   3.2409   3.4601   3.5628   3.7199   3.7740   4.1718
     4.3398   4.5365   4.8052   5.0733   5.2551   5.4498   5.5944   5.6634
     5.7741   5.9385   6.0323   6.1635   6.2325   6.2704   6.5409   6.6015

     occupation numbers 
     1.0000   1.0000   1.0000   1.0000   1.0000   1.0000   1.0000   1.0000
     1.0000   1.0000   1.0000   1.0000   1.0000   1.0000   1.0000   1.0000
     1.0000   1.0000   1.0000   1.0000   1.0000   1.0000   1.0000   1.0000
     1.0000   1.0000   1.0000   1.0000   1.0000   1.0000   1.0000   1.0000
     1.0000   1.0000   1.0000   1.0000   1.0000   1.0000   1.0000   1.0000
     1.0000   1.0000   1.0000   1.0000   1.0000   1.0000   1.0000   1.0000
     1.0000   1.0000   1.0000   1.0000   1.0000   1.0000   1.0000   1.0000
     1.0000   1.0000   1.0000   1.0000   1.0000   1.0000   1.0000   1.0000

          k = 0.3453-0.3476-0.3535 (  4664 PWs)   bands (ev):

   -65.7248 -65.4996 -65.4162 -65.3591 -65.3333 -65.3304 -65.2242 -64.9964
   -32.7284 -32.6874 -32.6841 -32.5051 -32.4705 -32.4604 -32.4211 -32.3870
   -32.3775 -32.3599 -32.3516 -32.3452 -32.3217 -32.3086 -32.3018 -32.3012
   -32.2894 -32.2806 -32.2287 -32.2065 -32.1825 -31.9964 -31.9746 -31.9670
    -9.6523  -9.5610  -9.0257  -8.9713  -8.8382  -8.5945  -8.5152  -8.4589
     2.9084   2.9875   3.0835   3.2897   3.3178   3.4699   4.0554   4.1812
     4.6592   4.7554   4.8878   5.0977   5.1592   5.3702   5.6816   5.8150
     5.8608   5.9031   6.0028   6.1022   6.3415   6.5662   6.6620   6.7702

     occupation numbers 
     1.0000   1.0000   1.0000   1.0000   1.0000   1.0000   1.0000   1.0000
     1.0000   1.0000   1.0000   1.0000   1.0000   1.0000   1.0000   1.0000
     1.0000   1.0000   1.0000   1.0000   1.0000   1.0000   1.0000   1.0000
     1.0000   1.0000   1.0000   1.0000   1.0000   1.0000   1.0000   1.0000
     1.0000   1.0000   1.0000   1.0000   1.0000   1.0000   1.0000   1.0000
     1.0000   1.0000   1.0000   1.0000   1.0000   1.0000   1.0000   1.0000
     1.0000   1.0000   1.0000   1.0000   1.0000   1.0000   1.0000   1.0000
     1.0000   1.0000   1.0000   1.0000   1.0000   1.0000   1.0000   1.0000

          k = 0.5227-0.1716-0.5276 (  4663 PWs)   bands (ev):

   -65.7248 -65.4996 -65.4162 -65.3591 -65.3331 -65.3307 -65.2242 -64.9964
   -32.7283 -32.6870 -32.6840 -32.5044 -32.4715 -32.4603 -32.4201 -32.3864
   -32.3765 -32.3601 -32.3496 -32.3452 -32.3210 -32.3094 -32.3033 -32.3018
   -32.2899 -32.2832 -32.2279 -32.2066 -32.1820 -31.9971 -31.9743 -31.9672
    -9.6493  -9.4397  -9.0949  -9.0170  -8.8481  -8.6861  -8.4909  -8.4127
     3.0255   3.1131   3.2301   3.5276   3.5357   3.6772   3.7873   4.1986
     4.3942   4.5506   4.7241   5.1068   5.2204   5.5208   5.5865   5.6811
     5.8101   5.9598   6.0283   6.0771   6.1575   6.3552   6.4939   6.6930

     occupation numbers 
     1.0000   1.0000   1.0000   1.0000   1.0000   1.0000   1.0000   1.0000
     1.0000   1.0000   1.0000   1.0000   1.0000   1.0000   1.0000   1.0000
     1.0000   1.0000   1.0000   1.0000   1.0000   1.0000   1.0000   1.0000
     1.0000   1.0000   1.0000   1.0000   1.0000   1.0000   1.0000   1.0000
     1.0000   1.0000   1.0000   1.0000   1.0000   1.0000   1.0000   1.0000
     1.0000   1.0000   1.0000   1.0000   1.0000   1.0000   1.0000   1.0000
     1.0000   1.0000   1.0000   1.0000   1.0000   1.0000   1.0000   1.0000
     1.0000   1.0000   1.0000   1.0000   1.0000   1.0000   1.0000   1.0000

          k =-0.0096-0.6996-0.0052 (  4674 PWs)   bands (ev):

   -65.7248 -65.4996 -65.4162 -65.3591 -65.3328 -65.3310 -65.2242 -64.9964
   -32.7283 -32.6865 -32.6840 -32.5038 -32.4725 -32.4601 -32.4192 -32.3858
   -32.3756 -32.3604 -32.3475 -32.3451 -32.3195 -32.3108 -32.3055 -32.3019
   -32.2904 -32.2858 -32.2271 -32.2067 -32.1816 -31.9977 -31.9741 -31.9674
    -9.5580  -9.4430  -9.1097  -9.0506  -8.8553  -8.7778  -8.4700  -8.3958
     3.0980   3.2712   3.4363   3.5727   3.8859   3.9772   4.0651   4.1054
     4.2505   4.3255   4.6914   4.8543   4.9146   5.0900   5.3221   5.6044
     5.7590   5.9455   6.0959   6.1648   6.2538   6.3309   6.3654   6.6604

     occupation numbers 
     1.0000   1.0000   1.0000   1.0000   1.0000   1.0000   1.0000   1.0000
     1.0000   1.0000   1.0000   1.0000   1.0000   1.0000   1.0000   1.0000
     1.0000   1.0000   1.0000   1.0000   1.0000   1.0000   1.0000   1.0000
     1.0000   1.0000   1.0000   1.0000   1.0000   1.0000   1.0000   1.0000
     1.0000   1.0000   1.0000   1.0000   1.0000   1.0000   1.0000   1.0000
     1.0000   1.0000   1.0000   1.0000   1.0000   1.0000   1.0000   1.0000
     1.0000   1.0000   1.0000   1.0000   1.0000   1.0000   1.0000   1.0000
     1.0000   1.0000   1.0000   1.0000   1.0000   1.0000   1.0000   1.0000

          k = 0.5193-0.5188-0.1780 (  4663 PWs)   bands (ev):

   -65.7248 -65.4996 -65.4162 -65.3591 -65.3333 -65.3304 -65.2242 -64.9964
   -32.7282 -32.6872 -32.6841 -32.5050 -32.4706 -32.4600 -32.4203 -32.3864
   -32.3763 -32.3601 -32.3519 -32.3449 -32.3225 -32.3100 -32.3062 -32.3007
   -32.2842 -32.2816 -32.2290 -32.2067 -32.1829 -31.9965 -31.9745 -31.9675
    -9.6519  -9.4197  -9.1373  -8.9902  -8.8360  -8.6966  -8.4976  -8.4118
     3.0443   3.1519   3.2290   3.4566   3.6187   3.7060   3.7562   4.2256
     4.3906   4.6560   4.7469   5.1137   5.1822   5.3859   5.4590   5.6388
     5.7613   5.8910   6.0333   6.0713   6.1893   6.4417   6.5752   6.6902

     occupation numbers 
     1.0000   1.0000   1.0000   1.0000   1.0000   1.0000   1.0000   1.0000
     1.0000   1.0000   1.0000   1.0000   1.0000   1.0000   1.0000   1.0000
     1.0000   1.0000   1.0000   1.0000   1.0000   1.0000   1.0000   1.0000
     1.0000   1.0000   1.0000   1.0000   1.0000   1.0000   1.0000   1.0000
     1.0000   1.0000   1.0000   1.0000   1.0000   1.0000   1.0000   1.0000
     1.0000   1.0000   1.0000   1.0000   1.0000   1.0000   1.0000   1.0000
     1.0000   1.0000   1.0000   1.0000   1.0000   1.0000   1.0000   1.0000
     1.0000   1.0000   1.0000   1.0000   1.0000   1.0000   1.0000   1.0000

          k = 0.6967-0.3428-0.3521 (  4657 PWs)   bands (ev):

   -65.7248 -65.4996 -65.4162 -65.3591 -65.3331 -65.3307 -65.2242 -64.9964
   -32.7282 -32.6871 -32.6842 -32.5044 -32.4718 -32.4603 -32.4195 -32.3865
   -32.3768 -32.3605 -32.3497 -32.3458 -32.3215 -32.3100 -32.3069 -32.3026
   -32.2844 -32.2820 -32.2281 -32.2063 -32.1820 -31.9969 -31.9742 -31.9673
    -9.7428  -9.3458  -9.1558  -8.9585  -8.8222  -8.6510  -8.5364  -8.4136
     2.8304   2.9250   3.2148   3.3804   3.4634   3.5417   3.7163   4.1478
     4.7639   4.9073   5.0312   5.1531   5.2594   5.5327   5.6443   5.7500
     5.8151   5.9697   6.0382   6.0743   6.1090   6.2860   6.5029   6.6984

     occupation numbers 
     1.0000   1.0000   1.0000   1.0000   1.0000   1.0000   1.0000   1.0000
     1.0000   1.0000   1.0000   1.0000   1.0000   1.0000   1.0000   1.0000
     1.0000   1.0000   1.0000   1.0000   1.0000   1.0000   1.0000   1.0000
     1.0000   1.0000   1.0000   1.0000   1.0000   1.0000   1.0000   1.0000
     1.0000   1.0000   1.0000   1.0000   1.0000   1.0000   1.0000   1.0000
     1.0000   1.0000   1.0000   1.0000   1.0000   1.0000   1.0000   1.0000
     1.0000   1.0000   1.0000   1.0000   1.0000   1.0000   1.0000   1.0000
     1.0000   1.0000   1.0000   1.0000   1.0000   1.0000   1.0000   1.0000

          k = 0.1645-0.8708 0.1703 (  4655 PWs)   bands (ev):

   -65.7248 -65.4996 -65.4162 -65.3591 -65.3328 -65.3310 -65.2242 -64.9964
   -32.7281 -32.6867 -32.6841 -32.5038 -32.4728 -32.4602 -32.4186 -32.3859
   -32.3758 -32.3608 -32.3475 -32.3458 -32.3205 -32.3105 -32.3082 -32.3044
   -32.2848 -32.2844 -32.2274 -32.2065 -32.1816 -31.9976 -31.9739 -31.9675
    -9.6490  -9.3676  -9.1734  -9.0253  -8.8000  -8.7225  -8.4940  -8.4157
     2.9239   3.0986   3.3291   3.5460   3.6329   3.7351   3.8666   4.2277
     4.4917   4.5907   4.7637   5.0010   5.2175   5.3977   5.5778   5.6735
     5.7164   5.9096   5.9977   6.1013   6.1678   6.3036   6.4468   6.6172

     occupation numbers 
     1.0000   1.0000   1.0000   1.0000   1.0000   1.0000   1.0000   1.0000
     1.0000   1.0000   1.0000   1.0000   1.0000   1.0000   1.0000   1.0000
     1.0000   1.0000   1.0000   1.0000   1.0000   1.0000   1.0000   1.0000
     1.0000   1.0000   1.0000   1.0000   1.0000   1.0000   1.0000   1.0000
     1.0000   1.0000   1.0000   1.0000   1.0000   1.0000   1.0000   1.0000
     1.0000   1.0000   1.0000   1.0000   1.0000   1.0000   1.0000   1.0000
     1.0000   1.0000   1.0000   1.0000   1.0000   1.0000   1.0000   1.0000
     1.0000   1.0000   1.0000   1.0000   1.0000   1.0000   1.0000   1.0000

          k = 0.3419-0.6948-0.0039 (  4658 PWs)   bands (ev):

   -65.7248 -65.4996 -65.4162 -65.3591 -65.3331 -65.3307 -65.2242 -64.9964
   -32.7281 -32.6868 -32.6840 -32.5043 -32.4716 -32.4598 -32.4193 -32.3859
   -32.3753 -32.3603 -32.3499 -32.3449 -32.3221 -32.3103 -32.3070 -32.3024
   -32.2846 -32.2842 -32.2283 -32.2069 -32.1824 -31.9972 -31.9742 -31.9677
    -9.5363  -9.3911  -9.2091  -9.1021  -8.8253  -8.7133  -8.4763  -8.4087
     3.2240   3.3528   3.5432   3.7279   3.7582   3.8530   3.9287   4.0676
     4.2060   4.3045   4.3999   4.5407   5.2820   5.4527   5.5723   5.6894
     5.7427   5.8725   5.9822   6.0342   6.1852   6.2455   6.4186   6.5960

     occupation numbers 
     1.0000   1.0000   1.0000   1.0000   1.0000   1.0000   1.0000   1.0000
     1.0000   1.0000   1.0000   1.0000   1.0000   1.0000   1.0000   1.0000
     1.0000   1.0000   1.0000   1.0000   1.0000   1.0000   1.0000   1.0000
     1.0000   1.0000   1.0000   1.0000   1.0000   1.0000   1.0000   1.0000
     1.0000   1.0000   1.0000   1.0000   1.0000   1.0000   1.0000   1.0000
     1.0000   1.0000   1.0000   1.0000   1.0000   1.0000   1.0000   1.0000
     1.0000   1.0000   1.0000   1.0000   1.0000   1.0000   1.0000   1.0000
     1.0000   1.0000   1.0000   1.0000   1.0000   1.0000   1.0000   1.0000

          k =-0.0028-0.0052-0.7045 (  4678 PWs)   bands (ev):

   -65.7248 -65.4996 -65.4162 -65.3591 -65.3334 -65.3304 -65.2242 -64.9964
   -32.7280 -32.6870 -32.6840 -32.5049 -32.4708 -32.4595 -32.4195 -32.3859
   -32.3749 -32.3603 -32.3523 -32.3446 -32.3235 -32.3118 -32.3079 -32.3007
   -32.2825 -32.2804 -32.2294 -32.2070 -32.1833 -31.9966 -31.9744 -31.9679
    -9.5610  -9.4225  -9.1378  -9.0026  -8.8961  -8.7730  -8.4736  -8.3984
     3.2356   3.3828   3.4230   3.4795   3.8263   3.9251   4.0429   4.2657
     4.3435   4.4324   4.6858   4.7536   4.9116   5.0765   5.1804   5.3698
     5.6183   5.9332   6.0854   6.1961   6.2743   6.4234   6.4858   6.6054

     occupation numbers 
     1.0000   1.0000   1.0000   1.0000   1.0000   1.0000   1.0000   1.0000
     1.0000   1.0000   1.0000   1.0000   1.0000   1.0000   1.0000   1.0000
     1.0000   1.0000   1.0000   1.0000   1.0000   1.0000   1.0000   1.0000
     1.0000   1.0000   1.0000   1.0000   1.0000   1.0000   1.0000   1.0000
     1.0000   1.0000   1.0000   1.0000   1.0000   1.0000   1.0000   1.0000
     1.0000   1.0000   1.0000   1.0000   1.0000   1.0000   1.0000   1.0000
     1.0000   1.0000   1.0000   1.0000   1.0000   1.0000   1.0000   1.0000
     1.0000   1.0000   1.0000   1.0000   1.0000   1.0000   1.0000   1.0000

          k = 0.1746 0.1707-0.8786 (  4650 PWs)   bands (ev):

   -65.7248 -65.4996 -65.4162 -65.3591 -65.3331 -65.3307 -65.2242 -64.9964
   -32.7280 -32.6869 -32.6841 -32.5043 -32.4720 -32.4599 -32.4187 -32.3859
   -32.3755 -32.3607 -32.3499 -32.3455 -32.3227 -32.3117 -32.3087 -32.3025
   -32.2831 -32.2807 -32.2285 -32.2066 -32.1824 -31.9971 -31.9741 -31.9678
    -9.6467  -9.3760  -9.1409  -9.0265  -8.8508  -8.6969  -8.4937  -8.4183
     2.9731   3.1832   3.3251   3.3851   3.6688   3.8077   3.8676   4.2634
     4.4306   4.5878   4.7753   5.0953   5.1959   5.3888   5.4384   5.6092
     5.7858   5.8716   5.9445   6.0663   6.2039   6.3269   6.5157   6.5769

     occupation numbers 
     1.0000   1.0000   1.0000   1.0000   1.0000   1.0000   1.0000   1.0000
     1.0000   1.0000   1.0000   1.0000   1.0000   1.0000   1.0000   1.0000
     1.0000   1.0000   1.0000   1.0000   1.0000   1.0000   1.0000   1.0000
     1.0000   1.0000   1.0000   1.0000   1.0000   1.0000   1.0000   1.0000
     1.0000   1.0000   1.0000   1.0000   1.0000   1.0000   1.0000   1.0000
     1.0000   1.0000   1.0000   1.0000   1.0000   1.0000   1.0000   1.0000
     1.0000   1.0000   1.0000   1.0000   1.0000   1.0000   1.0000   1.0000
     1.0000   1.0000   1.0000   1.0000   1.0000   1.0000   1.0000   1.0000

          k =-0.3576-0.3572-0.3563 (  4636 PWs)   bands (ev):

   -65.7248 -65.4996 -65.4162 -65.3591 -65.3328 -65.3310 -65.2242 -64.9964
   -32.7280 -32.6868 -32.6843 -32.5038 -32.4731 -32.4602 -32.4180 -32.3861
   -32.3758 -32.3611 -32.3474 -32.3464 -32.3216 -32.3111 -32.3101 -32.3047
   -32.2833 -32.2809 -32.2276 -32.2062 -32.1815 -31.9975 -31.9738 -31.9676
    -9.6623  -9.4667  -9.1277  -8.9380  -8.8194  -8.6349  -8.5460  -8.4397
     2.7921   3.0545   3.1499   3.2547   3.4723   3.5640   4.2082   4.3571
     4.5951   4.8622   5.0180   5.1496   5.2058   5.4210   5.4324   5.6861
     5.7362   5.7781   5.8697   6.1088   6.3454   6.3597   6.6124   6.6389

     occupation numbers 
     1.0000   1.0000   1.0000   1.0000   1.0000   1.0000   1.0000   1.0000
     1.0000   1.0000   1.0000   1.0000   1.0000   1.0000   1.0000   1.0000
     1.0000   1.0000   1.0000   1.0000   1.0000   1.0000   1.0000   1.0000
     1.0000   1.0000   1.0000   1.0000   1.0000   1.0000   1.0000   1.0000
     1.0000   1.0000   1.0000   1.0000   1.0000   1.0000   1.0000   1.0000
     1.0000   1.0000   1.0000   1.0000   1.0000   1.0000   1.0000   1.0000
     1.0000   1.0000   1.0000   1.0000   1.0000   1.0000   1.0000   1.0000
     1.0000   1.0000   1.0000   1.0000   1.0000   1.0000   1.0000   1.0000

     highest occupied level (ev):     6.9759

!    total energy              =   -1260.63817672 Ry
     Harris-Foulkes estimate   =   -1260.63817672 Ry
     estimated scf accuracy    <          8.2E-11 Ry

     The total energy is the sum of the following terms:

     one-electron contribution =    -737.42969180 Ry
     hartree contribution      =     401.31246185 Ry
     xc contribution           =    -192.23870665 Ry
     ewald contribution        =    -732.28224013 Ry

     convergence has been achieved in  17 iterations

     Forces acting on atoms (Ry/au):

     atom    1 type  2   force =   0.44844853E-02 -0.36112573E-01  0.94322784E-02
     atom    2 type  3   force =   0.62412398E-01  0.15587442E-01  0.12816591E-01
     atom    3 type  2   force =  -0.18986715E-02 -0.36047604E-01 -0.50894515E-01
     atom    4 type  3   force =  -0.22160742E-01 -0.60774713E-01  0.34066234E-02
     atom    5 type  2   force =  -0.39093912E-01  0.38014799E-01  0.31412897E-02
     atom    6 type  3   force =   0.46193262E-01 -0.27834400E-01 -0.44105533E-01
     atom    7 type  2   force =   0.39151197E-01  0.69716035E-01  0.13666152E-01
     atom    8 type  3   force =  -0.16990949E-01  0.30932928E-01 -0.43468614E-02
     atom    9 type  2   force =  -0.19770295E-02  0.48771381E-01  0.28377096E-01
     atom   10 type  3   force =  -0.14818308E-01 -0.13741021E-02  0.38778176E-01
     atom   11 type  2   force =   0.65896689E-01  0.42224871E-01  0.47647046E-01
     atom   12 type  3   force =  -0.35584758E-01 -0.53228227E-01  0.14965087E-01
     atom   13 type  2   force =  -0.51525143E-01 -0.23566230E-01 -0.13156747E-01
     atom   14 type  3   force =  -0.87086537E-01 -0.69475658E-02 -0.10962865E-01
     atom   15 type  2   force =   0.33833074E-01  0.15823254E-01 -0.10878309E-01
     atom   16 type  3   force =   0.19164946E-01 -0.15185295E-01 -0.37885510E-01
     The non-local contrib.  to forces
     atom    1 type  2   force =   0.33573620E-01  0.11730874E+00 -0.66044166E-01
     atom    2 type  3   force =   0.23635700E+00  0.18877494E+00 -0.11817455E+00
     atom    3 type  2   force =  -0.45002229E-01 -0.11037181E+00  0.27800891E-01
     atom    4 type  3   force =  -0.67990908E-01  0.63547834E-01  0.53384633E-01
     atom    5 type  2   force =   0.12276693E+00  0.21548642E+00 -0.17191186E+00
     atom    6 type  3   force =  -0.59931673E-01 -0.54847037E-01 -0.46712654E-01
     atom    7 type  2   force =  -0.13440953E+00  0.19919822E+00  0.15965579E+00
     atom    8 type  3   force =  -0.33697946E-01 -0.84362482E-01  0.67239258E-01
     atom    9 type  2   force =  -0.10822013E+00  0.30611269E+00  0.70045918E-01
     atom   10 type  3   force =   0.72111784E-01 -0.94786613E-01  0.13014329E+00
     atom   11 type  2   force =   0.26482133E+00  0.48589603E-01  0.44417795E-01
     atom   12 type  3   force =  -0.76765169E-01 -0.17773459E+00  0.10159146E+00
     atom   13 type  2   force =  -0.77947720E-01 -0.13623012E+00 -0.49730832E-01
     atom   14 type  3   force =  -0.13446755E+00  0.16103019E+00 -0.60823750E-01
     atom   15 type  2   force =   0.23464104E+00  0.20463064E+00  0.14932727E+00
     atom   16 type  3   force =   0.10512819E+00  0.17805611E+00 -0.11129808E+00
     The ionic contribution  to forces
     atom    1 type  2   force =   0.46395350E+00  0.25446485E+00 -0.30851693E-01
     atom    2 type  3   force =   0.88120317E+00 -0.15079021E+01  0.22059105E+01
     atom    3 type  2   force =  -0.28773955E+00 -0.24141605E+01 -0.14767168E+01
     atom    4 type  3   force =  -0.63885628E+00 -0.31178246E+01  0.43547971E-01
     atom    5 type  2   force =  -0.47333133E+00  0.17457122E+01 -0.10810327E+01
     atom    6 type  3   force =   0.19434891E+01 -0.52410784E+00 -0.23486112E+01
     atom    7 type  2   force =  -0.85018884E-02  0.27502129E+01  0.16668085E+01
     atom    8 type  3   force =  -0.67484863E+00  0.29271981E+01 -0.80390518E+00
     atom    9 type  2   force =  -0.15557071E+01  0.11875907E+01  0.20765986E+01
     atom   10 type  3   force =  -0.86048291E+00  0.13187483E+01  0.29719864E+00
     atom   11 type  2   force =   0.34636070E+01  0.22254266E+01  0.12269982E+01
     atom   12 type  3   force =  -0.27785779E+00 -0.10311934E+01 -0.11730814E+00
     atom   13 type  2   force =  -0.18098153E+01 -0.26412024E+01 -0.88219364E+00
     atom   14 type  3   force =  -0.14721733E+01 -0.99561571E+00  0.34938415E-01
     atom   15 type  2   force =   0.20394477E+01  0.22813511E+01 -0.54514360E+00
     atom   16 type  3   force =  -0.73238640E+00 -0.24586983E+01 -0.26623788E+00
     The local contribution  to forces
     atom    1 type  2   force =  -0.49304219E+00 -0.40788183E+00  0.10633085E+00
     atom    2 type  3   force =  -0.10532179E+01  0.13356382E+01 -0.20750536E+01
     atom    3 type  2   force =   0.33084464E+00  0.24884832E+01  0.13980300E+01
     atom    4 type  3   force =   0.68396059E+00  0.29927232E+01 -0.93292552E-01
     atom    5 type  2   force =   0.31146969E+00 -0.19231746E+01  0.12560819E+01
     atom    6 type  3   force =  -0.18368014E+01  0.55045219E+00  0.23501998E+01
     atom    7 type  2   force =   0.18205268E+00 -0.28796894E+01 -0.18128001E+01
     atom    8 type  3   force =   0.69109652E+00 -0.28115916E+01  0.73248125E+00
     atom    9 type  2   force =   0.16619571E+01 -0.14449317E+01 -0.21182685E+01
     atom   10 type  3   force =   0.77356188E+00 -0.12256778E+01 -0.38735052E+00
     atom   11 type  2   force =  -0.36625296E+01 -0.22318015E+01 -0.12237717E+01
     atom   12 type  3   force =   0.31812544E+00  0.11540370E+01  0.31302236E-01
     atom   13 type  2   force =   0.18362400E+01  0.27538647E+01  0.91875968E+00
     atom   14 type  3   force =   0.15177596E+01  0.82806374E+00  0.14476984E-01
     atom   15 type  2   force =  -0.22402521E+01 -0.24701579E+01  0.38493646E+00
     atom   16 type  3   force =   0.64713860E+00  0.22658107E+01  0.33858997E+00
     The core correction contribution to forces
     atom    1 type  2   force =   0.00000000E+00  0.00000000E+00  0.00000000E+00
     atom    2 type  3   force =  -0.19274674E-02 -0.92719252E-03  0.13377058E-03
     atom    3 type  2   force =   0.00000000E+00  0.00000000E+00  0.00000000E+00
     atom    4 type  3   force =   0.72891969E-03  0.77850398E-03 -0.23356019E-03
     atom    5 type  2   force =   0.00000000E+00  0.00000000E+00  0.00000000E+00
     atom    6 type  3   force =  -0.56330245E-03  0.66903178E-03  0.10158012E-02
     atom    7 type  2   force =   0.00000000E+00  0.00000000E+00  0.00000000E+00
     atom    8 type  3   force =   0.45955571E-03 -0.30973718E-03 -0.16708006E-03
     atom    9 type  2   force =   0.00000000E+00  0.00000000E+00  0.00000000E+00
     atom   10 type  3   force =  -0.62942785E-05  0.34077510E-03 -0.12090647E-02
     atom   11 type  2   force =   0.00000000E+00  0.00000000E+00  0.00000000E+00
     atom   12 type  3   force =   0.91430657E-03  0.16612492E-02 -0.61946767E-03
     atom   13 type  2   force =   0.00000000E+00  0.00000000E+00  0.00000000E+00
     atom   14 type  3   force =   0.17891207E-02 -0.42398394E-03  0.44334525E-03
     atom   15 type  2   force =   0.00000000E+00  0.00000000E+00  0.00000000E+00
     atom   16 type  3   force =  -0.71611114E-03 -0.35033018E-03  0.10583225E-02
     The Hubbard contrib.    to forces
     atom    1 type  2   force =   0.00000000E+00  0.00000000E+00  0.00000000E+00
     atom    2 type  3   force =   0.00000000E+00  0.00000000E+00  0.00000000E+00
     atom    3 type  2   force =   0.00000000E+00  0.00000000E+00  0.00000000E+00
     atom    4 type  3   force =   0.00000000E+00  0.00000000E+00  0.00000000E+00
     atom    5 type  2   force =   0.00000000E+00  0.00000000E+00  0.00000000E+00
     atom    6 type  3   force =   0.00000000E+00  0.00000000E+00  0.00000000E+00
     atom    7 type  2   force =   0.00000000E+00  0.00000000E+00  0.00000000E+00
     atom    8 type  3   force =   0.00000000E+00  0.00000000E+00  0.00000000E+00
     atom    9 type  2   force =   0.00000000E+00  0.00000000E+00  0.00000000E+00
     atom   10 type  3   force =   0.00000000E+00  0.00000000E+00  0.00000000E+00
     atom   11 type  2   force =   0.00000000E+00  0.00000000E+00  0.00000000E+00
     atom   12 type  3   force =   0.00000000E+00  0.00000000E+00  0.00000000E+00
     atom   13 type  2   force =   0.00000000E+00  0.00000000E+00  0.00000000E+00
     atom   14 type  3   force =   0.00000000E+00  0.00000000E+00  0.00000000E+00
     atom   15 type  2   force =   0.00000000E+00  0.00000000E+00  0.00000000E+00
     atom   16 type  3   force =   0.00000000E+00  0.00000000E+00  0.00000000E+00
     The SCF correction term to forces
     atom    1 type  2   force =   0.15303195E-06 -0.40745532E-05 -0.36737404E-05
     atom    2 type  3   force =  -0.18020850E-05  0.38277533E-05 -0.50763550E-06
     atom    3 type  2   force =  -0.93728633E-06  0.18288259E-05 -0.96120661E-05
     atom    4 type  3   force =  -0.24690754E-05  0.62868059E-06 -0.82733573E-06
     atom    5 type  2   force =   0.13996183E-05 -0.89377554E-05  0.29313257E-05
     atom    6 type  3   force =   0.12071830E-05 -0.48936637E-06  0.18217950E-05
     atom    7 type  2   force =   0.10536041E-04 -0.53942313E-05  0.99778040E-06
     atom    8 type  3   force =   0.15395849E-06 -0.10358751E-05  0.39247604E-05
     atom    9 type  2   force =  -0.62445558E-05 -0.87910313E-07  0.20024058E-06
     atom   10 type  3   force =  -0.21697889E-05  0.14271699E-05 -0.51251790E-05
     atom   11 type  2   force =  -0.13995168E-05  0.10433654E-04  0.17979985E-05
     atom   12 type  3   force =  -0.94327358E-06  0.17751806E-05 -0.19613916E-05
     atom   13 type  2   force =  -0.14765073E-05  0.17872007E-05  0.70847362E-05
     atom   14 type  3   force =   0.61185673E-05 -0.15389983E-05  0.11819657E-05
     atom   15 type  2   force =  -0.30112956E-05 -0.30532187E-06  0.59059680E-06
     atom   16 type  3   force =   0.12667993E-05 -0.32009027E-05  0.11972020E-05

     Total force =     0.248599     Total SCF correction =     0.000027


     entering subroutine stress ...

          total   stress  (Ry/bohr**3)                   (kbar)     P=  -37.37
  -0.0003134004   0.0001726189   0.0000843026        -46.10     25.39     12.40
   0.0001726189  -0.0000783234   0.0001367989         25.39    -11.52     20.12
   0.0000843026   0.0001367989  -0.0003704120         12.40     20.12    -54.49

     kinetic stress (kbar)  22231.53     37.00     18.33
                               37.00  22264.30     24.25
                               18.33     24.25  22220.32

     local   stress (kbar)  -5283.05   1170.03    261.53
                             1170.03  -5490.18   1093.26
                              261.53   1093.26  -5148.10

     nonloc. stress (kbar)   6086.08     -8.47     -2.01
                               -8.47   6089.07     -7.76
                               -2.01     -7.76   6081.46

     hartree stress (kbar)  18011.87   -454.82   -101.28
                             -454.82  18064.90   -435.56
                             -101.28   -435.56  17965.04

     exc-cor stress (kbar)  -7906.72     -0.80     -0.21
                               -0.80  -7906.62     -0.71
                               -0.21     -0.71  -7907.01

     corecor stress (kbar)   -291.28     -0.07     -0.05
                               -0.07   -291.39     -0.05
                               -0.05     -0.05   -291.24

     ewald   stress (kbar) -32894.54   -717.47   -163.91
                             -717.47 -32741.60   -653.30
                             -163.91   -653.30 -32974.95

     hubbard stress (kbar)      0.00      0.00      0.00
                                0.00      0.00      0.00
                                0.00      0.00      0.00

     london  stress (kbar)      0.00      0.00      0.00
                                0.00      0.00      0.00
                                0.00      0.00      0.00

     XDM     stress (kbar)      0.00      0.00      0.00
                                0.00      0.00      0.00
                                0.00      0.00      0.00

     dft-nl  stress (kbar)      0.00      0.00      0.00
                                0.00      0.00      0.00
                                0.00      0.00      0.00



     Writing output data file mix.dummy8543.save

     init_run     :     11.90s CPU     12.57s WALL (       1 calls)
     electrons    :    569.85s CPU    601.75s WALL (       1 calls)
     forces       :      5.41s CPU      5.57s WALL (       1 calls)
     stress       :     11.44s CPU     11.49s WALL (       1 calls)

     Called by init_run:
     wfcinit      :      9.76s CPU     10.38s WALL (       1 calls)
     potinit      :      0.57s CPU      0.57s WALL (       1 calls)

     Called by electrons:
     c_bands      :    505.61s CPU    534.63s WALL (      17 calls)
     sum_band     :     58.08s CPU     60.91s WALL (      17 calls)
     v_of_rho     :      0.71s CPU      0.72s WALL (      18 calls)
     v_h          :      0.04s CPU      0.04s WALL (      18 calls)
     v_xc         :      0.75s CPU      0.76s WALL (      20 calls)
     newd         :      4.60s CPU      4.60s WALL (      18 calls)
     mix_rho      :      1.04s CPU      1.04s WALL (      17 calls)

     Called by c_bands:
     init_us_2    :      2.26s CPU      2.45s WALL (    1332 calls)
     cegterg      :    483.21s CPU    511.57s WALL (     612 calls)

     Called by sum_band:
     sum_band:bec :      0.91s CPU      0.92s WALL (     612 calls)
     addusdens    :      4.17s CPU      4.17s WALL (      17 calls)

     Called by *egterg:
     h_psi        :    227.92s CPU    235.52s WALL (    1804 calls)
     s_psi        :     25.21s CPU     24.80s WALL (    1804 calls)
     g_psi        :      0.35s CPU      0.29s WALL (    1156 calls)
     cdiaghg      :     74.92s CPU     82.40s WALL (    1768 calls)
     cegterg:over :     78.65s CPU     86.04s WALL (    1156 calls)
     cegterg:upda :      9.43s CPU     11.21s WALL (    1156 calls)
     cegterg:last :      5.64s CPU      5.66s WALL (     612 calls)

     Called by h_psi:
     h_psi:vloc   :    130.97s CPU    132.55s WALL (    1804 calls)
     h_psi:vnl    :     96.55s CPU    102.54s WALL (    1804 calls)
     add_vuspsi   :     25.92s CPU     26.60s WALL (    1804 calls)

     General routines
     calbec       :    100.72s CPU    108.58s WALL (    2488 calls)
     fft          :      2.18s CPU      2.19s WALL (     309 calls)
     ffts         :      0.63s CPU      0.58s WALL (     441 calls)
     fftw         :    147.13s CPU    149.01s WALL (  234922 calls)
     interpolate  :      0.13s CPU      0.14s WALL (      35 calls)

     Parallel routines
     fft_scatter  :     96.13s CPU     97.10s WALL (  235672 calls)

     PWSCF        : 10m 1.44s CPU    10m34.99s WALL


   This run was terminated on:  10:52:28  15Nov2017            

=------------------------------------------------------------------------------=
   JOB DONE.
=------------------------------------------------------------------------------=
