
     Program PWSCF v.5.1 starts on  7Dec2017 at 23:46:17 

     This program is part of the open-source Quantum ESPRESSO suite
     for quantum simulation of materials; please cite
         "P. Giannozzi et al., J. Phys.:Condens. Matter 21 395502 (2009);
          URL http://www.quantum-espresso.org", 
     in publications or presentations arising from this work. More details at
     http://www.quantum-espresso.org/quote

     Parallel version (MPI), running on    16 processors
     R & G space division:  proc/nbgrp/npool/nimage =      16
     Waiting for input...
     Reading input from standard input
Warning: card &IONS ignored
Warning: card   ION_DYNAMICS='BFGS', ignored
Warning: card / ignored
Warning: card &CELL ignored
Warning: card  CELL_DYNAMICS = 'BFGS' ignored
Warning: card / ignored

     Current dimensions of program PWSCF are:
     Max number of different atomic species (ntypx) = 10
     Max number of k-points (npk) =  40000
     Max angular momentum in pseudopotentials (lmaxx) =  3
 kfg - two_fermi_energies  F

     Subspace diagonalization in iterative solution of the eigenvalue problem:
     a serial algorithm will be used


     Parallelization info
     --------------------
     sticks:   dense  smooth     PW     G-vecs:    dense   smooth      PW
     Min         134     107     31                 4118     2943     457
     Max         135     108     32                 4120     2955     459
     Sum        2151    1727    497                65899    47189    7335



     bravais-lattice index     =            0
     lattice parameter (alat)  =    12.614063389  a.u.
     unit-cell volume          =    1378.7370 (a.u.)^3
     number of atoms/cell      =           16
     number of atomic types    =            3
     number of electrons       =       128.00
     number of Kohn-Sham states=           64
     kinetic-energy cutoff     =      40.0000  Ry
     charge density cutoff     =     200.0000  Ry
     convergence threshold     =      1.0E-10
     mixing beta               =       0.3000
     number of iterations used =            8  local-TF  mixing
     Exchange-correlation      = SLA  PW   PSX  PSC ( 1  4 10  8 0)
     A smooth kinetic-energy cutoff is imposed at      39.5000 Ry
     height of the smooth step-function =             800.0000 Ry
     width of the smooth step-function  =               1.0000 Ry


     celldm(1)=  12.614063  celldm(2)=   0.000000  celldm(3)=   0.000000
     celldm(4)=   0.000000  celldm(5)=   0.000000  celldm(6)=   0.000000

     crystal axes: (cart. coord. in units of alat)
               a(1) = (   0.033382121136   0.712434019850   0.700944649276 )  
               a(2) = (   0.701212219574   0.014030816010   0.720295954401 )  
               a(3) = (   0.700473475938   0.731046581340   0.014769559646 )  

     reciprocal axes: (cart. coord. in units 2 pi/alat)
               b(1) = ( -0.766247  0.719414  0.731932 )  
               b(2) = (  0.730637 -0.714040  0.690948 )  
               b(3) = (  0.732715  0.680509 -0.726558 )  


     PseudoPot. # 1 for Ca read from file:
     /users/kfg/psuedo/gbrv_1.5/ca.pbesol.UPF
     MD5 check sum: 0533207b58cddeaa036efa5b63902087
     Pseudo is Ultrasoft + core correction, Zval = 10.0
     Generated by new atomic code, or converted to UPF format
     Using radial grid of  845 points,  6 beta functions with: 
                l(1) =   0
                l(2) =   0
                l(3) =   1
                l(4) =   1
                l(5) =   2
                l(6) =   2
     Q(r) pseudized with  8 coefficients,  rinner =    1.500   1.500   1.500
                                                       1.500   1.500

     PseudoPot. # 2 for Mg read from file:
     /users/kfg/psuedo/gbrv_1.5/mg.pbesol.UPF
     MD5 check sum: 4059f37963cf5867752dbf5ab2400678
     Pseudo is Ultrasoft, Zval = 10.0
     Generated by new atomic code, or converted to UPF format
     Using radial grid of  821 points,  7 beta functions with: 
                l(1) =   0
                l(2) =   0
                l(3) =   0
                l(4) =   1
                l(5) =   1
                l(6) =   2
                l(7) =   2
     Q(r) pseudized with  8 coefficients,  rinner =    1.200   1.200   1.200
                                                       1.200   1.200

     PseudoPot. # 3 for O  read from file:
     /users/kfg/psuedo/gbrv_1.5/o.pbesol.UPF
     MD5 check sum: 501638753501ef6325af9037351f7734
     Pseudo is Ultrasoft + core correction, Zval =  6.0
     Generated by new atomic code, or converted to UPF format
     Using radial grid of  737 points,  5 beta functions with: 
                l(1) =   0
                l(2) =   0
                l(3) =   1
                l(4) =   1
                l(5) =   2
     Q(r) pseudized with  8 coefficients,  rinner =    0.900   0.900   0.900
                                                       0.900   0.900

     atomic species   valence    mass     pseudopotential
        Ca            10.00    40.07800     Ca( 1.00)
        Mg            10.00    40.07800     Mg( 1.00)
        O              6.00    15.99940     O ( 1.00)

     No symmetry found


                                    s                        frac. trans.

      isym =  1     identity                                     

 cryst.   s( 1) = (     1          0          0      )
                  (     0          1          0      )
                  (     0          0          1      )

 cart.    s( 1) = (  1.0000000 -0.0000000  0.0000000 )
                  (  0.0000000  1.0000000  0.0000000 )
                  ( -0.0000000  0.0000000  1.0000000 )


     point group C_1 (1)    
     there are  1 classes
     the character table:

       E    
A      1.00

     the symmetry operations in each class:
     E        1

   Cartesian axes

     site n.     atom                  positions (alat units)
         1           Ca  tau(   1) = (   -0.00178676927    0.01559873484   -0.01972944394  )
         2           O   tau(   2) = (    0.36480467970    0.36817184121    0.38617618818  )
         3           Mg  tau(   3) = (    0.35950923522    0.35807620952   -0.00409998840  )
         4           O   tau(   4) = (    0.68593305391    0.70233309916    0.33773953737  )
         5           Ca  tau(   5) = (    0.36385600942    0.01912657997    0.34669938267  )
         6           O   tau(   6) = (    0.67539951285    0.38569980324    0.74658844352  )
         7           Mg  tau(   7) = (    0.71805012779    0.39906997061    0.36675138856  )
         8           O   tau(   8) = (    1.05370390358    0.73560991727    0.73085951312  )
         9           Ca  tau(   9) = (    0.01141031890    0.34477424369    0.33486855370  )
        10           O   tau(  10) = (    0.38554307555    0.75893331790    0.71425383522  )
        11           Ca  tau(  11) = (    0.38100524458    0.73109841914    0.38911041574  )
        12           O   tau(  12) = (    0.73248026019    1.06240548274    0.71231016123  )
        13           Mg  tau(  13) = (    0.34817731159    0.33673991855    0.70482388823  )
        14           O   tau(  14) = (    0.72320432859    0.72231429040    1.05139615361  )
        15           Ca  tau(  15) = (    0.74191908522    0.71743534405    0.72714107812  )
        16           O   tau(  16) = (    1.06719752208    1.08768133088    1.09117187296  )

   Crystallographic axes

     site n.     atom                  positions (cryst. coord.)
         1           Ca  tau(   1) = (   -0.00184955462   -0.02607562587    0.02364046727  )
         2           O   tau(   2) = (    0.26799232221    0.27047790491    0.23726253911  )
         3           Mg  tau(   3) = (   -0.02086862659    0.00415696475    0.51007064798  )
         4           O   tau(   4) = (    0.22687673118    0.23303430625    0.73514978361  )
         5           Ca  tau(   5) = (   -0.01128320169    0.49174071898    0.02772134317  )
         6           O   tau(   6) = (    0.30640714944    0.73392040957    0.21490754191  )
         7           Mg  tau(   7) = (    0.00533004042    0.49308799044    0.53123050094  )
         8           O   tau(   8) = (    0.25675039516    0.74960573218    0.74164168861  )
         9           Ca  tau(   9) = (    0.48439336409   -0.00646910415   -0.00031913297  )
        10           O   tau(  10) = (    0.77335146145    0.23329533692    0.28000692260  )
        11           Ca  tau(  11) = (    0.51882086361    0.02519784253    0.49397568995  )
        12           O   tau(  12) = (    0.72441148145    0.26874608683    0.74214063226  )
        13           Mg  tau(  13) = (    0.49134887122    0.50094201801   -0.02782635023  )
        14           O   tau(  14) = (    0.73504060810    0.73909837604    0.25754337233  )
        15           Ca  tau(  15) = (    0.47985783352    0.53221240298    0.50352595013  )
        16           O   tau(  16) = (    0.76342026104    0.75702863963    0.72932840332  )

     number of k points=    36
                       cart. coord. in units 2pi/alat
        k(    1) = (   0.0000000   0.0000000   0.0000000), wk =   0.0312500
        k(    2) = (   0.1831788   0.1701271  -0.1816395), wk =   0.0625000
        k(    3) = (  -0.3663576  -0.3402543   0.3632791), wk =   0.0312500
        k(    4) = (   0.1826592  -0.1785101   0.1727370), wk =   0.0625000
        k(    5) = (   0.3658380  -0.0083829  -0.0089025), wk =   0.0625000
        k(    6) = (  -0.1836984  -0.5187643   0.5360161), wk =   0.0625000
        k(    7) = (  -0.0005196  -0.3486372   0.3543766), wk =   0.0625000
        k(    8) = (  -0.3653184   0.3570201  -0.3454740), wk =   0.0312500
        k(    9) = (  -0.1821396   0.5271473  -0.5271136), wk =   0.0625000
        k(   10) = (  -0.7316759   0.0167659   0.0178050), wk =   0.0312500
        k(   11) = (  -0.1915617   0.1798535   0.1829830), wk =   0.0625000
        k(   12) = (  -0.0083829   0.3499807   0.0013435), wk =   0.0625000
        k(   13) = (  -0.5579193  -0.1604007   0.5462621), wk =   0.0625000
        k(   14) = (  -0.3747405   0.0097264   0.3646225), wk =   0.0625000
        k(   15) = (  -0.0089025   0.0013435   0.3557200), wk =   0.0625000
        k(   16) = (   0.1742763   0.1714706   0.1740805), wk =   0.0625000
        k(   17) = (  -0.3752601  -0.3389108   0.7189991), wk =   0.0625000
        k(   18) = (  -0.1920813  -0.1687837   0.5373596), wk =   0.0625000
        k(   19) = (  -0.5568801   0.5368737  -0.1624910), wk =   0.0625000
        k(   20) = (  -0.3737013   0.7070008  -0.3441306), wk =   0.0625000
        k(   21) = (  -0.9232377   0.1966194   0.2007880), wk =   0.0625000
        k(   22) = (  -0.7400589   0.3667465   0.0191485), wk =   0.0625000
        k(   23) = (  -0.3742209   0.3583636   0.0102460), wk =   0.0625000
        k(   24) = (  -0.1910421   0.5284907  -0.1713936), wk =   0.0625000
        k(   25) = (  -0.7405785   0.0181093   0.3735250), wk =   0.0625000
        k(   26) = (  -0.5573997   0.1882365   0.1918855), wk =   0.0625000
        k(   27) = (   0.3831234  -0.3597071  -0.3659660), wk =   0.0312500
        k(   28) = (   0.5663022  -0.1895799  -0.5476055), wk =   0.0625000
        k(   29) = (   0.0167659  -0.6999614  -0.0026869), wk =   0.0312500
        k(   30) = (   0.5657826  -0.5382171  -0.1932290), wk =   0.0625000
        k(   31) = (   0.7489614  -0.3680900  -0.3748685), wk =   0.0625000
        k(   32) = (   0.1994251  -0.8784714   0.1700501), wk =   0.0625000
        k(   33) = (   0.3826038  -0.7083443  -0.0115895), wk =   0.0625000
        k(   34) = (   0.0178050  -0.0026869  -0.7114401), wk =   0.0312500
        k(   35) = (   0.2009838   0.1674402  -0.8930796), wk =   0.0625000
        k(   36) = (  -0.3485525  -0.3429412  -0.3481610), wk =   0.0312500

                       cryst. coord.
        k(    1) = (   0.0000000   0.0000000   0.0000000), wk =   0.0312500
        k(    2) = (   0.0000000   0.0000000   0.2500000), wk =   0.0625000
        k(    3) = (   0.0000000   0.0000000  -0.5000000), wk =   0.0312500
        k(    4) = (  -0.0000000   0.2500000  -0.0000000), wk =   0.0625000
        k(    5) = (   0.0000000   0.2500000   0.2500000), wk =   0.0625000
        k(    6) = (   0.0000000   0.2500000  -0.5000000), wk =   0.0625000
        k(    7) = (  -0.0000000   0.2500000  -0.2500000), wk =   0.0625000
        k(    8) = (   0.0000000  -0.5000000   0.0000000), wk =   0.0312500
        k(    9) = (   0.0000000  -0.5000000   0.2500000), wk =   0.0625000
        k(   10) = (  -0.0000000  -0.5000000  -0.5000000), wk =   0.0312500
        k(   11) = (   0.2500000   0.0000000   0.0000000), wk =   0.0625000
        k(   12) = (   0.2500000   0.0000000   0.2500000), wk =   0.0625000
        k(   13) = (   0.2500000   0.0000000  -0.5000000), wk =   0.0625000
        k(   14) = (   0.2500000   0.0000000  -0.2500000), wk =   0.0625000
        k(   15) = (   0.2500000   0.2500000   0.0000000), wk =   0.0625000
        k(   16) = (   0.2500000   0.2500000   0.2500000), wk =   0.0625000
        k(   17) = (   0.2500000   0.2500000  -0.5000000), wk =   0.0625000
        k(   18) = (   0.2500000   0.2500000  -0.2500000), wk =   0.0625000
        k(   19) = (   0.2500000  -0.5000000   0.0000000), wk =   0.0625000
        k(   20) = (   0.2500000  -0.5000000   0.2500000), wk =   0.0625000
        k(   21) = (   0.2500000  -0.5000000  -0.5000000), wk =   0.0625000
        k(   22) = (   0.2500000  -0.5000000  -0.2500000), wk =   0.0625000
        k(   23) = (   0.2500000  -0.2500000   0.0000000), wk =   0.0625000
        k(   24) = (   0.2500000  -0.2500000   0.2500000), wk =   0.0625000
        k(   25) = (   0.2500000  -0.2500000  -0.5000000), wk =   0.0625000
        k(   26) = (   0.2500000  -0.2500000  -0.2500000), wk =   0.0625000
        k(   27) = (  -0.5000000  -0.0000000  -0.0000000), wk =   0.0312500
        k(   28) = (  -0.5000000   0.0000000   0.2500000), wk =   0.0625000
        k(   29) = (  -0.5000000  -0.0000000  -0.5000000), wk =   0.0312500
        k(   30) = (  -0.5000000   0.2500000   0.0000000), wk =   0.0625000
        k(   31) = (  -0.5000000   0.2500000   0.2500000), wk =   0.0625000
        k(   32) = (  -0.5000000   0.2500000  -0.5000000), wk =   0.0625000
        k(   33) = (  -0.5000000   0.2500000  -0.2500000), wk =   0.0625000
        k(   34) = (  -0.5000000  -0.5000000  -0.0000000), wk =   0.0312500
        k(   35) = (  -0.5000000  -0.5000000   0.2500000), wk =   0.0625000
        k(   36) = (  -0.5000000  -0.5000000  -0.5000000), wk =   0.0312500

     Dense  grid:    65899 G-vectors     FFT dimensions: (  60,  60,  60)

     Smooth grid:    47189 G-vectors     FFT dimensions: (  54,  54,  54)

     Largest allocated arrays     est. size (Mb)     dimensions
        Kohn-Sham Wavefunctions         0.37 Mb     (     377,   64)
        NL pseudopotentials             1.44 Mb     (     377,  251)
        Each V/rho on FFT grid          0.22 Mb     (   14400)
        Each G-vector array             0.03 Mb     (    4119)
        G-vector shells                 0.03 Mb     (    4067)
     Largest temporary arrays     est. size (Mb)     dimensions
        Auxiliary wavefunctions         1.47 Mb     (     377,  256)
        Each subspace H/S matrix        1.00 Mb     (     256,  256)
        Each <psi_i|beta_j> matrix      0.25 Mb     (     251,   64)
        Arrays for rho mixing           1.76 Mb     (   14400,    8)

     Check: negative/imaginary core charge=   -0.000003    0.000000

     Initial potential from superposition of free atoms

     starting charge  127.07343, renormalised to  128.00000
     Starting wfc are   97 randomized atomic wfcs

     total cpu time spent up to now is       21.0 secs

     Self-consistent Calculation

     iteration #  1     ecut=    40.00 Ry     beta=0.30
     Davidson diagonalization with overlap
     ethr =  1.00E-02,  avg # of iterations =  2.0

     total cpu time spent up to now is       61.4 secs

     total energy              =   -1009.64586927 Ry
     Harris-Foulkes estimate   =   -1010.32448472 Ry
     estimated scf accuracy    <       3.52249219 Ry

     iteration #  2     ecut=    40.00 Ry     beta=0.30
     Davidson diagonalization with overlap
     ethr =  2.75E-03,  avg # of iterations =  2.0

     total cpu time spent up to now is       96.6 secs

     total energy              =   -1009.20884128 Ry
     Harris-Foulkes estimate   =   -1009.76919515 Ry
     estimated scf accuracy    <       1.44696123 Ry

     iteration #  3     ecut=    40.00 Ry     beta=0.30
     Davidson diagonalization with overlap
     ethr =  1.13E-03,  avg # of iterations =  2.0

     total cpu time spent up to now is      139.6 secs

     total energy              =   -1009.42834620 Ry
     Harris-Foulkes estimate   =   -1009.47363781 Ry
     estimated scf accuracy    <       0.17180736 Ry

     iteration #  4     ecut=    40.00 Ry     beta=0.30
     Davidson diagonalization with overlap
     ethr =  1.34E-04,  avg # of iterations =  2.0

     total cpu time spent up to now is      180.6 secs

     total energy              =   -1009.38662122 Ry
     Harris-Foulkes estimate   =   -1009.44957155 Ry
     estimated scf accuracy    <       0.11327164 Ry

     iteration #  5     ecut=    40.00 Ry     beta=0.30
     Davidson diagonalization with overlap
     ethr =  8.85E-05,  avg # of iterations =  2.0

     total cpu time spent up to now is      221.9 secs

     total energy              =   -1009.40604697 Ry
     Harris-Foulkes estimate   =   -1009.40774373 Ry
     estimated scf accuracy    <       0.02116263 Ry

     iteration #  6     ecut=    40.00 Ry     beta=0.30
     Davidson diagonalization with overlap
     ethr =  1.65E-05,  avg # of iterations =  1.0

     total cpu time spent up to now is      253.6 secs

     total energy              =   -1009.40207435 Ry
     Harris-Foulkes estimate   =   -1009.40649395 Ry
     estimated scf accuracy    <       0.01150842 Ry

     iteration #  7     ecut=    40.00 Ry     beta=0.30
     Davidson diagonalization with overlap
     ethr =  8.99E-06,  avg # of iterations =  2.0

     total cpu time spent up to now is      292.1 secs

     total energy              =   -1009.40268204 Ry
     Harris-Foulkes estimate   =   -1009.40312177 Ry
     estimated scf accuracy    <       0.00143222 Ry

     iteration #  8     ecut=    40.00 Ry     beta=0.30
     Davidson diagonalization with overlap
     ethr =  1.12E-06,  avg # of iterations =  2.2

     total cpu time spent up to now is      334.8 secs

     total energy              =   -1009.40277006 Ry
     Harris-Foulkes estimate   =   -1009.40286176 Ry
     estimated scf accuracy    <       0.00024051 Ry

     iteration #  9     ecut=    40.00 Ry     beta=0.30
     Davidson diagonalization with overlap
     ethr =  1.88E-07,  avg # of iterations =  2.4

     total cpu time spent up to now is      377.2 secs

     total energy              =   -1009.40277779 Ry
     Harris-Foulkes estimate   =   -1009.40280077 Ry
     estimated scf accuracy    <       0.00009896 Ry

     iteration # 10     ecut=    40.00 Ry     beta=0.30
     Davidson diagonalization with overlap
     ethr =  7.73E-08,  avg # of iterations =  2.0

     total cpu time spent up to now is      413.0 secs

     total energy              =   -1009.40276678 Ry
     Harris-Foulkes estimate   =   -1009.40278225 Ry
     estimated scf accuracy    <       0.00004787 Ry

     iteration # 11     ecut=    40.00 Ry     beta=0.30
     Davidson diagonalization with overlap
     ethr =  3.74E-08,  avg # of iterations =  2.0

     total cpu time spent up to now is      452.9 secs

     total energy              =   -1009.40276874 Ry
     Harris-Foulkes estimate   =   -1009.40277147 Ry
     estimated scf accuracy    <       0.00000971 Ry

     iteration # 12     ecut=    40.00 Ry     beta=0.30
     Davidson diagonalization with overlap
     ethr =  7.59E-09,  avg # of iterations =  2.0

     total cpu time spent up to now is      491.5 secs

     total energy              =   -1009.40276887 Ry
     Harris-Foulkes estimate   =   -1009.40276956 Ry
     estimated scf accuracy    <       0.00000171 Ry

     iteration # 13     ecut=    40.00 Ry     beta=0.30
     Davidson diagonalization with overlap
     ethr =  1.34E-09,  avg # of iterations =  2.0

     total cpu time spent up to now is      535.3 secs

     total energy              =   -1009.40276902 Ry
     Harris-Foulkes estimate   =   -1009.40276911 Ry
     estimated scf accuracy    <       0.00000031 Ry

     iteration # 14     ecut=    40.00 Ry     beta=0.30
     Davidson diagonalization with overlap
     ethr =  2.44E-10,  avg # of iterations =  2.0

     total cpu time spent up to now is      581.5 secs

     total energy              =   -1009.40276906 Ry
     Harris-Foulkes estimate   =   -1009.40276906 Ry
     estimated scf accuracy    <       0.00000006 Ry

     iteration # 15     ecut=    40.00 Ry     beta=0.30
     Davidson diagonalization with overlap
     ethr =  4.45E-11,  avg # of iterations =  2.0

     total cpu time spent up to now is      625.0 secs

     total energy              =   -1009.40276905 Ry
     Harris-Foulkes estimate   =   -1009.40276906 Ry
     estimated scf accuracy    <       0.00000003 Ry

     iteration # 16     ecut=    40.00 Ry     beta=0.30
     Davidson diagonalization with overlap
     ethr =  2.24E-11,  avg # of iterations =  2.0

     total cpu time spent up to now is      669.8 secs

     total energy              =   -1009.40276905 Ry
     Harris-Foulkes estimate   =   -1009.40276905 Ry
     estimated scf accuracy    <       0.00000001 Ry

     iteration # 17     ecut=    40.00 Ry     beta=0.30
     Davidson diagonalization with overlap
     ethr =  8.06E-12,  avg # of iterations =  2.0

     total cpu time spent up to now is      705.8 secs

     total energy              =   -1009.40276905 Ry
     Harris-Foulkes estimate   =   -1009.40276905 Ry
     estimated scf accuracy    <          3.3E-09 Ry

     iteration # 18     ecut=    40.00 Ry     beta=0.30
     Davidson diagonalization with overlap
     ethr =  2.60E-12,  avg # of iterations =  2.0

     total cpu time spent up to now is      747.6 secs

     total energy              =   -1009.40276905 Ry
     Harris-Foulkes estimate   =   -1009.40276905 Ry
     estimated scf accuracy    <          5.3E-10 Ry

     iteration # 19     ecut=    40.00 Ry     beta=0.30
     Davidson diagonalization with overlap
     ethr =  4.12E-13,  avg # of iterations =  2.0

     total cpu time spent up to now is      787.7 secs

     total energy              =   -1009.40276905 Ry
     Harris-Foulkes estimate   =   -1009.40276905 Ry
     estimated scf accuracy    <          2.3E-10 Ry

     iteration # 20     ecut=    40.00 Ry     beta=0.30
     Davidson diagonalization with overlap
     ethr =  1.81E-13,  avg # of iterations =  2.0

     total cpu time spent up to now is      825.2 secs

     End of self-consistent calculation

          k = 0.0000 0.0000 0.0000 (  5893 PWs)   bands (ev):

   -66.3625 -66.0194 -65.9985 -33.3510 -33.3137 -33.2982 -33.0248 -32.9892
   -32.9728 -32.9572 -32.9435 -32.9317 -30.1632 -29.9580 -29.8887 -29.3960
   -29.2401 -12.1786 -11.9899 -11.9147 -11.7092 -11.4543 -11.3520 -11.1325
   -11.0787 -11.0289 -10.9737 -10.8120 -10.6848 -10.6216 -10.6054 -10.4672
    -8.6490  -8.1668  -8.0325  -7.9488  -7.4476  -7.3238  -7.0234  -6.8710
     3.0552   3.7404   4.4390   4.5380   4.7794   4.9256   4.9912   5.7139
     5.7379   5.8189   5.8630   5.9403   6.0225   6.1969   6.3127   6.3482
     6.4569   6.6169   6.6619   6.7659   6.8349   6.9492   7.0688   7.1849

     occupation numbers 
     1.0000   1.0000   1.0000   1.0000   1.0000   1.0000   1.0000   1.0000
     1.0000   1.0000   1.0000   1.0000   1.0000   1.0000   1.0000   1.0000
     1.0000   1.0000   1.0000   1.0000   1.0000   1.0000   1.0000   1.0000
     1.0000   1.0000   1.0000   1.0000   1.0000   1.0000   1.0000   1.0000
     1.0000   1.0000   1.0000   1.0000   1.0000   1.0000   1.0000   1.0000
     1.0000   1.0000   1.0000   1.0000   1.0000   1.0000   1.0000   1.0000
     1.0000   1.0000   1.0000   1.0000   1.0000   1.0000   1.0000   1.0000
     1.0000   1.0000   1.0000   1.0000   1.0000   1.0000   1.0000   1.0000

          k = 0.1832 0.1701-0.1816 (  5900 PWs)   bands (ev):

   -66.3625 -66.0194 -65.9985 -33.3510 -33.3137 -33.2982 -33.0248 -32.9884
   -32.9733 -32.9573 -32.9435 -32.9321 -30.1622 -29.9571 -29.8883 -29.3974
   -29.2412 -12.0896 -11.9201 -11.8654 -11.6744 -11.4007 -11.3367 -11.2070
   -11.1214 -11.0477 -10.9975 -10.9440 -10.7962 -10.7074 -10.6549 -10.4627
    -8.4498  -8.0634  -7.8896  -7.7793  -7.5279  -7.4144  -7.1554  -6.9944
     3.3094   3.9833   4.5987   4.6793   4.8211   4.9120   5.0861   5.5684
     5.6514   5.7805   5.8769   5.9734   6.0066   6.1331   6.1697   6.3144
     6.3917   6.4806   6.5280   6.5741   6.6195   6.7635   6.8849   7.0359

     occupation numbers 
     1.0000   1.0000   1.0000   1.0000   1.0000   1.0000   1.0000   1.0000
     1.0000   1.0000   1.0000   1.0000   1.0000   1.0000   1.0000   1.0000
     1.0000   1.0000   1.0000   1.0000   1.0000   1.0000   1.0000   1.0000
     1.0000   1.0000   1.0000   1.0000   1.0000   1.0000   1.0000   1.0000
     1.0000   1.0000   1.0000   1.0000   1.0000   1.0000   1.0000   1.0000
     1.0000   1.0000   1.0000   1.0000   1.0000   1.0000   1.0000   1.0000
     1.0000   1.0000   1.0000   1.0000   1.0000   1.0000   1.0000   1.0000
     1.0000   1.0000   1.0000   1.0000   1.0000   1.0000   1.0000   1.0000

          k =-0.3664-0.3403 0.3633 (  5910 PWs)   bands (ev):

   -66.3625 -66.0194 -65.9985 -33.3511 -33.3137 -33.2982 -33.0247 -32.9875
   -32.9738 -32.9573 -32.9435 -32.9325 -30.1613 -29.9562 -29.8880 -29.3988
   -29.2424 -11.9989 -11.8335 -11.7403 -11.6300 -11.3731 -11.3565 -11.3070
   -11.2275 -11.0962 -11.0439 -10.9671 -10.8846 -10.7900 -10.7196 -10.4608
    -8.2306  -7.8337  -7.8055  -7.5897  -7.5370  -7.5033  -7.3857  -7.2188
     3.8124   4.1430   4.4178   4.8242   5.0115   5.2551   5.3504   5.3911
     5.4305   5.6168   5.6691   5.8069   5.8988   6.0192   6.2014   6.2293
     6.2887   6.3626   6.4235   6.4583   6.5583   6.6414   6.7424   6.8688

     occupation numbers 
     1.0000   1.0000   1.0000   1.0000   1.0000   1.0000   1.0000   1.0000
     1.0000   1.0000   1.0000   1.0000   1.0000   1.0000   1.0000   1.0000
     1.0000   1.0000   1.0000   1.0000   1.0000   1.0000   1.0000   1.0000
     1.0000   1.0000   1.0000   1.0000   1.0000   1.0000   1.0000   1.0000
     1.0000   1.0000   1.0000   1.0000   1.0000   1.0000   1.0000   1.0000
     1.0000   1.0000   1.0000   1.0000   1.0000   1.0000   1.0000   1.0000
     1.0000   1.0000   1.0000   1.0000   1.0000   1.0000   1.0000   1.0000
     1.0000   1.0000   1.0000   1.0000   1.0000   1.0000   1.0000   1.0000

          k = 0.1827-0.1785 0.1727 (  5880 PWs)   bands (ev):

   -66.3625 -66.0194 -65.9985 -33.3510 -33.3137 -33.2982 -33.0249 -32.9892
   -32.9728 -32.9572 -32.9435 -32.9317 -30.1619 -29.9517 -29.8961 -29.3945
   -29.2418 -12.1001 -11.9084 -11.8654 -11.6499 -11.5190 -11.3595 -11.2058
   -11.1483 -11.0731 -10.9942 -10.8059 -10.7149 -10.6824 -10.6391 -10.5342
    -8.4570  -8.0769  -7.8821  -7.8033  -7.4966  -7.4390  -7.1554  -6.9887
     3.3172   3.9743   4.5864   4.7358   4.7730   4.9509   5.0100   5.5033
     5.7261   5.8059   5.8832   5.9724   6.0087   6.1282   6.1867   6.3196
     6.3551   6.4514   6.4910   6.5857   6.6713   6.7470   6.8843   7.0743

     occupation numbers 
     1.0000   1.0000   1.0000   1.0000   1.0000   1.0000   1.0000   1.0000
     1.0000   1.0000   1.0000   1.0000   1.0000   1.0000   1.0000   1.0000
     1.0000   1.0000   1.0000   1.0000   1.0000   1.0000   1.0000   1.0000
     1.0000   1.0000   1.0000   1.0000   1.0000   1.0000   1.0000   1.0000
     1.0000   1.0000   1.0000   1.0000   1.0000   1.0000   1.0000   1.0000
     1.0000   1.0000   1.0000   1.0000   1.0000   1.0000   1.0000   1.0000
     1.0000   1.0000   1.0000   1.0000   1.0000   1.0000   1.0000   1.0000
     1.0000   1.0000   1.0000   1.0000   1.0000   1.0000   1.0000   1.0000

          k = 0.3658-0.0084-0.0089 (  5889 PWs)   bands (ev):

   -66.3625 -66.0194 -65.9985 -33.3510 -33.3137 -33.2982 -33.0248 -32.9884
   -32.9733 -32.9573 -32.9435 -32.9321 -30.1611 -29.9518 -29.8954 -29.3957
   -29.2425 -12.0196 -11.9208 -11.8094 -11.6272 -11.4866 -11.3695 -11.2513
   -11.1478 -11.1000 -11.0035 -10.9222 -10.7643 -10.6991 -10.6253 -10.5280
    -8.4412  -8.1498  -7.7712  -7.6844  -7.5011  -7.3437  -7.2675  -7.0730
     3.4017   4.0424   4.6702   4.7655   4.8138   4.9616   5.0756   5.4832
     5.6545   5.7434   5.8540   5.9175   6.0322   6.0960   6.1329   6.2427
     6.2952   6.3613   6.4970   6.5688   6.6865   6.7167   6.9482   6.9824

     occupation numbers 
     1.0000   1.0000   1.0000   1.0000   1.0000   1.0000   1.0000   1.0000
     1.0000   1.0000   1.0000   1.0000   1.0000   1.0000   1.0000   1.0000
     1.0000   1.0000   1.0000   1.0000   1.0000   1.0000   1.0000   1.0000
     1.0000   1.0000   1.0000   1.0000   1.0000   1.0000   1.0000   1.0000
     1.0000   1.0000   1.0000   1.0000   1.0000   1.0000   1.0000   1.0000
     1.0000   1.0000   1.0000   1.0000   1.0000   1.0000   1.0000   1.0000
     1.0000   1.0000   1.0000   1.0000   1.0000   1.0000   1.0000   1.0000
     1.0000   1.0000   1.0000   1.0000   1.0000   1.0000   1.0000   1.0000

          k =-0.1837-0.5188 0.5360 (  5887 PWs)   bands (ev):

   -66.3625 -66.0194 -65.9985 -33.3511 -33.3137 -33.2982 -33.0247 -32.9875
   -32.9738 -32.9573 -32.9435 -32.9325 -30.1601 -29.9507 -29.8951 -29.3971
   -29.2437 -11.9410 -11.8553 -11.7109 -11.5693 -11.4270 -11.3721 -11.3298
   -11.1841 -11.1446 -11.0586 -11.0012 -10.8398 -10.7612 -10.7074 -10.5524
    -8.2382  -8.0551  -7.6856  -7.5741  -7.4991  -7.4462  -7.3690  -7.2018
     3.8563   4.2974   4.4717   4.9041   5.0311   5.0917   5.1601   5.2837
     5.4647   5.5243   5.6606   5.8256   5.9333   5.9550   6.0462   6.2330
     6.3025   6.4017   6.4586   6.5116   6.6067   6.6651   6.7887   6.8495

     occupation numbers 
     1.0000   1.0000   1.0000   1.0000   1.0000   1.0000   1.0000   1.0000
     1.0000   1.0000   1.0000   1.0000   1.0000   1.0000   1.0000   1.0000
     1.0000   1.0000   1.0000   1.0000   1.0000   1.0000   1.0000   1.0000
     1.0000   1.0000   1.0000   1.0000   1.0000   1.0000   1.0000   1.0000
     1.0000   1.0000   1.0000   1.0000   1.0000   1.0000   1.0000   1.0000
     1.0000   1.0000   1.0000   1.0000   1.0000   1.0000   1.0000   1.0000
     1.0000   1.0000   1.0000   1.0000   1.0000   1.0000   1.0000   1.0000
     1.0000   1.0000   1.0000   1.0000   1.0000   1.0000   1.0000   1.0000

          k =-0.0005-0.3486 0.3544 (  5890 PWs)   bands (ev):

   -66.3625 -66.0194 -65.9985 -33.3510 -33.3137 -33.2982 -33.0248 -32.9884
   -32.9733 -32.9573 -32.9435 -32.9321 -30.1610 -29.9507 -29.8959 -29.3959
   -29.2430 -12.0127 -11.8623 -11.8229 -11.5963 -11.4445 -11.3337 -11.2463
   -11.1704 -11.1005 -11.0670 -10.9143 -10.8217 -10.7571 -10.6746 -10.5588
    -8.2705  -7.9188  -7.7928  -7.6798  -7.6492  -7.5445  -7.2138  -7.0633
     3.6923   4.2230   4.4701   4.7916   4.9350   5.0537   5.1297   5.3784
     5.4587   5.7042   5.8533   5.8861   5.9961   6.0758   6.0984   6.1937
     6.2384   6.3197   6.4209   6.5384   6.5684   6.6351   6.8598   6.9854

     occupation numbers 
     1.0000   1.0000   1.0000   1.0000   1.0000   1.0000   1.0000   1.0000
     1.0000   1.0000   1.0000   1.0000   1.0000   1.0000   1.0000   1.0000
     1.0000   1.0000   1.0000   1.0000   1.0000   1.0000   1.0000   1.0000
     1.0000   1.0000   1.0000   1.0000   1.0000   1.0000   1.0000   1.0000
     1.0000   1.0000   1.0000   1.0000   1.0000   1.0000   1.0000   1.0000
     1.0000   1.0000   1.0000   1.0000   1.0000   1.0000   1.0000   1.0000
     1.0000   1.0000   1.0000   1.0000   1.0000   1.0000   1.0000   1.0000
     1.0000   1.0000   1.0000   1.0000   1.0000   1.0000   1.0000   1.0000

          k =-0.3653 0.3570-0.3455 (  5902 PWs)   bands (ev):

   -66.3625 -66.0194 -65.9985 -33.3510 -33.3136 -33.2982 -33.0249 -32.9892
   -32.9728 -32.9573 -32.9435 -32.9318 -30.1606 -29.9429 -29.9061 -29.3930
   -29.2436 -12.0018 -11.8281 -11.7270 -11.6331 -11.5132 -11.4718 -11.3254
   -11.2798 -11.1003 -10.9017 -10.8201 -10.7897 -10.7485 -10.6784 -10.5618
    -8.2572  -7.8686  -7.7445  -7.6197  -7.5646  -7.5224  -7.4023  -7.1716
     3.8298   4.1696   4.4271   4.7569   4.9351   5.1387   5.3014   5.4488
     5.5619   5.6148   5.7010   5.7480   5.9993   6.1063   6.1478   6.1991
     6.2712   6.3419   6.4081   6.5033   6.5214   6.6196   6.7028   6.9628

     occupation numbers 
     1.0000   1.0000   1.0000   1.0000   1.0000   1.0000   1.0000   1.0000
     1.0000   1.0000   1.0000   1.0000   1.0000   1.0000   1.0000   1.0000
     1.0000   1.0000   1.0000   1.0000   1.0000   1.0000   1.0000   1.0000
     1.0000   1.0000   1.0000   1.0000   1.0000   1.0000   1.0000   1.0000
     1.0000   1.0000   1.0000   1.0000   1.0000   1.0000   1.0000   1.0000
     1.0000   1.0000   1.0000   1.0000   1.0000   1.0000   1.0000   1.0000
     1.0000   1.0000   1.0000   1.0000   1.0000   1.0000   1.0000   1.0000
     1.0000   1.0000   1.0000   1.0000   1.0000   1.0000   1.0000   1.0000

          k =-0.1821 0.5271-0.5271 (  5881 PWs)   bands (ev):

   -66.3625 -66.0194 -65.9985 -33.3510 -33.3136 -33.2982 -33.0248 -32.9884
   -32.9733 -32.9573 -32.9435 -32.9322 -30.1598 -29.9430 -29.9052 -29.3942
   -29.2443 -11.9442 -11.8423 -11.7125 -11.5551 -11.4861 -11.4573 -11.3394
   -11.2914 -11.1050 -10.9614 -10.8490 -10.8113 -10.7533 -10.7111 -10.6116
    -8.2456  -8.0649  -7.6725  -7.5554  -7.5353  -7.4782  -7.3638  -7.1762
     3.8715   4.3134   4.4665   4.8733   4.9726   5.0523   5.2081   5.2350
     5.4654   5.5382   5.7024   5.8537   5.9451   5.9910   6.0680   6.2336
     6.2747   6.3477   6.4217   6.5201   6.6378   6.6952   6.7679   6.8649

     occupation numbers 
     1.0000   1.0000   1.0000   1.0000   1.0000   1.0000   1.0000   1.0000
     1.0000   1.0000   1.0000   1.0000   1.0000   1.0000   1.0000   1.0000
     1.0000   1.0000   1.0000   1.0000   1.0000   1.0000   1.0000   1.0000
     1.0000   1.0000   1.0000   1.0000   1.0000   1.0000   1.0000   1.0000
     1.0000   1.0000   1.0000   1.0000   1.0000   1.0000   1.0000   1.0000
     1.0000   1.0000   1.0000   1.0000   1.0000   1.0000   1.0000   1.0000
     1.0000   1.0000   1.0000   1.0000   1.0000   1.0000   1.0000   1.0000
     1.0000   1.0000   1.0000   1.0000   1.0000   1.0000   1.0000   1.0000

          k =-0.7317 0.0168 0.0178 (  5914 PWs)   bands (ev):

   -66.3625 -66.0194 -65.9985 -33.3511 -33.3136 -33.2982 -33.0247 -32.9875
   -32.9738 -32.9573 -32.9435 -32.9326 -30.1589 -29.9432 -29.9043 -29.3954
   -29.2450 -11.9359 -11.7888 -11.6684 -11.5153 -11.4508 -11.4041 -11.3533
   -11.3167 -11.1272 -11.0115 -10.9333 -10.8518 -10.8230 -10.7101 -10.5861
    -8.2319  -8.1955  -7.6306  -7.5707  -7.4830  -7.4071  -7.3346  -7.1845
     3.9744   4.2451   4.8292   4.8344   4.9536   5.0135   5.1788   5.2461
     5.3463   5.5597   5.5730   5.7273   5.7760   5.9365   5.9929   6.0900
     6.2932   6.4101   6.4344   6.6614   6.7199   6.7855   6.7934   6.8729

     occupation numbers 
     1.0000   1.0000   1.0000   1.0000   1.0000   1.0000   1.0000   1.0000
     1.0000   1.0000   1.0000   1.0000   1.0000   1.0000   1.0000   1.0000
     1.0000   1.0000   1.0000   1.0000   1.0000   1.0000   1.0000   1.0000
     1.0000   1.0000   1.0000   1.0000   1.0000   1.0000   1.0000   1.0000
     1.0000   1.0000   1.0000   1.0000   1.0000   1.0000   1.0000   1.0000
     1.0000   1.0000   1.0000   1.0000   1.0000   1.0000   1.0000   1.0000
     1.0000   1.0000   1.0000   1.0000   1.0000   1.0000   1.0000   1.0000
     1.0000   1.0000   1.0000   1.0000   1.0000   1.0000   1.0000   1.0000

          k =-0.1916 0.1799 0.1830 (  5881 PWs)   bands (ev):

   -66.3625 -66.0194 -65.9985 -33.3510 -33.3137 -33.2982 -33.0248 -32.9884
   -32.9733 -32.9573 -32.9435 -32.9321 -30.1609 -29.9528 -29.8949 -29.3967
   -29.2410 -12.0566 -11.9105 -11.8595 -11.6446 -11.4486 -11.3570 -11.2692
   -11.1416 -11.0864 -11.0365 -10.9550 -10.6905 -10.6654 -10.6130 -10.4624
    -8.4764  -8.1235  -7.9091  -7.7884  -7.5108  -7.3592  -7.1503  -6.9869
     3.3262   4.0031   4.6466   4.7585   4.8236   4.9175   5.0542   5.6420
     5.7222   5.8142   5.8633   5.9610   6.0208   6.0857   6.1508   6.1917
     6.3099   6.4443   6.5158   6.5405   6.6325   6.6882   6.9376   6.9685

     occupation numbers 
     1.0000   1.0000   1.0000   1.0000   1.0000   1.0000   1.0000   1.0000
     1.0000   1.0000   1.0000   1.0000   1.0000   1.0000   1.0000   1.0000
     1.0000   1.0000   1.0000   1.0000   1.0000   1.0000   1.0000   1.0000
     1.0000   1.0000   1.0000   1.0000   1.0000   1.0000   1.0000   1.0000
     1.0000   1.0000   1.0000   1.0000   1.0000   1.0000   1.0000   1.0000
     1.0000   1.0000   1.0000   1.0000   1.0000   1.0000   1.0000   1.0000
     1.0000   1.0000   1.0000   1.0000   1.0000   1.0000   1.0000   1.0000
     1.0000   1.0000   1.0000   1.0000   1.0000   1.0000   1.0000   1.0000

          k =-0.0084 0.3500 0.0013 (  5884 PWs)   bands (ev):

   -66.3625 -66.0194 -65.9985 -33.3510 -33.3137 -33.2982 -33.0249 -32.9892
   -32.9728 -32.9573 -32.9435 -32.9317 -30.1616 -29.9523 -29.8955 -29.3964
   -29.2402 -12.1130 -11.9836 -11.8280 -11.6076 -11.4786 -11.3766 -11.2044
   -11.1351 -11.0882 -11.0163 -10.8236 -10.7456 -10.7030 -10.6075 -10.4615
    -8.3926  -8.1058  -7.9398  -7.8911  -7.5723  -7.4716  -7.0324  -6.9110
     3.3816   4.0095   4.6194   4.7084   4.7781   4.9273   4.9950   5.5261
     5.6726   5.7585   5.8849   5.9382   5.9806   6.0243   6.1668   6.3232
     6.3737   6.4209   6.4468   6.4895   6.6728   6.8120   6.9328   7.1212

     occupation numbers 
     1.0000   1.0000   1.0000   1.0000   1.0000   1.0000   1.0000   1.0000
     1.0000   1.0000   1.0000   1.0000   1.0000   1.0000   1.0000   1.0000
     1.0000   1.0000   1.0000   1.0000   1.0000   1.0000   1.0000   1.0000
     1.0000   1.0000   1.0000   1.0000   1.0000   1.0000   1.0000   1.0000
     1.0000   1.0000   1.0000   1.0000   1.0000   1.0000   1.0000   1.0000
     1.0000   1.0000   1.0000   1.0000   1.0000   1.0000   1.0000   1.0000
     1.0000   1.0000   1.0000   1.0000   1.0000   1.0000   1.0000   1.0000
     1.0000   1.0000   1.0000   1.0000   1.0000   1.0000   1.0000   1.0000

          k =-0.5579-0.1604 0.5463 (  5904 PWs)   bands (ev):

   -66.3625 -66.0194 -65.9985 -33.3510 -33.3137 -33.2982 -33.0248 -32.9884
   -32.9733 -32.9573 -32.9435 -32.9321 -30.1607 -29.9513 -29.8952 -29.3978
   -29.2413 -11.9969 -11.9069 -11.7937 -11.5888 -11.4529 -11.3283 -11.2784
   -11.1690 -11.1349 -11.0185 -10.9544 -10.8476 -10.7779 -10.6515 -10.4605
    -8.2228  -7.9781  -7.8201  -7.7273  -7.6964  -7.4949  -7.1626  -7.0526
     3.8236   4.2840   4.4937   4.7992   4.9076   5.0634   5.1744   5.3070
     5.4048   5.5882   5.6755   5.8915   5.9662   6.0119   6.1376   6.1936
     6.3044   6.3369   6.4164   6.5464   6.6453   6.6526   6.8060   6.8900

     occupation numbers 
     1.0000   1.0000   1.0000   1.0000   1.0000   1.0000   1.0000   1.0000
     1.0000   1.0000   1.0000   1.0000   1.0000   1.0000   1.0000   1.0000
     1.0000   1.0000   1.0000   1.0000   1.0000   1.0000   1.0000   1.0000
     1.0000   1.0000   1.0000   1.0000   1.0000   1.0000   1.0000   1.0000
     1.0000   1.0000   1.0000   1.0000   1.0000   1.0000   1.0000   1.0000
     1.0000   1.0000   1.0000   1.0000   1.0000   1.0000   1.0000   1.0000
     1.0000   1.0000   1.0000   1.0000   1.0000   1.0000   1.0000   1.0000
     1.0000   1.0000   1.0000   1.0000   1.0000   1.0000   1.0000   1.0000

          k =-0.3747 0.0097 0.3646 (  5884 PWs)   bands (ev):

   -66.3625 -66.0194 -65.9985 -33.3511 -33.3137 -33.2982 -33.0247 -32.9875
   -32.9738 -32.9573 -32.9435 -32.9325 -30.1600 -29.9518 -29.8946 -29.3982
   -29.2422 -11.9430 -11.8322 -11.7364 -11.6198 -11.5055 -11.3531 -11.3117
   -11.2401 -11.1242 -11.0637 -11.0066 -10.7730 -10.7254 -10.6851 -10.4607
    -8.3503  -8.0584  -7.6766  -7.5719  -7.5170  -7.4228  -7.3513  -7.1984
     3.6968   4.3137   4.5298   4.9158   4.9899   5.0503   5.2167   5.2678
     5.4924   5.7309   5.8052   5.8609   5.9110   6.0435   6.1084   6.2158
     6.2506   6.3725   6.3876   6.4694   6.5366   6.5699   6.7359   6.8990

     occupation numbers 
     1.0000   1.0000   1.0000   1.0000   1.0000   1.0000   1.0000   1.0000
     1.0000   1.0000   1.0000   1.0000   1.0000   1.0000   1.0000   1.0000
     1.0000   1.0000   1.0000   1.0000   1.0000   1.0000   1.0000   1.0000
     1.0000   1.0000   1.0000   1.0000   1.0000   1.0000   1.0000   1.0000
     1.0000   1.0000   1.0000   1.0000   1.0000   1.0000   1.0000   1.0000
     1.0000   1.0000   1.0000   1.0000   1.0000   1.0000   1.0000   1.0000
     1.0000   1.0000   1.0000   1.0000   1.0000   1.0000   1.0000   1.0000
     1.0000   1.0000   1.0000   1.0000   1.0000   1.0000   1.0000   1.0000

          k =-0.0089 0.0013 0.3557 (  5890 PWs)   bands (ev):

   -66.3625 -66.0194 -65.9985 -33.3510 -33.3137 -33.2982 -33.0248 -32.9884
   -32.9733 -32.9573 -32.9435 -32.9321 -30.1601 -29.9597 -29.8884 -29.3954
   -29.2429 -12.0338 -11.8741 -11.8234 -11.7033 -11.4843 -11.3357 -11.2529
   -11.1377 -11.0855 -10.9695 -10.9175 -10.7113 -10.6913 -10.6735 -10.5753
    -8.4870  -8.0810  -7.8227  -7.7141  -7.4648  -7.4217  -7.2113  -7.0281
     3.4023   4.0024   4.6422   4.7464   4.8244   4.9420   5.0886   5.5334
     5.6783   5.7749   5.8471   5.9401   5.9801   6.0315   6.1344   6.2109
     6.3159   6.3677   6.4187   6.5846   6.6651   6.8131   6.9335   7.0922

     occupation numbers 
     1.0000   1.0000   1.0000   1.0000   1.0000   1.0000   1.0000   1.0000
     1.0000   1.0000   1.0000   1.0000   1.0000   1.0000   1.0000   1.0000
     1.0000   1.0000   1.0000   1.0000   1.0000   1.0000   1.0000   1.0000
     1.0000   1.0000   1.0000   1.0000   1.0000   1.0000   1.0000   1.0000
     1.0000   1.0000   1.0000   1.0000   1.0000   1.0000   1.0000   1.0000
     1.0000   1.0000   1.0000   1.0000   1.0000   1.0000   1.0000   1.0000
     1.0000   1.0000   1.0000   1.0000   1.0000   1.0000   1.0000   1.0000
     1.0000   1.0000   1.0000   1.0000   1.0000   1.0000   1.0000   1.0000

          k = 0.1743 0.1715 0.1741 (  5881 PWs)   bands (ev):

   -66.3625 -66.0194 -65.9985 -33.3510 -33.3137 -33.2982 -33.0248 -32.9892
   -32.9728 -32.9572 -32.9435 -32.9317 -30.1609 -29.9603 -29.8885 -29.3949
   -29.2415 -12.0893 -11.9006 -11.8739 -11.6838 -11.5382 -11.3844 -11.2454
   -11.1198 -11.0099 -10.9680 -10.8209 -10.7479 -10.6518 -10.6231 -10.5184
    -8.4680  -8.1170  -7.8995  -7.7924  -7.5165  -7.3683  -7.1606  -6.9991
     3.3014   3.9736   4.5553   4.6485   4.7660   4.9594   5.0635   5.5692
     5.6815   5.7509   5.8709   5.9800   6.0316   6.0803   6.2507   6.2909
     6.3537   6.4039   6.5274   6.5994   6.6939   6.8013   6.9519   7.0868

     occupation numbers 
     1.0000   1.0000   1.0000   1.0000   1.0000   1.0000   1.0000   1.0000
     1.0000   1.0000   1.0000   1.0000   1.0000   1.0000   1.0000   1.0000
     1.0000   1.0000   1.0000   1.0000   1.0000   1.0000   1.0000   1.0000
     1.0000   1.0000   1.0000   1.0000   1.0000   1.0000   1.0000   1.0000
     1.0000   1.0000   1.0000   1.0000   1.0000   1.0000   1.0000   1.0000
     1.0000   1.0000   1.0000   1.0000   1.0000   1.0000   1.0000   1.0000
     1.0000   1.0000   1.0000   1.0000   1.0000   1.0000   1.0000   1.0000
     1.0000   1.0000   1.0000   1.0000   1.0000   1.0000   1.0000   1.0000

          k =-0.3753-0.3389 0.7190 (  5890 PWs)   bands (ev):

   -66.3625 -66.0194 -65.9985 -33.3510 -33.3137 -33.2982 -33.0248 -32.9884
   -32.9733 -32.9573 -32.9435 -32.9321 -30.1599 -29.9594 -29.8882 -29.3962
   -29.2427 -11.9786 -11.8547 -11.8061 -11.6431 -11.5105 -11.3870 -11.2994
   -11.1214 -11.0787 -10.9735 -10.9160 -10.8636 -10.7270 -10.6768 -10.5344
    -8.2545  -8.0128  -7.7670  -7.6344  -7.6014  -7.4862  -7.2729  -7.1195
     3.6723   4.2360   4.4434   4.7944   4.8786   5.0534   5.1943   5.3908
     5.5211   5.5666   5.7192   5.9227   5.9816   6.0870   6.1522   6.2423
     6.2709   6.4276   6.4736   6.5080   6.5892   6.6395   6.8376   6.9365

     occupation numbers 
     1.0000   1.0000   1.0000   1.0000   1.0000   1.0000   1.0000   1.0000
     1.0000   1.0000   1.0000   1.0000   1.0000   1.0000   1.0000   1.0000
     1.0000   1.0000   1.0000   1.0000   1.0000   1.0000   1.0000   1.0000
     1.0000   1.0000   1.0000   1.0000   1.0000   1.0000   1.0000   1.0000
     1.0000   1.0000   1.0000   1.0000   1.0000   1.0000   1.0000   1.0000
     1.0000   1.0000   1.0000   1.0000   1.0000   1.0000   1.0000   1.0000
     1.0000   1.0000   1.0000   1.0000   1.0000   1.0000   1.0000   1.0000
     1.0000   1.0000   1.0000   1.0000   1.0000   1.0000   1.0000   1.0000

          k =-0.1921-0.1688 0.5374 (  5900 PWs)   bands (ev):

   -66.3625 -66.0194 -65.9985 -33.3511 -33.3137 -33.2982 -33.0247 -32.9875
   -32.9738 -32.9573 -32.9435 -32.9325 -30.1591 -29.9587 -29.8880 -29.3968
   -29.2441 -11.9301 -11.8005 -11.7063 -11.6611 -11.4931 -11.3638 -11.3167
   -11.1659 -11.1143 -11.0379 -10.9564 -10.8294 -10.7803 -10.7411 -10.5613
    -8.3254  -7.8483  -7.7334  -7.5793  -7.5274  -7.4902  -7.3763  -7.1839
     3.8751   4.2848   4.3698   4.9196   5.0518   5.1383   5.2210   5.3272
     5.4580   5.4844   5.6324   5.8112   5.8534   5.9768   6.0412   6.2313
     6.3364   6.4087   6.4592   6.4989   6.5738   6.6678   6.7622   6.9560

     occupation numbers 
     1.0000   1.0000   1.0000   1.0000   1.0000   1.0000   1.0000   1.0000
     1.0000   1.0000   1.0000   1.0000   1.0000   1.0000   1.0000   1.0000
     1.0000   1.0000   1.0000   1.0000   1.0000   1.0000   1.0000   1.0000
     1.0000   1.0000   1.0000   1.0000   1.0000   1.0000   1.0000   1.0000
     1.0000   1.0000   1.0000   1.0000   1.0000   1.0000   1.0000   1.0000
     1.0000   1.0000   1.0000   1.0000   1.0000   1.0000   1.0000   1.0000
     1.0000   1.0000   1.0000   1.0000   1.0000   1.0000   1.0000   1.0000
     1.0000   1.0000   1.0000   1.0000   1.0000   1.0000   1.0000   1.0000

          k =-0.5569 0.5369-0.1625 (  5884 PWs)   bands (ev):

   -66.3625 -66.0194 -65.9985 -33.3510 -33.3136 -33.2982 -33.0248 -32.9884
   -32.9733 -32.9573 -32.9435 -32.9321 -30.1588 -29.9535 -29.8957 -29.3939
   -29.2447 -11.9210 -11.8027 -11.6980 -11.6474 -11.5577 -11.4817 -11.3329
   -11.1814 -11.0768 -10.9578 -10.8529 -10.8197 -10.7766 -10.6904 -10.6372
    -8.3377  -7.8567  -7.7095  -7.6051  -7.5404  -7.4878  -7.3882  -7.1619
     3.8810   4.2704   4.4233   4.9025   5.0022   5.1115   5.1709   5.3019
     5.3602   5.5967   5.6280   5.8124   5.9361   6.0528   6.0902   6.2413
     6.2875   6.3340   6.4649   6.5282   6.5862   6.6618   6.7680   6.9208

     occupation numbers 
     1.0000   1.0000   1.0000   1.0000   1.0000   1.0000   1.0000   1.0000
     1.0000   1.0000   1.0000   1.0000   1.0000   1.0000   1.0000   1.0000
     1.0000   1.0000   1.0000   1.0000   1.0000   1.0000   1.0000   1.0000
     1.0000   1.0000   1.0000   1.0000   1.0000   1.0000   1.0000   1.0000
     1.0000   1.0000   1.0000   1.0000   1.0000   1.0000   1.0000   1.0000
     1.0000   1.0000   1.0000   1.0000   1.0000   1.0000   1.0000   1.0000
     1.0000   1.0000   1.0000   1.0000   1.0000   1.0000   1.0000   1.0000
     1.0000   1.0000   1.0000   1.0000   1.0000   1.0000   1.0000   1.0000

          k =-0.3737 0.7070-0.3441 (  5877 PWs)   bands (ev):

   -66.3625 -66.0194 -65.9985 -33.3510 -33.3136 -33.2982 -33.0249 -32.9892
   -32.9728 -32.9573 -32.9435 -32.9318 -30.1596 -29.9542 -29.8957 -29.3934
   -29.2433 -11.9639 -11.8596 -11.7500 -11.6374 -11.5901 -11.5189 -11.3320
   -11.1569 -11.0670 -10.9001 -10.8095 -10.7745 -10.7374 -10.6856 -10.5528
    -8.3448  -8.0579  -7.6550  -7.5813  -7.5315  -7.4463  -7.3759  -7.1933
     3.6718   4.2653   4.4289   4.8588   4.9337   5.0113   5.1418   5.2648
     5.4926   5.6402   5.8229   5.9211   5.9528   6.1118   6.1586   6.2339
     6.2899   6.3354   6.3960   6.5332   6.6029   6.6695   6.7966   6.9971

     occupation numbers 
     1.0000   1.0000   1.0000   1.0000   1.0000   1.0000   1.0000   1.0000
     1.0000   1.0000   1.0000   1.0000   1.0000   1.0000   1.0000   1.0000
     1.0000   1.0000   1.0000   1.0000   1.0000   1.0000   1.0000   1.0000
     1.0000   1.0000   1.0000   1.0000   1.0000   1.0000   1.0000   1.0000
     1.0000   1.0000   1.0000   1.0000   1.0000   1.0000   1.0000   1.0000
     1.0000   1.0000   1.0000   1.0000   1.0000   1.0000   1.0000   1.0000
     1.0000   1.0000   1.0000   1.0000   1.0000   1.0000   1.0000   1.0000
     1.0000   1.0000   1.0000   1.0000   1.0000   1.0000   1.0000   1.0000

          k =-0.9232 0.1966 0.2008 (  5902 PWs)   bands (ev):

   -66.3625 -66.0194 -65.9985 -33.3510 -33.3136 -33.2982 -33.0248 -32.9884
   -32.9733 -32.9573 -32.9435 -32.9322 -30.1587 -29.9542 -29.8950 -29.3946
   -29.2440 -11.9154 -11.8257 -11.7505 -11.5926 -11.5277 -11.5075 -11.3532
   -11.1817 -11.0727 -10.9572 -10.8569 -10.8213 -10.8045 -10.6658 -10.5735
    -8.2494  -8.1341  -7.6322  -7.6121  -7.5117  -7.4045  -7.3695  -7.2010
     3.8514   4.2873   4.4110   4.8605   4.9983   5.0992   5.1695   5.3183
     5.4263   5.4834   5.6345   5.8295   5.9409   6.0117   6.0958   6.2130
     6.2645   6.4258   6.4817   6.5746   6.6254   6.6956   6.8101   6.8564

     occupation numbers 
     1.0000   1.0000   1.0000   1.0000   1.0000   1.0000   1.0000   1.0000
     1.0000   1.0000   1.0000   1.0000   1.0000   1.0000   1.0000   1.0000
     1.0000   1.0000   1.0000   1.0000   1.0000   1.0000   1.0000   1.0000
     1.0000   1.0000   1.0000   1.0000   1.0000   1.0000   1.0000   1.0000
     1.0000   1.0000   1.0000   1.0000   1.0000   1.0000   1.0000   1.0000
     1.0000   1.0000   1.0000   1.0000   1.0000   1.0000   1.0000   1.0000
     1.0000   1.0000   1.0000   1.0000   1.0000   1.0000   1.0000   1.0000
     1.0000   1.0000   1.0000   1.0000   1.0000   1.0000   1.0000   1.0000

          k =-0.7401 0.3667 0.0191 (  5889 PWs)   bands (ev):

   -66.3625 -66.0194 -65.9985 -33.3511 -33.3136 -33.2982 -33.0247 -32.9875
   -32.9738 -32.9573 -32.9435 -32.9325 -30.1579 -29.9535 -29.8950 -29.3951
   -29.2454 -11.8664 -11.7821 -11.6671 -11.5980 -11.5368 -11.4289 -11.3598
   -11.2016 -11.0991 -11.0186 -10.9325 -10.8511 -10.7740 -10.7305 -10.6594
    -8.2343  -7.9921  -7.6533  -7.6020  -7.5360  -7.4623  -7.3665  -7.1680
     4.2156   4.2651   4.3496   4.9404   5.0011   5.1165   5.1749   5.2513
     5.3561   5.4210   5.6456   5.7865   5.9025   5.9729   6.0576   6.1476
     6.2306   6.3952   6.4574   6.5509   6.5979   6.6635   6.7643   6.9067

     occupation numbers 
     1.0000   1.0000   1.0000   1.0000   1.0000   1.0000   1.0000   1.0000
     1.0000   1.0000   1.0000   1.0000   1.0000   1.0000   1.0000   1.0000
     1.0000   1.0000   1.0000   1.0000   1.0000   1.0000   1.0000   1.0000
     1.0000   1.0000   1.0000   1.0000   1.0000   1.0000   1.0000   1.0000
     1.0000   1.0000   1.0000   1.0000   1.0000   1.0000   1.0000   1.0000
     1.0000   1.0000   1.0000   1.0000   1.0000   1.0000   1.0000   1.0000
     1.0000   1.0000   1.0000   1.0000   1.0000   1.0000   1.0000   1.0000
     1.0000   1.0000   1.0000   1.0000   1.0000   1.0000   1.0000   1.0000

          k =-0.3742 0.3584 0.0102 (  5881 PWs)   bands (ev):

   -66.3625 -66.0194 -65.9985 -33.3510 -33.3137 -33.2982 -33.0248 -32.9884
   -32.9733 -32.9573 -32.9435 -32.9321 -30.1597 -29.9444 -29.9043 -29.3953
   -29.2428 -11.9571 -11.8217 -11.7998 -11.5812 -11.4936 -11.3985 -11.3395
   -11.2603 -11.1601 -10.9981 -10.9222 -10.7234 -10.6932 -10.6741 -10.5447
    -8.2792  -8.0298  -7.7709  -7.6588  -7.5616  -7.5044  -7.2588  -7.0921
     3.7237   4.2823   4.5463   4.8230   4.9347   5.0541   5.1003   5.4141
     5.5160   5.6554   5.7931   5.9527   6.0144   6.0895   6.1355   6.1636
     6.2269   6.3172   6.4090   6.4388   6.5065   6.5858   6.7879   6.9049

     occupation numbers 
     1.0000   1.0000   1.0000   1.0000   1.0000   1.0000   1.0000   1.0000
     1.0000   1.0000   1.0000   1.0000   1.0000   1.0000   1.0000   1.0000
     1.0000   1.0000   1.0000   1.0000   1.0000   1.0000   1.0000   1.0000
     1.0000   1.0000   1.0000   1.0000   1.0000   1.0000   1.0000   1.0000
     1.0000   1.0000   1.0000   1.0000   1.0000   1.0000   1.0000   1.0000
     1.0000   1.0000   1.0000   1.0000   1.0000   1.0000   1.0000   1.0000
     1.0000   1.0000   1.0000   1.0000   1.0000   1.0000   1.0000   1.0000
     1.0000   1.0000   1.0000   1.0000   1.0000   1.0000   1.0000   1.0000

          k =-0.1910 0.5285-0.1714 (  5879 PWs)   bands (ev):

   -66.3625 -66.0194 -65.9985 -33.3510 -33.3137 -33.2982 -33.0249 -32.9892
   -32.9728 -32.9573 -32.9435 -32.9318 -30.1604 -29.9438 -29.9051 -29.3949
   -29.2419 -12.0214 -11.8766 -11.7913 -11.5997 -11.4789 -11.3649 -11.3113
   -11.2638 -11.1213 -10.9984 -10.8213 -10.7996 -10.7261 -10.6386 -10.5223
    -8.2338  -7.9860  -7.8257  -7.7314  -7.6932  -7.5001  -7.1649  -7.0435
     3.8424   4.3050   4.4279   4.8482   4.9012   5.0673   5.1112   5.2865
     5.3780   5.6126   5.7497   5.8699   5.9646   6.0268   6.1269   6.2291
     6.2483   6.3523   6.4332   6.5035   6.5537   6.6727   6.8431   6.9678

     occupation numbers 
     1.0000   1.0000   1.0000   1.0000   1.0000   1.0000   1.0000   1.0000
     1.0000   1.0000   1.0000   1.0000   1.0000   1.0000   1.0000   1.0000
     1.0000   1.0000   1.0000   1.0000   1.0000   1.0000   1.0000   1.0000
     1.0000   1.0000   1.0000   1.0000   1.0000   1.0000   1.0000   1.0000
     1.0000   1.0000   1.0000   1.0000   1.0000   1.0000   1.0000   1.0000
     1.0000   1.0000   1.0000   1.0000   1.0000   1.0000   1.0000   1.0000
     1.0000   1.0000   1.0000   1.0000   1.0000   1.0000   1.0000   1.0000
     1.0000   1.0000   1.0000   1.0000   1.0000   1.0000   1.0000   1.0000

          k =-0.7406 0.0181 0.3735 (  5891 PWs)   bands (ev):

   -66.3625 -66.0194 -65.9985 -33.3510 -33.3137 -33.2982 -33.0248 -32.9884
   -32.9733 -32.9573 -32.9435 -32.9321 -30.1595 -29.9440 -29.9042 -29.3961
   -29.2426 -11.9260 -11.8494 -11.8117 -11.5718 -11.4343 -11.3638 -11.3157
   -11.2880 -11.1195 -11.0692 -10.9052 -10.8190 -10.7126 -10.6663 -10.5477
    -8.2095  -8.0634  -7.8506  -7.6424  -7.6196  -7.4055  -7.2193  -7.1055
     4.0620   4.3597   4.4469   4.8591   4.9684   5.0740   5.1361   5.2354
     5.2789   5.4814   5.6506   5.8353   5.9369   6.0300   6.1209   6.2012
     6.2505   6.3690   6.4127   6.4698   6.5719   6.6607   6.8188   6.9139

     occupation numbers 
     1.0000   1.0000   1.0000   1.0000   1.0000   1.0000   1.0000   1.0000
     1.0000   1.0000   1.0000   1.0000   1.0000   1.0000   1.0000   1.0000
     1.0000   1.0000   1.0000   1.0000   1.0000   1.0000   1.0000   1.0000
     1.0000   1.0000   1.0000   1.0000   1.0000   1.0000   1.0000   1.0000
     1.0000   1.0000   1.0000   1.0000   1.0000   1.0000   1.0000   1.0000
     1.0000   1.0000   1.0000   1.0000   1.0000   1.0000   1.0000   1.0000
     1.0000   1.0000   1.0000   1.0000   1.0000   1.0000   1.0000   1.0000
     1.0000   1.0000   1.0000   1.0000   1.0000   1.0000   1.0000   1.0000

          k =-0.5574 0.1882 0.1919 (  5892 PWs)   bands (ev):

   -66.3625 -66.0194 -65.9985 -33.3511 -33.3137 -33.2982 -33.0247 -32.9875
   -32.9738 -32.9573 -32.9435 -32.9325 -30.1588 -29.9446 -29.9034 -29.3965
   -29.2434 -11.8995 -11.7947 -11.7141 -11.5738 -11.4859 -11.3819 -11.3519
   -11.2908 -11.1839 -11.0562 -11.0041 -10.7754 -10.7370 -10.6290 -10.5482
    -8.2669  -8.1392  -7.6459  -7.6002  -7.5103  -7.4198  -7.3349  -7.1811
     3.8876   4.3258   4.5527   4.8944   5.0277   5.1143   5.1934   5.2840
     5.5078   5.5827   5.6624   5.7658   5.8944   5.9558   6.0177   6.2040
     6.2457   6.3603   6.4282   6.4628   6.6395   6.6766   6.7195   6.8047

     occupation numbers 
     1.0000   1.0000   1.0000   1.0000   1.0000   1.0000   1.0000   1.0000
     1.0000   1.0000   1.0000   1.0000   1.0000   1.0000   1.0000   1.0000
     1.0000   1.0000   1.0000   1.0000   1.0000   1.0000   1.0000   1.0000
     1.0000   1.0000   1.0000   1.0000   1.0000   1.0000   1.0000   1.0000
     1.0000   1.0000   1.0000   1.0000   1.0000   1.0000   1.0000   1.0000
     1.0000   1.0000   1.0000   1.0000   1.0000   1.0000   1.0000   1.0000
     1.0000   1.0000   1.0000   1.0000   1.0000   1.0000   1.0000   1.0000
     1.0000   1.0000   1.0000   1.0000   1.0000   1.0000   1.0000   1.0000

          k = 0.3831-0.3597-0.3660 (  5892 PWs)   bands (ev):

   -66.3625 -66.0194 -65.9985 -33.3511 -33.3137 -33.2982 -33.0247 -32.9875
   -32.9738 -32.9573 -32.9435 -32.9325 -30.1586 -29.9460 -29.9026 -29.3975
   -29.2419 -11.8821 -11.8004 -11.6943 -11.6311 -11.5144 -11.4258 -11.3550
   -11.2802 -11.2251 -11.0507 -11.0238 -10.7267 -10.6918 -10.6136 -10.4602
    -8.2889  -8.0927  -7.6694  -7.6328  -7.5294  -7.4292  -7.3399  -7.1782
     3.8374   4.2439   4.5999   4.7602   5.0708   5.2853   5.3248   5.4805
     5.5247   5.6328   5.6731   5.8153   5.8988   5.9903   6.0944   6.1390
     6.1893   6.2564   6.3687   6.3971   6.5321   6.5768   6.6964   6.8022

     occupation numbers 
     1.0000   1.0000   1.0000   1.0000   1.0000   1.0000   1.0000   1.0000
     1.0000   1.0000   1.0000   1.0000   1.0000   1.0000   1.0000   1.0000
     1.0000   1.0000   1.0000   1.0000   1.0000   1.0000   1.0000   1.0000
     1.0000   1.0000   1.0000   1.0000   1.0000   1.0000   1.0000   1.0000
     1.0000   1.0000   1.0000   1.0000   1.0000   1.0000   1.0000   1.0000
     1.0000   1.0000   1.0000   1.0000   1.0000   1.0000   1.0000   1.0000
     1.0000   1.0000   1.0000   1.0000   1.0000   1.0000   1.0000   1.0000
     1.0000   1.0000   1.0000   1.0000   1.0000   1.0000   1.0000   1.0000

          k = 0.5663-0.1896-0.5476 (  5894 PWs)   bands (ev):

   -66.3625 -66.0194 -65.9985 -33.3510 -33.3137 -33.2982 -33.0248 -32.9884
   -32.9733 -32.9573 -32.9435 -32.9321 -30.1594 -29.9453 -29.9034 -29.3971
   -29.2411 -11.9506 -11.9016 -11.7734 -11.5374 -11.4737 -11.4136 -11.3371
   -11.2763 -11.1340 -11.0266 -10.9478 -10.7577 -10.7006 -10.6437 -10.4603
    -8.2465  -8.0381  -7.9104  -7.7216  -7.6306  -7.4332  -7.1592  -7.0424
     3.8472   4.3338   4.5686   4.8266   4.8920   5.0953   5.1436   5.3248
     5.4283   5.6148   5.6870   5.8408   5.9374   5.9899   6.1281   6.2295
     6.2719   6.3276   6.3443   6.5005   6.5670   6.6329   6.7797   6.8961

     occupation numbers 
     1.0000   1.0000   1.0000   1.0000   1.0000   1.0000   1.0000   1.0000
     1.0000   1.0000   1.0000   1.0000   1.0000   1.0000   1.0000   1.0000
     1.0000   1.0000   1.0000   1.0000   1.0000   1.0000   1.0000   1.0000
     1.0000   1.0000   1.0000   1.0000   1.0000   1.0000   1.0000   1.0000
     1.0000   1.0000   1.0000   1.0000   1.0000   1.0000   1.0000   1.0000
     1.0000   1.0000   1.0000   1.0000   1.0000   1.0000   1.0000   1.0000
     1.0000   1.0000   1.0000   1.0000   1.0000   1.0000   1.0000   1.0000
     1.0000   1.0000   1.0000   1.0000   1.0000   1.0000   1.0000   1.0000

          k = 0.0168-0.7000-0.0027 (  5900 PWs)   bands (ev):

   -66.3625 -66.0194 -65.9985 -33.3510 -33.3137 -33.2982 -33.0249 -32.9892
   -32.9728 -32.9573 -32.9435 -32.9317 -30.1601 -29.9447 -29.9042 -29.3968
   -29.2403 -12.0461 -11.9621 -11.7448 -11.5243 -11.4612 -11.3944 -11.2900
   -11.2745 -11.1133 -11.0173 -10.8470 -10.7906 -10.7549 -10.6069 -10.4579
    -8.2072  -8.1481  -7.8444  -7.8091  -7.7367  -7.4717  -7.0411  -6.9534
     3.8932   4.2411   4.6893   4.8632   4.8807   5.0293   5.0623   5.0933
     5.2645   5.5775   5.6957   5.7586   5.9395   5.9912   6.0420   6.2449
     6.3236   6.3805   6.4256   6.5229   6.5629   6.8264   6.9093   7.0284

     occupation numbers 
     1.0000   1.0000   1.0000   1.0000   1.0000   1.0000   1.0000   1.0000
     1.0000   1.0000   1.0000   1.0000   1.0000   1.0000   1.0000   1.0000
     1.0000   1.0000   1.0000   1.0000   1.0000   1.0000   1.0000   1.0000
     1.0000   1.0000   1.0000   1.0000   1.0000   1.0000   1.0000   1.0000
     1.0000   1.0000   1.0000   1.0000   1.0000   1.0000   1.0000   1.0000
     1.0000   1.0000   1.0000   1.0000   1.0000   1.0000   1.0000   1.0000
     1.0000   1.0000   1.0000   1.0000   1.0000   1.0000   1.0000   1.0000
     1.0000   1.0000   1.0000   1.0000   1.0000   1.0000   1.0000   1.0000

          k = 0.5658-0.5382-0.1932 (  5879 PWs)   bands (ev):

   -66.3625 -66.0194 -65.9985 -33.3511 -33.3137 -33.2982 -33.0247 -32.9875
   -32.9738 -32.9573 -32.9435 -32.9325 -30.1578 -29.9545 -29.8944 -29.3962
   -29.2438 -11.8546 -11.7695 -11.6904 -11.6360 -11.6068 -11.4084 -11.3726
   -11.1820 -11.1383 -11.0438 -11.0047 -10.7672 -10.7053 -10.6833 -10.5691
    -8.3423  -8.0114  -7.6537  -7.5881  -7.5109  -7.4542  -7.3650  -7.1659
     3.8884   4.3247   4.4651   4.9514   5.0725   5.1538   5.1976   5.2788
     5.4570   5.5296   5.6439   5.7923   5.8620   5.9785   6.0144   6.2093
     6.3129   6.3628   6.3996   6.5254   6.5669   6.6080   6.7341   6.8931

     occupation numbers 
     1.0000   1.0000   1.0000   1.0000   1.0000   1.0000   1.0000   1.0000
     1.0000   1.0000   1.0000   1.0000   1.0000   1.0000   1.0000   1.0000
     1.0000   1.0000   1.0000   1.0000   1.0000   1.0000   1.0000   1.0000
     1.0000   1.0000   1.0000   1.0000   1.0000   1.0000   1.0000   1.0000
     1.0000   1.0000   1.0000   1.0000   1.0000   1.0000   1.0000   1.0000
     1.0000   1.0000   1.0000   1.0000   1.0000   1.0000   1.0000   1.0000
     1.0000   1.0000   1.0000   1.0000   1.0000   1.0000   1.0000   1.0000
     1.0000   1.0000   1.0000   1.0000   1.0000   1.0000   1.0000   1.0000

          k = 0.7490-0.3681-0.3749 (  5894 PWs)   bands (ev):

   -66.3625 -66.0194 -65.9985 -33.3510 -33.3137 -33.2982 -33.0248 -32.9884
   -32.9733 -32.9573 -32.9435 -32.9321 -30.1586 -29.9552 -29.8946 -29.3956
   -29.2425 -11.9531 -11.8493 -11.7960 -11.6193 -11.5325 -11.4207 -11.3180
   -11.1814 -11.1085 -11.0250 -10.9154 -10.7561 -10.6758 -10.6302 -10.5517
    -8.2915  -8.0957  -7.8369  -7.6797  -7.5874  -7.4103  -7.2150  -7.0658
     3.6991   4.2606   4.4357   4.8214   4.9454   5.0386   5.1651   5.4401
     5.5427   5.6643   5.7536   5.9079   5.9564   6.0186   6.1119   6.1592
     6.2793   6.3073   6.3877   6.4745   6.5591   6.6776   6.8337   6.9941

     occupation numbers 
     1.0000   1.0000   1.0000   1.0000   1.0000   1.0000   1.0000   1.0000
     1.0000   1.0000   1.0000   1.0000   1.0000   1.0000   1.0000   1.0000
     1.0000   1.0000   1.0000   1.0000   1.0000   1.0000   1.0000   1.0000
     1.0000   1.0000   1.0000   1.0000   1.0000   1.0000   1.0000   1.0000
     1.0000   1.0000   1.0000   1.0000   1.0000   1.0000   1.0000   1.0000
     1.0000   1.0000   1.0000   1.0000   1.0000   1.0000   1.0000   1.0000
     1.0000   1.0000   1.0000   1.0000   1.0000   1.0000   1.0000   1.0000
     1.0000   1.0000   1.0000   1.0000   1.0000   1.0000   1.0000   1.0000

          k = 0.1994-0.8785 0.1701 (  5888 PWs)   bands (ev):

   -66.3625 -66.0194 -65.9985 -33.3510 -33.3137 -33.2982 -33.0249 -32.9892
   -32.9728 -32.9573 -32.9435 -32.9317 -30.1593 -29.9548 -29.8951 -29.3953
   -29.2416 -12.0043 -11.8672 -11.7936 -11.6484 -11.5376 -11.4077 -11.3264
   -11.1664 -11.0701 -11.0092 -10.8509 -10.7696 -10.7092 -10.6374 -10.5151
    -8.2294  -8.0329  -7.9072  -7.7225  -7.6377  -7.4450  -7.1687  -7.0558
     3.8186   4.3067   4.3535   4.8495   4.9102   5.0506   5.1541   5.2919
     5.3974   5.5207   5.7292   5.8718   5.9665   6.0266   6.1249   6.2406
     6.2875   6.3807   6.4445   6.4938   6.6020   6.7055   6.8520   6.9887

     occupation numbers 
     1.0000   1.0000   1.0000   1.0000   1.0000   1.0000   1.0000   1.0000
     1.0000   1.0000   1.0000   1.0000   1.0000   1.0000   1.0000   1.0000
     1.0000   1.0000   1.0000   1.0000   1.0000   1.0000   1.0000   1.0000
     1.0000   1.0000   1.0000   1.0000   1.0000   1.0000   1.0000   1.0000
     1.0000   1.0000   1.0000   1.0000   1.0000   1.0000   1.0000   1.0000
     1.0000   1.0000   1.0000   1.0000   1.0000   1.0000   1.0000   1.0000
     1.0000   1.0000   1.0000   1.0000   1.0000   1.0000   1.0000   1.0000
     1.0000   1.0000   1.0000   1.0000   1.0000   1.0000   1.0000   1.0000

          k = 0.3826-0.7083-0.0116 (  5880 PWs)   bands (ev):

   -66.3625 -66.0194 -65.9985 -33.3510 -33.3137 -33.2982 -33.0248 -32.9884
   -32.9733 -32.9573 -32.9435 -32.9321 -30.1585 -29.9542 -29.8950 -29.3958
   -29.2430 -11.8869 -11.8158 -11.7400 -11.6486 -11.5900 -11.3988 -11.3693
   -11.1563 -11.1096 -11.0004 -10.9198 -10.8052 -10.7484 -10.6845 -10.5406
    -8.3017  -7.8520  -7.7760  -7.7100  -7.5883  -7.4642  -7.2717  -7.1424
     4.1570   4.2367   4.4239   4.9246   5.0267   5.0679   5.1370   5.1721
     5.2897   5.4277   5.6789   5.8231   5.9579   6.0515   6.1935   6.2089
     6.2428   6.3254   6.4038   6.5399   6.5931   6.6544   6.7543   6.8519

     occupation numbers 
     1.0000   1.0000   1.0000   1.0000   1.0000   1.0000   1.0000   1.0000
     1.0000   1.0000   1.0000   1.0000   1.0000   1.0000   1.0000   1.0000
     1.0000   1.0000   1.0000   1.0000   1.0000   1.0000   1.0000   1.0000
     1.0000   1.0000   1.0000   1.0000   1.0000   1.0000   1.0000   1.0000
     1.0000   1.0000   1.0000   1.0000   1.0000   1.0000   1.0000   1.0000
     1.0000   1.0000   1.0000   1.0000   1.0000   1.0000   1.0000   1.0000
     1.0000   1.0000   1.0000   1.0000   1.0000   1.0000   1.0000   1.0000
     1.0000   1.0000   1.0000   1.0000   1.0000   1.0000   1.0000   1.0000

          k = 0.0178-0.0027-0.7114 (  5882 PWs)   bands (ev):

   -66.3625 -66.0194 -65.9985 -33.3511 -33.3137 -33.2982 -33.0247 -32.9875
   -32.9738 -32.9573 -32.9435 -32.9325 -30.1569 -29.9613 -29.8881 -29.3948
   -29.2458 -11.8458 -11.7448 -11.6740 -11.6546 -11.5987 -11.4404 -11.3731
   -11.1441 -11.0541 -10.9685 -10.9369 -10.8545 -10.7840 -10.7428 -10.6689
    -8.4021  -7.8691  -7.6818  -7.5755  -7.5037  -7.4644  -7.3774  -7.1520
     3.9840   4.1836   4.6749   4.9393   4.9663   5.0944   5.1835   5.2468
     5.2956   5.5635   5.6460   5.6897   5.8605   5.8933   5.9685   6.0010
     6.3411   6.4593   6.4734   6.5133   6.6467   6.7621   6.8552   7.0351

     occupation numbers 
     1.0000   1.0000   1.0000   1.0000   1.0000   1.0000   1.0000   1.0000
     1.0000   1.0000   1.0000   1.0000   1.0000   1.0000   1.0000   1.0000
     1.0000   1.0000   1.0000   1.0000   1.0000   1.0000   1.0000   1.0000
     1.0000   1.0000   1.0000   1.0000   1.0000   1.0000   1.0000   1.0000
     1.0000   1.0000   1.0000   1.0000   1.0000   1.0000   1.0000   1.0000
     1.0000   1.0000   1.0000   1.0000   1.0000   1.0000   1.0000   1.0000
     1.0000   1.0000   1.0000   1.0000   1.0000   1.0000   1.0000   1.0000
     1.0000   1.0000   1.0000   1.0000   1.0000   1.0000   1.0000   1.0000

          k = 0.2010 0.1674-0.8931 (  5890 PWs)   bands (ev):

   -66.3625 -66.0194 -65.9985 -33.3510 -33.3137 -33.2982 -33.0248 -32.9884
   -32.9733 -32.9573 -32.9435 -32.9321 -30.1577 -29.9620 -29.8883 -29.3943
   -29.2444 -11.8954 -11.7947 -11.7238 -11.6468 -11.5886 -11.5081 -11.4045
   -11.1476 -10.9977 -10.9446 -10.8468 -10.8197 -10.7700 -10.6980 -10.6257
    -8.3268  -8.0041  -7.6489  -7.5718  -7.5241  -7.4587  -7.3890  -7.1841
     3.8637   4.2385   4.3755   4.9089   5.0154   5.0808   5.2425   5.2727
     5.4241   5.5070   5.6292   5.8086   5.9021   6.0035   6.0714   6.2775
     6.3172   6.3909   6.4792   6.5298   6.5636   6.7104   6.7822   6.9862

     occupation numbers 
     1.0000   1.0000   1.0000   1.0000   1.0000   1.0000   1.0000   1.0000
     1.0000   1.0000   1.0000   1.0000   1.0000   1.0000   1.0000   1.0000
     1.0000   1.0000   1.0000   1.0000   1.0000   1.0000   1.0000   1.0000
     1.0000   1.0000   1.0000   1.0000   1.0000   1.0000   1.0000   1.0000
     1.0000   1.0000   1.0000   1.0000   1.0000   1.0000   1.0000   1.0000
     1.0000   1.0000   1.0000   1.0000   1.0000   1.0000   1.0000   1.0000
     1.0000   1.0000   1.0000   1.0000   1.0000   1.0000   1.0000   1.0000
     1.0000   1.0000   1.0000   1.0000   1.0000   1.0000   1.0000   1.0000

          k =-0.3486-0.3429-0.3482 (  5896 PWs)   bands (ev):

   -66.3625 -66.0194 -65.9985 -33.3510 -33.3136 -33.2982 -33.0249 -32.9892
   -32.9728 -32.9572 -32.9435 -32.9318 -30.1584 -29.9626 -29.8884 -29.3937
   -29.2431 -11.9373 -11.8674 -11.7440 -11.6314 -11.5930 -11.5443 -11.4241
   -11.1359 -10.9903 -10.9044 -10.8605 -10.7852 -10.7492 -10.6289 -10.5380
    -8.2458  -8.0953  -7.6530  -7.6292  -7.5309  -7.4154  -7.4058  -7.2178
     3.7959   4.0706   4.4039   4.7969   4.9601   5.1321   5.3010   5.4297
     5.4658   5.5636   5.7058   5.7660   5.9309   6.0526   6.1513   6.1996
     6.3239   6.3883   6.5168   6.5512   6.5609   6.6285   6.8000   7.0203

     occupation numbers 
     1.0000   1.0000   1.0000   1.0000   1.0000   1.0000   1.0000   1.0000
     1.0000   1.0000   1.0000   1.0000   1.0000   1.0000   1.0000   1.0000
     1.0000   1.0000   1.0000   1.0000   1.0000   1.0000   1.0000   1.0000
     1.0000   1.0000   1.0000   1.0000   1.0000   1.0000   1.0000   1.0000
     1.0000   1.0000   1.0000   1.0000   1.0000   1.0000   1.0000   1.0000
     1.0000   1.0000   1.0000   1.0000   1.0000   1.0000   1.0000   1.0000
     1.0000   1.0000   1.0000   1.0000   1.0000   1.0000   1.0000   1.0000
     1.0000   1.0000   1.0000   1.0000   1.0000   1.0000   1.0000   1.0000

     highest occupied level (ev):     7.1849

!    total energy              =   -1009.40276905 Ry
     Harris-Foulkes estimate   =   -1009.40276905 Ry
     estimated scf accuracy    <          9.2E-11 Ry

     The total energy is the sum of the following terms:

     one-electron contribution =    -427.92770982 Ry
     hartree contribution      =     263.90106542 Ry
     xc contribution           =    -167.75148165 Ry
     ewald contribution        =    -677.62464300 Ry

     convergence has been achieved in  20 iterations

     Forces acting on atoms (Ry/au):

     atom    1 type  1   force =  -0.96517354E-02 -0.27138462E-01  0.17930460E-01
     atom    2 type  3   force =   0.13856423E-01 -0.95241797E-02 -0.29510705E-02
     atom    3 type  2   force =   0.30690092E-01  0.10029472E-01  0.14759943E-01
     atom    4 type  3   force =   0.88398798E-01  0.50514023E-02  0.17366698E-01
     atom    5 type  1   force =  -0.22899924E-01 -0.57282642E-02  0.10734232E-01
     atom    6 type  3   force =   0.11148694E-01 -0.36853521E-01 -0.90137751E-01
     atom    7 type  2   force =  -0.35715364E-01 -0.13925096E-01 -0.21673553E-01
     atom    8 type  3   force =   0.62630143E-01  0.13770642E-02 -0.17730040E-01
     atom    9 type  1   force =   0.21853512E-01  0.14245704E-01  0.65106567E-01
     atom   10 type  3   force =  -0.28438711E-01  0.17258373E-01  0.10506297E-01
     atom   11 type  1   force =  -0.60294334E-01 -0.42442723E-01 -0.56608313E-01
     atom   12 type  3   force =  -0.11316870E-02  0.41586991E-01  0.19848929E-01
     atom   13 type  2   force =   0.10392456E-01 -0.20986376E-02 -0.12262123E-01
     atom   14 type  3   force =   0.18575335E-01  0.92081161E-02  0.54352314E-01
     atom   15 type  1   force =  -0.64963411E-01  0.17174615E-01 -0.19425269E-01
     atom   16 type  3   force =  -0.34450285E-01  0.21779147E-01  0.10182680E-01
     The non-local contrib.  to forces
     atom    1 type  1   force =   0.18824704E-01 -0.10202884E-01 -0.14780943E-01
     atom    2 type  3   force =   0.38380509E-01 -0.88002067E-01  0.85155059E-01
     atom    3 type  2   force =  -0.14536585E+00  0.24789886E+00  0.14036768E+00
     atom    4 type  3   force =   0.13973779E+00 -0.10251077E+00  0.72219450E-01
     atom    5 type  1   force =  -0.47298138E-01 -0.24631151E-01  0.25712782E-01
     atom    6 type  3   force =   0.41170618E-01 -0.13977324E+00 -0.15031731E+00
     atom    7 type  2   force =  -0.64416042E-01 -0.26850211E+00  0.95466432E-01
     atom    8 type  3   force =   0.70210799E-01  0.58767506E-01 -0.10346965E+00
     atom    9 type  1   force =   0.10779355E-01 -0.21094116E-01  0.36571724E-01
     atom   10 type  3   force =  -0.11862314E+00  0.20827059E+00 -0.21808333E-01
     atom   11 type  1   force =  -0.50290242E-01 -0.55299440E-02 -0.24373112E-01
     atom   12 type  3   force =   0.76424381E-01  0.10361775E+00  0.78438319E-01
     atom   13 type  2   force =   0.91757463E-01  0.16641308E+00  0.23501851E+00
     atom   14 type  3   force =  -0.27695439E-01  0.20204051E-01  0.11856630E+00
     atom   15 type  1   force =  -0.33675631E-01 -0.98377742E-02 -0.62962833E-01
     atom   16 type  3   force =  -0.18069706E+00  0.19465692E-01  0.11773581E+00
     The ionic contribution  to forces
     atom    1 type  1   force =   0.59102045E+00 -0.15459297E+01 -0.60224702E+00
     atom    2 type  3   force =  -0.18002604E+00  0.78345954E+00 -0.17748511E+01
     atom    3 type  2   force =  -0.44835426E+00  0.29257850E+01  0.24239538E+01
     atom    4 type  3   force =   0.19713591E+01  0.14378209E+01 -0.13628783E+00
     atom    5 type  1   force =  -0.16533544E+01 -0.77231205E+00  0.52873594E+00
     atom    6 type  3   force =   0.49435250E+00 -0.71635062E-01 -0.16427978E+01
     atom    7 type  2   force =  -0.12982382E+01 -0.19573429E+01  0.34504306E+00
     atom    8 type  3   force =   0.15859748E+01 -0.16752536E+01  0.34838158E+00
     atom    9 type  1   force =   0.15862914E+01  0.30780673E-01  0.17738609E+01
     atom   10 type  3   force =  -0.60723233E+00 -0.25933880E+01  0.95736434E+00
     atom   11 type  1   force =  -0.21275131E+01 -0.18583781E+01 -0.12830041E+01
     atom   12 type  3   force =  -0.11151820E+01  0.16579166E+01 -0.19784200E+00
     atom   13 type  2   force =   0.52788413E+00  0.27168156E+01  0.83599591E+00
     atom   14 type  3   force =   0.10115492E+01  0.16305532E+00  0.13293732E+01
     atom   15 type  1   force =  -0.89093688E+00 -0.54224470E+00 -0.18250244E+01
     atom   16 type  3   force =   0.55240558E+00  0.13008502E+01 -0.10806545E+01
     The local contribution  to forces
     atom    1 type  1   force =  -0.62022863E+00  0.15286195E+01  0.63576435E+00
     atom    2 type  3   force =   0.15611396E+00 -0.70536391E+00  0.16868775E+01
     atom    3 type  2   force =   0.62440482E+00 -0.31636554E+01 -0.25495678E+01
     atom    4 type  3   force =  -0.20205440E+01 -0.13307219E+01  0.82117559E-01
     atom    5 type  1   force =   0.16786820E+01  0.79156693E+00 -0.54417694E+00
     atom    6 type  3   force =  -0.52405822E+00  0.17341343E+00  0.17005299E+01
     atom    7 type  2   force =   0.13269478E+01  0.22119229E+01 -0.46218089E+00
     atom    8 type  3   force =  -0.15922029E+01  0.16179695E+01 -0.26318085E+00
     atom    9 type  1   force =  -0.15752903E+01  0.53791216E-02 -0.17457644E+01
     atom   10 type  3   force =   0.69653897E+00  0.24033456E+01 -0.92491650E+00
     atom   11 type  1   force =   0.21180934E+01  0.18208234E+01  0.12500584E+01
     atom   12 type  3   force =   0.10378209E+01 -0.17186351E+01  0.14012777E+00
     atom   13 type  2   force =  -0.60924549E+00 -0.28853123E+01 -0.10832615E+01
     atom   14 type  3   force =  -0.96483799E+00 -0.17355305E+00 -0.13923184E+01
     atom   15 type  1   force =   0.85947527E+00  0.56984926E+00  0.18696701E+01
     atom   16 type  3   force =  -0.40761042E+00 -0.12979780E+01  0.97363307E+00
     The core correction contribution to forces
     atom    1 type  1   force =   0.73798064E-03  0.37318997E-03 -0.80161173E-03
     atom    2 type  3   force =  -0.61346739E-03  0.38560401E-03 -0.13546499E-03
     atom    3 type  2   force =   0.00000000E+00  0.00000000E+00  0.00000000E+00
     atom    4 type  3   force =  -0.21537396E-02  0.46513062E-03 -0.67852680E-03
     atom    5 type  1   force =  -0.93696975E-03 -0.36086648E-03  0.45680142E-03
     atom    6 type  3   force =  -0.31510644E-03  0.11433052E-02  0.24480544E-02
     atom    7 type  2   force =   0.00000000E+00  0.00000000E+00  0.00000000E+00
     atom    8 type  3   force =  -0.13543166E-02 -0.10984272E-03  0.54039468E-03
     atom    9 type  1   force =   0.65732863E-04 -0.82614550E-03  0.43882456E-03
     atom   10 type  3   force =   0.87857921E-03 -0.97052635E-03 -0.13630092E-03
     atom   11 type  1   force =  -0.57885014E-03  0.64851663E-03  0.71422313E-03
     atom   12 type  3   force =  -0.19863791E-03 -0.13123909E-02 -0.87683541E-03
     atom   13 type  2   force =   0.00000000E+00  0.00000000E+00  0.00000000E+00
     atom   14 type  3   force =  -0.43816447E-03 -0.49933609E-03 -0.12701531E-02
     atom   15 type  1   force =   0.16856522E-03 -0.59480449E-03 -0.11160914E-02
     atom   16 type  3   force =   0.14529207E-02 -0.55971147E-03 -0.53132661E-03
     The Hubbard contrib.    to forces
     atom    1 type  1   force =   0.00000000E+00  0.00000000E+00  0.00000000E+00
     atom    2 type  3   force =   0.00000000E+00  0.00000000E+00  0.00000000E+00
     atom    3 type  2   force =   0.00000000E+00  0.00000000E+00  0.00000000E+00
     atom    4 type  3   force =   0.00000000E+00  0.00000000E+00  0.00000000E+00
     atom    5 type  1   force =   0.00000000E+00  0.00000000E+00  0.00000000E+00
     atom    6 type  3   force =   0.00000000E+00  0.00000000E+00  0.00000000E+00
     atom    7 type  2   force =   0.00000000E+00  0.00000000E+00  0.00000000E+00
     atom    8 type  3   force =   0.00000000E+00  0.00000000E+00  0.00000000E+00
     atom    9 type  1   force =   0.00000000E+00  0.00000000E+00  0.00000000E+00
     atom   10 type  3   force =   0.00000000E+00  0.00000000E+00  0.00000000E+00
     atom   11 type  1   force =   0.00000000E+00  0.00000000E+00  0.00000000E+00
     atom   12 type  3   force =   0.00000000E+00  0.00000000E+00  0.00000000E+00
     atom   13 type  2   force =   0.00000000E+00  0.00000000E+00  0.00000000E+00
     atom   14 type  3   force =   0.00000000E+00  0.00000000E+00  0.00000000E+00
     atom   15 type  1   force =   0.00000000E+00  0.00000000E+00  0.00000000E+00
     atom   16 type  3   force =   0.00000000E+00  0.00000000E+00  0.00000000E+00
     The SCF correction term to forces
     atom    1 type  1   force =  -0.66072162E-05  0.12995472E-05 -0.45844869E-05
     atom    2 type  3   force =   0.10912754E-05 -0.34465664E-05  0.26600015E-05
     atom    3 type  2   force =   0.50161550E-05  0.90226954E-06  0.59307689E-05
     atom    4 type  3   force =  -0.72368342E-06 -0.20881988E-05 -0.42346730E-05
     atom    5 type  1   force =   0.72495440E-05  0.87795625E-05  0.53741661E-05
     atom    6 type  3   force =  -0.14730848E-05 -0.20535542E-05 -0.81473351E-06
     atom    7 type  2   force =  -0.92521248E-05 -0.30318052E-05 -0.24321099E-05
     atom    8 type  3   force =   0.13359869E-05  0.33931495E-05 -0.17986689E-05
     atom    9 type  1   force =   0.69758700E-05  0.60696520E-05 -0.77580185E-06
     atom   10 type  3   force =  -0.11628533E-05  0.54712638E-06  0.28142162E-05
     atom   11 type  1   force =  -0.58903064E-05 -0.66916259E-05 -0.39398325E-05
     atom   12 type  3   force =   0.33259648E-05 -0.45820210E-07  0.13985689E-05
     atom   13 type  2   force =  -0.40162475E-05 -0.15167186E-04 -0.15274960E-04
     atom   14 type  3   force =  -0.26684365E-05  0.10276130E-05  0.11775993E-05
     atom   15 type  1   force =   0.48917564E-05  0.25269802E-05  0.76661259E-05
     atom   16 type  3   force =  -0.16702065E-05  0.83836964E-06 -0.69915141E-06

     Total force =     0.233471     Total SCF correction =     0.000035


     entering subroutine stress ...

          total   stress  (Ry/bohr**3)                   (kbar)     P=   -8.84
   0.0001202518  -0.0002153733  -0.0002841228         17.69    -31.68    -41.80
  -0.0002153733  -0.0003058332  -0.0000135362        -31.68    -44.99     -1.99
  -0.0002841228  -0.0000135362   0.0000053823        -41.80     -1.99      0.79

     kinetic stress (kbar)  19318.28    -13.90    -22.95
                              -13.90  19214.94     -9.02
                              -22.95     -9.02  19302.70

     local   stress (kbar)  -5941.21   -109.37   -236.59
                             -109.37  -1957.37    398.59
                             -236.59    398.59  -3467.72

     nonloc. stress (kbar)   4793.67      0.85      3.54
                                0.85   4799.93     -2.16
                                3.54     -2.16   4786.40

     hartree stress (kbar)  10182.26     39.32    106.20
                               39.32   8738.52   -152.34
                              106.20   -152.34   9236.28

     exc-cor stress (kbar)  -4440.39      0.39      0.44
                                0.39  -4443.87     -0.30
                                0.44     -0.30  -4441.99

     corecor stress (kbar)  -1135.95      0.03      0.04
                                0.03  -1135.61      0.05
                                0.04      0.05  -1135.86

     ewald   stress (kbar) -22758.97     51.00    107.52
                               51.00 -25261.52   -236.80
                              107.52   -236.80 -24279.02

     hubbard stress (kbar)      0.00      0.00      0.00
                                0.00      0.00      0.00
                                0.00      0.00      0.00

     london  stress (kbar)      0.00      0.00      0.00
                                0.00      0.00      0.00
                                0.00      0.00      0.00

     XDM     stress (kbar)      0.00      0.00      0.00
                                0.00      0.00      0.00
                                0.00      0.00      0.00

     dft-nl  stress (kbar)      0.00      0.00      0.00
                                0.00      0.00      0.00
                                0.00      0.00      0.00



     Writing output data file mix.dummy46173.save

     init_run     :     18.90s CPU     20.37s WALL (       1 calls)
     electrons    :    739.89s CPU    804.20s WALL (       1 calls)
     forces       :      5.72s CPU      6.14s WALL (       1 calls)
     stress       :     10.85s CPU     11.06s WALL (       1 calls)

     Called by init_run:
     wfcinit      :     17.10s CPU     18.55s WALL (       1 calls)
     potinit      :      0.50s CPU      0.51s WALL (       1 calls)

     Called by electrons:
     c_bands      :    646.26s CPU    704.55s WALL (      20 calls)
     sum_band     :     86.69s CPU     92.51s WALL (      20 calls)
     v_of_rho     :      0.79s CPU      0.83s WALL (      21 calls)
     v_h          :      0.05s CPU      0.05s WALL (      21 calls)
     v_xc         :      0.83s CPU      0.87s WALL (      23 calls)
     newd         :      4.68s CPU      4.73s WALL (      21 calls)
     mix_rho      :      1.60s CPU      1.68s WALL (      20 calls)

     Called by c_bands:
     init_us_2    :      3.45s CPU      3.42s WALL (    1548 calls)
     cegterg      :    620.05s CPU    677.31s WALL (     720 calls)

     Called by sum_band:
     sum_band:bec :      0.94s CPU      0.86s WALL (     720 calls)
     addusdens    :      4.42s CPU      4.49s WALL (      20 calls)

     Called by *egterg:
     h_psi        :    344.75s CPU    363.55s WALL (    2179 calls)
     s_psi        :     29.84s CPU     32.15s WALL (    2179 calls)
     g_psi        :      0.33s CPU      0.33s WALL (    1423 calls)
     cdiaghg      :     73.65s CPU     85.61s WALL (    2143 calls)
     cegterg:over :     88.70s CPU     98.13s WALL (    1423 calls)
     cegterg:upda :     10.54s CPU     13.84s WALL (    1423 calls)
     cegterg:last :      6.75s CPU      8.26s WALL (     720 calls)

     Called by h_psi:
     h_psi:vloc   :    232.82s CPU    238.41s WALL (    2179 calls)
     h_psi:vnl    :    111.41s CPU    124.64s WALL (    2179 calls)
     add_vuspsi   :     30.45s CPU     34.78s WALL (    2179 calls)

     General routines
     calbec       :    114.60s CPU    128.50s WALL (    2971 calls)
     fft          :      1.38s CPU      1.41s WALL (     357 calls)
     ffts         :      0.98s CPU      1.06s WALL (     548 calls)
     fftw         :    267.19s CPU    273.47s WALL (  263710 calls)
     interpolate  :      0.18s CPU      0.17s WALL (      41 calls)

     Parallel routines
     fft_scatter  :    119.23s CPU    122.49s WALL (  264615 calls)

     PWSCF        : 12m57.99s CPU    14m 5.09s WALL


   This run was terminated on:   0: 0:22   8Dec2017            

=------------------------------------------------------------------------------=
   JOB DONE.
=------------------------------------------------------------------------------=
