
     Program PWSCF v.5.1 starts on  8Dec2017 at  2: 2: 2 

     This program is part of the open-source Quantum ESPRESSO suite
     for quantum simulation of materials; please cite
         "P. Giannozzi et al., J. Phys.:Condens. Matter 21 395502 (2009);
          URL http://www.quantum-espresso.org", 
     in publications or presentations arising from this work. More details at
     http://www.quantum-espresso.org/quote

     Parallel version (MPI), running on    16 processors
     R & G space division:  proc/nbgrp/npool/nimage =      16
     Waiting for input...
     Reading input from standard input
Warning: card &IONS ignored
Warning: card   ION_DYNAMICS='BFGS', ignored
Warning: card / ignored
Warning: card &CELL ignored
Warning: card  CELL_DYNAMICS = 'BFGS' ignored
Warning: card / ignored

     Current dimensions of program PWSCF are:
     Max number of different atomic species (ntypx) = 10
     Max number of k-points (npk) =  40000
     Max angular momentum in pseudopotentials (lmaxx) =  3
 kfg - two_fermi_energies  F

     Subspace diagonalization in iterative solution of the eigenvalue problem:
     a serial algorithm will be used


     Parallelization info
     --------------------
     sticks:   dense  smooth     PW     G-vecs:    dense   smooth      PW
     Min         128     102     29                 3775     2695     419
     Max         129     103     30                 3776     2716     421
     Sum        2053    1641    475                60411    43253    6721



     bravais-lattice index     =            0
     lattice parameter (alat)  =    12.014028595  a.u.
     unit-cell volume          =    1266.0225 (a.u.)^3
     number of atoms/cell      =           16
     number of atomic types    =            3
     number of electrons       =       128.00
     number of Kohn-Sham states=           64
     kinetic-energy cutoff     =      40.0000  Ry
     charge density cutoff     =     200.0000  Ry
     convergence threshold     =      1.0E-10
     mixing beta               =       0.3000
     number of iterations used =            8  local-TF  mixing
     Exchange-correlation      = SLA  PW   PSX  PSC ( 1  4 10  8 0)
     A smooth kinetic-energy cutoff is imposed at      39.5000 Ry
     height of the smooth step-function =             800.0000 Ry
     width of the smooth step-function  =               1.0000 Ry


     celldm(1)=  12.014029  celldm(2)=   0.000000  celldm(3)=   0.000000
     celldm(4)=   0.000000  celldm(5)=   0.000000  celldm(6)=   0.000000

     crystal axes: (cart. coord. in units of alat)
               a(1) = (  -0.001392285297   0.717162352282   0.696904743857 )  
               a(2) = (   0.716632349841  -0.024034041742   0.719546500302 )  
               a(3) = (   0.694469493502   0.717641252388  -0.001871185403 )  

     reciprocal axes: (cart. coord. in units 2 pi/alat)
               b(1) = ( -0.707217  0.686279  0.727276 )  
               b(2) = (  0.686861 -0.662901  0.683543 )  
               b(3) = (  0.729749  0.685432 -0.703899 )  


     PseudoPot. # 1 for Ca read from file:
     /users/kfg/psuedo/gbrv_1.5/ca.pbesol.UPF
     MD5 check sum: 0533207b58cddeaa036efa5b63902087
     Pseudo is Ultrasoft + core correction, Zval = 10.0
     Generated by new atomic code, or converted to UPF format
     Using radial grid of  845 points,  6 beta functions with: 
                l(1) =   0
                l(2) =   0
                l(3) =   1
                l(4) =   1
                l(5) =   2
                l(6) =   2
     Q(r) pseudized with  8 coefficients,  rinner =    1.500   1.500   1.500
                                                       1.500   1.500

     PseudoPot. # 2 for Mg read from file:
     /users/kfg/psuedo/gbrv_1.5/mg.pbesol.UPF
     MD5 check sum: 4059f37963cf5867752dbf5ab2400678
     Pseudo is Ultrasoft, Zval = 10.0
     Generated by new atomic code, or converted to UPF format
     Using radial grid of  821 points,  7 beta functions with: 
                l(1) =   0
                l(2) =   0
                l(3) =   0
                l(4) =   1
                l(5) =   1
                l(6) =   2
                l(7) =   2
     Q(r) pseudized with  8 coefficients,  rinner =    1.200   1.200   1.200
                                                       1.200   1.200

     PseudoPot. # 3 for O  read from file:
     /users/kfg/psuedo/gbrv_1.5/o.pbesol.UPF
     MD5 check sum: 501638753501ef6325af9037351f7734
     Pseudo is Ultrasoft + core correction, Zval =  6.0
     Generated by new atomic code, or converted to UPF format
     Using radial grid of  737 points,  5 beta functions with: 
                l(1) =   0
                l(2) =   0
                l(3) =   1
                l(4) =   1
                l(5) =   2
     Q(r) pseudized with  8 coefficients,  rinner =    0.900   0.900   0.900
                                                       0.900   0.900

     atomic species   valence    mass     pseudopotential
        Ca            10.00    40.07800     Ca( 1.00)
        Mg            10.00    40.07800     Mg( 1.00)
        O              6.00    15.99940     O ( 1.00)

     No symmetry found


                                    s                        frac. trans.

      isym =  1     identity                                     

 cryst.   s( 1) = (     1          0          0      )
                  (     0          1          0      )
                  (     0          0          1      )

 cart.    s( 1) = (  1.0000000  0.0000000 -0.0000000 )
                  (  0.0000000  1.0000000 -0.0000000 )
                  ( -0.0000000  0.0000000  1.0000000 )


     point group C_1 (1)    
     there are  1 classes
     the character table:

       E    
A      1.00

     the symmetry operations in each class:
     E        1

   Cartesian axes

     site n.     atom                  positions (alat units)
         1           Ca  tau(   1) = (   -0.00701547302   -0.01061566267    0.00831484555  )
         2           O   tau(   2) = (    0.37389059790    0.35314274355    0.37668959491  )
         3           Mg  tau(   3) = (    0.33400217179    0.34320295298   -0.03136768102  )
         4           O   tau(   4) = (    0.67605756182    0.68831339418    0.38319150864  )
         5           Ca  tau(   5) = (    0.36174438163    0.00475326834    0.37730891930  )
         6           O   tau(   6) = (    0.73831796583    0.33851097890    0.68985186805  )
         7           Mg  tau(   7) = (    0.69535959175    0.33242837167    0.36463508018  )
         8           O   tau(   8) = (    1.03218017937    0.70320401609    0.73150386700  )
         9           Ca  tau(   9) = (    0.00628007538    0.35679729118    0.33448198501  )
        10           O   tau(  10) = (    0.35858754822    0.74061245490    0.72182305987  )
        11           Mg  tau(  11) = (    0.33588664237    0.70060671732    0.33007461688  )
        12           O   tau(  12) = (    0.69436476518    1.09267433580    0.70455723922  )
        13           Ca  tau(  13) = (    0.34320658171    0.38675834187    0.71953067652  )
        14           O   tau(  14) = (    0.73762357141    0.69625858104    1.03995812914  )
        15           Mg  tau(  15) = (    0.70598123723    0.72199510677    0.69359183030  )
        16           O   tau(  16) = (    1.07178994971    1.01597448566    1.04333481299  )

   Crystallographic axes

     site n.     atom                  positions (cryst. coord.)
         1           Ca  tau(   1) = (    0.00372335154    0.00790202936   -0.01824866181  )
         2           O   tau(   2) = (    0.25188968382    0.28019566285    0.24975038579  )
         3           Mg  tau(   3) = (   -0.02349229740   -0.01953760007    0.50105979213  )
         4           O   tau(   4) = (    0.27294105645    0.27000179246    0.69541651457  )
         5           Ca  tau(   5) = (    0.02183787622    0.50322403518    0.00165329560  )
         6           O   tau(   6) = (    0.21187424850    0.75426593265    0.28522719769  )
         7           Mg  tau(   7) = (    0.00155839847    0.50649211419    0.47862883917  )
         8           O   tau(   8) = (    0.28462328542    0.74282400553    0.72032644812  )
         9           Ca  tau(   9) = (    0.48368172587   -0.00357512056    0.01370189112  )
        10           O   tau(  10) = (    0.77963176590    0.24874388286    0.26122832821  )
        11           Mg  tau(  11) = (    0.48332187809   -0.00810540063    0.49299236297  )
        12           O   tau(  12) = (    0.77121976439    0.23419212143    0.75972937293  )
        13           Ca  tau(  13) = (    0.54599975073    0.47118266878    0.00907459012  )
        14           O   tau(  14) = (    0.71250378220    0.75595021439    0.28349294431  )
        15           Mg  tau(  15) = (    0.50064028704    0.48039941295    0.52184943266  )
        16           O   tau(  16) = (    0.69804544275    0.77584424862    0.74411726642  )

     number of k points=    36
                       cart. coord. in units 2pi/alat
        k(    1) = (   0.0000000   0.0000000   0.0000000), wk =   0.0312500
        k(    2) = (   0.1824372   0.1713581  -0.1759747), wk =   0.0625000
        k(    3) = (  -0.3648744  -0.3427162   0.3519494), wk =   0.0312500
        k(    4) = (   0.1717154  -0.1657253   0.1708857), wk =   0.0625000
        k(    5) = (   0.3541525   0.0056328  -0.0050890), wk =   0.0625000
        k(    6) = (  -0.1931590  -0.5084415   0.5228350), wk =   0.0625000
        k(    7) = (  -0.0107218  -0.3370834   0.3468603), wk =   0.0625000
        k(    8) = (  -0.3434307   0.3314506  -0.3417713), wk =   0.0312500
        k(    9) = (  -0.1609935   0.5028087  -0.5177460), wk =   0.0625000
        k(   10) = (  -0.7083051  -0.0112656   0.0101780), wk =   0.0312500
        k(   11) = (  -0.1768044   0.1715697   0.1818190), wk =   0.0625000
        k(   12) = (   0.0056328   0.3429278   0.0058443), wk =   0.0625000
        k(   13) = (  -0.5416788  -0.1711466   0.5337684), wk =   0.0625000
        k(   14) = (  -0.3592416   0.0002115   0.3577937), wk =   0.0625000
        k(   15) = (  -0.0050890   0.0058443   0.3527047), wk =   0.0625000
        k(   16) = (   0.1773482   0.1772025   0.1767300), wk =   0.0625000
        k(   17) = (  -0.3699634  -0.3368719   0.7046540), wk =   0.0625000
        k(   18) = (  -0.1875262  -0.1655138   0.5286794), wk =   0.0625000
        k(   19) = (  -0.5202351   0.5030203  -0.1599523), wk =   0.0625000
        k(   20) = (  -0.3377979   0.6743784  -0.3359270), wk =   0.0625000
        k(   21) = (  -0.8851095   0.1603040   0.1919971), wk =   0.0625000
        k(   22) = (  -0.7026723   0.3316621   0.0160224), wk =   0.0625000
        k(   23) = (  -0.3485197   0.3372950   0.0109334), wk =   0.0625000
        k(   24) = (  -0.1660825   0.5086531  -0.1650413), wk =   0.0625000
        k(   25) = (  -0.7133941  -0.0054213   0.3628827), wk =   0.0625000
        k(   26) = (  -0.5309569   0.1659368   0.1869080), wk =   0.0625000
        k(   27) = (   0.3536087  -0.3431393  -0.3636381), wk =   0.0312500
        k(   28) = (   0.5360459  -0.1717812  -0.5396127), wk =   0.0625000
        k(   29) = (  -0.0112656  -0.6858555  -0.0116887), wk =   0.0312500
        k(   30) = (   0.5253241  -0.5088646  -0.1927524), wk =   0.0625000
        k(   31) = (   0.7077613  -0.3375065  -0.3687271), wk =   0.0625000
        k(   32) = (   0.1604497  -0.8515808   0.1591970), wk =   0.0625000
        k(   33) = (   0.3428869  -0.6802227  -0.0167777), wk =   0.0625000
        k(   34) = (   0.0101780  -0.0116887  -0.7054094), wk =   0.0312500
        k(   35) = (   0.1926152   0.1596694  -0.8813840), wk =   0.0625000
        k(   36) = (  -0.3546963  -0.3544049  -0.3534600), wk =   0.0312500

                       cryst. coord.
        k(    1) = (   0.0000000   0.0000000   0.0000000), wk =   0.0312500
        k(    2) = (  -0.0000000   0.0000000   0.2500000), wk =   0.0625000
        k(    3) = (   0.0000000   0.0000000  -0.5000000), wk =   0.0312500
        k(    4) = (   0.0000000   0.2500000  -0.0000000), wk =   0.0625000
        k(    5) = (  -0.0000000   0.2500000   0.2500000), wk =   0.0625000
        k(    6) = (   0.0000000   0.2500000  -0.5000000), wk =   0.0625000
        k(    7) = (   0.0000000   0.2500000  -0.2500000), wk =   0.0625000
        k(    8) = (   0.0000000  -0.5000000   0.0000000), wk =   0.0312500
        k(    9) = (  -0.0000000  -0.5000000   0.2500000), wk =   0.0625000
        k(   10) = (   0.0000000  -0.5000000  -0.5000000), wk =   0.0312500
        k(   11) = (   0.2500000  -0.0000000  -0.0000000), wk =   0.0625000
        k(   12) = (   0.2500000  -0.0000000   0.2500000), wk =   0.0625000
        k(   13) = (   0.2500000  -0.0000000  -0.5000000), wk =   0.0625000
        k(   14) = (   0.2500000   0.0000000  -0.2500000), wk =   0.0625000
        k(   15) = (   0.2500000   0.2500000  -0.0000000), wk =   0.0625000
        k(   16) = (   0.2500000   0.2500000   0.2500000), wk =   0.0625000
        k(   17) = (   0.2500000   0.2500000  -0.5000000), wk =   0.0625000
        k(   18) = (   0.2500000   0.2500000  -0.2500000), wk =   0.0625000
        k(   19) = (   0.2500000  -0.5000000  -0.0000000), wk =   0.0625000
        k(   20) = (   0.2500000  -0.5000000   0.2500000), wk =   0.0625000
        k(   21) = (   0.2500000  -0.5000000  -0.5000000), wk =   0.0625000
        k(   22) = (   0.2500000  -0.5000000  -0.2500000), wk =   0.0625000
        k(   23) = (   0.2500000  -0.2500000   0.0000000), wk =   0.0625000
        k(   24) = (   0.2500000  -0.2500000   0.2500000), wk =   0.0625000
        k(   25) = (   0.2500000  -0.2500000  -0.5000000), wk =   0.0625000
        k(   26) = (   0.2500000  -0.2500000  -0.2500000), wk =   0.0625000
        k(   27) = (  -0.5000000   0.0000000   0.0000000), wk =   0.0312500
        k(   28) = (  -0.5000000   0.0000000   0.2500000), wk =   0.0625000
        k(   29) = (  -0.5000000   0.0000000  -0.5000000), wk =   0.0312500
        k(   30) = (  -0.5000000   0.2500000   0.0000000), wk =   0.0625000
        k(   31) = (  -0.5000000   0.2500000   0.2500000), wk =   0.0625000
        k(   32) = (  -0.5000000   0.2500000  -0.5000000), wk =   0.0625000
        k(   33) = (  -0.5000000   0.2500000  -0.2500000), wk =   0.0625000
        k(   34) = (  -0.5000000  -0.5000000   0.0000000), wk =   0.0312500
        k(   35) = (  -0.5000000  -0.5000000   0.2500000), wk =   0.0625000
        k(   36) = (  -0.5000000  -0.5000000  -0.5000000), wk =   0.0312500

     Dense  grid:    60411 G-vectors     FFT dimensions: (  60,  60,  60)

     Smooth grid:    43253 G-vectors     FFT dimensions: (  50,  50,  50)

     Largest allocated arrays     est. size (Mb)     dimensions
        Kohn-Sham Wavefunctions         0.34 Mb     (     349,   64)
        NL pseudopotentials             1.34 Mb     (     349,  252)
        Each V/rho on FFT grid          0.22 Mb     (   14400)
        Each G-vector array             0.03 Mb     (    3776)
        G-vector shells                 0.03 Mb     (    3736)
     Largest temporary arrays     est. size (Mb)     dimensions
        Auxiliary wavefunctions         1.36 Mb     (     349,  256)
        Each subspace H/S matrix        1.00 Mb     (     256,  256)
        Each <psi_i|beta_j> matrix      0.25 Mb     (     252,   64)
        Arrays for rho mixing           1.76 Mb     (   14400,    8)

     Check: negative/imaginary core charge=   -0.000003    0.000000

     Initial potential from superposition of free atoms

     starting charge  126.77837, renormalised to  128.00000
     Starting wfc are   92 randomized atomic wfcs

     total cpu time spent up to now is       16.9 secs

     Self-consistent Calculation

     iteration #  1     ecut=    40.00 Ry     beta=0.30
     Davidson diagonalization with overlap
     ethr =  1.00E-02,  avg # of iterations =  2.0

     total cpu time spent up to now is       52.4 secs

     total energy              =   -1059.94182851 Ry
     Harris-Foulkes estimate   =   -1060.55536781 Ry
     estimated scf accuracy    <       3.14278129 Ry

     iteration #  2     ecut=    40.00 Ry     beta=0.30
     Davidson diagonalization with overlap
     ethr =  2.46E-03,  avg # of iterations =  1.6

     total cpu time spent up to now is       81.4 secs

     total energy              =   -1059.48675701 Ry
     Harris-Foulkes estimate   =   -1060.03806769 Ry
     estimated scf accuracy    <       1.33967960 Ry

     iteration #  3     ecut=    40.00 Ry     beta=0.30
     Davidson diagonalization with overlap
     ethr =  1.05E-03,  avg # of iterations =  2.0

     total cpu time spent up to now is      118.3 secs

     total energy              =   -1059.70747799 Ry
     Harris-Foulkes estimate   =   -1059.74411328 Ry
     estimated scf accuracy    <       0.14696615 Ry

     iteration #  4     ecut=    40.00 Ry     beta=0.30
     Davidson diagonalization with overlap
     ethr =  1.15E-04,  avg # of iterations =  2.0

     total cpu time spent up to now is      153.5 secs

     total energy              =   -1059.67285072 Ry
     Harris-Foulkes estimate   =   -1059.72383695 Ry
     estimated scf accuracy    <       0.09030112 Ry

     iteration #  5     ecut=    40.00 Ry     beta=0.30
     Davidson diagonalization with overlap
     ethr =  7.05E-05,  avg # of iterations =  2.0

     total cpu time spent up to now is      191.9 secs

     total energy              =   -1059.68728930 Ry
     Harris-Foulkes estimate   =   -1059.68822030 Ry
     estimated scf accuracy    <       0.01218575 Ry

     iteration #  6     ecut=    40.00 Ry     beta=0.30
     Davidson diagonalization with overlap
     ethr =  9.52E-06,  avg # of iterations =  1.0

     total cpu time spent up to now is      220.3 secs

     total energy              =   -1059.68517363 Ry
     Harris-Foulkes estimate   =   -1059.68752497 Ry
     estimated scf accuracy    <       0.00687543 Ry

     iteration #  7     ecut=    40.00 Ry     beta=0.30
     Davidson diagonalization with overlap
     ethr =  5.37E-06,  avg # of iterations =  2.0

     total cpu time spent up to now is      254.7 secs

     total energy              =   -1059.68565731 Ry
     Harris-Foulkes estimate   =   -1059.68580092 Ry
     estimated scf accuracy    <       0.00055091 Ry

     iteration #  8     ecut=    40.00 Ry     beta=0.30
     Davidson diagonalization with overlap
     ethr =  4.30E-07,  avg # of iterations =  2.2

     total cpu time spent up to now is      292.3 secs

     total energy              =   -1059.68568868 Ry
     Harris-Foulkes estimate   =   -1059.68571614 Ry
     estimated scf accuracy    <       0.00008251 Ry

     iteration #  9     ecut=    40.00 Ry     beta=0.30
     Davidson diagonalization with overlap
     ethr =  6.45E-08,  avg # of iterations =  2.9

     total cpu time spent up to now is      332.9 secs

     total energy              =   -1059.68570094 Ry
     Harris-Foulkes estimate   =   -1059.68570154 Ry
     estimated scf accuracy    <       0.00000761 Ry

     iteration # 10     ecut=    40.00 Ry     beta=0.30
     Davidson diagonalization with overlap
     ethr =  5.95E-09,  avg # of iterations =  2.0

     total cpu time spent up to now is      368.2 secs

     total energy              =   -1059.68570034 Ry
     Harris-Foulkes estimate   =   -1059.68570169 Ry
     estimated scf accuracy    <       0.00000445 Ry

     iteration # 11     ecut=    40.00 Ry     beta=0.30
     Davidson diagonalization with overlap
     ethr =  3.48E-09,  avg # of iterations =  2.0

     total cpu time spent up to now is      403.8 secs

     total energy              =   -1059.68570080 Ry
     Harris-Foulkes estimate   =   -1059.68570088 Ry
     estimated scf accuracy    <       0.00000044 Ry

     iteration # 12     ecut=    40.00 Ry     beta=0.30
     Davidson diagonalization with overlap
     ethr =  3.42E-10,  avg # of iterations =  2.0

     total cpu time spent up to now is      441.0 secs

     total energy              =   -1059.68570079 Ry
     Harris-Foulkes estimate   =   -1059.68570083 Ry
     estimated scf accuracy    <       0.00000015 Ry

     iteration # 13     ecut=    40.00 Ry     beta=0.30
     Davidson diagonalization with overlap
     ethr =  1.14E-10,  avg # of iterations =  2.0

     total cpu time spent up to now is      476.9 secs

     total energy              =   -1059.68570081 Ry
     Harris-Foulkes estimate   =   -1059.68570081 Ry
     estimated scf accuracy    <       0.00000004 Ry

     iteration # 14     ecut=    40.00 Ry     beta=0.30
     Davidson diagonalization with overlap
     ethr =  2.84E-11,  avg # of iterations =  2.0

     total cpu time spent up to now is      512.6 secs

     total energy              =   -1059.68570081 Ry
     Harris-Foulkes estimate   =   -1059.68570081 Ry
     estimated scf accuracy    <       0.00000001 Ry

     iteration # 15     ecut=    40.00 Ry     beta=0.30
     Davidson diagonalization with overlap
     ethr =  8.73E-12,  avg # of iterations =  2.0

     total cpu time spent up to now is      547.5 secs

     total energy              =   -1059.68570081 Ry
     Harris-Foulkes estimate   =   -1059.68570081 Ry
     estimated scf accuracy    <          3.2E-09 Ry

     iteration # 16     ecut=    40.00 Ry     beta=0.30
     Davidson diagonalization with overlap
     ethr =  2.52E-12,  avg # of iterations =  2.0

     total cpu time spent up to now is      584.1 secs

     total energy              =   -1059.68570081 Ry
     Harris-Foulkes estimate   =   -1059.68570081 Ry
     estimated scf accuracy    <          7.0E-10 Ry

     iteration # 17     ecut=    40.00 Ry     beta=0.30
     Davidson diagonalization with overlap
     ethr =  5.51E-13,  avg # of iterations =  2.0

     total cpu time spent up to now is      626.7 secs

     total energy              =   -1059.68570081 Ry
     Harris-Foulkes estimate   =   -1059.68570081 Ry
     estimated scf accuracy    <          1.8E-10 Ry

     iteration # 18     ecut=    40.00 Ry     beta=0.30
     Davidson diagonalization with overlap
     ethr =  1.44E-13,  avg # of iterations =  1.9

     total cpu time spent up to now is      661.2 secs

     End of self-consistent calculation

          k = 0.0000 0.0000 0.0000 (  5393 PWs)   bands (ev):

   -64.9853 -64.9370 -64.7937 -64.5533 -31.9763 -31.9646 -31.9441 -31.9249
   -31.8944 -31.8749 -31.8115 -31.7612 -31.7195 -31.5586 -31.5381 -31.4835
   -29.7043 -29.5521 -29.4860 -29.1481 -11.7479 -11.7045 -11.6394 -11.3891
   -10.9117 -10.7798 -10.7079 -10.6776 -10.5810 -10.5391 -10.3527 -10.2872
    -8.5104  -7.7752  -7.7217  -7.6978  -7.3349  -7.0645  -6.9666  -6.8169
     3.8385   4.0102   4.0742   4.1944   5.0461   5.1435   5.1798   6.1741
     6.3037   6.3501   6.3599   6.4564   6.4650   6.5192   6.5838   6.7197
     6.7725   6.8206   6.9663   6.9863   7.0558   7.3414   7.6271   7.7272

     occupation numbers 
     1.0000   1.0000   1.0000   1.0000   1.0000   1.0000   1.0000   1.0000
     1.0000   1.0000   1.0000   1.0000   1.0000   1.0000   1.0000   1.0000
     1.0000   1.0000   1.0000   1.0000   1.0000   1.0000   1.0000   1.0000
     1.0000   1.0000   1.0000   1.0000   1.0000   1.0000   1.0000   1.0000
     1.0000   1.0000   1.0000   1.0000   1.0000   1.0000   1.0000   1.0000
     1.0000   1.0000   1.0000   1.0000   1.0000   1.0000   1.0000   1.0000
     1.0000   1.0000   1.0000   1.0000   1.0000   1.0000   1.0000   1.0000
     1.0000   1.0000   1.0000   1.0000   1.0000   1.0000   1.0000   1.0000

          k = 0.1824 0.1714-0.1760 (  5420 PWs)   bands (ev):

   -64.9853 -64.9370 -64.7937 -64.5533 -31.9764 -31.9647 -31.9442 -31.9249
   -31.8944 -31.8749 -31.8116 -31.7612 -31.7195 -31.5587 -31.5381 -31.4835
   -29.7039 -29.5517 -29.4859 -29.1479 -11.7449 -11.7063 -11.6407 -11.4343
   -10.9101 -10.7768 -10.7064 -10.6776 -10.5793 -10.5370 -10.3532 -10.2872
    -8.2816  -7.8654  -7.7902  -7.7319  -7.3020  -7.0454  -7.0061  -6.8420
     4.0647   4.2374   4.3236   4.5413   4.9201   4.9956   5.0500   5.8873
     6.1059   6.1474   6.2323   6.2661   6.4137   6.5033   6.6528   6.7629
     6.8133   6.9017   6.9477   6.9853   7.1079   7.1957   7.3000   7.5725

     occupation numbers 
     1.0000   1.0000   1.0000   1.0000   1.0000   1.0000   1.0000   1.0000
     1.0000   1.0000   1.0000   1.0000   1.0000   1.0000   1.0000   1.0000
     1.0000   1.0000   1.0000   1.0000   1.0000   1.0000   1.0000   1.0000
     1.0000   1.0000   1.0000   1.0000   1.0000   1.0000   1.0000   1.0000
     1.0000   1.0000   1.0000   1.0000   1.0000   1.0000   1.0000   1.0000
     1.0000   1.0000   1.0000   1.0000   1.0000   1.0000   1.0000   1.0000
     1.0000   1.0000   1.0000   1.0000   1.0000   1.0000   1.0000   1.0000
     1.0000   1.0000   1.0000   1.0000   1.0000   1.0000   1.0000   1.0000

          k =-0.3649-0.3427 0.3519 (  5420 PWs)   bands (ev):

   -64.9853 -64.9370 -64.7937 -64.5533 -31.9765 -31.9647 -31.9443 -31.9249
   -31.8945 -31.8749 -31.8117 -31.7613 -31.7195 -31.5588 -31.5382 -31.4835
   -29.7034 -29.5513 -29.4858 -29.1477 -11.7422 -11.7089 -11.6442 -11.4735
   -10.9080 -10.7736 -10.7049 -10.6776 -10.5775 -10.5343 -10.3537 -10.2873
    -7.9602  -7.9092  -7.8267  -7.7783  -7.5023  -7.0823  -6.9686  -6.8167
     4.5179   4.5640   4.5721   4.7556   4.8893   4.9374   5.1132   5.6020
     5.7208   5.8228   6.0396   6.0628   6.1149   6.3519   6.4964   6.7943
     6.8282   6.9284   7.0211   7.0469   7.1618   7.2084   7.2416   7.4493

     occupation numbers 
     1.0000   1.0000   1.0000   1.0000   1.0000   1.0000   1.0000   1.0000
     1.0000   1.0000   1.0000   1.0000   1.0000   1.0000   1.0000   1.0000
     1.0000   1.0000   1.0000   1.0000   1.0000   1.0000   1.0000   1.0000
     1.0000   1.0000   1.0000   1.0000   1.0000   1.0000   1.0000   1.0000
     1.0000   1.0000   1.0000   1.0000   1.0000   1.0000   1.0000   1.0000
     1.0000   1.0000   1.0000   1.0000   1.0000   1.0000   1.0000   1.0000
     1.0000   1.0000   1.0000   1.0000   1.0000   1.0000   1.0000   1.0000
     1.0000   1.0000   1.0000   1.0000   1.0000   1.0000   1.0000   1.0000

          k = 0.1717-0.1657 0.1709 (  5387 PWs)   bands (ev):

   -64.9853 -64.9370 -64.7937 -64.5533 -31.9762 -31.9645 -31.9441 -31.9242
   -31.8948 -31.8752 -31.8116 -31.7613 -31.7193 -31.5586 -31.5381 -31.4837
   -29.6976 -29.5572 -29.4862 -29.1498 -11.6907 -11.6087 -11.5255 -11.3256
   -10.9746 -10.8851 -10.8147 -10.7338 -10.6187 -10.5495 -10.4563 -10.3353
    -8.2768  -7.7213  -7.6253  -7.5909  -7.4146  -7.1339  -7.0366  -6.9151
     4.1363   4.2283   4.3092   4.4482   5.0021   5.1037   5.2081   5.7637
     5.9697   6.1109   6.2042   6.2626   6.3686   6.4550   6.5850   6.7622
     6.7883   6.8677   6.9563   7.0489   7.1366   7.1787   7.5470   7.6250

     occupation numbers 
     1.0000   1.0000   1.0000   1.0000   1.0000   1.0000   1.0000   1.0000
     1.0000   1.0000   1.0000   1.0000   1.0000   1.0000   1.0000   1.0000
     1.0000   1.0000   1.0000   1.0000   1.0000   1.0000   1.0000   1.0000
     1.0000   1.0000   1.0000   1.0000   1.0000   1.0000   1.0000   1.0000
     1.0000   1.0000   1.0000   1.0000   1.0000   1.0000   1.0000   1.0000
     1.0000   1.0000   1.0000   1.0000   1.0000   1.0000   1.0000   1.0000
     1.0000   1.0000   1.0000   1.0000   1.0000   1.0000   1.0000   1.0000
     1.0000   1.0000   1.0000   1.0000   1.0000   1.0000   1.0000   1.0000

          k = 0.3542 0.0056-0.0051 (  5408 PWs)   bands (ev):

   -64.9853 -64.9370 -64.7937 -64.5533 -31.9763 -31.9645 -31.9442 -31.9242
   -31.8948 -31.8752 -31.8116 -31.7613 -31.7193 -31.5587 -31.5382 -31.4837
   -29.6974 -29.5568 -29.4862 -29.1497 -11.6917 -11.6124 -11.5207 -11.3426
   -10.9822 -10.8832 -10.8127 -10.7312 -10.6166 -10.5502 -10.4545 -10.3349
    -8.2105  -7.7579  -7.6641  -7.5829  -7.3612  -7.1240  -7.0703  -6.9316
     4.1997   4.2794   4.4032   4.5049   4.9277   5.1889   5.3016   5.7825
     5.9871   6.1207   6.1786   6.3279   6.3737   6.4571   6.5372   6.6272
     6.7303   6.8076   6.8664   6.9553   7.0542   7.1098   7.4073   7.5860

     occupation numbers 
     1.0000   1.0000   1.0000   1.0000   1.0000   1.0000   1.0000   1.0000
     1.0000   1.0000   1.0000   1.0000   1.0000   1.0000   1.0000   1.0000
     1.0000   1.0000   1.0000   1.0000   1.0000   1.0000   1.0000   1.0000
     1.0000   1.0000   1.0000   1.0000   1.0000   1.0000   1.0000   1.0000
     1.0000   1.0000   1.0000   1.0000   1.0000   1.0000   1.0000   1.0000
     1.0000   1.0000   1.0000   1.0000   1.0000   1.0000   1.0000   1.0000
     1.0000   1.0000   1.0000   1.0000   1.0000   1.0000   1.0000   1.0000
     1.0000   1.0000   1.0000   1.0000   1.0000   1.0000   1.0000   1.0000

          k =-0.1932-0.5084 0.5228 (  5414 PWs)   bands (ev):

   -64.9853 -64.9370 -64.7937 -64.5533 -31.9764 -31.9646 -31.9443 -31.9243
   -31.8949 -31.8752 -31.8117 -31.7614 -31.7194 -31.5588 -31.5382 -31.4838
   -29.6969 -29.5564 -29.4861 -29.1495 -11.6924 -11.6119 -11.5241 -11.3874
   -10.9791 -10.8828 -10.8111 -10.7254 -10.6119 -10.5487 -10.4516 -10.3346
    -7.9032  -7.8412  -7.7083  -7.6437  -7.4648  -7.1584  -7.0507  -6.9110
     4.4630   4.5327   4.6791   4.8658   4.8957   5.0834   5.1152   5.7043
     5.8566   5.9451   5.9945   6.1075   6.1587   6.3986   6.4739   6.6002
     6.7144   6.7513   6.8500   6.9713   7.0564   7.1446   7.2337   7.4627

     occupation numbers 
     1.0000   1.0000   1.0000   1.0000   1.0000   1.0000   1.0000   1.0000
     1.0000   1.0000   1.0000   1.0000   1.0000   1.0000   1.0000   1.0000
     1.0000   1.0000   1.0000   1.0000   1.0000   1.0000   1.0000   1.0000
     1.0000   1.0000   1.0000   1.0000   1.0000   1.0000   1.0000   1.0000
     1.0000   1.0000   1.0000   1.0000   1.0000   1.0000   1.0000   1.0000
     1.0000   1.0000   1.0000   1.0000   1.0000   1.0000   1.0000   1.0000
     1.0000   1.0000   1.0000   1.0000   1.0000   1.0000   1.0000   1.0000
     1.0000   1.0000   1.0000   1.0000   1.0000   1.0000   1.0000   1.0000

          k =-0.0107-0.3371 0.3469 (  5391 PWs)   bands (ev):

   -64.9853 -64.9370 -64.7937 -64.5533 -31.9763 -31.9645 -31.9442 -31.9243
   -31.8948 -31.8752 -31.8116 -31.7613 -31.7194 -31.5587 -31.5382 -31.4838
   -29.6972 -29.5568 -29.4861 -29.1496 -11.6910 -11.6079 -11.5271 -11.3744
   -10.9719 -10.8847 -10.8131 -10.7276 -10.6139 -10.5480 -10.4531 -10.3349
    -7.9766  -7.8334  -7.7462  -7.6538  -7.3698  -7.1289  -7.0623  -6.9217
     4.3788   4.5551   4.5920   4.7404   4.7850   4.8980   5.3505   5.5314
     5.7548   5.8292   6.0609   6.2168   6.3864   6.4487   6.5804   6.6693
     6.7691   6.8270   6.9536   6.9982   7.1185   7.1932   7.2570   7.4906

     occupation numbers 
     1.0000   1.0000   1.0000   1.0000   1.0000   1.0000   1.0000   1.0000
     1.0000   1.0000   1.0000   1.0000   1.0000   1.0000   1.0000   1.0000
     1.0000   1.0000   1.0000   1.0000   1.0000   1.0000   1.0000   1.0000
     1.0000   1.0000   1.0000   1.0000   1.0000   1.0000   1.0000   1.0000
     1.0000   1.0000   1.0000   1.0000   1.0000   1.0000   1.0000   1.0000
     1.0000   1.0000   1.0000   1.0000   1.0000   1.0000   1.0000   1.0000
     1.0000   1.0000   1.0000   1.0000   1.0000   1.0000   1.0000   1.0000
     1.0000   1.0000   1.0000   1.0000   1.0000   1.0000   1.0000   1.0000

          k =-0.3434 0.3315-0.3418 (  5404 PWs)   bands (ev):

   -64.9853 -64.9370 -64.7937 -64.5533 -31.9762 -31.9644 -31.9441 -31.9235
   -31.8952 -31.8755 -31.8116 -31.7613 -31.7192 -31.5586 -31.5382 -31.4840
   -29.6904 -29.5627 -29.4866 -29.1515 -11.6051 -11.5023 -11.2991 -11.1969
   -11.0968 -11.0751 -11.0284 -10.7906 -10.6446 -10.6041 -10.5070 -10.3501
    -7.8676  -7.8062  -7.6370  -7.4830  -7.3481  -7.1870  -7.1706  -7.0604
     4.5630   4.6355   4.7462   4.8409   4.9183   5.0152   5.2791   5.3519
     5.4415   5.6476   5.9460   6.0122   6.1795   6.2378   6.5103   6.7114
     6.8880   6.9986   7.0850   7.1632   7.2167   7.2340   7.3831   7.4907

     occupation numbers 
     1.0000   1.0000   1.0000   1.0000   1.0000   1.0000   1.0000   1.0000
     1.0000   1.0000   1.0000   1.0000   1.0000   1.0000   1.0000   1.0000
     1.0000   1.0000   1.0000   1.0000   1.0000   1.0000   1.0000   1.0000
     1.0000   1.0000   1.0000   1.0000   1.0000   1.0000   1.0000   1.0000
     1.0000   1.0000   1.0000   1.0000   1.0000   1.0000   1.0000   1.0000
     1.0000   1.0000   1.0000   1.0000   1.0000   1.0000   1.0000   1.0000
     1.0000   1.0000   1.0000   1.0000   1.0000   1.0000   1.0000   1.0000
     1.0000   1.0000   1.0000   1.0000   1.0000   1.0000   1.0000   1.0000

          k =-0.1610 0.5028-0.5177 (  5399 PWs)   bands (ev):

   -64.9853 -64.9370 -64.7937 -64.5533 -31.9762 -31.9644 -31.9442 -31.9236
   -31.8953 -31.8755 -31.8116 -31.7614 -31.7192 -31.5587 -31.5382 -31.4840
   -29.6902 -29.5623 -29.4865 -29.1514 -11.6083 -11.5065 -11.3016 -11.1914
   -11.1053 -11.0780 -11.0330 -10.7865 -10.6411 -10.6032 -10.5074 -10.3499
    -7.9553  -7.6302  -7.5864  -7.4898  -7.4276  -7.2549  -7.1530  -7.0480
     4.5078   4.5392   4.6788   4.8037   5.1072   5.1829   5.3168   5.4773
     5.6603   5.6951   5.8525   6.1148   6.2773   6.3879   6.4845   6.6646
     6.7940   6.8359   6.9015   6.9627   7.0085   7.1281   7.2893   7.5120

     occupation numbers 
     1.0000   1.0000   1.0000   1.0000   1.0000   1.0000   1.0000   1.0000
     1.0000   1.0000   1.0000   1.0000   1.0000   1.0000   1.0000   1.0000
     1.0000   1.0000   1.0000   1.0000   1.0000   1.0000   1.0000   1.0000
     1.0000   1.0000   1.0000   1.0000   1.0000   1.0000   1.0000   1.0000
     1.0000   1.0000   1.0000   1.0000   1.0000   1.0000   1.0000   1.0000
     1.0000   1.0000   1.0000   1.0000   1.0000   1.0000   1.0000   1.0000
     1.0000   1.0000   1.0000   1.0000   1.0000   1.0000   1.0000   1.0000
     1.0000   1.0000   1.0000   1.0000   1.0000   1.0000   1.0000   1.0000

          k =-0.7083-0.0113 0.0102 (  5410 PWs)   bands (ev):

   -64.9853 -64.9370 -64.7937 -64.5533 -31.9762 -31.9644 -31.9442 -31.9236
   -31.8953 -31.8755 -31.8117 -31.7615 -31.7192 -31.5588 -31.5383 -31.4840
   -29.6899 -29.5620 -29.4865 -29.1512 -11.6109 -11.5106 -11.2970 -11.1954
   -11.1150 -11.0818 -11.0344 -10.7820 -10.6380 -10.6026 -10.5077 -10.3498
    -7.8634  -7.7737  -7.5429  -7.4441  -7.4059  -7.2362  -7.1871  -7.0762
     4.4355   4.4941   4.6446   4.7361   5.3365   5.4439   5.4816   5.5806
     5.6911   5.7849   6.0286   6.1874   6.2866   6.3292   6.3902   6.5030
     6.5923   6.5948   6.6880   6.7864   7.0325   7.1340   7.2528   7.4659

     occupation numbers 
     1.0000   1.0000   1.0000   1.0000   1.0000   1.0000   1.0000   1.0000
     1.0000   1.0000   1.0000   1.0000   1.0000   1.0000   1.0000   1.0000
     1.0000   1.0000   1.0000   1.0000   1.0000   1.0000   1.0000   1.0000
     1.0000   1.0000   1.0000   1.0000   1.0000   1.0000   1.0000   1.0000
     1.0000   1.0000   1.0000   1.0000   1.0000   1.0000   1.0000   1.0000
     1.0000   1.0000   1.0000   1.0000   1.0000   1.0000   1.0000   1.0000
     1.0000   1.0000   1.0000   1.0000   1.0000   1.0000   1.0000   1.0000
     1.0000   1.0000   1.0000   1.0000   1.0000   1.0000   1.0000   1.0000

          k =-0.1768 0.1716 0.1818 (  5421 PWs)   bands (ev):

   -64.9853 -64.9370 -64.7937 -64.5533 -31.9764 -31.9645 -31.9441 -31.9247
   -31.8941 -31.8748 -31.8117 -31.7616 -31.7196 -31.5587 -31.5382 -31.4836
   -29.6991 -29.5446 -29.4970 -29.1497 -11.6511 -11.6175 -11.5404 -11.3328
   -10.9793 -10.8490 -10.8185 -10.7385 -10.6273 -10.5712 -10.4815 -10.3154
    -8.2711  -7.7193  -7.6596  -7.6127  -7.3802  -7.1664  -7.0388  -6.8649
     4.0715   4.2719   4.3772   4.5013   5.0818   5.1410   5.1549   5.8594
     6.0363   6.1257   6.1785   6.2660   6.3726   6.4537   6.5466   6.6998
     6.7802   6.8274   6.9315   6.9475   7.1362   7.2105   7.3418   7.5970

     occupation numbers 
     1.0000   1.0000   1.0000   1.0000   1.0000   1.0000   1.0000   1.0000
     1.0000   1.0000   1.0000   1.0000   1.0000   1.0000   1.0000   1.0000
     1.0000   1.0000   1.0000   1.0000   1.0000   1.0000   1.0000   1.0000
     1.0000   1.0000   1.0000   1.0000   1.0000   1.0000   1.0000   1.0000
     1.0000   1.0000   1.0000   1.0000   1.0000   1.0000   1.0000   1.0000
     1.0000   1.0000   1.0000   1.0000   1.0000   1.0000   1.0000   1.0000
     1.0000   1.0000   1.0000   1.0000   1.0000   1.0000   1.0000   1.0000
     1.0000   1.0000   1.0000   1.0000   1.0000   1.0000   1.0000   1.0000

          k = 0.0056 0.3429 0.0058 (  5412 PWs)   bands (ev):

   -64.9853 -64.9370 -64.7937 -64.5533 -31.9763 -31.9646 -31.9441 -31.9247
   -31.8941 -31.8748 -31.8117 -31.7615 -31.7196 -31.5586 -31.5382 -31.4836
   -29.6991 -29.5446 -29.4970 -29.1497 -11.6552 -11.6132 -11.5425 -11.3389
   -10.9827 -10.8498 -10.8172 -10.7361 -10.6267 -10.5682 -10.4807 -10.3156
    -8.2356  -7.7730  -7.6261  -7.6189  -7.3878  -7.1204  -7.0674  -6.8777
     4.1370   4.2488   4.3424   4.5192   4.8593   5.2573   5.2868   5.8480
     5.9955   6.0907   6.2168   6.2870   6.4178   6.5235   6.5712   6.6443
     6.7322   6.8107   6.8725   6.9802   7.0855   7.2010   7.3322   7.5484

     occupation numbers 
     1.0000   1.0000   1.0000   1.0000   1.0000   1.0000   1.0000   1.0000
     1.0000   1.0000   1.0000   1.0000   1.0000   1.0000   1.0000   1.0000
     1.0000   1.0000   1.0000   1.0000   1.0000   1.0000   1.0000   1.0000
     1.0000   1.0000   1.0000   1.0000   1.0000   1.0000   1.0000   1.0000
     1.0000   1.0000   1.0000   1.0000   1.0000   1.0000   1.0000   1.0000
     1.0000   1.0000   1.0000   1.0000   1.0000   1.0000   1.0000   1.0000
     1.0000   1.0000   1.0000   1.0000   1.0000   1.0000   1.0000   1.0000
     1.0000   1.0000   1.0000   1.0000   1.0000   1.0000   1.0000   1.0000

          k =-0.5417-0.1711 0.5338 (  5411 PWs)   bands (ev):

   -64.9853 -64.9370 -64.7937 -64.5533 -31.9764 -31.9646 -31.9442 -31.9247
   -31.8941 -31.8748 -31.8118 -31.7616 -31.7197 -31.5587 -31.5383 -31.4836
   -29.6987 -29.5442 -29.4970 -29.1495 -11.6528 -11.6116 -11.5527 -11.3837
   -10.9787 -10.8480 -10.8132 -10.7327 -10.6264 -10.5634 -10.4772 -10.3155
    -7.8969  -7.8468  -7.7466  -7.6781  -7.4352  -7.1688  -7.0380  -6.8772
     4.4304   4.5118   4.6321   4.8044   4.9577   5.0557   5.1576   5.6425
     5.8117   5.9597   6.0679   6.1494   6.1598   6.3310   6.4834   6.6381
     6.7646   6.8458   6.9662   6.9913   7.0414   7.1449   7.2356   7.3473

     occupation numbers 
     1.0000   1.0000   1.0000   1.0000   1.0000   1.0000   1.0000   1.0000
     1.0000   1.0000   1.0000   1.0000   1.0000   1.0000   1.0000   1.0000
     1.0000   1.0000   1.0000   1.0000   1.0000   1.0000   1.0000   1.0000
     1.0000   1.0000   1.0000   1.0000   1.0000   1.0000   1.0000   1.0000
     1.0000   1.0000   1.0000   1.0000   1.0000   1.0000   1.0000   1.0000
     1.0000   1.0000   1.0000   1.0000   1.0000   1.0000   1.0000   1.0000
     1.0000   1.0000   1.0000   1.0000   1.0000   1.0000   1.0000   1.0000
     1.0000   1.0000   1.0000   1.0000   1.0000   1.0000   1.0000   1.0000

          k =-0.3592 0.0002 0.3578 (  5412 PWs)   bands (ev):

   -64.9853 -64.9370 -64.7937 -64.5533 -31.9764 -31.9646 -31.9442 -31.9247
   -31.8942 -31.8748 -31.8117 -31.7616 -31.7196 -31.5588 -31.5382 -31.4836
   -29.6987 -29.5442 -29.4970 -29.1496 -11.6486 -11.6162 -11.5485 -11.3799
   -10.9762 -10.8465 -10.8147 -10.7349 -10.6271 -10.5666 -10.4779 -10.3153
    -7.9499  -7.8399  -7.7299  -7.6756  -7.4154  -7.1553  -7.0702  -6.8564
     4.3877   4.6106   4.6657   4.7806   4.8603   4.9293   5.3539   5.6052
     5.7781   5.8375   6.0873   6.1683   6.3448   6.3862   6.5037   6.5691
     6.6850   6.7717   6.8967   6.9608   7.0804   7.2368   7.2610   7.4693

     occupation numbers 
     1.0000   1.0000   1.0000   1.0000   1.0000   1.0000   1.0000   1.0000
     1.0000   1.0000   1.0000   1.0000   1.0000   1.0000   1.0000   1.0000
     1.0000   1.0000   1.0000   1.0000   1.0000   1.0000   1.0000   1.0000
     1.0000   1.0000   1.0000   1.0000   1.0000   1.0000   1.0000   1.0000
     1.0000   1.0000   1.0000   1.0000   1.0000   1.0000   1.0000   1.0000
     1.0000   1.0000   1.0000   1.0000   1.0000   1.0000   1.0000   1.0000
     1.0000   1.0000   1.0000   1.0000   1.0000   1.0000   1.0000   1.0000
     1.0000   1.0000   1.0000   1.0000   1.0000   1.0000   1.0000   1.0000

          k =-0.0051 0.0058 0.3527 (  5402 PWs)   bands (ev):

   -64.9853 -64.9370 -64.7937 -64.5533 -31.9763 -31.9644 -31.9441 -31.9244
   -31.8945 -31.8753 -31.8117 -31.7615 -31.7194 -31.5587 -31.5382 -31.4837
   -29.6979 -29.5465 -29.4959 -29.1502 -11.6525 -11.5848 -11.5259 -11.3425
   -10.9429 -10.8515 -10.8263 -10.7514 -10.6766 -10.6039 -10.4993 -10.3069
    -8.1873  -7.7721  -7.6392  -7.5702  -7.3628  -7.1584  -7.0504  -6.9330
     4.0964   4.3283   4.4241   4.5299   4.8911   5.1981   5.2907   5.8012
     5.9832   6.1206   6.2333   6.3211   6.4063   6.4820   6.5269   6.6336
     6.7267   6.7556   6.8253   6.9589   7.1366   7.1842   7.3117   7.6071

     occupation numbers 
     1.0000   1.0000   1.0000   1.0000   1.0000   1.0000   1.0000   1.0000
     1.0000   1.0000   1.0000   1.0000   1.0000   1.0000   1.0000   1.0000
     1.0000   1.0000   1.0000   1.0000   1.0000   1.0000   1.0000   1.0000
     1.0000   1.0000   1.0000   1.0000   1.0000   1.0000   1.0000   1.0000
     1.0000   1.0000   1.0000   1.0000   1.0000   1.0000   1.0000   1.0000
     1.0000   1.0000   1.0000   1.0000   1.0000   1.0000   1.0000   1.0000
     1.0000   1.0000   1.0000   1.0000   1.0000   1.0000   1.0000   1.0000
     1.0000   1.0000   1.0000   1.0000   1.0000   1.0000   1.0000   1.0000

          k = 0.1773 0.1772 0.1767 (  5413 PWs)   bands (ev):

   -64.9853 -64.9370 -64.7937 -64.5533 -31.9762 -31.9645 -31.9441 -31.9243
   -31.8945 -31.8752 -31.8116 -31.7614 -31.7194 -31.5586 -31.5382 -31.4837
   -29.6981 -29.5465 -29.4959 -29.1502 -11.6507 -11.5854 -11.5289 -11.3278
   -10.9425 -10.8473 -10.8274 -10.7561 -10.6756 -10.6053 -10.5011 -10.3067
    -8.2611  -7.7047  -7.6245  -7.5759  -7.3894  -7.1189  -7.0893  -6.9189
     4.0748   4.2551   4.4200   4.4612   5.0271   5.1146   5.2218   5.9218
     5.9924   6.0827   6.2270   6.3278   6.3756   6.4534   6.4869   6.6549
     6.7744   6.8365   6.9186   7.0142   7.1334   7.2248   7.4007   7.5368

     occupation numbers 
     1.0000   1.0000   1.0000   1.0000   1.0000   1.0000   1.0000   1.0000
     1.0000   1.0000   1.0000   1.0000   1.0000   1.0000   1.0000   1.0000
     1.0000   1.0000   1.0000   1.0000   1.0000   1.0000   1.0000   1.0000
     1.0000   1.0000   1.0000   1.0000   1.0000   1.0000   1.0000   1.0000
     1.0000   1.0000   1.0000   1.0000   1.0000   1.0000   1.0000   1.0000
     1.0000   1.0000   1.0000   1.0000   1.0000   1.0000   1.0000   1.0000
     1.0000   1.0000   1.0000   1.0000   1.0000   1.0000   1.0000   1.0000
     1.0000   1.0000   1.0000   1.0000   1.0000   1.0000   1.0000   1.0000

          k =-0.3700-0.3369 0.7047 (  5428 PWs)   bands (ev):

   -64.9853 -64.9370 -64.7937 -64.5533 -31.9763 -31.9645 -31.9442 -31.9244
   -31.8945 -31.8752 -31.8117 -31.7614 -31.7194 -31.5587 -31.5383 -31.4837
   -29.6976 -29.5461 -29.4959 -29.1500 -11.6461 -11.5901 -11.5297 -11.3780
   -10.9422 -10.8401 -10.8287 -10.7549 -10.6685 -10.6011 -10.4972 -10.3069
    -7.9724  -7.8233  -7.7171  -7.6094  -7.3739  -7.1938  -7.0334  -6.9389
     4.4259   4.5282   4.6406   4.7498   4.8181   4.9182   5.4232   5.6803
     5.7825   5.8305   6.0830   6.2322   6.3294   6.4347   6.4833   6.5984
     6.6395   6.7596   6.9093   6.9951   7.1180   7.1981   7.2924   7.3928

     occupation numbers 
     1.0000   1.0000   1.0000   1.0000   1.0000   1.0000   1.0000   1.0000
     1.0000   1.0000   1.0000   1.0000   1.0000   1.0000   1.0000   1.0000
     1.0000   1.0000   1.0000   1.0000   1.0000   1.0000   1.0000   1.0000
     1.0000   1.0000   1.0000   1.0000   1.0000   1.0000   1.0000   1.0000
     1.0000   1.0000   1.0000   1.0000   1.0000   1.0000   1.0000   1.0000
     1.0000   1.0000   1.0000   1.0000   1.0000   1.0000   1.0000   1.0000
     1.0000   1.0000   1.0000   1.0000   1.0000   1.0000   1.0000   1.0000
     1.0000   1.0000   1.0000   1.0000   1.0000   1.0000   1.0000   1.0000

          k =-0.1875-0.1655 0.5287 (  5404 PWs)   bands (ev):

   -64.9853 -64.9370 -64.7937 -64.5533 -31.9763 -31.9645 -31.9442 -31.9244
   -31.8945 -31.8753 -31.8117 -31.7615 -31.7194 -31.5588 -31.5383 -31.4837
   -29.6975 -29.5460 -29.4958 -29.1500 -11.6489 -11.5885 -11.5281 -11.3905
   -10.9413 -10.8447 -10.8279 -10.7503 -10.6693 -10.5998 -10.4957 -10.3070
    -7.8601  -7.8223  -7.7366  -7.6411  -7.4598  -7.1382  -7.0809  -6.9147
     4.3984   4.5970   4.6624   4.8311   4.9341   5.0862   5.1393   5.6334
     5.7698   5.9626   6.0465   6.1619   6.1857   6.3463   6.5487   6.6306
     6.6845   6.8164   6.8973   6.9764   7.0046   7.1474   7.2127   7.4295

     occupation numbers 
     1.0000   1.0000   1.0000   1.0000   1.0000   1.0000   1.0000   1.0000
     1.0000   1.0000   1.0000   1.0000   1.0000   1.0000   1.0000   1.0000
     1.0000   1.0000   1.0000   1.0000   1.0000   1.0000   1.0000   1.0000
     1.0000   1.0000   1.0000   1.0000   1.0000   1.0000   1.0000   1.0000
     1.0000   1.0000   1.0000   1.0000   1.0000   1.0000   1.0000   1.0000
     1.0000   1.0000   1.0000   1.0000   1.0000   1.0000   1.0000   1.0000
     1.0000   1.0000   1.0000   1.0000   1.0000   1.0000   1.0000   1.0000
     1.0000   1.0000   1.0000   1.0000   1.0000   1.0000   1.0000   1.0000

          k =-0.5202 0.5030-0.1600 (  5395 PWs)   bands (ev):

   -64.9853 -64.9370 -64.7937 -64.5533 -31.9762 -31.9643 -31.9441 -31.9237
   -31.8949 -31.8756 -31.8117 -31.7615 -31.7192 -31.5587 -31.5383 -31.4839
   -29.6910 -29.5520 -29.4960 -29.1518 -11.5545 -11.4466 -11.3328 -11.2373
   -11.1013 -11.0293 -10.9976 -10.8641 -10.6815 -10.6234 -10.5187 -10.3553
    -7.8522  -7.7435  -7.6390  -7.4380  -7.3424  -7.2298  -7.1910  -7.0827
     4.4542   4.6014   4.7005   4.7747   4.9825   5.1640   5.3769   5.5298
     5.6804   5.7581   5.8948   6.1249   6.2296   6.3863   6.4673   6.6227
     6.7434   6.8000   6.8888   6.9818   7.0915   7.2136   7.2633   7.4990

     occupation numbers 
     1.0000   1.0000   1.0000   1.0000   1.0000   1.0000   1.0000   1.0000
     1.0000   1.0000   1.0000   1.0000   1.0000   1.0000   1.0000   1.0000
     1.0000   1.0000   1.0000   1.0000   1.0000   1.0000   1.0000   1.0000
     1.0000   1.0000   1.0000   1.0000   1.0000   1.0000   1.0000   1.0000
     1.0000   1.0000   1.0000   1.0000   1.0000   1.0000   1.0000   1.0000
     1.0000   1.0000   1.0000   1.0000   1.0000   1.0000   1.0000   1.0000
     1.0000   1.0000   1.0000   1.0000   1.0000   1.0000   1.0000   1.0000
     1.0000   1.0000   1.0000   1.0000   1.0000   1.0000   1.0000   1.0000

          k =-0.3378 0.6744-0.3359 (  5424 PWs)   bands (ev):

   -64.9853 -64.9370 -64.7937 -64.5533 -31.9761 -31.9643 -31.9441 -31.9237
   -31.8949 -31.8756 -31.8117 -31.7615 -31.7192 -31.5587 -31.5383 -31.4839
   -29.6911 -29.5520 -29.4961 -29.1519 -11.5541 -11.4495 -11.3314 -11.2171
   -11.1013 -11.0374 -10.9891 -10.8708 -10.6844 -10.6242 -10.5201 -10.3548
    -7.9927  -7.6389  -7.5345  -7.4714  -7.3870  -7.2584  -7.1836  -7.0613
     4.4163   4.5541   4.6918   4.7515   5.0544   5.1618   5.3147   5.3668
     5.7059   5.8149   6.0135   6.1574   6.2633   6.3603   6.4277   6.5962
     6.6860   6.8251   6.9969   7.0247   7.1898   7.2438   7.3577   7.4045

     occupation numbers 
     1.0000   1.0000   1.0000   1.0000   1.0000   1.0000   1.0000   1.0000
     1.0000   1.0000   1.0000   1.0000   1.0000   1.0000   1.0000   1.0000
     1.0000   1.0000   1.0000   1.0000   1.0000   1.0000   1.0000   1.0000
     1.0000   1.0000   1.0000   1.0000   1.0000   1.0000   1.0000   1.0000
     1.0000   1.0000   1.0000   1.0000   1.0000   1.0000   1.0000   1.0000
     1.0000   1.0000   1.0000   1.0000   1.0000   1.0000   1.0000   1.0000
     1.0000   1.0000   1.0000   1.0000   1.0000   1.0000   1.0000   1.0000
     1.0000   1.0000   1.0000   1.0000   1.0000   1.0000   1.0000   1.0000

          k =-0.8851 0.1603 0.1920 (  5418 PWs)   bands (ev):

   -64.9853 -64.9370 -64.7937 -64.5533 -31.9762 -31.9644 -31.9442 -31.9237
   -31.8949 -31.8755 -31.8117 -31.7615 -31.7192 -31.5588 -31.5384 -31.4839
   -29.6909 -29.5516 -29.4961 -29.1518 -11.5541 -11.4545 -11.3257 -11.2389
   -11.1070 -11.0484 -10.9746 -10.8633 -10.6829 -10.6236 -10.5196 -10.3547
    -7.8821  -7.7157  -7.5894  -7.4432  -7.3649  -7.2596  -7.1724  -7.0871
     4.4464   4.6500   4.7385   4.7939   5.0439   5.1646   5.4683   5.5477
     5.7153   5.7743   5.9939   6.0574   6.2260   6.2974   6.5201   6.5648
     6.6038   6.7761   6.8512   6.9775   7.0156   7.1811   7.2946   7.3614

     occupation numbers 
     1.0000   1.0000   1.0000   1.0000   1.0000   1.0000   1.0000   1.0000
     1.0000   1.0000   1.0000   1.0000   1.0000   1.0000   1.0000   1.0000
     1.0000   1.0000   1.0000   1.0000   1.0000   1.0000   1.0000   1.0000
     1.0000   1.0000   1.0000   1.0000   1.0000   1.0000   1.0000   1.0000
     1.0000   1.0000   1.0000   1.0000   1.0000   1.0000   1.0000   1.0000
     1.0000   1.0000   1.0000   1.0000   1.0000   1.0000   1.0000   1.0000
     1.0000   1.0000   1.0000   1.0000   1.0000   1.0000   1.0000   1.0000
     1.0000   1.0000   1.0000   1.0000   1.0000   1.0000   1.0000   1.0000

          k =-0.7027 0.3317 0.0160 (  5418 PWs)   bands (ev):

   -64.9853 -64.9370 -64.7937 -64.5533 -31.9762 -31.9643 -31.9442 -31.9237
   -31.8950 -31.8756 -31.8117 -31.7616 -31.7192 -31.5588 -31.5383 -31.4839
   -29.6907 -29.5516 -29.4960 -29.1517 -11.5552 -11.4517 -11.3289 -11.2576
   -11.1044 -11.0376 -10.9850 -10.8581 -10.6799 -10.6230 -10.5181 -10.3551
    -7.8169  -7.6936  -7.6020  -7.4912  -7.4068  -7.2434  -7.1769  -7.0750
     4.4933   4.6892   4.7566   4.8198   4.9544   5.3259   5.3762   5.6401
     5.6892   5.7743   5.8404   6.0712   6.2893   6.4176   6.4507   6.5572
     6.6099   6.7219   6.8762   6.9243   6.9561   7.1274   7.1621   7.3793

     occupation numbers 
     1.0000   1.0000   1.0000   1.0000   1.0000   1.0000   1.0000   1.0000
     1.0000   1.0000   1.0000   1.0000   1.0000   1.0000   1.0000   1.0000
     1.0000   1.0000   1.0000   1.0000   1.0000   1.0000   1.0000   1.0000
     1.0000   1.0000   1.0000   1.0000   1.0000   1.0000   1.0000   1.0000
     1.0000   1.0000   1.0000   1.0000   1.0000   1.0000   1.0000   1.0000
     1.0000   1.0000   1.0000   1.0000   1.0000   1.0000   1.0000   1.0000
     1.0000   1.0000   1.0000   1.0000   1.0000   1.0000   1.0000   1.0000
     1.0000   1.0000   1.0000   1.0000   1.0000   1.0000   1.0000   1.0000

          k =-0.3485 0.3373 0.0109 (  5399 PWs)   bands (ev):

   -64.9853 -64.9370 -64.7937 -64.5533 -31.9763 -31.9644 -31.9441 -31.9241
   -31.8945 -31.8751 -31.8117 -31.7616 -31.7195 -31.5587 -31.5382 -31.4838
   -29.6923 -29.5500 -29.4972 -29.1514 -11.5554 -11.4825 -11.3831 -11.2171
   -11.1177 -11.0289 -10.9438 -10.8645 -10.6588 -10.5865 -10.4525 -10.4136
    -8.0269  -7.6149  -7.5876  -7.4984  -7.4150  -7.2896  -7.1478  -6.9738
     4.4619   4.5278   4.6000   4.7691   5.0429   5.1336   5.2694   5.4357
     5.7375   5.8441   6.0217   6.1786   6.2741   6.3677   6.4489   6.6574
     6.7117   6.8553   6.9444   7.0165   7.0856   7.2053   7.2924   7.4722

     occupation numbers 
     1.0000   1.0000   1.0000   1.0000   1.0000   1.0000   1.0000   1.0000
     1.0000   1.0000   1.0000   1.0000   1.0000   1.0000   1.0000   1.0000
     1.0000   1.0000   1.0000   1.0000   1.0000   1.0000   1.0000   1.0000
     1.0000   1.0000   1.0000   1.0000   1.0000   1.0000   1.0000   1.0000
     1.0000   1.0000   1.0000   1.0000   1.0000   1.0000   1.0000   1.0000
     1.0000   1.0000   1.0000   1.0000   1.0000   1.0000   1.0000   1.0000
     1.0000   1.0000   1.0000   1.0000   1.0000   1.0000   1.0000   1.0000
     1.0000   1.0000   1.0000   1.0000   1.0000   1.0000   1.0000   1.0000

          k =-0.1661 0.5087-0.1650 (  5383 PWs)   bands (ev):

   -64.9853 -64.9370 -64.7937 -64.5533 -31.9762 -31.9644 -31.9441 -31.9241
   -31.8945 -31.8751 -31.8117 -31.7616 -31.7195 -31.5587 -31.5383 -31.4838
   -29.6923 -29.5500 -29.4971 -29.1514 -11.5583 -11.4772 -11.3894 -11.2282
   -11.1235 -11.0274 -10.9304 -10.8670 -10.6579 -10.5840 -10.4523 -10.4131
    -7.9146  -7.7094  -7.6336  -7.5114  -7.3947  -7.2306  -7.1695  -6.9858
     4.4506   4.5535   4.6393   4.7968   5.0101   5.1537   5.3739   5.5404
     5.6487   5.7403   5.9100   6.1247   6.2386   6.3728   6.5323   6.6236
     6.7458   6.8413   6.9206   7.0146   7.0578   7.1654   7.3336   7.4714

     occupation numbers 
     1.0000   1.0000   1.0000   1.0000   1.0000   1.0000   1.0000   1.0000
     1.0000   1.0000   1.0000   1.0000   1.0000   1.0000   1.0000   1.0000
     1.0000   1.0000   1.0000   1.0000   1.0000   1.0000   1.0000   1.0000
     1.0000   1.0000   1.0000   1.0000   1.0000   1.0000   1.0000   1.0000
     1.0000   1.0000   1.0000   1.0000   1.0000   1.0000   1.0000   1.0000
     1.0000   1.0000   1.0000   1.0000   1.0000   1.0000   1.0000   1.0000
     1.0000   1.0000   1.0000   1.0000   1.0000   1.0000   1.0000   1.0000
     1.0000   1.0000   1.0000   1.0000   1.0000   1.0000   1.0000   1.0000

          k =-0.7134-0.0054 0.3629 (  5398 PWs)   bands (ev):

   -64.9853 -64.9370 -64.7937 -64.5533 -31.9763 -31.9645 -31.9442 -31.9241
   -31.8945 -31.8751 -31.8118 -31.7616 -31.7195 -31.5588 -31.5383 -31.4838
   -29.6920 -29.5496 -29.4972 -29.1513 -11.5621 -11.4735 -11.3974 -11.2464
   -11.1210 -11.0253 -10.9345 -10.8558 -10.6586 -10.5826 -10.4526 -10.4118
    -7.8076  -7.7372  -7.5762  -7.5503  -7.4689  -7.2687  -7.1532  -6.9760
     4.4770   4.6564   4.7758   4.8711   4.9837   5.2961   5.3799   5.5492
     5.6522   5.7616   5.8279   6.0456   6.3267   6.4035   6.4533   6.5637
     6.6551   6.7268   6.8532   6.9612   7.0418   7.1045   7.2201   7.3387

     occupation numbers 
     1.0000   1.0000   1.0000   1.0000   1.0000   1.0000   1.0000   1.0000
     1.0000   1.0000   1.0000   1.0000   1.0000   1.0000   1.0000   1.0000
     1.0000   1.0000   1.0000   1.0000   1.0000   1.0000   1.0000   1.0000
     1.0000   1.0000   1.0000   1.0000   1.0000   1.0000   1.0000   1.0000
     1.0000   1.0000   1.0000   1.0000   1.0000   1.0000   1.0000   1.0000
     1.0000   1.0000   1.0000   1.0000   1.0000   1.0000   1.0000   1.0000
     1.0000   1.0000   1.0000   1.0000   1.0000   1.0000   1.0000   1.0000
     1.0000   1.0000   1.0000   1.0000   1.0000   1.0000   1.0000   1.0000

          k =-0.5310 0.1659 0.1869 (  5404 PWs)   bands (ev):

   -64.9853 -64.9370 -64.7937 -64.5533 -31.9763 -31.9644 -31.9442 -31.9241
   -31.8946 -31.8751 -31.8117 -31.7617 -31.7195 -31.5588 -31.5383 -31.4838
   -29.6921 -29.5496 -29.4972 -29.1513 -11.5591 -11.4784 -11.3879 -11.2388
   -11.1157 -11.0300 -10.9463 -10.8523 -10.6594 -10.5853 -10.4526 -10.4122
    -7.8711  -7.7470  -7.6142  -7.5095  -7.3996  -7.2426  -7.1794  -6.9783
     4.4541   4.6405   4.7327   4.8439   5.0389   5.1829   5.4395   5.4957
     5.6791   5.8567   5.9389   6.0765   6.2429   6.3128   6.5152   6.5662
     6.6640   6.6989   6.8524   6.9734   7.0429   7.1152   7.2496   7.4231

     occupation numbers 
     1.0000   1.0000   1.0000   1.0000   1.0000   1.0000   1.0000   1.0000
     1.0000   1.0000   1.0000   1.0000   1.0000   1.0000   1.0000   1.0000
     1.0000   1.0000   1.0000   1.0000   1.0000   1.0000   1.0000   1.0000
     1.0000   1.0000   1.0000   1.0000   1.0000   1.0000   1.0000   1.0000
     1.0000   1.0000   1.0000   1.0000   1.0000   1.0000   1.0000   1.0000
     1.0000   1.0000   1.0000   1.0000   1.0000   1.0000   1.0000   1.0000
     1.0000   1.0000   1.0000   1.0000   1.0000   1.0000   1.0000   1.0000
     1.0000   1.0000   1.0000   1.0000   1.0000   1.0000   1.0000   1.0000

          k = 0.3536-0.3431-0.3636 (  5408 PWs)   bands (ev):

   -64.9853 -64.9370 -64.7937 -64.5533 -31.9764 -31.9644 -31.9441 -31.9246
   -31.8938 -31.8747 -31.8118 -31.7619 -31.7197 -31.5588 -31.5383 -31.4836
   -29.6939 -29.5265 -29.5189 -29.1514 -11.5227 -11.5001 -11.3524 -11.2397
   -11.1407 -11.0233 -10.9464 -10.8180 -10.6667 -10.6118 -10.5584 -10.3286
    -7.8698  -7.7402  -7.6905  -7.5363  -7.3594  -7.2962  -7.1569  -6.9064
     4.5202   4.7208   4.7810   4.9262   4.9691   5.0680   5.4008   5.4771
     5.6042   5.7150   5.9081   6.0192   6.0984   6.2934   6.4036   6.5273
     6.8014   6.9034   6.9325   7.0580   7.1291   7.2162   7.2747   7.4559

     occupation numbers 
     1.0000   1.0000   1.0000   1.0000   1.0000   1.0000   1.0000   1.0000
     1.0000   1.0000   1.0000   1.0000   1.0000   1.0000   1.0000   1.0000
     1.0000   1.0000   1.0000   1.0000   1.0000   1.0000   1.0000   1.0000
     1.0000   1.0000   1.0000   1.0000   1.0000   1.0000   1.0000   1.0000
     1.0000   1.0000   1.0000   1.0000   1.0000   1.0000   1.0000   1.0000
     1.0000   1.0000   1.0000   1.0000   1.0000   1.0000   1.0000   1.0000
     1.0000   1.0000   1.0000   1.0000   1.0000   1.0000   1.0000   1.0000
     1.0000   1.0000   1.0000   1.0000   1.0000   1.0000   1.0000   1.0000

          k = 0.5360-0.1718-0.5396 (  5409 PWs)   bands (ev):

   -64.9853 -64.9370 -64.7937 -64.5533 -31.9763 -31.9645 -31.9441 -31.9245
   -31.8938 -31.8747 -31.8118 -31.7619 -31.7198 -31.5588 -31.5383 -31.4836
   -29.6939 -29.5265 -29.5188 -29.1514 -11.5233 -11.5075 -11.3515 -11.2322
   -11.1497 -11.0153 -10.9561 -10.8152 -10.6665 -10.6084 -10.5571 -10.3288
    -7.9477  -7.6824  -7.5748  -7.5452  -7.4131  -7.3120  -7.1580  -6.9158
     4.4138   4.5803   4.6384   4.8673   5.1694   5.2593   5.3525   5.5391
     5.6648   5.7596   5.9812   6.0584   6.0976   6.3761   6.5819   6.6042
     6.6939   6.7858   6.8675   6.9720   7.0685   7.1757   7.2489   7.3600

     occupation numbers 
     1.0000   1.0000   1.0000   1.0000   1.0000   1.0000   1.0000   1.0000
     1.0000   1.0000   1.0000   1.0000   1.0000   1.0000   1.0000   1.0000
     1.0000   1.0000   1.0000   1.0000   1.0000   1.0000   1.0000   1.0000
     1.0000   1.0000   1.0000   1.0000   1.0000   1.0000   1.0000   1.0000
     1.0000   1.0000   1.0000   1.0000   1.0000   1.0000   1.0000   1.0000
     1.0000   1.0000   1.0000   1.0000   1.0000   1.0000   1.0000   1.0000
     1.0000   1.0000   1.0000   1.0000   1.0000   1.0000   1.0000   1.0000
     1.0000   1.0000   1.0000   1.0000   1.0000   1.0000   1.0000   1.0000

          k =-0.0113-0.6859-0.0117 (  5400 PWs)   bands (ev):

   -64.9853 -64.9370 -64.7937 -64.5533 -31.9763 -31.9645 -31.9442 -31.9245
   -31.8938 -31.8747 -31.8119 -31.7618 -31.7198 -31.5587 -31.5384 -31.4837
   -29.6938 -29.5266 -29.5188 -29.1514 -11.5228 -11.5152 -11.3454 -11.2320
   -11.1550 -11.0085 -10.9691 -10.8123 -10.6658 -10.6047 -10.5559 -10.3289
    -7.8925  -7.7942  -7.5277  -7.4744  -7.4425  -7.3200  -7.1560  -6.9340
     4.3442   4.4481   4.5591   4.7514   5.3766   5.4379   5.4644   5.6104
     5.7260   5.7528   6.0577   6.1208   6.2555   6.3262   6.4205   6.4944
     6.5923   6.6747   6.8405   6.9553   7.0271   7.1280   7.2479   7.4461

     occupation numbers 
     1.0000   1.0000   1.0000   1.0000   1.0000   1.0000   1.0000   1.0000
     1.0000   1.0000   1.0000   1.0000   1.0000   1.0000   1.0000   1.0000
     1.0000   1.0000   1.0000   1.0000   1.0000   1.0000   1.0000   1.0000
     1.0000   1.0000   1.0000   1.0000   1.0000   1.0000   1.0000   1.0000
     1.0000   1.0000   1.0000   1.0000   1.0000   1.0000   1.0000   1.0000
     1.0000   1.0000   1.0000   1.0000   1.0000   1.0000   1.0000   1.0000
     1.0000   1.0000   1.0000   1.0000   1.0000   1.0000   1.0000   1.0000
     1.0000   1.0000   1.0000   1.0000   1.0000   1.0000   1.0000   1.0000

          k = 0.5253-0.5089-0.1928 (  5421 PWs)   bands (ev):

   -64.9853 -64.9370 -64.7937 -64.5533 -31.9763 -31.9643 -31.9441 -31.9242
   -31.8942 -31.8752 -31.8118 -31.7618 -31.7195 -31.5588 -31.5383 -31.4837
   -29.6927 -29.5312 -29.5148 -29.1518 -11.5029 -11.4370 -11.3844 -11.2575
   -11.0861 -11.0101 -10.9578 -10.9048 -10.7141 -10.6105 -10.5283 -10.3535
    -7.8479  -7.7078  -7.6468  -7.4981  -7.3851  -7.2492  -7.1954  -6.9856
     4.4362   4.6092   4.6856   4.8753   5.0727   5.2194   5.4376   5.5170
     5.7041   5.8635   5.9264   6.0319   6.2600   6.3740   6.4336   6.5409
     6.6818   6.7092   6.8640   6.9428   7.0381   7.1165   7.2757   7.4719

     occupation numbers 
     1.0000   1.0000   1.0000   1.0000   1.0000   1.0000   1.0000   1.0000
     1.0000   1.0000   1.0000   1.0000   1.0000   1.0000   1.0000   1.0000
     1.0000   1.0000   1.0000   1.0000   1.0000   1.0000   1.0000   1.0000
     1.0000   1.0000   1.0000   1.0000   1.0000   1.0000   1.0000   1.0000
     1.0000   1.0000   1.0000   1.0000   1.0000   1.0000   1.0000   1.0000
     1.0000   1.0000   1.0000   1.0000   1.0000   1.0000   1.0000   1.0000
     1.0000   1.0000   1.0000   1.0000   1.0000   1.0000   1.0000   1.0000
     1.0000   1.0000   1.0000   1.0000   1.0000   1.0000   1.0000   1.0000

          k = 0.7078-0.3375-0.3687 (  5425 PWs)   bands (ev):

   -64.9853 -64.9370 -64.7937 -64.5533 -31.9762 -31.9644 -31.9441 -31.9242
   -31.8942 -31.8752 -31.8118 -31.7618 -31.7195 -31.5588 -31.5383 -31.4837
   -29.6929 -29.5313 -29.5149 -29.1519 -11.5053 -11.4322 -11.3869 -11.2380
   -11.0872 -11.0082 -10.9503 -10.9201 -10.7150 -10.6119 -10.5302 -10.3529
    -7.9933  -7.6541  -7.5685  -7.4710  -7.3926  -7.2654  -7.1930  -6.9858
     4.3381   4.5527   4.6905   4.8280   5.1186   5.1818   5.4027   5.4351
     5.6250   5.9737   6.0312   6.1224   6.2846   6.3598   6.4403   6.5557
     6.7196   6.8254   6.9260   7.0208   7.0740   7.1705   7.2228   7.3471

     occupation numbers 
     1.0000   1.0000   1.0000   1.0000   1.0000   1.0000   1.0000   1.0000
     1.0000   1.0000   1.0000   1.0000   1.0000   1.0000   1.0000   1.0000
     1.0000   1.0000   1.0000   1.0000   1.0000   1.0000   1.0000   1.0000
     1.0000   1.0000   1.0000   1.0000   1.0000   1.0000   1.0000   1.0000
     1.0000   1.0000   1.0000   1.0000   1.0000   1.0000   1.0000   1.0000
     1.0000   1.0000   1.0000   1.0000   1.0000   1.0000   1.0000   1.0000
     1.0000   1.0000   1.0000   1.0000   1.0000   1.0000   1.0000   1.0000
     1.0000   1.0000   1.0000   1.0000   1.0000   1.0000   1.0000   1.0000

          k = 0.1604-0.8516 0.1592 (  5417 PWs)   bands (ev):

   -64.9853 -64.9370 -64.7937 -64.5533 -31.9762 -31.9644 -31.9441 -31.9242
   -31.8942 -31.8752 -31.8118 -31.7617 -31.7195 -31.5587 -31.5384 -31.4837
   -29.6928 -29.5313 -29.5148 -29.1519 -11.4984 -11.4414 -11.3911 -11.2502
   -11.0914 -10.9998 -10.9367 -10.9278 -10.7135 -10.6103 -10.5290 -10.3532
    -7.8939  -7.7380  -7.5350  -7.4879  -7.4178  -7.2845  -7.1652  -6.9978
     4.4025   4.5596   4.7121   4.8288   5.0423   5.1891   5.4916   5.5649
     5.7187   5.8060   5.9226   6.0790   6.2799   6.4071   6.4243   6.4893
     6.6542   6.7920   6.8444   7.0048   7.0447   7.1370   7.3036   7.4463

     occupation numbers 
     1.0000   1.0000   1.0000   1.0000   1.0000   1.0000   1.0000   1.0000
     1.0000   1.0000   1.0000   1.0000   1.0000   1.0000   1.0000   1.0000
     1.0000   1.0000   1.0000   1.0000   1.0000   1.0000   1.0000   1.0000
     1.0000   1.0000   1.0000   1.0000   1.0000   1.0000   1.0000   1.0000
     1.0000   1.0000   1.0000   1.0000   1.0000   1.0000   1.0000   1.0000
     1.0000   1.0000   1.0000   1.0000   1.0000   1.0000   1.0000   1.0000
     1.0000   1.0000   1.0000   1.0000   1.0000   1.0000   1.0000   1.0000
     1.0000   1.0000   1.0000   1.0000   1.0000   1.0000   1.0000   1.0000

          k = 0.3429-0.6802-0.0168 (  5405 PWs)   bands (ev):

   -64.9853 -64.9370 -64.7937 -64.5533 -31.9763 -31.9644 -31.9441 -31.9242
   -31.8942 -31.8752 -31.8118 -31.7618 -31.7195 -31.5588 -31.5384 -31.4838
   -29.6927 -29.5313 -29.5148 -29.1518 -11.4951 -11.4482 -11.3897 -11.2688
   -11.0879 -11.0024 -10.9427 -10.9131 -10.7128 -10.6091 -10.5272 -10.3538
    -7.7816  -7.7103  -7.5920  -7.5254  -7.4801  -7.2590  -7.1719  -6.9930
     4.5124   4.6512   4.7461   4.8228   5.0326   5.3214   5.4166   5.5126
     5.6467   5.7755   5.8707   5.9510   6.3225   6.3842   6.4625   6.5674
     6.6694   6.7267   6.8698   6.9427   7.0717   7.0953   7.2303   7.3617

     occupation numbers 
     1.0000   1.0000   1.0000   1.0000   1.0000   1.0000   1.0000   1.0000
     1.0000   1.0000   1.0000   1.0000   1.0000   1.0000   1.0000   1.0000
     1.0000   1.0000   1.0000   1.0000   1.0000   1.0000   1.0000   1.0000
     1.0000   1.0000   1.0000   1.0000   1.0000   1.0000   1.0000   1.0000
     1.0000   1.0000   1.0000   1.0000   1.0000   1.0000   1.0000   1.0000
     1.0000   1.0000   1.0000   1.0000   1.0000   1.0000   1.0000   1.0000
     1.0000   1.0000   1.0000   1.0000   1.0000   1.0000   1.0000   1.0000
     1.0000   1.0000   1.0000   1.0000   1.0000   1.0000   1.0000   1.0000

          k = 0.0102-0.0117-0.7054 (  5406 PWs)   bands (ev):

   -64.9853 -64.9370 -64.7937 -64.5533 -31.9762 -31.9642 -31.9441 -31.9238
   -31.8946 -31.8756 -31.8118 -31.7617 -31.7192 -31.5589 -31.5383 -31.4839
   -29.6914 -29.5360 -29.5109 -29.1523 -11.5146 -11.4269 -11.2649 -11.2375
   -11.1278 -11.0363 -10.9665 -10.9119 -10.7950 -10.6380 -10.5380 -10.3253
    -7.8107  -7.7550  -7.5457  -7.4428  -7.3145  -7.2872  -7.2158  -7.1069
     4.3680   4.5647   4.5825   4.7133   5.3687   5.4928   5.5276   5.6220
     5.6718   5.7712   5.9096   6.1985   6.3444   6.3631   6.3807   6.4834
     6.5340   6.6188   6.7606   6.8366   7.0478   7.1059   7.2696   7.4628

     occupation numbers 
     1.0000   1.0000   1.0000   1.0000   1.0000   1.0000   1.0000   1.0000
     1.0000   1.0000   1.0000   1.0000   1.0000   1.0000   1.0000   1.0000
     1.0000   1.0000   1.0000   1.0000   1.0000   1.0000   1.0000   1.0000
     1.0000   1.0000   1.0000   1.0000   1.0000   1.0000   1.0000   1.0000
     1.0000   1.0000   1.0000   1.0000   1.0000   1.0000   1.0000   1.0000
     1.0000   1.0000   1.0000   1.0000   1.0000   1.0000   1.0000   1.0000
     1.0000   1.0000   1.0000   1.0000   1.0000   1.0000   1.0000   1.0000
     1.0000   1.0000   1.0000   1.0000   1.0000   1.0000   1.0000   1.0000

          k = 0.1926 0.1597-0.8814 (  5422 PWs)   bands (ev):

   -64.9853 -64.9370 -64.7937 -64.5533 -31.9761 -31.9643 -31.9441 -31.9238
   -31.8946 -31.8756 -31.8118 -31.7617 -31.7192 -31.5588 -31.5384 -31.4839
   -29.6915 -29.5361 -29.5109 -29.1523 -11.5097 -11.4271 -11.2654 -11.2443
   -11.1234 -11.0175 -10.9655 -10.9169 -10.8005 -10.6385 -10.5410 -10.3251
    -7.8957  -7.6591  -7.5566  -7.4593  -7.3672  -7.2630  -7.1898  -7.0993
     4.3992   4.6212   4.7085   4.8196   5.1947   5.2726   5.3803   5.4944
     5.6640   5.7637   5.9472   6.0152   6.2657   6.3408   6.5164   6.5260
     6.7056   6.7571   6.8694   6.9705   7.0893   7.1720   7.2802   7.3413

     occupation numbers 
     1.0000   1.0000   1.0000   1.0000   1.0000   1.0000   1.0000   1.0000
     1.0000   1.0000   1.0000   1.0000   1.0000   1.0000   1.0000   1.0000
     1.0000   1.0000   1.0000   1.0000   1.0000   1.0000   1.0000   1.0000
     1.0000   1.0000   1.0000   1.0000   1.0000   1.0000   1.0000   1.0000
     1.0000   1.0000   1.0000   1.0000   1.0000   1.0000   1.0000   1.0000
     1.0000   1.0000   1.0000   1.0000   1.0000   1.0000   1.0000   1.0000
     1.0000   1.0000   1.0000   1.0000   1.0000   1.0000   1.0000   1.0000
     1.0000   1.0000   1.0000   1.0000   1.0000   1.0000   1.0000   1.0000

          k =-0.3547-0.3544-0.3535 (  5412 PWs)   bands (ev):

   -64.9853 -64.9370 -64.7937 -64.5533 -31.9761 -31.9643 -31.9441 -31.9238
   -31.8946 -31.8756 -31.8118 -31.7616 -31.7192 -31.5587 -31.5384 -31.4838
   -29.6916 -29.5361 -29.5110 -29.1524 -11.5034 -11.4282 -11.2688 -11.2443
   -11.1224 -11.0019 -10.9641 -10.9209 -10.8056 -10.6391 -10.5442 -10.3249
    -7.8249  -7.8083  -7.5326  -7.4581  -7.3307  -7.2725  -7.1735  -7.1004
     4.4865   4.7495   4.8120   4.8742   4.9204   5.0710   5.4021   5.5025
     5.5912   5.7737   5.8616   6.0786   6.1800   6.2192   6.3725   6.5000
     6.8177   6.9392   6.9987   7.0534   7.1402   7.2449   7.2884   7.3767

     occupation numbers 
     1.0000   1.0000   1.0000   1.0000   1.0000   1.0000   1.0000   1.0000
     1.0000   1.0000   1.0000   1.0000   1.0000   1.0000   1.0000   1.0000
     1.0000   1.0000   1.0000   1.0000   1.0000   1.0000   1.0000   1.0000
     1.0000   1.0000   1.0000   1.0000   1.0000   1.0000   1.0000   1.0000
     1.0000   1.0000   1.0000   1.0000   1.0000   1.0000   1.0000   1.0000
     1.0000   1.0000   1.0000   1.0000   1.0000   1.0000   1.0000   1.0000
     1.0000   1.0000   1.0000   1.0000   1.0000   1.0000   1.0000   1.0000
     1.0000   1.0000   1.0000   1.0000   1.0000   1.0000   1.0000   1.0000

     highest occupied level (ev):     7.7272

!    total energy              =   -1059.68570081 Ry
     Harris-Foulkes estimate   =   -1059.68570081 Ry
     estimated scf accuracy    <          4.7E-11 Ry

     The total energy is the sum of the following terms:

     one-electron contribution =    -476.50732300 Ry
     hartree contribution      =     287.47099954 Ry
     xc contribution           =    -172.87950381 Ry
     ewald contribution        =    -697.76987355 Ry

     convergence has been achieved in  18 iterations

     Forces acting on atoms (Ry/au):

     atom    1 type  1   force =  -0.17858467E-01  0.59910698E-01  0.14963019E-02
     atom    2 type  3   force =  -0.18395630E-01  0.14947912E-01 -0.44147898E-01
     atom    3 type  2   force =   0.23960342E-01  0.33245604E-02  0.85364588E-03
     atom    4 type  3   force =   0.25288944E-01  0.12452584E-01 -0.32918586E-01
     atom    5 type  1   force =  -0.19430269E-02 -0.24463230E-01 -0.81043871E-04
     atom    6 type  3   force =  -0.19249454E-01  0.13341193E-02  0.57491075E-02
     atom    7 type  2   force =   0.18113367E-01  0.20105632E-01  0.24653255E-02
     atom    8 type  3   force =   0.28049332E-01 -0.26529316E-01 -0.35344524E-01
     atom    9 type  1   force =  -0.19719820E-02 -0.37157298E-02 -0.21704271E-02
     atom   10 type  3   force =   0.40366592E-02 -0.11471052E-02 -0.26374771E-01
     atom   11 type  2   force =   0.28286926E-01  0.26849466E-01  0.36212404E-02
     atom   12 type  3   force =  -0.35755047E-01 -0.70023631E-01  0.71933969E-02
     atom   13 type  1   force =   0.52115926E-01 -0.46836964E-01 -0.95327104E-02
     atom   14 type  3   force =  -0.52704943E-01  0.12969570E-01  0.22955714E-01
     atom   15 type  2   force =  -0.22066477E-02 -0.14916321E-01  0.33331872E-01
     atom   16 type  3   force =  -0.29766299E-01  0.35737756E-01  0.72903356E-01
     The non-local contrib.  to forces
     atom    1 type  1   force =  -0.13471947E-02  0.31801571E-01 -0.51540944E-02
     atom    2 type  3   force =   0.22538945E-01  0.11660327E-01 -0.49755342E-01
     atom    3 type  2   force =   0.24979586E+00  0.20201783E+00  0.13294463E+00
     atom    4 type  3   force =   0.86299952E-01  0.63180974E-01  0.22178960E-01
     atom    5 type  1   force =   0.16169798E-02 -0.46684222E-01  0.39518071E-02
     atom    6 type  3   force =   0.11672095E+00 -0.51772293E-01 -0.49032969E-01
     atom    7 type  2   force =   0.16758902E+00 -0.50293805E-01 -0.18937056E+00
     atom    8 type  3   force =   0.25445095E-01 -0.11272054E+00 -0.62796956E-01
     atom    9 type  1   force =   0.25469691E-01 -0.18711568E-01  0.73150228E-02
     atom   10 type  3   force =   0.14270904E-01  0.27030414E-01 -0.36409078E-01
     atom   11 type  2   force =   0.12421888E+00 -0.12682398E+00  0.25557716E+00
     atom   12 type  3   force =  -0.35996478E-01 -0.10365378E+00  0.26729790E-01
     atom   13 type  1   force =   0.28006557E-01 -0.55215711E-02  0.84280519E-03
     atom   14 type  3   force =  -0.51740970E-01  0.37525043E-01  0.66627661E-01
     atom   15 type  2   force =  -0.10030657E+00  0.48795185E-01  0.15471313E+00
     atom   16 type  3   force =  -0.48397240E-01  0.11070766E+00  0.23688772E+00
     The ionic contribution  to forces
     atom    1 type  1   force =  -0.94817974E+00  0.14267217E+01 -0.20528575E+00
     atom    2 type  3   force =  -0.15739380E+01 -0.49131323E+00 -0.86705566E+00
     atom    3 type  2   force =   0.21098824E+01  0.22293895E+01  0.96878805E+00
     atom    4 type  3   force =   0.13127616E+01  0.65212379E+00 -0.22129019E+01
     atom    5 type  1   force =   0.70421196E-01 -0.22540364E+01  0.20265341E+00
     atom    6 type  3   force =  -0.25670957E+01 -0.69515399E-01  0.17467291E+01
     atom    7 type  2   force =   0.13060016E+01  0.11959072E+00 -0.12036811E+01
     atom    8 type  3   force =   0.20446269E+01  0.32647584E+00 -0.20075138E+01
     atom    9 type  1   force =  -0.17730576E+00 -0.45054529E+00 -0.24574221E+00
     atom   10 type  3   force =  -0.49390977E+00 -0.91510715E+00  0.55972771E+00
     atom   11 type  2   force =   0.14227361E+01 -0.92456371E+00  0.15906555E+01
     atom   12 type  3   force =  -0.74720698E+00 -0.45511556E+00 -0.54643010E+00
     atom   13 type  1   force =   0.15767506E+01 -0.46592442E+00  0.53203045E+00
     atom   14 type  3   force =  -0.28205555E+01 -0.85375979E+00  0.12265014E+01
     atom   15 type  2   force =  -0.92820077E+00  0.56150895E-01  0.82838691E+00
     atom   16 type  3   force =   0.41321172E+00  0.20694285E+01 -0.36686205E+00
     The local contribution  to forces
     atom    1 type  1   force =   0.93172655E+00 -0.13988058E+01  0.21196214E+00
     atom    2 type  3   force =   0.15330392E+01  0.49518557E+00  0.87147033E+00
     atom    3 type  2   force =  -0.23357255E+01 -0.24280869E+01 -0.11008800E+01
     atom    4 type  3   force =  -0.13731666E+01 -0.70253215E+00  0.21574891E+01
     atom    5 type  1   force =  -0.74127934E-01  0.22768669E+01 -0.20676231E+00
     atom    6 type  3   force =   0.24312835E+01  0.12264781E+00 -0.16922483E+01
     atom    7 type  2   force =  -0.14554778E+01 -0.49190462E-01  0.13955238E+01
     atom    8 type  3   force =  -0.20417055E+01 -0.24120453E+00  0.20344434E+01
     atom    9 type  1   force =   0.14913034E+00  0.46579245E+00  0.23626145E+00
     atom   10 type  3   force =   0.48402983E+00  0.88730824E+00 -0.55052532E+00
     atom   11 type  2   force =  -0.15186681E+01  0.10782393E+01 -0.18426118E+01
     atom   12 type  3   force =   0.74641200E+00  0.48685382E+00  0.52731487E+00
     atom   13 type  1   force =  -0.15522690E+01  0.42332223E+00 -0.54246154E+00
     atom   14 type  3   force =   0.28187237E+01  0.82979590E+00 -0.12696830E+01
     atom   15 type  2   force =   0.10263041E+01 -0.11986838E+00 -0.94977032E+00
     atom   16 type  3   force =  -0.39555268E+00 -0.21435261E+01  0.20520630E+00
     The core correction contribution to forces
     atom    1 type  1   force =  -0.55748993E-04  0.19619781E-03 -0.25137574E-04
     atom    2 type  3   force =  -0.34424402E-04 -0.58312107E-03  0.11972412E-02
     atom    3 type  2   force =   0.00000000E+00  0.00000000E+00  0.00000000E+00
     atom    4 type  3   force =  -0.60652645E-03 -0.32110159E-03  0.31454433E-03
     atom    5 type  1   force =   0.14598655E-03 -0.60787682E-03  0.76099086E-04
     atom    6 type  3   force =  -0.15809916E-03 -0.25954578E-04  0.29893025E-03
     atom    7 type  2   force =   0.00000000E+00  0.00000000E+00  0.00000000E+00
     atom    8 type  3   force =  -0.31734534E-03  0.92307857E-03  0.52488036E-03
     atom    9 type  1   force =   0.73571003E-03 -0.25205202E-03 -0.70921515E-05
     atom   10 type  3   force =  -0.35648765E-03 -0.37953251E-03  0.83002055E-03
     atom   11 type  2   force =   0.00000000E+00  0.00000000E+00  0.00000000E+00
     atom   12 type  3   force =   0.10402788E-02  0.18915553E-02 -0.42040430E-03
     atom   13 type  1   force =  -0.36874832E-03  0.12856366E-02  0.54405613E-04
     atom   14 type  3   force =   0.87091134E-03 -0.58968404E-03 -0.48942194E-03
     atom   15 type  2   force =   0.00000000E+00  0.00000000E+00  0.00000000E+00
     atom   16 type  3   force =   0.96984953E-03 -0.87486567E-03 -0.23303914E-02
     The Hubbard contrib.    to forces
     atom    1 type  1   force =   0.00000000E+00  0.00000000E+00  0.00000000E+00
     atom    2 type  3   force =   0.00000000E+00  0.00000000E+00  0.00000000E+00
     atom    3 type  2   force =   0.00000000E+00  0.00000000E+00  0.00000000E+00
     atom    4 type  3   force =   0.00000000E+00  0.00000000E+00  0.00000000E+00
     atom    5 type  1   force =   0.00000000E+00  0.00000000E+00  0.00000000E+00
     atom    6 type  3   force =   0.00000000E+00  0.00000000E+00  0.00000000E+00
     atom    7 type  2   force =   0.00000000E+00  0.00000000E+00  0.00000000E+00
     atom    8 type  3   force =   0.00000000E+00  0.00000000E+00  0.00000000E+00
     atom    9 type  1   force =   0.00000000E+00  0.00000000E+00  0.00000000E+00
     atom   10 type  3   force =   0.00000000E+00  0.00000000E+00  0.00000000E+00
     atom   11 type  2   force =   0.00000000E+00  0.00000000E+00  0.00000000E+00
     atom   12 type  3   force =   0.00000000E+00  0.00000000E+00  0.00000000E+00
     atom   13 type  1   force =   0.00000000E+00  0.00000000E+00  0.00000000E+00
     atom   14 type  3   force =   0.00000000E+00  0.00000000E+00  0.00000000E+00
     atom   15 type  2   force =   0.00000000E+00  0.00000000E+00  0.00000000E+00
     atom   16 type  3   force =   0.00000000E+00  0.00000000E+00  0.00000000E+00
     The SCF correction term to forces
     atom    1 type  1   force =  -0.19626782E-05 -0.27324855E-05 -0.75346738E-06
     atom    2 type  3   force =  -0.10209011E-05 -0.13869169E-05 -0.43656827E-05
     atom    3 type  2   force =   0.79509937E-05  0.43523838E-05  0.10482793E-05
     atom    4 type  3   force =   0.90597949E-06  0.13207707E-05  0.75688074E-06
     atom    5 type  1   force =   0.11222798E-05 -0.13005443E-05  0.42473191E-07
     atom    6 type  3   force =   0.25020643E-06  0.20200161E-06  0.24324182E-05
     atom    7 type  2   force =   0.85539629E-06 -0.57360791E-06 -0.66913962E-05
     atom    8 type  3   force =   0.53624301E-06 -0.29246508E-05 -0.19142709E-05
     atom    9 type  1   force =  -0.15812316E-05  0.97381635E-06  0.24946203E-05
     atom   10 type  3   force =   0.25541555E-05  0.11652131E-05  0.19905669E-05
     atom   11 type  2   force =   0.42934967E-06 -0.19379500E-05  0.52160907E-06
     atom   12 type  3   force =  -0.34962622E-05  0.57432433E-06 -0.65435872E-06
     atom   13 type  1   force =  -0.31117704E-05  0.13988479E-05  0.12621461E-05
     atom   14 type  3   force =  -0.27244990E-05 -0.16555982E-05 -0.84186048E-06
     atom   15 type  2   force =  -0.30582377E-05  0.62242851E-05  0.22464883E-05
     atom   16 type  3   force =   0.24281588E-05  0.27936261E-05  0.18685628E-05

     Total force =     0.197901     Total SCF correction =     0.000018


     entering subroutine stress ...

          total   stress  (Ry/bohr**3)                   (kbar)     P=   11.08
   0.0000729414   0.0002465324  -0.0001862627         10.73     36.27    -27.40
   0.0002465324  -0.0000548163   0.0002128890         36.27     -8.06     31.32
  -0.0001862627   0.0002128890   0.0002078901        -27.40     31.32     30.58

     kinetic stress (kbar)  20654.57     53.30    -39.11
                               53.30  20654.59     12.72
                              -39.11     12.72  20708.49

     local   stress (kbar)  -5382.32    832.68   -990.31
                              832.68  -1438.78    392.61
                             -990.31    392.61  -4313.16

     nonloc. stress (kbar)   5234.52     -4.10      2.85
                               -4.10   5212.29     -1.67
                                2.85     -1.67   5224.75

     hartree stress (kbar)  11795.56   -423.88    480.33
                             -423.88  10270.69    -73.15
                              480.33    -73.15  11336.34

     exc-cor stress (kbar)  -5241.68     -0.35      0.48
                               -0.35  -5243.90     -0.70
                                0.48     -0.70  -5241.69

     corecor stress (kbar)  -1039.96     -0.18      0.13
                               -0.18  -1039.83      0.01
                                0.13      0.01  -1040.11

     ewald   stress (kbar) -26009.97   -421.18    518.23
                             -421.18 -28423.12   -298.49
                              518.23   -298.49 -26644.04

     hubbard stress (kbar)      0.00      0.00      0.00
                                0.00      0.00      0.00
                                0.00      0.00      0.00

     london  stress (kbar)      0.00      0.00      0.00
                                0.00      0.00      0.00
                                0.00      0.00      0.00

     XDM     stress (kbar)      0.00      0.00      0.00
                                0.00      0.00      0.00
                                0.00      0.00      0.00

     dft-nl  stress (kbar)      0.00      0.00      0.00
                                0.00      0.00      0.00
                                0.00      0.00      0.00



     Writing output data file mix.dummy41839.save

     init_run     :     14.51s CPU     16.07s WALL (       1 calls)
     electrons    :    585.26s CPU    644.31s WALL (       1 calls)
     forces       :      6.16s CPU      6.59s WALL (       1 calls)
     stress       :     11.08s CPU     11.29s WALL (       1 calls)

     Called by init_run:
     wfcinit      :     12.91s CPU     14.46s WALL (       1 calls)
     potinit      :      0.46s CPU      0.46s WALL (       1 calls)

     Called by electrons:
     c_bands      :    511.14s CPU    564.75s WALL (      18 calls)
     sum_band     :     68.15s CPU     73.42s WALL (      18 calls)
     v_of_rho     :      0.74s CPU      0.78s WALL (      19 calls)
     v_h          :      0.04s CPU      0.04s WALL (      19 calls)
     v_xc         :      0.78s CPU      0.84s WALL (      21 calls)
     newd         :      4.09s CPU      4.12s WALL (      19 calls)
     mix_rho      :      1.22s CPU      1.27s WALL (      18 calls)

     Called by c_bands:
     init_us_2    :      2.75s CPU      2.83s WALL (    1404 calls)
     cegterg      :    489.09s CPU    541.56s WALL (     648 calls)

     Called by sum_band:
     sum_band:bec :      0.75s CPU      0.76s WALL (     648 calls)
     addusdens    :      3.88s CPU      3.91s WALL (      18 calls)

     Called by *egterg:
     h_psi        :    248.88s CPU    266.67s WALL (    1967 calls)
     s_psi        :     23.91s CPU     26.40s WALL (    1967 calls)
     g_psi        :      0.30s CPU      0.28s WALL (    1283 calls)
     cdiaghg      :     66.60s CPU     76.69s WALL (    1931 calls)
     cegterg:over :     76.54s CPU     85.51s WALL (    1283 calls)
     cegterg:upda :      8.77s CPU     12.28s WALL (    1283 calls)
     cegterg:last :      5.44s CPU      6.98s WALL (     648 calls)

     Called by h_psi:
     h_psi:vloc   :    156.22s CPU    160.43s WALL (    1967 calls)
     h_psi:vnl    :     92.35s CPU    105.84s WALL (    1967 calls)
     add_vuspsi   :     23.75s CPU     28.17s WALL (    1967 calls)

     General routines
     calbec       :     99.18s CPU    113.01s WALL (    2687 calls)
     fft          :      1.57s CPU      1.65s WALL (     325 calls)
     ffts         :      0.80s CPU      0.77s WALL (     484 calls)
     fftw         :    180.13s CPU    184.69s WALL (  240314 calls)
     interpolate  :      0.16s CPU      0.18s WALL (      37 calls)

     Parallel routines
     fft_scatter  :     78.35s CPU     80.16s WALL (  241123 calls)

     PWSCF        : 10m19.57s CPU    11m21.20s WALL


   This run was terminated on:   2:13:23   8Dec2017            

=------------------------------------------------------------------------------=
   JOB DONE.
=------------------------------------------------------------------------------=
