
     Program PWSCF v.5.1 starts on  7Dec2017 at 22: 3:54 

     This program is part of the open-source Quantum ESPRESSO suite
     for quantum simulation of materials; please cite
         "P. Giannozzi et al., J. Phys.:Condens. Matter 21 395502 (2009);
          URL http://www.quantum-espresso.org", 
     in publications or presentations arising from this work. More details at
     http://www.quantum-espresso.org/quote

     Parallel version (MPI), running on    16 processors
     R & G space division:  proc/nbgrp/npool/nimage =      16
     Waiting for input...
     Reading input from standard input
Warning: card &IONS ignored
Warning: card   ION_DYNAMICS='BFGS', ignored
Warning: card / ignored
Warning: card &CELL ignored
Warning: card  CELL_DYNAMICS = 'BFGS' ignored
Warning: card / ignored

     Current dimensions of program PWSCF are:
     Max number of different atomic species (ntypx) = 10
     Max number of k-points (npk) =  40000
     Max angular momentum in pseudopotentials (lmaxx) =  3
 kfg - two_fermi_energies  F

     Subspace diagonalization in iterative solution of the eigenvalue problem:
     a serial algorithm will be used


     Parallelization info
     --------------------
     sticks:   dense  smooth     PW     G-vecs:    dense   smooth      PW
     Min         125     100     29                 3734     2660     414
     Max         126     101     30                 3737     2684     416
     Sum        2013    1605    469                59761    42757    6643



     bravais-lattice index     =            0
     lattice parameter (alat)  =    11.781205115  a.u.
     unit-cell volume          =    1250.2704 (a.u.)^3
     number of atoms/cell      =           16
     number of atomic types    =            3
     number of electrons       =       128.00
     number of Kohn-Sham states=           64
     kinetic-energy cutoff     =      40.0000  Ry
     charge density cutoff     =     200.0000  Ry
     convergence threshold     =      1.0E-10
     mixing beta               =       0.3000
     number of iterations used =            8  local-TF  mixing
     Exchange-correlation      = SLA  PW   PSX  PSC ( 1  4 10  8 0)
     A smooth kinetic-energy cutoff is imposed at      39.5000 Ry
     height of the smooth step-function =             800.0000 Ry
     width of the smooth step-function  =               1.0000 Ry


     celldm(1)=  11.781205  celldm(2)=   0.000000  celldm(3)=   0.000000
     celldm(4)=   0.000000  celldm(5)=   0.000000  celldm(6)=   0.000000

     crystal axes: (cart. coord. in units of alat)
               a(1) = (   0.006597102426   0.703175145037   0.710986071342 )  
               a(2) = (   0.747207540099  -0.012461970820   0.730045144588 )  
               a(3) = (   0.739356572753   0.714383250938  -0.004611003474 )  

     reciprocal axes: (cart. coord. in units 2 pi/alat)
               b(1) = ( -0.682022  0.710448  0.710183 )  
               b(2) = (  0.668530 -0.687552  0.673795 )  
               b(3) = (  0.682984  0.688513 -0.687287 )  


     PseudoPot. # 1 for Ca read from file:
     /users/kfg/psuedo/gbrv_1.5/ca.pbesol.UPF
     MD5 check sum: 0533207b58cddeaa036efa5b63902087
     Pseudo is Ultrasoft + core correction, Zval = 10.0
     Generated by new atomic code, or converted to UPF format
     Using radial grid of  845 points,  6 beta functions with: 
                l(1) =   0
                l(2) =   0
                l(3) =   1
                l(4) =   1
                l(5) =   2
                l(6) =   2
     Q(r) pseudized with  8 coefficients,  rinner =    1.500   1.500   1.500
                                                       1.500   1.500

     PseudoPot. # 2 for Mg read from file:
     /users/kfg/psuedo/gbrv_1.5/mg.pbesol.UPF
     MD5 check sum: 4059f37963cf5867752dbf5ab2400678
     Pseudo is Ultrasoft, Zval = 10.0
     Generated by new atomic code, or converted to UPF format
     Using radial grid of  821 points,  7 beta functions with: 
                l(1) =   0
                l(2) =   0
                l(3) =   0
                l(4) =   1
                l(5) =   1
                l(6) =   2
                l(7) =   2
     Q(r) pseudized with  8 coefficients,  rinner =    1.200   1.200   1.200
                                                       1.200   1.200

     PseudoPot. # 3 for O  read from file:
     /users/kfg/psuedo/gbrv_1.5/o.pbesol.UPF
     MD5 check sum: 501638753501ef6325af9037351f7734
     Pseudo is Ultrasoft + core correction, Zval =  6.0
     Generated by new atomic code, or converted to UPF format
     Using radial grid of  737 points,  5 beta functions with: 
                l(1) =   0
                l(2) =   0
                l(3) =   1
                l(4) =   1
                l(5) =   2
     Q(r) pseudized with  8 coefficients,  rinner =    0.900   0.900   0.900
                                                       0.900   0.900

     atomic species   valence    mass     pseudopotential
        Ca            10.00    40.07800     Ca( 1.00)
        Mg            10.00    40.07800     Mg( 1.00)
        O              6.00    15.99940     O ( 1.00)

     No symmetry found


                                    s                        frac. trans.

      isym =  1     identity                                     

 cryst.   s( 1) = (     1          0          0      )
                  (     0          1          0      )
                  (     0          0          1      )

 cart.    s( 1) = (  1.0000000  0.0000000  0.0000000 )
                  (  0.0000000  1.0000000  0.0000000 )
                  (  0.0000000 -0.0000000  1.0000000 )


     point group C_1 (1)    
     there are  1 classes
     the character table:

       E    
A      1.00

     the symmetry operations in each class:
     E        1

   Cartesian axes

     site n.     atom                  positions (alat units)
         1           Mg  tau(   1) = (   -0.00637928873   -0.02199411721   -0.00127695982  )
         2           O   tau(   2) = (    0.37756271618    0.37517106564    0.36196463015  )
         3           Ca  tau(   3) = (    0.36690107907    0.35639266985    0.00685139507  )
         4           O   tau(   4) = (    0.76029010952    0.71731640000    0.31749029307  )
         5           Ca  tau(   5) = (    0.36582993515    0.01189922088    0.39716939547  )
         6           O   tau(   6) = (    0.75772910043    0.36114681141    0.69595680827  )
         7           Mg  tau(   7) = (    0.77017813321    0.31280150806    0.36893513894  )
         8           O   tau(   8) = (    1.10683452708    0.70983369291    0.75902178941  )
         9           Mg  tau(   9) = (   -0.01207526655    0.33000833339    0.34553530729  )
        10           O   tau(  10) = (    0.38724547029    0.71208796655    0.67701102117  )
        11           Mg  tau(  11) = (    0.37347666439    0.71877791725    0.34369240051  )
        12           O   tau(  12) = (    0.75579878044    1.03436298055    0.69571882528  )
        13           Ca  tau(  13) = (    0.38006624326    0.37283839478    0.71054569232  )
        14           O   tau(  14) = (    0.74516154744    0.67873978268    1.09571399059  )
        15           Mg  tau(  15) = (    0.71803717024    0.73444750233    0.74624415379  )
        16           O   tau(  16) = (    1.11231037026    1.02674842184    1.09794739321  )

   Crystallographic axes

     site n.     atom                  positions (cryst. coord.)
         1           Mg  tau(   1) = (   -0.01218173370    0.00999693587   -0.01862255771  )
         2           O   tau(   2) = (    0.26609448730    0.23835261064    0.26740601626  )
         3           Ca  tau(   3) = (    0.00782957071    0.00486254802    0.49125970801  )
         4           O   tau(   4) = (    0.21655752264    0.22900828404    0.79494084781  )
         5           Ca  tau(   5) = (    0.04101261357    0.50399787231   -0.01492059454  )
         6           O   tau(   6) = (    0.23404467668    0.72719006570    0.28784918047  )
         7           Mg  tau(   7) = (   -0.04103782297    0.54840692466    0.48782290992  )
         8           O   tau(   8) = (    0.28845863440    0.76333024616    0.72301436156  )
         9           Mg  tau(   9) = (    0.48808254902   -0.00215048912   -0.01851384830  )
        10           O   tau(  10) = (    0.72259306172    0.22545473918    0.28946380768  )
        11           Mg  tau(  11) = (    0.50001939537   -0.01293826155    0.51375150476  )
        12           O   tau(  12) = (    0.71347717669    0.26286829716    0.75021274602  )
        13           Ca  tau(  13) = (    0.51028606469    0.47650233340    0.02793469105  )
        14           O   tau(  14) = (    0.75214995197    0.76978110480    0.22318499289  )
        15           Mg  tau(  15) = (    0.56203933149    0.47787463755    0.48320096144  )
        16           O   tau(  16) = (    0.75057452043    0.77746215119    0.71201527268  )

     number of k points=    36
                       cart. coord. in units 2pi/alat
        k(    1) = (   0.0000000   0.0000000   0.0000000), wk =   0.0312500
        k(    2) = (   0.1707459   0.1721284  -0.1718217), wk =   0.0625000
        k(    3) = (  -0.3414918  -0.3442567   0.3436433), wk =   0.0312500
        k(    4) = (   0.1671326  -0.1718879   0.1684488), wk =   0.0625000
        k(    5) = (   0.3378785   0.0002404  -0.0033729), wk =   0.0625000
        k(    6) = (  -0.1743592  -0.5161447   0.5120921), wk =   0.0625000
        k(    7) = (  -0.0036133  -0.3440163   0.3402704), wk =   0.0625000
        k(    8) = (  -0.3342652   0.3437759  -0.3368975), wk =   0.0312500
        k(    9) = (  -0.1635193   0.5159042  -0.5087192), wk =   0.0625000
        k(   10) = (  -0.6757570  -0.0004809   0.0067458), wk =   0.0312500
        k(   11) = (  -0.1705055   0.1776120   0.1775457), wk =   0.0625000
        k(   12) = (   0.0002404   0.3497403   0.0057240), wk =   0.0625000
        k(   13) = (  -0.5119973  -0.1666448   0.5211890), wk =   0.0625000
        k(   14) = (  -0.3412514   0.0054836   0.3493674), wk =   0.0625000
        k(   15) = (  -0.0033729   0.0057240   0.3459945), wk =   0.0625000
        k(   16) = (   0.1673730   0.1778524   0.1741728), wk =   0.0625000
        k(   17) = (  -0.3448647  -0.3385327   0.6896378), wk =   0.0625000
        k(   18) = (  -0.1741188  -0.1664043   0.5178161), wk =   0.0625000
        k(   19) = (  -0.5047707   0.5213878  -0.1593518), wk =   0.0625000
        k(   20) = (  -0.3340247   0.6935162  -0.3311735), wk =   0.0625000
        k(   21) = (  -0.8462625   0.1771311   0.1842915), wk =   0.0625000
        k(   22) = (  -0.6755166   0.3492595   0.0124698), wk =   0.0625000
        k(   23) = (  -0.3376381   0.3494999   0.0090969), wk =   0.0625000
        k(   24) = (  -0.1668922   0.5216283  -0.1627247), wk =   0.0625000
        k(   25) = (  -0.6791299   0.0052432   0.3527403), wk =   0.0625000
        k(   26) = (  -0.5083840   0.1773715   0.1809186), wk =   0.0625000
        k(   27) = (   0.3410110  -0.3552239  -0.3550914), wk =   0.0312500
        k(   28) = (   0.5117569  -0.1830956  -0.5269131), wk =   0.0625000
        k(   29) = (  -0.0004809  -0.6994807  -0.0114481), wk =   0.0312500
        k(   30) = (   0.5081436  -0.5271119  -0.1866426), wk =   0.0625000
        k(   31) = (   0.6788895  -0.3549835  -0.3584643), wk =   0.0625000
        k(   32) = (   0.1666517  -0.8713686   0.1570007), wk =   0.0625000
        k(   33) = (   0.3373976  -0.6992402  -0.0148210), wk =   0.0625000
        k(   34) = (   0.0067458  -0.0114481  -0.6919889), wk =   0.0312500
        k(   35) = (   0.1774917   0.1606803  -0.8638106), wk =   0.0625000
        k(   36) = (  -0.3347460  -0.3557048  -0.3483456), wk =   0.0312500

                       cryst. coord.
        k(    1) = (   0.0000000   0.0000000   0.0000000), wk =   0.0312500
        k(    2) = (   0.0000000   0.0000000   0.2500000), wk =   0.0625000
        k(    3) = (  -0.0000000  -0.0000000  -0.5000000), wk =   0.0312500
        k(    4) = (   0.0000000   0.2500000  -0.0000000), wk =   0.0625000
        k(    5) = (   0.0000000   0.2500000   0.2500000), wk =   0.0625000
        k(    6) = (  -0.0000000   0.2500000  -0.5000000), wk =   0.0625000
        k(    7) = (  -0.0000000   0.2500000  -0.2500000), wk =   0.0625000
        k(    8) = (   0.0000000  -0.5000000   0.0000000), wk =   0.0312500
        k(    9) = (   0.0000000  -0.5000000   0.2500000), wk =   0.0625000
        k(   10) = (  -0.0000000  -0.5000000  -0.5000000), wk =   0.0312500
        k(   11) = (   0.2500000   0.0000000   0.0000000), wk =   0.0625000
        k(   12) = (   0.2500000   0.0000000   0.2500000), wk =   0.0625000
        k(   13) = (   0.2500000  -0.0000000  -0.5000000), wk =   0.0625000
        k(   14) = (   0.2500000   0.0000000  -0.2500000), wk =   0.0625000
        k(   15) = (   0.2500000   0.2500000  -0.0000000), wk =   0.0625000
        k(   16) = (   0.2500000   0.2500000   0.2500000), wk =   0.0625000
        k(   17) = (   0.2500000   0.2500000  -0.5000000), wk =   0.0625000
        k(   18) = (   0.2500000   0.2500000  -0.2500000), wk =   0.0625000
        k(   19) = (   0.2500000  -0.5000000  -0.0000000), wk =   0.0625000
        k(   20) = (   0.2500000  -0.5000000   0.2500000), wk =   0.0625000
        k(   21) = (   0.2500000  -0.5000000  -0.5000000), wk =   0.0625000
        k(   22) = (   0.2500000  -0.5000000  -0.2500000), wk =   0.0625000
        k(   23) = (   0.2500000  -0.2500000   0.0000000), wk =   0.0625000
        k(   24) = (   0.2500000  -0.2500000   0.2500000), wk =   0.0625000
        k(   25) = (   0.2500000  -0.2500000  -0.5000000), wk =   0.0625000
        k(   26) = (   0.2500000  -0.2500000  -0.2500000), wk =   0.0625000
        k(   27) = (  -0.5000000   0.0000000  -0.0000000), wk =   0.0312500
        k(   28) = (  -0.5000000   0.0000000   0.2500000), wk =   0.0625000
        k(   29) = (  -0.5000000  -0.0000000  -0.5000000), wk =   0.0312500
        k(   30) = (  -0.5000000   0.2500000   0.0000000), wk =   0.0625000
        k(   31) = (  -0.5000000   0.2500000   0.2500000), wk =   0.0625000
        k(   32) = (  -0.5000000   0.2500000  -0.5000000), wk =   0.0625000
        k(   33) = (  -0.5000000   0.2500000  -0.2500000), wk =   0.0625000
        k(   34) = (  -0.5000000  -0.5000000   0.0000000), wk =   0.0312500
        k(   35) = (  -0.5000000  -0.5000000   0.2500000), wk =   0.0625000
        k(   36) = (  -0.5000000  -0.5000000  -0.5000000), wk =   0.0312500

     Dense  grid:    59761 G-vectors     FFT dimensions: (  54,  60,  60)

     Smooth grid:    42757 G-vectors     FFT dimensions: (  48,  50,  50)

     Largest allocated arrays     est. size (Mb)     dimensions
        Kohn-Sham Wavefunctions         0.34 Mb     (     345,   64)
        NL pseudopotentials             1.33 Mb     (     345,  253)
        Each V/rho on FFT grid          0.20 Mb     (   12960)
        Each G-vector array             0.03 Mb     (    3735)
        G-vector shells                 0.03 Mb     (    3664)
     Largest temporary arrays     est. size (Mb)     dimensions
        Auxiliary wavefunctions         1.35 Mb     (     345,  256)
        Each subspace H/S matrix        1.00 Mb     (     256,  256)
        Each <psi_i|beta_j> matrix      0.25 Mb     (     253,   64)
        Arrays for rho mixing           1.58 Mb     (   12960,    8)

     Check: negative/imaginary core charge=   -0.000003    0.000000

     Initial potential from superposition of free atoms

     starting charge  126.48332, renormalised to  128.00000
     Starting wfc are   87 randomized atomic wfcs

     total cpu time spent up to now is       22.5 secs

     Self-consistent Calculation

     iteration #  1     ecut=    40.00 Ry     beta=0.30
     Davidson diagonalization with overlap
     ethr =  1.00E-02,  avg # of iterations =  2.0

     total cpu time spent up to now is       64.9 secs

     total energy              =   -1110.18610463 Ry
     Harris-Foulkes estimate   =   -1110.79419350 Ry
     estimated scf accuracy    <       3.15497767 Ry

     iteration #  2     ecut=    40.00 Ry     beta=0.30
     Davidson diagonalization with overlap
     ethr =  2.46E-03,  avg # of iterations =  1.2

     total cpu time spent up to now is       97.3 secs

     total energy              =   -1109.69903800 Ry
     Harris-Foulkes estimate   =   -1110.27777064 Ry
     estimated scf accuracy    <       1.40187544 Ry

     iteration #  3     ecut=    40.00 Ry     beta=0.30
     Davidson diagonalization with overlap
     ethr =  1.10E-03,  avg # of iterations =  2.0

     total cpu time spent up to now is      135.2 secs

     total energy              =   -1109.90208491 Ry
     Harris-Foulkes estimate   =   -1109.95124202 Ry
     estimated scf accuracy    <       0.18500808 Ry

     iteration #  4     ecut=    40.00 Ry     beta=0.30
     Davidson diagonalization with overlap
     ethr =  1.45E-04,  avg # of iterations =  2.0

     total cpu time spent up to now is      171.3 secs

     total energy              =   -1109.85061758 Ry
     Harris-Foulkes estimate   =   -1109.91819074 Ry
     estimated scf accuracy    <       0.11407474 Ry

     iteration #  5     ecut=    40.00 Ry     beta=0.30
     Davidson diagonalization with overlap
     ethr =  8.91E-05,  avg # of iterations =  2.0

     total cpu time spent up to now is      212.2 secs

     total energy              =   -1109.86406593 Ry
     Harris-Foulkes estimate   =   -1109.86639535 Ry
     estimated scf accuracy    <       0.01523566 Ry

     iteration #  6     ecut=    40.00 Ry     beta=0.30
     Davidson diagonalization with overlap
     ethr =  1.19E-05,  avg # of iterations =  1.4

     total cpu time spent up to now is      242.2 secs

     total energy              =   -1109.86110628 Ry
     Harris-Foulkes estimate   =   -1109.86453596 Ry
     estimated scf accuracy    <       0.00974416 Ry

     iteration #  7     ecut=    40.00 Ry     beta=0.30
     Davidson diagonalization with overlap
     ethr =  7.61E-06,  avg # of iterations =  2.0

     total cpu time spent up to now is      277.5 secs

     total energy              =   -1109.86102001 Ry
     Harris-Foulkes estimate   =   -1109.86183832 Ry
     estimated scf accuracy    <       0.00177554 Ry

     iteration #  8     ecut=    40.00 Ry     beta=0.30
     Davidson diagonalization with overlap
     ethr =  1.39E-06,  avg # of iterations =  2.8

     total cpu time spent up to now is      320.0 secs

     total energy              =   -1109.86131556 Ry
     Harris-Foulkes estimate   =   -1109.86146080 Ry
     estimated scf accuracy    <       0.00043058 Ry

     iteration #  9     ecut=    40.00 Ry     beta=0.30
     Davidson diagonalization with overlap
     ethr =  3.36E-07,  avg # of iterations =  2.0

     total cpu time spent up to now is      357.7 secs

     total energy              =   -1109.86132203 Ry
     Harris-Foulkes estimate   =   -1109.86135173 Ry
     estimated scf accuracy    <       0.00010604 Ry

     iteration # 10     ecut=    40.00 Ry     beta=0.30
     Davidson diagonalization with overlap
     ethr =  8.28E-08,  avg # of iterations =  2.0

     total cpu time spent up to now is      394.0 secs

     total energy              =   -1109.86131812 Ry
     Harris-Foulkes estimate   =   -1109.86132938 Ry
     estimated scf accuracy    <       0.00003302 Ry

     iteration # 11     ecut=    40.00 Ry     beta=0.30
     Davidson diagonalization with overlap
     ethr =  2.58E-08,  avg # of iterations =  2.0

     total cpu time spent up to now is      432.4 secs

     total energy              =   -1109.86132086 Ry
     Harris-Foulkes estimate   =   -1109.86132362 Ry
     estimated scf accuracy    <       0.00000547 Ry

     iteration # 12     ecut=    40.00 Ry     beta=0.30
     Davidson diagonalization with overlap
     ethr =  4.28E-09,  avg # of iterations =  2.0

     total cpu time spent up to now is      472.0 secs

     total energy              =   -1109.86132169 Ry
     Harris-Foulkes estimate   =   -1109.86132176 Ry
     estimated scf accuracy    <       0.00000042 Ry

     iteration # 13     ecut=    40.00 Ry     beta=0.30
     Davidson diagonalization with overlap
     ethr =  3.31E-10,  avg # of iterations =  2.0

     total cpu time spent up to now is      508.9 secs

     total energy              =   -1109.86132166 Ry
     Harris-Foulkes estimate   =   -1109.86132172 Ry
     estimated scf accuracy    <       0.00000021 Ry

     iteration # 14     ecut=    40.00 Ry     beta=0.30
     Davidson diagonalization with overlap
     ethr =  1.62E-10,  avg # of iterations =  2.0

     total cpu time spent up to now is      545.9 secs

     total energy              =   -1109.86132166 Ry
     Harris-Foulkes estimate   =   -1109.86132168 Ry
     estimated scf accuracy    <       0.00000006 Ry

     iteration # 15     ecut=    40.00 Ry     beta=0.30
     Davidson diagonalization with overlap
     ethr =  4.74E-11,  avg # of iterations =  2.0

     total cpu time spent up to now is      585.3 secs

     total energy              =   -1109.86132166 Ry
     Harris-Foulkes estimate   =   -1109.86132166 Ry
     estimated scf accuracy    <       0.00000002 Ry

     iteration # 16     ecut=    40.00 Ry     beta=0.30
     Davidson diagonalization with overlap
     ethr =  1.32E-11,  avg # of iterations =  2.0

     total cpu time spent up to now is      621.6 secs

     total energy              =   -1109.86132166 Ry
     Harris-Foulkes estimate   =   -1109.86132166 Ry
     estimated scf accuracy    <          4.9E-09 Ry

     iteration # 17     ecut=    40.00 Ry     beta=0.30
     Davidson diagonalization with overlap
     ethr =  3.80E-12,  avg # of iterations =  2.0

     total cpu time spent up to now is      655.7 secs

     total energy              =   -1109.86132166 Ry
     Harris-Foulkes estimate   =   -1109.86132166 Ry
     estimated scf accuracy    <          2.4E-09 Ry

     iteration # 18     ecut=    40.00 Ry     beta=0.30
     Davidson diagonalization with overlap
     ethr =  1.86E-12,  avg # of iterations =  2.0

     total cpu time spent up to now is      692.5 secs

     total energy              =   -1109.86132166 Ry
     Harris-Foulkes estimate   =   -1109.86132166 Ry
     estimated scf accuracy    <          5.5E-10 Ry

     iteration # 19     ecut=    40.00 Ry     beta=0.30
     Davidson diagonalization with overlap
     ethr =  4.32E-13,  avg # of iterations =  2.2

     total cpu time spent up to now is      731.8 secs

     End of self-consistent calculation

          k = 0.0000 0.0000 0.0000 (  5327 PWs)   bands (ev):

   -65.8642 -65.8630 -65.8551 -65.7810 -64.6362 -32.8534 -32.8504 -32.8486
   -32.8360 -32.8278 -32.8263 -32.8218 -32.7984 -32.7912 -32.7786 -32.7336
   -32.7216 -31.6612 -31.5999 -31.5869 -30.0936 -29.3105 -28.9303 -11.8547
   -11.7536 -11.6219 -11.0117 -10.9273 -10.7399 -10.5413 -10.4487 -10.3761
    -9.1669  -8.5220  -8.3434  -8.0823  -7.8566  -7.4246  -7.1004  -7.0511
     2.7523   2.9530   3.5774   4.2032   4.3188   4.3581   4.6205   5.5608
     5.7202   5.8478   5.9235   5.9833   6.0773   6.1645   6.2291   6.3094
     6.5121   6.5596   6.5868   6.7076   6.7547   7.1917   7.2813   7.4052

     occupation numbers 
     1.0000   1.0000   1.0000   1.0000   1.0000   1.0000   1.0000   1.0000
     1.0000   1.0000   1.0000   1.0000   1.0000   1.0000   1.0000   1.0000
     1.0000   1.0000   1.0000   1.0000   1.0000   1.0000   1.0000   1.0000
     1.0000   1.0000   1.0000   1.0000   1.0000   1.0000   1.0000   1.0000
     1.0000   1.0000   1.0000   1.0000   1.0000   1.0000   1.0000   1.0000
     1.0000   1.0000   1.0000   1.0000   1.0000   1.0000   1.0000   1.0000
     1.0000   1.0000   1.0000   1.0000   1.0000   1.0000   1.0000   1.0000
     1.0000   1.0000   1.0000   1.0000   1.0000   1.0000   1.0000   1.0000

          k = 0.1707 0.1721-0.1718 (  5344 PWs)   bands (ev):

   -65.8641 -65.8630 -65.8551 -65.7810 -64.6362 -32.8534 -32.8500 -32.8484
   -32.8359 -32.8277 -32.8259 -32.8224 -32.7980 -32.7917 -32.7788 -32.7336
   -32.7219 -31.6612 -31.5999 -31.5870 -30.0931 -29.3103 -28.9308 -11.8280
   -11.6818 -11.6273 -10.9833 -10.9507 -10.7534 -10.5985 -10.5287 -10.5094
    -9.0034  -8.5088  -8.2063  -7.9448  -7.8315  -7.4994  -7.2473  -7.1596
     3.0758   3.1776   3.8214   4.1505   4.3677   4.5332   4.8447   5.1911
     5.5777   5.7061   5.7887   5.8544   5.9881   6.1438   6.2547   6.3019
     6.3926   6.4615   6.5303   6.6247   6.6797   6.7411   7.0278   7.2125

     occupation numbers 
     1.0000   1.0000   1.0000   1.0000   1.0000   1.0000   1.0000   1.0000
     1.0000   1.0000   1.0000   1.0000   1.0000   1.0000   1.0000   1.0000
     1.0000   1.0000   1.0000   1.0000   1.0000   1.0000   1.0000   1.0000
     1.0000   1.0000   1.0000   1.0000   1.0000   1.0000   1.0000   1.0000
     1.0000   1.0000   1.0000   1.0000   1.0000   1.0000   1.0000   1.0000
     1.0000   1.0000   1.0000   1.0000   1.0000   1.0000   1.0000   1.0000
     1.0000   1.0000   1.0000   1.0000   1.0000   1.0000   1.0000   1.0000
     1.0000   1.0000   1.0000   1.0000   1.0000   1.0000   1.0000   1.0000

          k =-0.3415-0.3443 0.3436 (  5340 PWs)   bands (ev):

   -65.8640 -65.8631 -65.8551 -65.7810 -64.6362 -32.8534 -32.8496 -32.8481
   -32.8359 -32.8276 -32.8252 -32.8233 -32.7974 -32.7924 -32.7791 -32.7336
   -32.7223 -31.6613 -31.5999 -31.5870 -30.0925 -29.3100 -28.9312 -11.7990
   -11.6345 -11.5891 -11.0087 -10.9119 -10.7972 -10.6818 -10.6287 -10.5719
    -8.8695  -8.4654  -8.0362  -7.8244  -7.6757  -7.5990  -7.4918  -7.3168
     3.6459   3.7214   3.7944   3.9742   4.4575   4.6613   4.8931   5.1331
     5.3576   5.3927   5.6775   5.7567   5.8877   5.9681   6.0274   6.1730
     6.3405   6.4013   6.4635   6.5843   6.6940   6.7463   6.7886   6.9105

     occupation numbers 
     1.0000   1.0000   1.0000   1.0000   1.0000   1.0000   1.0000   1.0000
     1.0000   1.0000   1.0000   1.0000   1.0000   1.0000   1.0000   1.0000
     1.0000   1.0000   1.0000   1.0000   1.0000   1.0000   1.0000   1.0000
     1.0000   1.0000   1.0000   1.0000   1.0000   1.0000   1.0000   1.0000
     1.0000   1.0000   1.0000   1.0000   1.0000   1.0000   1.0000   1.0000
     1.0000   1.0000   1.0000   1.0000   1.0000   1.0000   1.0000   1.0000
     1.0000   1.0000   1.0000   1.0000   1.0000   1.0000   1.0000   1.0000
     1.0000   1.0000   1.0000   1.0000   1.0000   1.0000   1.0000   1.0000

          k = 0.1671-0.1719 0.1684 (  5338 PWs)   bands (ev):

   -65.8641 -65.8630 -65.8551 -65.7810 -64.6362 -32.8534 -32.8499 -32.8484
   -32.8360 -32.8276 -32.8260 -32.8224 -32.7980 -32.7917 -32.7788 -32.7336
   -32.7219 -31.6612 -31.5999 -31.5870 -30.0931 -29.3103 -28.9308 -11.8275
   -11.6867 -11.6250 -10.9699 -10.9591 -10.7545 -10.5985 -10.5475 -10.4954
    -8.9944  -8.5084  -8.2017  -7.9422  -7.8437  -7.4888  -7.2556  -7.1616
     3.0592   3.1702   3.7990   4.1400   4.3329   4.5216   4.8373   5.2202
     5.4991   5.6734   5.7923   5.8746   5.9930   6.1788   6.2213   6.3115
     6.3768   6.4689   6.5658   6.6519   6.7283   6.8171   7.1021   7.2249

     occupation numbers 
     1.0000   1.0000   1.0000   1.0000   1.0000   1.0000   1.0000   1.0000
     1.0000   1.0000   1.0000   1.0000   1.0000   1.0000   1.0000   1.0000
     1.0000   1.0000   1.0000   1.0000   1.0000   1.0000   1.0000   1.0000
     1.0000   1.0000   1.0000   1.0000   1.0000   1.0000   1.0000   1.0000
     1.0000   1.0000   1.0000   1.0000   1.0000   1.0000   1.0000   1.0000
     1.0000   1.0000   1.0000   1.0000   1.0000   1.0000   1.0000   1.0000
     1.0000   1.0000   1.0000   1.0000   1.0000   1.0000   1.0000   1.0000
     1.0000   1.0000   1.0000   1.0000   1.0000   1.0000   1.0000   1.0000

          k = 0.3379 0.0002-0.0034 (  5329 PWs)   bands (ev):

   -65.8642 -65.8630 -65.8551 -65.7810 -64.6362 -32.8535 -32.8504 -32.8486
   -32.8360 -32.8278 -32.8263 -32.8218 -32.7984 -32.7912 -32.7786 -32.7336
   -32.7216 -31.6613 -31.5999 -31.5869 -30.0933 -29.3103 -28.9301 -11.8598
   -11.7593 -11.6372 -10.9356 -10.9055 -10.7410 -10.6296 -10.5338 -10.3755
    -8.9447  -8.5247  -8.3430  -8.0717  -7.8727  -7.5438  -7.1103  -7.0608
     3.0807   3.2949   3.7973   4.2346   4.3331   4.4540   4.8014   5.4791
     5.5436   5.6689   5.8120   5.8936   5.9341   6.0220   6.0720   6.1153
     6.3147   6.3820   6.4515   6.5312   6.6820   6.7926   7.2003   7.3309

     occupation numbers 
     1.0000   1.0000   1.0000   1.0000   1.0000   1.0000   1.0000   1.0000
     1.0000   1.0000   1.0000   1.0000   1.0000   1.0000   1.0000   1.0000
     1.0000   1.0000   1.0000   1.0000   1.0000   1.0000   1.0000   1.0000
     1.0000   1.0000   1.0000   1.0000   1.0000   1.0000   1.0000   1.0000
     1.0000   1.0000   1.0000   1.0000   1.0000   1.0000   1.0000   1.0000
     1.0000   1.0000   1.0000   1.0000   1.0000   1.0000   1.0000   1.0000
     1.0000   1.0000   1.0000   1.0000   1.0000   1.0000   1.0000   1.0000
     1.0000   1.0000   1.0000   1.0000   1.0000   1.0000   1.0000   1.0000

          k =-0.1744-0.5161 0.5121 (  5338 PWs)   bands (ev):

   -65.8641 -65.8630 -65.8551 -65.7810 -64.6362 -32.8535 -32.8500 -32.8485
   -32.8359 -32.8277 -32.8259 -32.8224 -32.7980 -32.7917 -32.7788 -32.7336
   -32.7220 -31.6613 -31.5999 -31.5870 -30.0928 -29.3101 -28.9306 -11.8335
   -11.6887 -11.6434 -10.9967 -10.9505 -10.7558 -10.5908 -10.5229 -10.5043
    -8.8520  -8.5318  -8.2732  -7.9405  -7.8774  -7.4958  -7.2524  -7.1716
     3.5880   3.7433   3.9670   4.1017   4.3859   4.7661   4.8962   5.0770
     5.1891   5.4357   5.5252   5.6098   5.7086   5.8250   5.9927   6.2358
     6.3350   6.4310   6.5115   6.5798   6.6548   6.7311   6.8630   7.1168

     occupation numbers 
     1.0000   1.0000   1.0000   1.0000   1.0000   1.0000   1.0000   1.0000
     1.0000   1.0000   1.0000   1.0000   1.0000   1.0000   1.0000   1.0000
     1.0000   1.0000   1.0000   1.0000   1.0000   1.0000   1.0000   1.0000
     1.0000   1.0000   1.0000   1.0000   1.0000   1.0000   1.0000   1.0000
     1.0000   1.0000   1.0000   1.0000   1.0000   1.0000   1.0000   1.0000
     1.0000   1.0000   1.0000   1.0000   1.0000   1.0000   1.0000   1.0000
     1.0000   1.0000   1.0000   1.0000   1.0000   1.0000   1.0000   1.0000
     1.0000   1.0000   1.0000   1.0000   1.0000   1.0000   1.0000   1.0000

          k =-0.0036-0.3440 0.3403 (  5346 PWs)   bands (ev):

   -65.8640 -65.8631 -65.8551 -65.7810 -64.6362 -32.8534 -32.8496 -32.8481
   -32.8359 -32.8275 -32.8252 -32.8232 -32.7974 -32.7924 -32.7791 -32.7336
   -32.7223 -31.6613 -31.5999 -31.5870 -30.0925 -29.3101 -28.9312 -11.7985
   -11.6359 -11.5908 -11.0331 -10.9923 -10.8038 -10.6804 -10.5762 -10.4449
    -8.9149  -8.5957  -7.9838  -7.8776  -7.6214  -7.5895  -7.4321  -7.3218
     3.4477   3.6065   3.9901   4.1729   4.4055   4.6166   4.7825   5.0315
     5.3499   5.4421   5.5283   5.7290   5.8672   5.9563   6.1161   6.2519
     6.3805   6.4119   6.4884   6.6169   6.7096   6.7789   6.9376   6.9650

     occupation numbers 
     1.0000   1.0000   1.0000   1.0000   1.0000   1.0000   1.0000   1.0000
     1.0000   1.0000   1.0000   1.0000   1.0000   1.0000   1.0000   1.0000
     1.0000   1.0000   1.0000   1.0000   1.0000   1.0000   1.0000   1.0000
     1.0000   1.0000   1.0000   1.0000   1.0000   1.0000   1.0000   1.0000
     1.0000   1.0000   1.0000   1.0000   1.0000   1.0000   1.0000   1.0000
     1.0000   1.0000   1.0000   1.0000   1.0000   1.0000   1.0000   1.0000
     1.0000   1.0000   1.0000   1.0000   1.0000   1.0000   1.0000   1.0000
     1.0000   1.0000   1.0000   1.0000   1.0000   1.0000   1.0000   1.0000

          k =-0.3343 0.3438-0.3369 (  5350 PWs)   bands (ev):

   -65.8640 -65.8631 -65.8551 -65.7810 -64.6362 -32.8535 -32.8496 -32.8481
   -32.8360 -32.8275 -32.8252 -32.8232 -32.7975 -32.7924 -32.7791 -32.7336
   -32.7223 -31.6613 -31.5999 -31.5870 -30.0926 -29.3101 -28.9313 -11.7980
   -11.6472 -11.5816 -11.0004 -10.9064 -10.8060 -10.6906 -10.6320 -10.5657
    -8.8478  -8.4711  -8.0171  -7.8635  -7.6340  -7.5626  -7.5474  -7.3269
     3.5905   3.6580   3.7758   3.9941   4.3424   4.7337   4.7886   5.1392
     5.3061   5.3915   5.6698   5.7424   5.8914   5.9419   6.0891   6.2839
     6.3072   6.3838   6.5191   6.6700   6.7824   6.8066   6.8982   6.9557

     occupation numbers 
     1.0000   1.0000   1.0000   1.0000   1.0000   1.0000   1.0000   1.0000
     1.0000   1.0000   1.0000   1.0000   1.0000   1.0000   1.0000   1.0000
     1.0000   1.0000   1.0000   1.0000   1.0000   1.0000   1.0000   1.0000
     1.0000   1.0000   1.0000   1.0000   1.0000   1.0000   1.0000   1.0000
     1.0000   1.0000   1.0000   1.0000   1.0000   1.0000   1.0000   1.0000
     1.0000   1.0000   1.0000   1.0000   1.0000   1.0000   1.0000   1.0000
     1.0000   1.0000   1.0000   1.0000   1.0000   1.0000   1.0000   1.0000
     1.0000   1.0000   1.0000   1.0000   1.0000   1.0000   1.0000   1.0000

          k =-0.1635 0.5159-0.5087 (  5332 PWs)   bands (ev):

   -65.8641 -65.8630 -65.8551 -65.7810 -64.6362 -32.8535 -32.8499 -32.8485
   -32.8360 -32.8276 -32.8259 -32.8224 -32.7980 -32.7917 -32.7788 -32.7336
   -32.7219 -31.6613 -31.5999 -31.5870 -30.0928 -29.3101 -28.9306 -11.8330
   -11.6937 -11.6409 -10.9888 -10.9554 -10.7564 -10.5899 -10.5333 -10.4980
    -8.8440  -8.5328  -8.2588  -7.9384  -7.8992  -7.4844  -7.2591  -7.1738
     3.5623   3.7138   3.9733   4.1035   4.3124   4.7056   4.9717   5.0431
     5.2357   5.3445   5.5160   5.5796   5.7487   5.8845   6.0236   6.2581
     6.3225   6.4241   6.5300   6.6320   6.6878   6.7533   6.9155   7.1304

     occupation numbers 
     1.0000   1.0000   1.0000   1.0000   1.0000   1.0000   1.0000   1.0000
     1.0000   1.0000   1.0000   1.0000   1.0000   1.0000   1.0000   1.0000
     1.0000   1.0000   1.0000   1.0000   1.0000   1.0000   1.0000   1.0000
     1.0000   1.0000   1.0000   1.0000   1.0000   1.0000   1.0000   1.0000
     1.0000   1.0000   1.0000   1.0000   1.0000   1.0000   1.0000   1.0000
     1.0000   1.0000   1.0000   1.0000   1.0000   1.0000   1.0000   1.0000
     1.0000   1.0000   1.0000   1.0000   1.0000   1.0000   1.0000   1.0000
     1.0000   1.0000   1.0000   1.0000   1.0000   1.0000   1.0000   1.0000

          k =-0.6758-0.0005 0.0067 (  5340 PWs)   bands (ev):

   -65.8642 -65.8630 -65.8551 -65.7810 -64.6362 -32.8535 -32.8504 -32.8487
   -32.8360 -32.8279 -32.8262 -32.8219 -32.7985 -32.7912 -32.7786 -32.7336
   -32.7216 -31.6613 -31.6000 -31.5870 -30.0930 -29.3101 -28.9299 -11.8649
   -11.7651 -11.6547 -11.0311 -10.9276 -10.7438 -10.5334 -10.4395 -10.3751
    -8.8475  -8.5911  -8.4542  -8.0571  -7.9679  -7.4170  -7.1205  -7.0709
     3.5147   3.8567   4.0152   4.2561   4.6272   4.7277   4.8527   4.9261
     5.0611   5.2561   5.4718   5.6321   5.6927   5.7733   5.8769   6.0032
     6.2923   6.3488   6.4388   6.6006   6.6787   6.8223   7.1365   7.2620

     occupation numbers 
     1.0000   1.0000   1.0000   1.0000   1.0000   1.0000   1.0000   1.0000
     1.0000   1.0000   1.0000   1.0000   1.0000   1.0000   1.0000   1.0000
     1.0000   1.0000   1.0000   1.0000   1.0000   1.0000   1.0000   1.0000
     1.0000   1.0000   1.0000   1.0000   1.0000   1.0000   1.0000   1.0000
     1.0000   1.0000   1.0000   1.0000   1.0000   1.0000   1.0000   1.0000
     1.0000   1.0000   1.0000   1.0000   1.0000   1.0000   1.0000   1.0000
     1.0000   1.0000   1.0000   1.0000   1.0000   1.0000   1.0000   1.0000
     1.0000   1.0000   1.0000   1.0000   1.0000   1.0000   1.0000   1.0000

          k =-0.1705 0.1776 0.1775 (  5334 PWs)   bands (ev):

   -65.8642 -65.8629 -65.8551 -65.7810 -64.6362 -32.8534 -32.8496 -32.8474
   -32.8360 -32.8275 -32.8265 -32.8223 -32.7974 -32.7915 -32.7807 -32.7338
   -32.7217 -31.6612 -31.6000 -31.5869 -30.0924 -29.3117 -28.9300 -11.7770
   -11.7047 -11.6258 -11.0060 -10.9714 -10.7917 -10.6402 -10.5301 -10.4072
    -8.9990  -8.4976  -8.2223  -7.9714  -7.8406  -7.4912  -7.2417  -7.1484
     2.9476   3.2659   3.8392   4.2816   4.3911   4.4567   4.8774   5.5187
     5.6220   5.7214   5.7601   5.8039   5.9296   6.0007   6.1219   6.1720
     6.3010   6.3672   6.5686   6.6720   6.7509   6.8012   7.0297   7.1852

     occupation numbers 
     1.0000   1.0000   1.0000   1.0000   1.0000   1.0000   1.0000   1.0000
     1.0000   1.0000   1.0000   1.0000   1.0000   1.0000   1.0000   1.0000
     1.0000   1.0000   1.0000   1.0000   1.0000   1.0000   1.0000   1.0000
     1.0000   1.0000   1.0000   1.0000   1.0000   1.0000   1.0000   1.0000
     1.0000   1.0000   1.0000   1.0000   1.0000   1.0000   1.0000   1.0000
     1.0000   1.0000   1.0000   1.0000   1.0000   1.0000   1.0000   1.0000
     1.0000   1.0000   1.0000   1.0000   1.0000   1.0000   1.0000   1.0000
     1.0000   1.0000   1.0000   1.0000   1.0000   1.0000   1.0000   1.0000

          k = 0.0002 0.3497 0.0057 (  5347 PWs)   bands (ev):

   -65.8641 -65.8630 -65.8551 -65.7810 -64.6362 -32.8534 -32.8492 -32.8471
   -32.8360 -32.8274 -32.8262 -32.8227 -32.7969 -32.7920 -32.7810 -32.7338
   -32.7220 -31.6612 -31.6000 -31.5870 -30.0920 -29.3116 -28.9306 -11.7489
   -11.6369 -11.6175 -11.0962 -11.0157 -10.8478 -10.5792 -10.4910 -10.4449
    -8.9987  -8.5616  -8.2000  -7.9250  -7.6500  -7.5111  -7.4357  -7.1137
     3.0912   3.3233   3.8922   4.2571   4.4883   4.5473   4.8633   5.1560
     5.4641   5.5412   5.7229   5.8608   5.9360   5.9971   6.1186   6.3008
     6.3728   6.4178   6.5252   6.5983   6.6678   6.7508   7.0862   7.1901

     occupation numbers 
     1.0000   1.0000   1.0000   1.0000   1.0000   1.0000   1.0000   1.0000
     1.0000   1.0000   1.0000   1.0000   1.0000   1.0000   1.0000   1.0000
     1.0000   1.0000   1.0000   1.0000   1.0000   1.0000   1.0000   1.0000
     1.0000   1.0000   1.0000   1.0000   1.0000   1.0000   1.0000   1.0000
     1.0000   1.0000   1.0000   1.0000   1.0000   1.0000   1.0000   1.0000
     1.0000   1.0000   1.0000   1.0000   1.0000   1.0000   1.0000   1.0000
     1.0000   1.0000   1.0000   1.0000   1.0000   1.0000   1.0000   1.0000
     1.0000   1.0000   1.0000   1.0000   1.0000   1.0000   1.0000   1.0000

          k =-0.5120-0.1666 0.5212 (  5343 PWs)   bands (ev):

   -65.8640 -65.8631 -65.8551 -65.7810 -64.6362 -32.8534 -32.8489 -32.8468
   -32.8360 -32.8274 -32.8258 -32.8233 -32.7959 -32.7931 -32.7813 -32.7338
   -32.7223 -31.6613 -31.6000 -31.5870 -30.0915 -29.3114 -28.9311 -11.7148
   -11.6306 -11.5663 -11.1382 -10.9858 -10.9154 -10.5784 -10.5315 -10.5150
    -8.8717  -8.5363  -8.0619  -7.9446  -7.8514  -7.5082  -7.3115  -7.2359
     3.6405   3.7454   4.0569   4.2459   4.3388   4.6930   4.8580   5.0128
     5.2159   5.3996   5.4454   5.6897   5.7798   5.9061   6.0998   6.1427
     6.2031   6.3826   6.4721   6.5888   6.6853   6.8152   6.8618   6.9651

     occupation numbers 
     1.0000   1.0000   1.0000   1.0000   1.0000   1.0000   1.0000   1.0000
     1.0000   1.0000   1.0000   1.0000   1.0000   1.0000   1.0000   1.0000
     1.0000   1.0000   1.0000   1.0000   1.0000   1.0000   1.0000   1.0000
     1.0000   1.0000   1.0000   1.0000   1.0000   1.0000   1.0000   1.0000
     1.0000   1.0000   1.0000   1.0000   1.0000   1.0000   1.0000   1.0000
     1.0000   1.0000   1.0000   1.0000   1.0000   1.0000   1.0000   1.0000
     1.0000   1.0000   1.0000   1.0000   1.0000   1.0000   1.0000   1.0000
     1.0000   1.0000   1.0000   1.0000   1.0000   1.0000   1.0000   1.0000

          k =-0.3413 0.0055 0.3494 (  5340 PWs)   bands (ev):

   -65.8641 -65.8630 -65.8551 -65.7810 -64.6362 -32.8534 -32.8492 -32.8472
   -32.8360 -32.8275 -32.8262 -32.8227 -32.7967 -32.7923 -32.7810 -32.7338
   -32.7220 -31.6613 -31.6000 -31.5870 -30.0919 -29.3115 -28.9305 -11.7465
   -11.6550 -11.6304 -11.0658 -10.9148 -10.8303 -10.6393 -10.6252 -10.4422
    -8.8781  -8.4609  -8.1941  -7.9172  -7.8681  -7.5740  -7.2988  -7.1491
     3.3663   3.5849   4.0766   4.2155   4.3940   4.6585   4.9798   5.1200
     5.3284   5.4963   5.6507   5.7329   5.7700   5.9412   6.1218   6.1912
     6.2791   6.3713   6.4143   6.4938   6.6012   6.6722   6.8028   7.1767

     occupation numbers 
     1.0000   1.0000   1.0000   1.0000   1.0000   1.0000   1.0000   1.0000
     1.0000   1.0000   1.0000   1.0000   1.0000   1.0000   1.0000   1.0000
     1.0000   1.0000   1.0000   1.0000   1.0000   1.0000   1.0000   1.0000
     1.0000   1.0000   1.0000   1.0000   1.0000   1.0000   1.0000   1.0000
     1.0000   1.0000   1.0000   1.0000   1.0000   1.0000   1.0000   1.0000
     1.0000   1.0000   1.0000   1.0000   1.0000   1.0000   1.0000   1.0000
     1.0000   1.0000   1.0000   1.0000   1.0000   1.0000   1.0000   1.0000
     1.0000   1.0000   1.0000   1.0000   1.0000   1.0000   1.0000   1.0000

          k =-0.0034 0.0057 0.3460 (  5335 PWs)   bands (ev):

   -65.8641 -65.8630 -65.8551 -65.7810 -64.6362 -32.8534 -32.8492 -32.8471
   -32.8360 -32.8275 -32.8263 -32.8227 -32.7966 -32.7923 -32.7810 -32.7337
   -32.7220 -31.6612 -31.6000 -31.5870 -30.0920 -29.3116 -28.9306 -11.7426
   -11.6526 -11.6222 -11.0621 -11.0200 -10.8406 -10.6368 -10.4547 -10.4367
    -9.0041  -8.5681  -8.1455  -7.9222  -7.8648  -7.4413  -7.3069  -7.1507
     3.0918   3.2992   3.8937   4.3019   4.4385   4.5615   4.8509   5.2021
     5.4276   5.6360   5.6856   5.8803   5.9176   6.0034   6.0913   6.2317
     6.3562   6.4113   6.5245   6.5528   6.6233   6.8086   7.1037   7.2868

     occupation numbers 
     1.0000   1.0000   1.0000   1.0000   1.0000   1.0000   1.0000   1.0000
     1.0000   1.0000   1.0000   1.0000   1.0000   1.0000   1.0000   1.0000
     1.0000   1.0000   1.0000   1.0000   1.0000   1.0000   1.0000   1.0000
     1.0000   1.0000   1.0000   1.0000   1.0000   1.0000   1.0000   1.0000
     1.0000   1.0000   1.0000   1.0000   1.0000   1.0000   1.0000   1.0000
     1.0000   1.0000   1.0000   1.0000   1.0000   1.0000   1.0000   1.0000
     1.0000   1.0000   1.0000   1.0000   1.0000   1.0000   1.0000   1.0000
     1.0000   1.0000   1.0000   1.0000   1.0000   1.0000   1.0000   1.0000

          k = 0.1674 0.1779 0.1742 (  5338 PWs)   bands (ev):

   -65.8642 -65.8629 -65.8551 -65.7810 -64.6362 -32.8534 -32.8497 -32.8474
   -32.8360 -32.8276 -32.8265 -32.8223 -32.7974 -32.7915 -32.7807 -32.7338
   -32.7217 -31.6612 -31.6000 -31.5869 -30.0924 -29.3117 -28.9301 -11.7776
   -11.7054 -11.6245 -11.0166 -10.9651 -10.7904 -10.6397 -10.5274 -10.4078
    -9.0013  -8.4870  -8.2294  -7.9547  -7.8538  -7.4903  -7.2416  -7.1524
     2.9464   3.2820   3.8311   4.2365   4.3269   4.4653   4.8605   5.4249
     5.5874   5.6008   5.7266   5.9040   5.9744   6.0479   6.1622   6.2023
     6.3640   6.4735   6.5642   6.7131   6.7546   6.7968   7.0918   7.1481

     occupation numbers 
     1.0000   1.0000   1.0000   1.0000   1.0000   1.0000   1.0000   1.0000
     1.0000   1.0000   1.0000   1.0000   1.0000   1.0000   1.0000   1.0000
     1.0000   1.0000   1.0000   1.0000   1.0000   1.0000   1.0000   1.0000
     1.0000   1.0000   1.0000   1.0000   1.0000   1.0000   1.0000   1.0000
     1.0000   1.0000   1.0000   1.0000   1.0000   1.0000   1.0000   1.0000
     1.0000   1.0000   1.0000   1.0000   1.0000   1.0000   1.0000   1.0000
     1.0000   1.0000   1.0000   1.0000   1.0000   1.0000   1.0000   1.0000
     1.0000   1.0000   1.0000   1.0000   1.0000   1.0000   1.0000   1.0000

          k =-0.3449-0.3385 0.6896 (  5353 PWs)   bands (ev):

   -65.8641 -65.8630 -65.8551 -65.7810 -64.6362 -32.8534 -32.8492 -32.8471
   -32.8360 -32.8274 -32.8262 -32.8227 -32.7969 -32.7920 -32.7810 -32.7338
   -32.7220 -31.6613 -31.6000 -31.5870 -30.0919 -29.3115 -28.9305 -11.7534
   -11.6354 -11.6292 -11.0907 -10.9175 -10.8460 -10.6263 -10.5745 -10.4859
    -8.8802  -8.4439  -8.2360  -7.9239  -7.6720  -7.5913  -7.4680  -7.1167
     3.3736   3.6412   4.0334   4.1853   4.3625   4.5880   4.9568   5.0379
     5.2280   5.5331   5.6101   5.8038   5.8806   6.0226   6.1265   6.1756
     6.2749   6.3736   6.4554   6.5762   6.6375   6.7335   6.8329   7.0843

     occupation numbers 
     1.0000   1.0000   1.0000   1.0000   1.0000   1.0000   1.0000   1.0000
     1.0000   1.0000   1.0000   1.0000   1.0000   1.0000   1.0000   1.0000
     1.0000   1.0000   1.0000   1.0000   1.0000   1.0000   1.0000   1.0000
     1.0000   1.0000   1.0000   1.0000   1.0000   1.0000   1.0000   1.0000
     1.0000   1.0000   1.0000   1.0000   1.0000   1.0000   1.0000   1.0000
     1.0000   1.0000   1.0000   1.0000   1.0000   1.0000   1.0000   1.0000
     1.0000   1.0000   1.0000   1.0000   1.0000   1.0000   1.0000   1.0000
     1.0000   1.0000   1.0000   1.0000   1.0000   1.0000   1.0000   1.0000

          k =-0.1741-0.1664 0.5178 (  5353 PWs)   bands (ev):

   -65.8640 -65.8631 -65.8551 -65.7810 -64.6362 -32.8533 -32.8488 -32.8468
   -32.8360 -32.8274 -32.8258 -32.8233 -32.7959 -32.7931 -32.7813 -32.7338
   -32.7223 -31.6613 -31.6000 -31.5871 -30.0915 -29.3114 -28.9311 -11.7144
   -11.6301 -11.5668 -11.1316 -10.9800 -10.9284 -10.5724 -10.5391 -10.5127
    -8.8701  -8.5459  -8.0656  -7.9253  -7.8556  -7.5055  -7.3186  -7.2355
     3.6506   3.7234   4.0695   4.1956   4.3392   4.7573   4.8979   5.0063
     5.2800   5.3685   5.4870   5.5618   5.8129   5.8607   6.0605   6.1024
     6.1760   6.3596   6.5247   6.6421   6.6921   6.7742   6.8726   7.0384

     occupation numbers 
     1.0000   1.0000   1.0000   1.0000   1.0000   1.0000   1.0000   1.0000
     1.0000   1.0000   1.0000   1.0000   1.0000   1.0000   1.0000   1.0000
     1.0000   1.0000   1.0000   1.0000   1.0000   1.0000   1.0000   1.0000
     1.0000   1.0000   1.0000   1.0000   1.0000   1.0000   1.0000   1.0000
     1.0000   1.0000   1.0000   1.0000   1.0000   1.0000   1.0000   1.0000
     1.0000   1.0000   1.0000   1.0000   1.0000   1.0000   1.0000   1.0000
     1.0000   1.0000   1.0000   1.0000   1.0000   1.0000   1.0000   1.0000
     1.0000   1.0000   1.0000   1.0000   1.0000   1.0000   1.0000   1.0000

          k =-0.5048 0.5214-0.1594 (  5332 PWs)   bands (ev):

   -65.8640 -65.8631 -65.8551 -65.7810 -64.6362 -32.8534 -32.8488 -32.8468
   -32.8360 -32.8274 -32.8258 -32.8233 -32.7960 -32.7930 -32.7813 -32.7337
   -32.7223 -31.6613 -31.6000 -31.5871 -30.0915 -29.3114 -28.9311 -11.7134
   -11.6369 -11.5632 -11.1287 -10.9794 -10.9296 -10.5738 -10.5436 -10.5095
    -8.8614  -8.5453  -8.0534  -7.9323  -7.8644  -7.4978  -7.3232  -7.2403
     3.6078   3.6746   4.1068   4.2104   4.3676   4.6637   4.8629   4.9840
     5.1816   5.3189   5.5439   5.6457   5.8378   5.9340   6.0577   6.1402
     6.1930   6.3688   6.4473   6.6350   6.7672   6.8275   6.8760   7.1032

     occupation numbers 
     1.0000   1.0000   1.0000   1.0000   1.0000   1.0000   1.0000   1.0000
     1.0000   1.0000   1.0000   1.0000   1.0000   1.0000   1.0000   1.0000
     1.0000   1.0000   1.0000   1.0000   1.0000   1.0000   1.0000   1.0000
     1.0000   1.0000   1.0000   1.0000   1.0000   1.0000   1.0000   1.0000
     1.0000   1.0000   1.0000   1.0000   1.0000   1.0000   1.0000   1.0000
     1.0000   1.0000   1.0000   1.0000   1.0000   1.0000   1.0000   1.0000
     1.0000   1.0000   1.0000   1.0000   1.0000   1.0000   1.0000   1.0000
     1.0000   1.0000   1.0000   1.0000   1.0000   1.0000   1.0000   1.0000

          k =-0.3340 0.6935-0.3312 (  5323 PWs)   bands (ev):

   -65.8641 -65.8630 -65.8551 -65.7810 -64.6362 -32.8534 -32.8492 -32.8472
   -32.8360 -32.8275 -32.8262 -32.8227 -32.7967 -32.7923 -32.7810 -32.7338
   -32.7220 -31.6613 -31.6000 -31.5870 -30.0919 -29.3115 -28.9305 -11.7472
   -11.6629 -11.6240 -11.0659 -10.9138 -10.8331 -10.6436 -10.6208 -10.4415
    -8.8732  -8.4442  -8.1904  -7.9445  -7.8571  -7.5596  -7.3142  -7.1510
     3.3460   3.5915   4.0530   4.1744   4.3275   4.5847   4.9829   5.0312
     5.1961   5.4701   5.5624   5.7944   5.9348   6.0326   6.1827   6.2398
     6.2724   6.3582   6.4591   6.5449   6.6204   6.7831   6.9241   7.1714

     occupation numbers 
     1.0000   1.0000   1.0000   1.0000   1.0000   1.0000   1.0000   1.0000
     1.0000   1.0000   1.0000   1.0000   1.0000   1.0000   1.0000   1.0000
     1.0000   1.0000   1.0000   1.0000   1.0000   1.0000   1.0000   1.0000
     1.0000   1.0000   1.0000   1.0000   1.0000   1.0000   1.0000   1.0000
     1.0000   1.0000   1.0000   1.0000   1.0000   1.0000   1.0000   1.0000
     1.0000   1.0000   1.0000   1.0000   1.0000   1.0000   1.0000   1.0000
     1.0000   1.0000   1.0000   1.0000   1.0000   1.0000   1.0000   1.0000
     1.0000   1.0000   1.0000   1.0000   1.0000   1.0000   1.0000   1.0000

          k =-0.8463 0.1771 0.1843 (  5340 PWs)   bands (ev):

   -65.8642 -65.8629 -65.8551 -65.7810 -64.6362 -32.8535 -32.8497 -32.8474
   -32.8360 -32.8276 -32.8264 -32.8223 -32.7974 -32.7915 -32.7807 -32.7338
   -32.7217 -31.6613 -31.6000 -31.5870 -30.0921 -29.3115 -28.9299 -11.7840
   -11.7117 -11.6406 -11.0243 -10.9703 -10.7923 -10.6308 -10.5194 -10.4067
    -8.8544  -8.5018  -8.2881  -7.9455  -7.9208  -7.4820  -7.2482  -7.1632
     3.3648   3.8584   4.1278   4.2549   4.3233   4.5929   4.8914   5.0806
     5.2555   5.3761   5.5464   5.6174   5.7344   5.8608   6.0066   6.1339
     6.3105   6.4151   6.5025   6.6030   6.6893   6.7826   6.9270   7.0455

     occupation numbers 
     1.0000   1.0000   1.0000   1.0000   1.0000   1.0000   1.0000   1.0000
     1.0000   1.0000   1.0000   1.0000   1.0000   1.0000   1.0000   1.0000
     1.0000   1.0000   1.0000   1.0000   1.0000   1.0000   1.0000   1.0000
     1.0000   1.0000   1.0000   1.0000   1.0000   1.0000   1.0000   1.0000
     1.0000   1.0000   1.0000   1.0000   1.0000   1.0000   1.0000   1.0000
     1.0000   1.0000   1.0000   1.0000   1.0000   1.0000   1.0000   1.0000
     1.0000   1.0000   1.0000   1.0000   1.0000   1.0000   1.0000   1.0000
     1.0000   1.0000   1.0000   1.0000   1.0000   1.0000   1.0000   1.0000

          k =-0.6755 0.3493 0.0125 (  5349 PWs)   bands (ev):

   -65.8641 -65.8630 -65.8551 -65.7810 -64.6362 -32.8534 -32.8492 -32.8472
   -32.8360 -32.8274 -32.8262 -32.8228 -32.7970 -32.7920 -32.7810 -32.7338
   -32.7220 -31.6613 -31.6000 -31.5870 -30.0917 -29.3114 -28.9304 -11.7556
   -11.6480 -11.6305 -11.0872 -11.0246 -10.8537 -10.5765 -10.4853 -10.4421
    -8.8413  -8.6127  -8.2261  -7.9567  -7.6826  -7.5257  -7.4211  -7.1234
     3.6317   4.0237   4.1873   4.2475   4.3601   4.7033   4.8730   4.9834
     5.1206   5.1474   5.3385   5.5870   5.6752   5.8630   6.0079   6.0869
     6.3135   6.3885   6.5341   6.5654   6.6734   6.8126   6.8697   7.0186

     occupation numbers 
     1.0000   1.0000   1.0000   1.0000   1.0000   1.0000   1.0000   1.0000
     1.0000   1.0000   1.0000   1.0000   1.0000   1.0000   1.0000   1.0000
     1.0000   1.0000   1.0000   1.0000   1.0000   1.0000   1.0000   1.0000
     1.0000   1.0000   1.0000   1.0000   1.0000   1.0000   1.0000   1.0000
     1.0000   1.0000   1.0000   1.0000   1.0000   1.0000   1.0000   1.0000
     1.0000   1.0000   1.0000   1.0000   1.0000   1.0000   1.0000   1.0000
     1.0000   1.0000   1.0000   1.0000   1.0000   1.0000   1.0000   1.0000
     1.0000   1.0000   1.0000   1.0000   1.0000   1.0000   1.0000   1.0000

          k =-0.3376 0.3495 0.0091 (  5338 PWs)   bands (ev):

   -65.8641 -65.8630 -65.8551 -65.7810 -64.6362 -32.8534 -32.8492 -32.8471
   -32.8360 -32.8274 -32.8262 -32.8227 -32.7970 -32.7920 -32.7810 -32.7338
   -32.7220 -31.6613 -31.6000 -31.5870 -30.0919 -29.3115 -28.9305 -11.7523
   -11.6494 -11.6182 -11.0842 -10.9098 -10.8520 -10.6404 -10.5702 -10.4846
    -8.8686  -8.4510  -8.2289  -7.9468  -7.6512  -7.5716  -7.4962  -7.1152
     3.3369   3.5954   4.0459   4.2059   4.3795   4.6227   5.0449   5.1374
     5.1836   5.4587   5.6040   5.7686   5.8666   5.9267   6.0896   6.2031
     6.3315   6.3856   6.4537   6.5216   6.5392   6.8051   6.9291   7.1044

     occupation numbers 
     1.0000   1.0000   1.0000   1.0000   1.0000   1.0000   1.0000   1.0000
     1.0000   1.0000   1.0000   1.0000   1.0000   1.0000   1.0000   1.0000
     1.0000   1.0000   1.0000   1.0000   1.0000   1.0000   1.0000   1.0000
     1.0000   1.0000   1.0000   1.0000   1.0000   1.0000   1.0000   1.0000
     1.0000   1.0000   1.0000   1.0000   1.0000   1.0000   1.0000   1.0000
     1.0000   1.0000   1.0000   1.0000   1.0000   1.0000   1.0000   1.0000
     1.0000   1.0000   1.0000   1.0000   1.0000   1.0000   1.0000   1.0000
     1.0000   1.0000   1.0000   1.0000   1.0000   1.0000   1.0000   1.0000

          k =-0.1669 0.5216-0.1627 (  5345 PWs)   bands (ev):

   -65.8640 -65.8631 -65.8551 -65.7810 -64.6362 -32.8534 -32.8488 -32.8468
   -32.8360 -32.8273 -32.8258 -32.8233 -32.7960 -32.7930 -32.7813 -32.7338
   -32.7223 -31.6613 -31.6000 -31.5870 -30.0915 -29.3114 -28.9311 -11.7139
   -11.6370 -11.5627 -11.1368 -10.9829 -10.9187 -10.5788 -10.5343 -10.5136
    -8.8596  -8.5415  -8.0550  -7.9241  -7.8795  -7.5023  -7.3155  -7.2399
     3.5986   3.7553   4.0294   4.1761   4.3324   4.7533   4.8247   5.0514
     5.1470   5.3926   5.4578   5.6166   5.8295   5.9874   6.0698   6.1019
     6.2103   6.3539   6.5445   6.6367   6.7441   6.8217   6.8662   7.0509

     occupation numbers 
     1.0000   1.0000   1.0000   1.0000   1.0000   1.0000   1.0000   1.0000
     1.0000   1.0000   1.0000   1.0000   1.0000   1.0000   1.0000   1.0000
     1.0000   1.0000   1.0000   1.0000   1.0000   1.0000   1.0000   1.0000
     1.0000   1.0000   1.0000   1.0000   1.0000   1.0000   1.0000   1.0000
     1.0000   1.0000   1.0000   1.0000   1.0000   1.0000   1.0000   1.0000
     1.0000   1.0000   1.0000   1.0000   1.0000   1.0000   1.0000   1.0000
     1.0000   1.0000   1.0000   1.0000   1.0000   1.0000   1.0000   1.0000
     1.0000   1.0000   1.0000   1.0000   1.0000   1.0000   1.0000   1.0000

          k =-0.6791 0.0052 0.3527 (  5338 PWs)   bands (ev):

   -65.8641 -65.8630 -65.8551 -65.7810 -64.6362 -32.8534 -32.8492 -32.8472
   -32.8360 -32.8275 -32.8262 -32.8227 -32.7967 -32.7923 -32.7810 -32.7338
   -32.7220 -31.6613 -31.6000 -31.5870 -30.0917 -29.3114 -28.9304 -11.7502
   -11.6609 -11.6375 -11.0772 -11.0205 -10.8264 -10.6394 -10.4446 -10.4386
    -8.8426  -8.6091  -8.1778  -7.9626  -7.8922  -7.4468  -7.3084  -7.1560
     3.6276   4.0804   4.1224   4.2106   4.3748   4.7635   4.8210   5.0045
     5.1076   5.1667   5.3136   5.5587   5.7063   5.8617   6.0551   6.1819
     6.2920   6.3672   6.4538   6.6040   6.6662   6.7567   6.8217   7.0941

     occupation numbers 
     1.0000   1.0000   1.0000   1.0000   1.0000   1.0000   1.0000   1.0000
     1.0000   1.0000   1.0000   1.0000   1.0000   1.0000   1.0000   1.0000
     1.0000   1.0000   1.0000   1.0000   1.0000   1.0000   1.0000   1.0000
     1.0000   1.0000   1.0000   1.0000   1.0000   1.0000   1.0000   1.0000
     1.0000   1.0000   1.0000   1.0000   1.0000   1.0000   1.0000   1.0000
     1.0000   1.0000   1.0000   1.0000   1.0000   1.0000   1.0000   1.0000
     1.0000   1.0000   1.0000   1.0000   1.0000   1.0000   1.0000   1.0000
     1.0000   1.0000   1.0000   1.0000   1.0000   1.0000   1.0000   1.0000

          k =-0.5084 0.1774 0.1809 (  5348 PWs)   bands (ev):

   -65.8642 -65.8629 -65.8551 -65.7810 -64.6362 -32.8534 -32.8496 -32.8474
   -32.8360 -32.8276 -32.8264 -32.8223 -32.7974 -32.7915 -32.7807 -32.7338
   -32.7217 -31.6613 -31.6000 -31.5870 -30.0921 -29.3115 -28.9298 -11.7836
   -11.7110 -11.6417 -11.0119 -10.9788 -10.7930 -10.6297 -10.5234 -10.4065
    -8.8519  -8.5096  -8.2846  -7.9851  -7.8831  -7.4835  -7.2490  -7.1589
     3.3593   3.7915   4.1266   4.3167   4.4321   4.6016   5.0323   5.1781
     5.3124   5.3444   5.5052   5.5424   5.6443   5.8100   6.0073   6.1148
     6.2028   6.3495   6.4845   6.5981   6.6958   6.7832   6.9228   7.0549

     occupation numbers 
     1.0000   1.0000   1.0000   1.0000   1.0000   1.0000   1.0000   1.0000
     1.0000   1.0000   1.0000   1.0000   1.0000   1.0000   1.0000   1.0000
     1.0000   1.0000   1.0000   1.0000   1.0000   1.0000   1.0000   1.0000
     1.0000   1.0000   1.0000   1.0000   1.0000   1.0000   1.0000   1.0000
     1.0000   1.0000   1.0000   1.0000   1.0000   1.0000   1.0000   1.0000
     1.0000   1.0000   1.0000   1.0000   1.0000   1.0000   1.0000   1.0000
     1.0000   1.0000   1.0000   1.0000   1.0000   1.0000   1.0000   1.0000
     1.0000   1.0000   1.0000   1.0000   1.0000   1.0000   1.0000   1.0000

          k = 0.3410-0.3552-0.3551 (  5370 PWs)   bands (ev):

   -65.8642 -65.8629 -65.8551 -65.7810 -64.6362 -32.8533 -32.8489 -32.8461
   -32.8361 -32.8270 -32.8269 -32.8227 -32.7964 -32.7913 -32.7834 -32.7339
   -32.7218 -31.6613 -31.6001 -31.5870 -30.0912 -29.3130 -28.9297 -11.7058
   -11.6306 -11.6071 -11.1166 -10.9176 -10.9015 -10.6716 -10.6265 -10.4340
    -8.8700  -8.4106  -8.0417  -7.9906  -7.6673  -7.5563  -7.4899  -7.2718
     3.2340   3.7183   4.1050   4.3946   4.4522   4.7598   5.0016   5.2231
     5.3605   5.5222   5.5942   5.6609   5.6802   5.8267   5.9883   6.0961
     6.1998   6.2834   6.4842   6.5663   6.5940   6.7530   6.8547   6.9823

     occupation numbers 
     1.0000   1.0000   1.0000   1.0000   1.0000   1.0000   1.0000   1.0000
     1.0000   1.0000   1.0000   1.0000   1.0000   1.0000   1.0000   1.0000
     1.0000   1.0000   1.0000   1.0000   1.0000   1.0000   1.0000   1.0000
     1.0000   1.0000   1.0000   1.0000   1.0000   1.0000   1.0000   1.0000
     1.0000   1.0000   1.0000   1.0000   1.0000   1.0000   1.0000   1.0000
     1.0000   1.0000   1.0000   1.0000   1.0000   1.0000   1.0000   1.0000
     1.0000   1.0000   1.0000   1.0000   1.0000   1.0000   1.0000   1.0000
     1.0000   1.0000   1.0000   1.0000   1.0000   1.0000   1.0000   1.0000

          k = 0.5118-0.1831-0.5269 (  5350 PWs)   bands (ev):

   -65.8641 -65.8630 -65.8551 -65.7810 -64.6362 -32.8533 -32.8484 -32.8458
   -32.8360 -32.8271 -32.8267 -32.8230 -32.7957 -32.7918 -32.7839 -32.7340
   -32.7221 -31.6613 -31.6001 -31.5870 -30.0908 -29.3128 -28.9303 -11.6506
   -11.6273 -11.5831 -11.1875 -10.9920 -10.9699 -10.5604 -10.5287 -10.4716
    -8.8673  -8.5209  -8.0482  -8.0118  -7.8573  -7.5020  -7.3022  -7.2208
     3.3950   3.7967   4.1756   4.3626   4.5624   4.7432   4.9920   5.1045
     5.1834   5.2321   5.3427   5.6197   5.6958   5.8307   6.0216   6.1381
     6.2180   6.3769   6.5110   6.5763   6.6937   6.7363   6.8655   7.0145

     occupation numbers 
     1.0000   1.0000   1.0000   1.0000   1.0000   1.0000   1.0000   1.0000
     1.0000   1.0000   1.0000   1.0000   1.0000   1.0000   1.0000   1.0000
     1.0000   1.0000   1.0000   1.0000   1.0000   1.0000   1.0000   1.0000
     1.0000   1.0000   1.0000   1.0000   1.0000   1.0000   1.0000   1.0000
     1.0000   1.0000   1.0000   1.0000   1.0000   1.0000   1.0000   1.0000
     1.0000   1.0000   1.0000   1.0000   1.0000   1.0000   1.0000   1.0000
     1.0000   1.0000   1.0000   1.0000   1.0000   1.0000   1.0000   1.0000
     1.0000   1.0000   1.0000   1.0000   1.0000   1.0000   1.0000   1.0000

          k =-0.0005-0.6995-0.0114 (  5360 PWs)   bands (ev):

   -65.8640 -65.8631 -65.8551 -65.7810 -64.6362 -32.8534 -32.8481 -32.8453
   -32.8360 -32.8272 -32.8266 -32.8232 -32.7945 -32.7928 -32.7844 -32.7340
   -32.7224 -31.6613 -31.6001 -31.5870 -30.0905 -29.3127 -28.9309 -11.6282
   -11.5970 -11.5328 -11.2503 -11.0677 -11.0186 -10.5350 -10.4573 -10.4403
    -8.8489  -8.6378  -8.0973  -8.0264  -7.9266  -7.4564  -7.1995  -7.1737
     3.6779   3.8366   4.1337   4.3804   4.5969   4.8165   4.8238   4.9617
     5.1362   5.2424   5.3941   5.4582   5.5064   5.7255   5.8302   6.1679
     6.2491   6.3223   6.5535   6.6591   6.6890   6.7696   6.9464   7.1973

     occupation numbers 
     1.0000   1.0000   1.0000   1.0000   1.0000   1.0000   1.0000   1.0000
     1.0000   1.0000   1.0000   1.0000   1.0000   1.0000   1.0000   1.0000
     1.0000   1.0000   1.0000   1.0000   1.0000   1.0000   1.0000   1.0000
     1.0000   1.0000   1.0000   1.0000   1.0000   1.0000   1.0000   1.0000
     1.0000   1.0000   1.0000   1.0000   1.0000   1.0000   1.0000   1.0000
     1.0000   1.0000   1.0000   1.0000   1.0000   1.0000   1.0000   1.0000
     1.0000   1.0000   1.0000   1.0000   1.0000   1.0000   1.0000   1.0000
     1.0000   1.0000   1.0000   1.0000   1.0000   1.0000   1.0000   1.0000

          k = 0.5081-0.5271-0.1866 (  5347 PWs)   bands (ev):

   -65.8641 -65.8630 -65.8551 -65.7810 -64.6362 -32.8533 -32.8484 -32.8458
   -32.8361 -32.8271 -32.8268 -32.8230 -32.7957 -32.7919 -32.7839 -32.7339
   -32.7221 -31.6613 -31.6001 -31.5870 -30.0908 -29.3129 -28.9303 -11.6503
   -11.6262 -11.5847 -11.1780 -10.9926 -10.9779 -10.5611 -10.5284 -10.4714
    -8.8685  -8.5262  -8.0466  -8.0091  -7.8527  -7.4989  -7.3083  -7.2210
     3.3953   3.7687   4.2615   4.3029   4.5714   4.7294   4.9541   5.0693
     5.2204   5.3064   5.4179   5.5650   5.6707   5.8407   6.0135   6.0865
     6.2439   6.3322   6.4784   6.5377   6.6346   6.8048   6.8740   7.1187

     occupation numbers 
     1.0000   1.0000   1.0000   1.0000   1.0000   1.0000   1.0000   1.0000
     1.0000   1.0000   1.0000   1.0000   1.0000   1.0000   1.0000   1.0000
     1.0000   1.0000   1.0000   1.0000   1.0000   1.0000   1.0000   1.0000
     1.0000   1.0000   1.0000   1.0000   1.0000   1.0000   1.0000   1.0000
     1.0000   1.0000   1.0000   1.0000   1.0000   1.0000   1.0000   1.0000
     1.0000   1.0000   1.0000   1.0000   1.0000   1.0000   1.0000   1.0000
     1.0000   1.0000   1.0000   1.0000   1.0000   1.0000   1.0000   1.0000
     1.0000   1.0000   1.0000   1.0000   1.0000   1.0000   1.0000   1.0000

          k = 0.6789-0.3550-0.3585 (  5347 PWs)   bands (ev):

   -65.8642 -65.8629 -65.8551 -65.7810 -64.6362 -32.8534 -32.8489 -32.8461
   -32.8361 -32.8270 -32.8269 -32.8227 -32.7964 -32.7913 -32.7834 -32.7339
   -32.7218 -31.6613 -31.6001 -31.5870 -30.0912 -29.3130 -28.9298 -11.7043
   -11.6332 -11.6056 -11.1240 -11.0227 -10.9038 -10.6706 -10.4470 -10.4320
    -8.9142  -8.5677  -8.0253  -7.9402  -7.6936  -7.5028  -7.4341  -7.2799
     3.1714   3.7729   4.1576   4.2426   4.5699   4.7328   4.9251   5.1297
     5.2177   5.4381   5.5178   5.5829   5.7690   5.9292   6.0795   6.2024
     6.2530   6.3694   6.4886   6.5525   6.6242   6.8172   6.9036   7.0069

     occupation numbers 
     1.0000   1.0000   1.0000   1.0000   1.0000   1.0000   1.0000   1.0000
     1.0000   1.0000   1.0000   1.0000   1.0000   1.0000   1.0000   1.0000
     1.0000   1.0000   1.0000   1.0000   1.0000   1.0000   1.0000   1.0000
     1.0000   1.0000   1.0000   1.0000   1.0000   1.0000   1.0000   1.0000
     1.0000   1.0000   1.0000   1.0000   1.0000   1.0000   1.0000   1.0000
     1.0000   1.0000   1.0000   1.0000   1.0000   1.0000   1.0000   1.0000
     1.0000   1.0000   1.0000   1.0000   1.0000   1.0000   1.0000   1.0000
     1.0000   1.0000   1.0000   1.0000   1.0000   1.0000   1.0000   1.0000

          k = 0.1667-0.8714 0.1570 (  5348 PWs)   bands (ev):

   -65.8641 -65.8630 -65.8551 -65.7810 -64.6362 -32.8534 -32.8484 -32.8458
   -32.8360 -32.8271 -32.8267 -32.8230 -32.7956 -32.7919 -32.7839 -32.7340
   -32.7221 -31.6613 -31.6001 -31.5870 -30.0908 -29.3128 -28.9303 -11.6479
   -11.6336 -11.5790 -11.1915 -10.9993 -10.9622 -10.5631 -10.5222 -10.4724
    -8.8719  -8.5111  -8.0764  -7.9366  -7.9069  -7.4983  -7.3030  -7.2248
     3.4077   3.8722   4.1704   4.2286   4.4406   4.7505   4.9181   4.9982
     5.1752   5.2674   5.4928   5.5994   5.7015   5.9449   6.0286   6.1843
     6.2483   6.3451   6.5146   6.5987   6.6732   6.8255   6.8585   7.0384

     occupation numbers 
     1.0000   1.0000   1.0000   1.0000   1.0000   1.0000   1.0000   1.0000
     1.0000   1.0000   1.0000   1.0000   1.0000   1.0000   1.0000   1.0000
     1.0000   1.0000   1.0000   1.0000   1.0000   1.0000   1.0000   1.0000
     1.0000   1.0000   1.0000   1.0000   1.0000   1.0000   1.0000   1.0000
     1.0000   1.0000   1.0000   1.0000   1.0000   1.0000   1.0000   1.0000
     1.0000   1.0000   1.0000   1.0000   1.0000   1.0000   1.0000   1.0000
     1.0000   1.0000   1.0000   1.0000   1.0000   1.0000   1.0000   1.0000
     1.0000   1.0000   1.0000   1.0000   1.0000   1.0000   1.0000   1.0000

          k = 0.3374-0.6992-0.0148 (  5338 PWs)   bands (ev):

   -65.8640 -65.8631 -65.8551 -65.7810 -64.6362 -32.8533 -32.8481 -32.8453
   -32.8360 -32.8272 -32.8266 -32.8233 -32.7946 -32.7928 -32.7844 -32.7340
   -32.7224 -31.6613 -31.6001 -31.5871 -30.0904 -29.3127 -28.9309 -11.6319
   -11.5953 -11.5339 -11.2384 -11.0670 -10.9127 -10.6308 -10.5298 -10.4546
    -8.8405  -8.4483  -8.1204  -8.0260  -7.9316  -7.5712  -7.2006  -7.1681
     3.7866   3.9579   4.0859   4.2844   4.3352   4.7946   4.8595   5.0443
     5.0821   5.2278   5.3963   5.4128   5.6937   5.8774   6.0672   6.1844
     6.2027   6.3418   6.4274   6.5666   6.6835   6.7437   6.7958   7.1715

     occupation numbers 
     1.0000   1.0000   1.0000   1.0000   1.0000   1.0000   1.0000   1.0000
     1.0000   1.0000   1.0000   1.0000   1.0000   1.0000   1.0000   1.0000
     1.0000   1.0000   1.0000   1.0000   1.0000   1.0000   1.0000   1.0000
     1.0000   1.0000   1.0000   1.0000   1.0000   1.0000   1.0000   1.0000
     1.0000   1.0000   1.0000   1.0000   1.0000   1.0000   1.0000   1.0000
     1.0000   1.0000   1.0000   1.0000   1.0000   1.0000   1.0000   1.0000
     1.0000   1.0000   1.0000   1.0000   1.0000   1.0000   1.0000   1.0000
     1.0000   1.0000   1.0000   1.0000   1.0000   1.0000   1.0000   1.0000

          k = 0.0067-0.0114-0.6920 (  5332 PWs)   bands (ev):

   -65.8640 -65.8631 -65.8551 -65.7810 -64.6362 -32.8533 -32.8481 -32.8453
   -32.8360 -32.8272 -32.8266 -32.8233 -32.7946 -32.7928 -32.7844 -32.7339
   -32.7224 -31.6613 -31.6000 -31.5871 -30.0904 -29.3128 -28.9309 -11.6283
   -11.5932 -11.5381 -11.2320 -11.0729 -11.0278 -10.5306 -10.4619 -10.4414
    -8.8473  -8.6522  -8.1004  -8.0007  -7.9341  -7.4505  -7.2076  -7.1752
     3.6845   3.7562   4.1771   4.4462   4.6579   4.7472   4.8293   4.9997
     5.1098   5.2964   5.3332   5.4104   5.5486   5.6832   5.8195   6.1221
     6.1772   6.3923   6.4933   6.6065   6.6991   6.8634   6.9796   7.2568

     occupation numbers 
     1.0000   1.0000   1.0000   1.0000   1.0000   1.0000   1.0000   1.0000
     1.0000   1.0000   1.0000   1.0000   1.0000   1.0000   1.0000   1.0000
     1.0000   1.0000   1.0000   1.0000   1.0000   1.0000   1.0000   1.0000
     1.0000   1.0000   1.0000   1.0000   1.0000   1.0000   1.0000   1.0000
     1.0000   1.0000   1.0000   1.0000   1.0000   1.0000   1.0000   1.0000
     1.0000   1.0000   1.0000   1.0000   1.0000   1.0000   1.0000   1.0000
     1.0000   1.0000   1.0000   1.0000   1.0000   1.0000   1.0000   1.0000
     1.0000   1.0000   1.0000   1.0000   1.0000   1.0000   1.0000   1.0000

          k = 0.1775 0.1607-0.8638 (  5326 PWs)   bands (ev):

   -65.8641 -65.8630 -65.8551 -65.7810 -64.6362 -32.8534 -32.8484 -32.8458
   -32.8360 -32.8271 -32.8268 -32.8230 -32.7957 -32.7919 -32.7839 -32.7339
   -32.7221 -31.6613 -31.6001 -31.5870 -30.0908 -29.3129 -28.9303 -11.6475
   -11.6331 -11.5804 -11.1819 -10.9933 -10.9770 -10.5613 -10.5244 -10.4722
    -8.8703  -8.5195  -8.0814  -7.9417  -7.8845  -7.4980  -7.3089  -7.2252
     3.3989   3.8413   4.2149   4.2773   4.3969   4.7852   4.8938   4.9611
     5.2006   5.2785   5.4513   5.6541   5.7804   5.8650   5.9726   6.1015
     6.2407   6.3664   6.5481   6.6123   6.6819   6.8048   6.9004   7.0596

     occupation numbers 
     1.0000   1.0000   1.0000   1.0000   1.0000   1.0000   1.0000   1.0000
     1.0000   1.0000   1.0000   1.0000   1.0000   1.0000   1.0000   1.0000
     1.0000   1.0000   1.0000   1.0000   1.0000   1.0000   1.0000   1.0000
     1.0000   1.0000   1.0000   1.0000   1.0000   1.0000   1.0000   1.0000
     1.0000   1.0000   1.0000   1.0000   1.0000   1.0000   1.0000   1.0000
     1.0000   1.0000   1.0000   1.0000   1.0000   1.0000   1.0000   1.0000
     1.0000   1.0000   1.0000   1.0000   1.0000   1.0000   1.0000   1.0000
     1.0000   1.0000   1.0000   1.0000   1.0000   1.0000   1.0000   1.0000

          k =-0.3347-0.3557-0.3483 (  5338 PWs)   bands (ev):

   -65.8642 -65.8629 -65.8551 -65.7810 -64.6362 -32.8534 -32.8489 -32.8461
   -32.8360 -32.8270 -32.8269 -32.8228 -32.7963 -32.7913 -32.7835 -32.7339
   -32.7217 -31.6613 -31.6001 -31.5870 -30.0912 -29.3129 -28.9298 -11.7041
   -11.6434 -11.5954 -11.1265 -10.9235 -10.8943 -10.6725 -10.6177 -10.4346
    -8.8728  -8.3938  -8.0988  -7.8961  -7.7202  -7.5587  -7.4709  -7.2835
     3.2455   3.8585   4.0581   4.1557   4.3809   4.6934   4.8543   5.2062
     5.2251   5.4587   5.5983   5.7490   5.8756   5.8930   6.0381   6.1309
     6.2562   6.4700   6.5611   6.6215   6.6420   6.7698   6.8576   6.9204

     occupation numbers 
     1.0000   1.0000   1.0000   1.0000   1.0000   1.0000   1.0000   1.0000
     1.0000   1.0000   1.0000   1.0000   1.0000   1.0000   1.0000   1.0000
     1.0000   1.0000   1.0000   1.0000   1.0000   1.0000   1.0000   1.0000
     1.0000   1.0000   1.0000   1.0000   1.0000   1.0000   1.0000   1.0000
     1.0000   1.0000   1.0000   1.0000   1.0000   1.0000   1.0000   1.0000
     1.0000   1.0000   1.0000   1.0000   1.0000   1.0000   1.0000   1.0000
     1.0000   1.0000   1.0000   1.0000   1.0000   1.0000   1.0000   1.0000
     1.0000   1.0000   1.0000   1.0000   1.0000   1.0000   1.0000   1.0000

     highest occupied level (ev):     7.4052

!    total energy              =   -1109.86132166 Ry
     Harris-Foulkes estimate   =   -1109.86132166 Ry
     estimated scf accuracy    <          6.9E-11 Ry

     The total energy is the sum of the following terms:

     one-electron contribution =    -553.87899998 Ry
     hartree contribution      =     320.61177436 Ry
     xc contribution           =    -177.60112997 Ry
     ewald contribution        =    -698.99296607 Ry

     convergence has been achieved in  19 iterations

     Forces acting on atoms (Ry/au):

     atom    1 type  2   force =   0.65704848E-02  0.18492174E-01  0.36717525E-02
     atom    2 type  3   force =   0.45678721E-02 -0.23940117E-01 -0.12587409E-01
     atom    3 type  1   force =  -0.16506683E-01  0.25755836E-01  0.69889186E-02
     atom    4 type  3   force =  -0.31087376E-01  0.17948841E-02 -0.97567426E-03
     atom    5 type  1   force =  -0.12780680E-01 -0.32539426E-01 -0.10417396E-01
     atom    6 type  3   force =  -0.38939206E-01 -0.88203230E-02  0.31902341E-01
     atom    7 type  2   force =  -0.73002321E-02  0.56501561E-01  0.29965398E-01
     atom    8 type  3   force =   0.19780465E-01  0.50388691E-02 -0.45045200E-01
     atom    9 type  2   force =   0.76846415E-02  0.18645188E-01  0.11514706E-02
     atom   10 type  3   force =   0.69379578E-02  0.22890440E-02  0.41706465E-01
     atom   11 type  2   force =   0.14075134E-01 -0.36916710E-01  0.21544936E-01
     atom   12 type  3   force =  -0.15667712E-01  0.51016600E-01  0.16959738E-01
     atom   13 type  1   force =   0.18602986E-01 -0.40672805E-01  0.32288900E-01
     atom   14 type  3   force =  -0.24767670E-02  0.16909242E-01 -0.18503711E-01
     atom   15 type  2   force =   0.31389906E-01 -0.91789446E-01 -0.35458019E-01
     atom   16 type  3   force =   0.15149210E-01  0.38235429E-01 -0.63192510E-01
     The non-local contrib.  to forces
     atom    1 type  2   force =   0.94463171E-02 -0.83907811E-02 -0.17612049E+00
     atom    2 type  3   force =   0.19957326E-02 -0.93036144E-01 -0.10792299E-01
     atom    3 type  1   force =   0.29728530E-01  0.14454359E-01  0.12028195E-01
     atom    4 type  3   force =  -0.45521337E-01  0.18500247E+00 -0.17040556E+00
     atom    5 type  1   force =   0.22869421E-01 -0.19450946E-01 -0.24571581E-01
     atom    6 type  3   force =  -0.11093620E+00 -0.64818764E-01  0.25497696E-01
     atom    7 type  2   force =  -0.16559367E+00  0.83900488E-01 -0.31538306E+00
     atom    8 type  3   force =   0.11487758E+00 -0.18522041E-01 -0.17735514E-01
     atom    9 type  2   force =   0.12405906E-01  0.19367051E+00 -0.46097387E-01
     atom   10 type  3   force =   0.11597304E+00 -0.23410405E-01  0.90430677E-01
     atom   11 type  2   force =  -0.31249471E-02 -0.85510900E-01  0.10841328E+00
     atom   12 type  3   force =  -0.89396479E-01 -0.37815565E-01  0.95945485E-01
     atom   13 type  1   force =  -0.27382214E-04 -0.29056302E-01  0.50048030E-01
     atom   14 type  3   force =  -0.70216661E-01  0.18180920E+00 -0.51920577E-01
     atom   15 type  2   force =   0.85372169E-01 -0.23879391E+00  0.28758911E-01
     atom   16 type  3   force =  -0.10557452E-01 -0.45073421E-01 -0.15296213E+00
     The ionic contribution  to forces
     atom    1 type  2   force =  -0.64690039E-01  0.27248545E+00  0.19908559E+00
     atom    2 type  3   force =   0.51474341E+00 -0.91085042E+00 -0.38776894E+00
     atom    3 type  1   force =  -0.32922001E+00  0.14297328E+01  0.14080765E+01
     atom    4 type  3   force =   0.61388059E+00 -0.27513716E+01  0.19469874E+01
     atom    5 type  1   force =  -0.28828686E+00 -0.16701460E+01 -0.89494466E+00
     atom    6 type  3   force =  -0.77108264E+00  0.86625666E+00  0.13640773E+01
     atom    7 type  2   force =  -0.24274396E+01  0.42259179E+01 -0.91655948E+00
     atom    8 type  3   force =  -0.43439901E+00  0.11033272E+00 -0.27147816E+01
     atom    9 type  2   force =   0.47737279E+00  0.18122498E+01 -0.17064597E+01
     atom   10 type  3   force =  -0.11068136E+01 -0.55907582E+00  0.25007080E+01
     atom   11 type  2   force =   0.13087640E+01 -0.24342410E+01  0.43644288E-01
     atom   12 type  3   force =   0.52996930E+00  0.24210467E+01  0.82380402E-01
     atom   13 type  1   force =   0.10683320E+01 -0.55228668E+00  0.19619289E+01
     atom   14 type  3   force =  -0.11131686E+01 -0.19559952E+01 -0.23229174E+00
     atom   15 type  2   force =   0.10281357E+01 -0.44060596E+01 -0.13742598E+01
     atom   16 type  3   force =   0.99390264E+00  0.41020041E+01 -0.12798226E+01
     The local contribution  to forces
     atom    1 type  2   force =   0.61811379E-01 -0.24560330E+00 -0.19291622E-01
     atom    2 type  3   force =  -0.51203699E+00  0.97952143E+00  0.38569253E+00
     atom    3 type  1   force =   0.28214674E+00 -0.14184602E+01 -0.14135401E+01
     atom    4 type  3   force =  -0.60044329E+00  0.25687283E+01 -0.17781504E+01
     atom    5 type  1   force =   0.25169123E+00  0.16570587E+01  0.90909218E+00
     atom    6 type  3   force =   0.84194945E+00 -0.81065630E+00 -0.13569677E+01
     atom    7 type  2   force =   0.25857349E+01 -0.42533147E+01  0.12619075E+01
     atom    8 type  3   force =   0.33999487E+00 -0.86727451E-01  0.26869943E+01
     atom    9 type  2   force =  -0.48209688E+00 -0.19872738E+01  0.17537096E+01
     atom   10 type  3   force =   0.99821966E+00  0.58479924E+00 -0.25484620E+01
     atom   11 type  2   force =  -0.12915640E+01  0.24828355E+01 -0.13051495E+00
     atom   12 type  3   force =  -0.45691271E+00 -0.23315506E+01 -0.16065311E+00
     atom   13 type  1   force =  -0.10494010E+01  0.54059021E+00 -0.19804098E+01
     atom   14 type  3   force =   0.11807026E+01  0.17919859E+01  0.26517992E+00
     atom   15 type  2   force =  -0.10821169E+01  0.45530619E+01  0.13100433E+01
     atom   16 type  3   force =  -0.96793438E+00 -0.40183228E+01  0.13678863E+01
     The core correction contribution to forces
     atom    1 type  2   force =   0.00000000E+00  0.00000000E+00  0.00000000E+00
     atom    2 type  3   force =  -0.13427138E-03  0.42506391E-03  0.28111365E-03
     atom    3 type  1   force =   0.83810168E-03  0.31747851E-04  0.42313371E-03
     atom    4 type  3   force =   0.99803676E-03 -0.56661336E-03  0.59452394E-03
     atom    5 type  1   force =   0.94559688E-03 -0.38783328E-05  0.83170947E-05
     atom    6 type  3   force =   0.11306101E-02  0.39945873E-03 -0.70347734E-03
     atom    7 type  2   force =   0.00000000E+00  0.00000000E+00  0.00000000E+00
     atom    8 type  3   force =  -0.69277574E-03 -0.44615656E-04  0.47672153E-03
     atom    9 type  2   force =   0.00000000E+00  0.00000000E+00  0.00000000E+00
     atom   10 type  3   force =  -0.44252331E-03 -0.24315749E-04 -0.96819120E-03
     atom   11 type  2   force =   0.00000000E+00  0.00000000E+00  0.00000000E+00
     atom   12 type  3   force =   0.67244845E-03 -0.66173077E-03 -0.71241393E-03
     atom   13 type  1   force =  -0.30196462E-03  0.80211189E-04  0.72205317E-03
     atom   14 type  3   force =   0.20347882E-03 -0.89265484E-03  0.52959297E-03
     atom   15 type  2   force =   0.00000000E+00  0.00000000E+00  0.00000000E+00
     atom   16 type  3   force =  -0.26041687E-03 -0.36816566E-03  0.17050830E-02
     The Hubbard contrib.    to forces
     atom    1 type  2   force =   0.00000000E+00  0.00000000E+00  0.00000000E+00
     atom    2 type  3   force =   0.00000000E+00  0.00000000E+00  0.00000000E+00
     atom    3 type  1   force =   0.00000000E+00  0.00000000E+00  0.00000000E+00
     atom    4 type  3   force =   0.00000000E+00  0.00000000E+00  0.00000000E+00
     atom    5 type  1   force =   0.00000000E+00  0.00000000E+00  0.00000000E+00
     atom    6 type  3   force =   0.00000000E+00  0.00000000E+00  0.00000000E+00
     atom    7 type  2   force =   0.00000000E+00  0.00000000E+00  0.00000000E+00
     atom    8 type  3   force =   0.00000000E+00  0.00000000E+00  0.00000000E+00
     atom    9 type  2   force =   0.00000000E+00  0.00000000E+00  0.00000000E+00
     atom   10 type  3   force =   0.00000000E+00  0.00000000E+00  0.00000000E+00
     atom   11 type  2   force =   0.00000000E+00  0.00000000E+00  0.00000000E+00
     atom   12 type  3   force =   0.00000000E+00  0.00000000E+00  0.00000000E+00
     atom   13 type  1   force =   0.00000000E+00  0.00000000E+00  0.00000000E+00
     atom   14 type  3   force =   0.00000000E+00  0.00000000E+00  0.00000000E+00
     atom   15 type  2   force =   0.00000000E+00  0.00000000E+00  0.00000000E+00
     atom   16 type  3   force =   0.00000000E+00  0.00000000E+00  0.00000000E+00
     The SCF correction term to forces
     atom    1 type  2   force =   0.26851011E-05  0.10674231E-05 -0.10110576E-05
     atom    2 type  3   force =  -0.15653264E-06  0.22176850E-06  0.90494227E-06
     atom    3 type  1   force =  -0.19051853E-06 -0.25628801E-05  0.18451025E-05
     atom    4 type  3   force =  -0.15214179E-05  0.25186883E-05 -0.90523505E-06
     atom    5 type  1   force =  -0.21340273E-06  0.29155776E-05 -0.93721218E-06
     atom    6 type  3   force =  -0.57135925E-06 -0.11095569E-05 -0.70131227E-06
     atom    7 type  2   force =  -0.20328520E-05 -0.19391138E-05  0.11562230E-05
     atom    8 type  3   force =  -0.34071678E-06  0.52763045E-06  0.15750140E-05
     atom    9 type  2   force =   0.26802859E-05 -0.10875123E-05 -0.37570016E-06
     atom   10 type  3   force =   0.12577418E-05  0.61060486E-06 -0.13414014E-05
     atom   11 type  2   force =  -0.66949344E-07 -0.82414368E-07  0.30274045E-05
     atom   12 type  3   force =  -0.41448139E-06 -0.19893959E-05  0.92482857E-07
     atom   13 type  1   force =   0.12034554E-05  0.29233076E-07  0.41048229E-06
     atom   14 type  3   force =   0.21980542E-05  0.22083923E-05 -0.18495927E-06
     atom   15 type  2   force =  -0.11479252E-05  0.24268893E-05  0.29274383E-06
     atom   16 type  3   force =  -0.13202811E-05 -0.40594574E-05  0.14798008E-05

     Total force =     0.202559     Total SCF correction =     0.000011


     entering subroutine stress ...

          total   stress  (Ry/bohr**3)                   (kbar)     P=   -6.45
  -0.0002719490   0.0000109353  -0.0000457440        -40.01      1.61     -6.73
   0.0000109353   0.0001262223   0.0002119790          1.61     18.57     31.18
  -0.0000457440   0.0002119790   0.0000141279         -6.73     31.18      2.08

     kinetic stress (kbar)  20521.46      0.26     -1.83
                                0.26  20566.71     21.14
                               -1.83     21.14  20537.28

     local   stress (kbar)  -1466.04   -234.09  -1096.72
                             -234.09  -5992.05   -253.27
                            -1096.72   -253.27  -5889.09

     nonloc. stress (kbar)   5283.72      1.45      1.51
                                1.45   5306.06     -1.13
                                1.51     -1.13   5305.31

     hartree stress (kbar)  11458.24     98.19    417.93
                               98.19  13126.82    109.53
                              417.93    109.53  13137.67

     exc-cor stress (kbar)  -5706.10      0.08      0.79
                                0.08  -5702.95     -0.21
                                0.79     -0.21  -5703.37

     corecor stress (kbar)   -853.36     -0.01     -0.01
                               -0.01   -853.63     -0.07
                               -0.01     -0.07   -853.51

     ewald   stress (kbar) -29277.93    135.72    671.60
                              135.72 -26432.39    155.20
                              671.60    155.20 -26532.22

     hubbard stress (kbar)      0.00      0.00      0.00
                                0.00      0.00      0.00
                                0.00      0.00      0.00

     london  stress (kbar)      0.00      0.00      0.00
                                0.00      0.00      0.00
                                0.00      0.00      0.00

     XDM     stress (kbar)      0.00      0.00      0.00
                                0.00      0.00      0.00
                                0.00      0.00      0.00

     dft-nl  stress (kbar)      0.00      0.00      0.00
                                0.00      0.00      0.00
                                0.00      0.00      0.00



     Writing output data file mix.dummy47914.save

     init_run     :     18.35s CPU     20.35s WALL (       1 calls)
     electrons    :    648.46s CPU    709.30s WALL (       1 calls)
     forces       :      5.61s CPU      6.37s WALL (       1 calls)
     stress       :     10.18s CPU     10.48s WALL (       1 calls)

     Called by init_run:
     wfcinit      :     16.36s CPU     18.08s WALL (       1 calls)
     potinit      :      0.47s CPU      0.48s WALL (       1 calls)

     Called by electrons:
     c_bands      :    570.25s CPU    625.10s WALL (      19 calls)
     sum_band     :     72.35s CPU     78.21s WALL (      19 calls)
     v_of_rho     :      0.76s CPU      0.77s WALL (      20 calls)
     v_h          :      0.06s CPU      0.05s WALL (      20 calls)
     v_xc         :      0.78s CPU      0.80s WALL (      22 calls)
     newd         :      4.08s CPU      4.13s WALL (      20 calls)
     mix_rho      :      1.18s CPU      1.22s WALL (      19 calls)

     Called by c_bands:
     init_us_2    :      2.81s CPU      2.89s WALL (    1476 calls)
     cegterg      :    546.68s CPU    600.13s WALL (     684 calls)

     Called by sum_band:
     sum_band:bec :      0.82s CPU      0.80s WALL (     684 calls)
     addusdens    :      3.99s CPU      4.06s WALL (      19 calls)

     Called by *egterg:
     h_psi        :    287.00s CPU    304.79s WALL (    2070 calls)
     s_psi        :     27.21s CPU     29.45s WALL (    2070 calls)
     g_psi        :      0.36s CPU      0.31s WALL (    1350 calls)
     cdiaghg      :     71.50s CPU     82.17s WALL (    2034 calls)
     cegterg:over :     83.65s CPU     93.15s WALL (    1350 calls)
     cegterg:upda :      9.61s CPU     13.14s WALL (    1350 calls)
     cegterg:last :      5.94s CPU      7.36s WALL (     684 calls)

     Called by h_psi:
     h_psi:vloc   :    183.94s CPU    188.54s WALL (    2070 calls)
     h_psi:vnl    :    102.69s CPU    115.81s WALL (    2070 calls)
     add_vuspsi   :     27.85s CPU     31.85s WALL (    2070 calls)

     General routines
     calbec       :    106.12s CPU    120.92s WALL (    2826 calls)
     fft          :      1.58s CPU      1.58s WALL (     341 calls)
     ffts         :      0.76s CPU      0.80s WALL (     513 calls)
     fftw         :    210.73s CPU    215.75s WALL (  256300 calls)
     interpolate  :      0.16s CPU      0.16s WALL (      39 calls)

     Parallel routines
     fft_scatter  :     95.31s CPU     97.49s WALL (  257154 calls)

     PWSCF        : 11m25.97s CPU    12m32.05s WALL


   This run was terminated on:  22:16:26   7Dec2017            

=------------------------------------------------------------------------------=
   JOB DONE.
=------------------------------------------------------------------------------=
