
     Program PWSCF v.5.1 starts on 15Nov2017 at  6:18: 7 

     This program is part of the open-source Quantum ESPRESSO suite
     for quantum simulation of materials; please cite
         "P. Giannozzi et al., J. Phys.:Condens. Matter 21 395502 (2009);
          URL http://www.quantum-espresso.org", 
     in publications or presentations arising from this work. More details at
     http://www.quantum-espresso.org/quote

     Parallel version (MPI), running on    16 processors
     R & G space division:  proc/nbgrp/npool/nimage =      16
     Waiting for input...
     Reading input from standard input
Warning: card &IONS ignored
Warning: card   ION_DYNAMICS='BFGS', ignored
Warning: card / ignored
Warning: card &CELL ignored
Warning: card  CELL_DYNAMICS = 'BFGS' ignored
Warning: card / ignored

     Current dimensions of program PWSCF are:
     Max number of different atomic species (ntypx) = 10
     Max number of k-points (npk) =  40000
     Max angular momentum in pseudopotentials (lmaxx) =  3
 kfg - two_fermi_energies  F

     Subspace diagonalization in iterative solution of the eigenvalue problem:
     a serial algorithm will be used


     Parallelization info
     --------------------
     sticks:   dense  smooth     PW     G-vecs:    dense   smooth      PW
     Min         154     123     35                 4973     3549     546
     Max         155     124     36                 4976     3564     547
     Sum        2469    1975    565                79577    56915    8741



     bravais-lattice index     =            0
     lattice parameter (alat)  =    13.977259131  a.u.
     unit-cell volume          =    1664.2003 (a.u.)^3
     number of atoms/cell      =           16
     number of atomic types    =            3
     number of electrons       =       128.00
     number of Kohn-Sham states=           64
     kinetic-energy cutoff     =      40.0000  Ry
     charge density cutoff     =     200.0000  Ry
     convergence threshold     =      1.0E-10
     mixing beta               =       0.3000
     number of iterations used =            8  local-TF  mixing
     Exchange-correlation      = SLA  PW   PSX  PSC ( 1  4 10  8 0)
     A smooth kinetic-energy cutoff is imposed at      39.5000 Ry
     height of the smooth step-function =             800.0000 Ry
     width of the smooth step-function  =               1.0000 Ry


     celldm(1)=  13.977259  celldm(2)=   0.000000  celldm(3)=   0.000000
     celldm(4)=   0.000000  celldm(5)=   0.000000  celldm(6)=   0.000000

     crystal axes: (cart. coord. in units of alat)
               a(1) = (  -0.003520091359   0.705669139079   0.708532762199 )  
               a(2) = (   0.625763196508   0.010962766191   0.694049904650 )  
               a(3) = (   0.629072414958   0.694495499980   0.007653547740 )  

     reciprocal axes: (cart. coord. in units 2 pi/alat)
               b(1) = ( -0.790761  0.708535  0.701767 )  
               b(2) = (  0.798540 -0.731387  0.732398 )  
               b(3) = (  0.790878  0.731504 -0.724619 )  


     PseudoPot. # 1 for Ca read from file:
     /users/kfg/psuedo/gbrv_1.5/ca.pbesol.UPF
     MD5 check sum: 0533207b58cddeaa036efa5b63902087
     Pseudo is Ultrasoft + core correction, Zval = 10.0
     Generated by new atomic code, or converted to UPF format
     Using radial grid of  845 points,  6 beta functions with: 
                l(1) =   0
                l(2) =   0
                l(3) =   1
                l(4) =   1
                l(5) =   2
                l(6) =   2
     Q(r) pseudized with  8 coefficients,  rinner =    1.500   1.500   1.500
                                                       1.500   1.500

     PseudoPot. # 2 for Mg read from file:
     /users/kfg/psuedo/gbrv_1.5/mg.pbesol.UPF
     MD5 check sum: 4059f37963cf5867752dbf5ab2400678
     Pseudo is Ultrasoft, Zval = 10.0
     Generated by new atomic code, or converted to UPF format
     Using radial grid of  821 points,  7 beta functions with: 
                l(1) =   0
                l(2) =   0
                l(3) =   0
                l(4) =   1
                l(5) =   1
                l(6) =   2
                l(7) =   2
     Q(r) pseudized with  8 coefficients,  rinner =    1.200   1.200   1.200
                                                       1.200   1.200

     PseudoPot. # 3 for O  read from file:
     /users/kfg/psuedo/gbrv_1.5/o.pbesol.UPF
     MD5 check sum: 501638753501ef6325af9037351f7734
     Pseudo is Ultrasoft + core correction, Zval =  6.0
     Generated by new atomic code, or converted to UPF format
     Using radial grid of  737 points,  5 beta functions with: 
                l(1) =   0
                l(2) =   0
                l(3) =   1
                l(4) =   1
                l(5) =   2
     Q(r) pseudized with  8 coefficients,  rinner =    0.900   0.900   0.900
                                                       0.900   0.900

     atomic species   valence    mass     pseudopotential
        Ca            10.00    40.07800     Ca( 1.00)
        Mg            10.00    40.07800     Mg( 1.00)
        O              6.00    15.99940     O ( 1.00)

     No symmetry found


                                    s                        frac. trans.

      isym =  1     identity                                     

 cryst.   s( 1) = (     1          0          0      )
                  (     0          1          0      )
                  (     0          0          1      )

 cart.    s( 1) = (  1.0000000  0.0000000  0.0000000 )
                  (  0.0000000  1.0000000  0.0000000 )
                  (  0.0000000 -0.0000000  1.0000000 )


     point group C_1 (1)    
     there are  1 classes
     the character table:

       E    
A      1.00

     the symmetry operations in each class:
     E        1

   Cartesian axes

     site n.     atom                  positions (alat units)
         1           Ca  tau(   1) = (   -0.00995116033   -0.02903986666   -0.01262322922  )
         2           O   tau(   2) = (    0.30486686863    0.39915495610    0.36620082373  )
         3           Ca  tau(   3) = (    0.32184937962    0.36960003013    0.03989739900  )
         4           O   tau(   4) = (    0.63212599524    0.67126444937    0.30691416910  )
         5           Ca  tau(   5) = (    0.31797173774   -0.05967503892    0.31614307455  )
         6           O   tau(   6) = (    0.61177099977    0.43450508463    0.71761293665  )
         7           Ca  tau(   7) = (    0.62240541179    0.38383158884    0.41578810561  )
         8           O   tau(   8) = (    0.93179237810    0.68006625339    0.64251422341  )
         9           Ca  tau(   9) = (   -0.00559693651    0.29006162911    0.32842259041  )
        10           O   tau(  10) = (    0.30840217483    0.77930698694    0.73843811652  )
        11           Ca  tau(  11) = (    0.32351094538    0.71695304298    0.42408254115  )
        12           O   tau(  12) = (    0.62030547457    1.04078851532    0.66528471606  )
        13           Ca  tau(  13) = (    0.28469704441    0.27660160707    0.64794034657  )
        14           O   tau(  14) = (    0.64294027823    0.77362897380    1.09349718706  )
        15           Ca  tau(  15) = (    0.64808591152    0.72258393211    0.76938714620  )
        16           O   tau(  16) = (    0.95271661765    1.01713228729    1.00191714072  )

   Crystallographic axes

     site n.     atom                  positions (cryst. coord.)
         1           Ca  tau(   1) = (   -0.02156535346    0.00404774972   -0.01996591307  )
         2           O   tau(   2) = (    0.29872637289    0.21971653506    0.26774006847  )
         3           Ca  tau(   3) = (    0.03536758756    0.01590975869    0.49599716645  )
         4           O   tau(   4) = (    0.19113655742    0.23860727585    0.76857155113  )
         5           Ca  tau(   5) = (   -0.07186259313    0.52910140903   -0.02125894226  )
         6           O   tau(   6) = (    0.32769494476    0.69631082275    0.28168272126  )
         7           Ca  tau(   7) = (    0.07157100124    0.52080876438    0.47173327589  )
         8           O   tau(   8) = (    0.19592164718    0.71725830669    0.76882752761  )
         9           Ca  tau(   9) = (    0.44042089422    0.02391945593   -0.03022629744  )
        10           O   tau(  10) = (    0.82650579785    0.21712731409    0.27888882816  )
        11           Ca  tau(  11) = (    0.54977403482    0.04456364307    0.47301376661  )
        12           O   tau(  12) = (    0.71379725036    0.22137298519    0.76984942871  )
        13           Ca  tau(  13) = (    0.42555799225    0.49958961080   -0.04201383457  )
        14           O   tau(  14) = (    0.80711194087    0.74846691564    0.28203165831  )
        15           Ca  tau(  15) = (    0.53942602856    0.55253194052    0.48361775198  )
        16           O   tau(  16) = (    0.67041589660    0.75066751260    0.77151124276  )

     number of k points=    36
                       cart. coord. in units 2pi/alat
        k(    1) = (   0.0000000   0.0000000   0.0000000), wk =   0.0312500
        k(    2) = (   0.1977195   0.1828761  -0.1811547), wk =   0.0625000
        k(    3) = (  -0.3954389  -0.3657522   0.3623094), wk =   0.0312500
        k(    4) = (   0.1996350  -0.1828468   0.1830996), wk =   0.0625000
        k(    5) = (   0.3973545   0.0000293   0.0019449), wk =   0.0625000
        k(    6) = (  -0.1958039  -0.5485989   0.5454089), wk =   0.0625000
        k(    7) = (   0.0019156  -0.3657229   0.3642543), wk =   0.0625000
        k(    8) = (  -0.3992701   0.3656935  -0.3661992), wk =   0.0312500
        k(    9) = (  -0.2015506   0.5485696  -0.5473538), wk =   0.0625000
        k(   10) = (  -0.7947090  -0.0000586  -0.0038898), wk =   0.0312500
        k(   11) = (  -0.1976901   0.1771338   0.1754418), wk =   0.0625000
        k(   12) = (   0.0000293   0.3600099  -0.0057129), wk =   0.0625000
        k(   13) = (  -0.5931290  -0.1886183   0.5377511), wk =   0.0625000
        k(   14) = (  -0.3954096  -0.0057422   0.3565964), wk =   0.0625000
        k(   15) = (   0.0019449  -0.0057129   0.3585413), wk =   0.0625000
        k(   16) = (   0.1996644   0.1771632   0.1773867), wk =   0.0625000
        k(   17) = (  -0.3934940  -0.3714651   0.7208507), wk =   0.0625000
        k(   18) = (  -0.1957745  -0.1885890   0.5396960), wk =   0.0625000
        k(   19) = (  -0.5969602   0.5428274  -0.1907574), wk =   0.0625000
        k(   20) = (  -0.3992407   0.7257035  -0.3719121), wk =   0.0625000
        k(   21) = (  -0.9923991   0.1770752   0.1715519), wk =   0.0625000
        k(   22) = (  -0.7946797   0.3599513  -0.0096027), wk =   0.0625000
        k(   23) = (  -0.3973252   0.3599806  -0.0076578), wk =   0.0625000
        k(   24) = (  -0.1996057   0.5428567  -0.1888125), wk =   0.0625000
        k(   25) = (  -0.7927641  -0.0057716   0.3546515), wk =   0.0625000
        k(   26) = (  -0.5950446   0.1771045   0.1734968), wk =   0.0625000
        k(   27) = (   0.3953803  -0.3542677  -0.3508835), wk =   0.0312500
        k(   28) = (   0.5930997  -0.1713916  -0.5320382), wk =   0.0625000
        k(   29) = (  -0.0000586  -0.7200199   0.0114259), wk =   0.0312500
        k(   30) = (   0.5950153  -0.5371144  -0.1677839), wk =   0.0625000
        k(   31) = (   0.7927347  -0.3542384  -0.3489386), wk =   0.0625000
        k(   32) = (   0.1995764  -0.9028666   0.1945254), wk =   0.0625000
        k(   33) = (   0.3972958  -0.7199905   0.0133708), wk =   0.0625000
        k(   34) = (  -0.0038898   0.0114259  -0.7170827), wk =   0.0312500
        k(   35) = (   0.1938296   0.1943019  -0.8982373), wk =   0.0625000
        k(   36) = (  -0.3993287  -0.3543263  -0.3547733), wk =   0.0312500

                       cryst. coord.
        k(    1) = (   0.0000000   0.0000000   0.0000000), wk =   0.0312500
        k(    2) = (  -0.0000000   0.0000000   0.2500000), wk =   0.0625000
        k(    3) = (   0.0000000  -0.0000000  -0.5000000), wk =   0.0312500
        k(    4) = (  -0.0000000   0.2500000  -0.0000000), wk =   0.0625000
        k(    5) = (  -0.0000000   0.2500000   0.2500000), wk =   0.0625000
        k(    6) = (   0.0000000   0.2500000  -0.5000000), wk =   0.0625000
        k(    7) = (  -0.0000000   0.2500000  -0.2500000), wk =   0.0625000
        k(    8) = (   0.0000000  -0.5000000   0.0000000), wk =   0.0312500
        k(    9) = (   0.0000000  -0.5000000   0.2500000), wk =   0.0625000
        k(   10) = (   0.0000000  -0.5000000  -0.5000000), wk =   0.0312500
        k(   11) = (   0.2500000   0.0000000  -0.0000000), wk =   0.0625000
        k(   12) = (   0.2500000   0.0000000   0.2500000), wk =   0.0625000
        k(   13) = (   0.2500000   0.0000000  -0.5000000), wk =   0.0625000
        k(   14) = (   0.2500000   0.0000000  -0.2500000), wk =   0.0625000
        k(   15) = (   0.2500000   0.2500000  -0.0000000), wk =   0.0625000
        k(   16) = (   0.2500000   0.2500000   0.2500000), wk =   0.0625000
        k(   17) = (   0.2500000   0.2500000  -0.5000000), wk =   0.0625000
        k(   18) = (   0.2500000   0.2500000  -0.2500000), wk =   0.0625000
        k(   19) = (   0.2500000  -0.5000000   0.0000000), wk =   0.0625000
        k(   20) = (   0.2500000  -0.5000000   0.2500000), wk =   0.0625000
        k(   21) = (   0.2500000  -0.5000000  -0.5000000), wk =   0.0625000
        k(   22) = (   0.2500000  -0.5000000  -0.2500000), wk =   0.0625000
        k(   23) = (   0.2500000  -0.2500000   0.0000000), wk =   0.0625000
        k(   24) = (   0.2500000  -0.2500000   0.2500000), wk =   0.0625000
        k(   25) = (   0.2500000  -0.2500000  -0.5000000), wk =   0.0625000
        k(   26) = (   0.2500000  -0.2500000  -0.2500000), wk =   0.0625000
        k(   27) = (  -0.5000000  -0.0000000   0.0000000), wk =   0.0312500
        k(   28) = (  -0.5000000  -0.0000000   0.2500000), wk =   0.0625000
        k(   29) = (  -0.5000000  -0.0000000  -0.5000000), wk =   0.0312500
        k(   30) = (  -0.5000000   0.2500000  -0.0000000), wk =   0.0625000
        k(   31) = (  -0.5000000   0.2500000   0.2500000), wk =   0.0625000
        k(   32) = (  -0.5000000   0.2500000  -0.5000000), wk =   0.0625000
        k(   33) = (  -0.5000000   0.2500000  -0.2500000), wk =   0.0625000
        k(   34) = (  -0.5000000  -0.5000000   0.0000000), wk =   0.0312500
        k(   35) = (  -0.5000000  -0.5000000   0.2500000), wk =   0.0625000
        k(   36) = (  -0.5000000  -0.5000000  -0.5000000), wk =   0.0312500

     Dense  grid:    79577 G-vectors     FFT dimensions: (  64,  60,  60)

     Smooth grid:    56915 G-vectors     FFT dimensions: (  60,  54,  54)

     Largest allocated arrays     est. size (Mb)     dimensions
        Kohn-Sham Wavefunctions         0.45 Mb     (     459,   64)
        NL pseudopotentials             1.74 Mb     (     459,  248)
        Each V/rho on FFT grid          0.23 Mb     (   15360)
        Each G-vector array             0.04 Mb     (    4976)
        G-vector shells                 0.04 Mb     (    4839)
     Largest temporary arrays     est. size (Mb)     dimensions
        Auxiliary wavefunctions         1.79 Mb     (     459,  256)
        Each subspace H/S matrix        1.00 Mb     (     256,  256)
        Each <psi_i|beta_j> matrix      0.24 Mb     (     248,   64)
        Arrays for rho mixing           1.88 Mb     (   15360,    8)

     Check: negative/imaginary core charge=   -0.000003    0.000000

     Initial potential from superposition of free atoms

     starting charge  127.95858, renormalised to  128.00000
     Starting wfc are  112 randomized atomic wfcs

     total cpu time spent up to now is       23.8 secs

     per-process dynamical memory:    38.6 Mb

     Self-consistent Calculation

     iteration #  1     ecut=    40.00 Ry     beta=0.30
     Davidson diagonalization with overlap
     ethr =  1.00E-02,  avg # of iterations =  1.0

     total cpu time spent up to now is       58.5 secs

     total energy              =    -858.84604453 Ry
     Harris-Foulkes estimate   =    -859.71336297 Ry
     estimated scf accuracy    <       4.46044227 Ry

     iteration #  2     ecut=    40.00 Ry     beta=0.30
     Davidson diagonalization with overlap
     ethr =  3.48E-03,  avg # of iterations =  1.0

     total cpu time spent up to now is       94.6 secs

     total energy              =    -858.28204758 Ry
     Harris-Foulkes estimate   =    -858.99347988 Ry
     estimated scf accuracy    <       1.81853431 Ry

     iteration #  3     ecut=    40.00 Ry     beta=0.30
     Davidson diagonalization with overlap
     ethr =  1.42E-03,  avg # of iterations =  2.0

     total cpu time spent up to now is      141.9 secs

     total energy              =    -858.62166719 Ry
     Harris-Foulkes estimate   =    -858.67985882 Ry
     estimated scf accuracy    <       0.16750400 Ry

     iteration #  4     ecut=    40.00 Ry     beta=0.30
     Davidson diagonalization with overlap
     ethr =  1.31E-04,  avg # of iterations =  3.0

     total cpu time spent up to now is      198.9 secs

     total energy              =    -858.63087493 Ry
     Harris-Foulkes estimate   =    -858.68355237 Ry
     estimated scf accuracy    <       0.15997588 Ry

     iteration #  5     ecut=    40.00 Ry     beta=0.30
     Davidson diagonalization with overlap
     ethr =  1.25E-04,  avg # of iterations =  2.0

     total cpu time spent up to now is      244.3 secs

     total energy              =    -858.65044340 Ry
     Harris-Foulkes estimate   =    -858.65074896 Ry
     estimated scf accuracy    <       0.00133728 Ry

     iteration #  6     ecut=    40.00 Ry     beta=0.30
     Davidson diagonalization with overlap
     ethr =  1.04E-06,  avg # of iterations =  3.4

     total cpu time spent up to now is      302.9 secs

     total energy              =    -858.65119563 Ry
     Harris-Foulkes estimate   =    -858.65105111 Ry
     estimated scf accuracy    <       0.00052257 Ry

     iteration #  7     ecut=    40.00 Ry     beta=0.30
     Davidson diagonalization with overlap
     ethr =  4.08E-07,  avg # of iterations =  2.0

     total cpu time spent up to now is      347.7 secs

     total energy              =    -858.65092401 Ry
     Harris-Foulkes estimate   =    -858.65127558 Ry
     estimated scf accuracy    <       0.00092832 Ry

     iteration #  8     ecut=    40.00 Ry     beta=0.30
     Davidson diagonalization with overlap
     ethr =  4.08E-07,  avg # of iterations =  3.0

     total cpu time spent up to now is      403.2 secs

     total energy              =    -858.65107300 Ry
     Harris-Foulkes estimate   =    -858.65109230 Ry
     estimated scf accuracy    <       0.00005086 Ry

     iteration #  9     ecut=    40.00 Ry     beta=0.30
     Davidson diagonalization with overlap
     ethr =  3.97E-08,  avg # of iterations =  2.8

     total cpu time spent up to now is      454.4 secs

     total energy              =    -858.65108007 Ry
     Harris-Foulkes estimate   =    -858.65108072 Ry
     estimated scf accuracy    <       0.00000810 Ry

     iteration # 10     ecut=    40.00 Ry     beta=0.30
     Davidson diagonalization with overlap
     ethr =  6.33E-09,  avg # of iterations =  2.0

     total cpu time spent up to now is      504.5 secs

     total energy              =    -858.65107857 Ry
     Harris-Foulkes estimate   =    -858.65108050 Ry
     estimated scf accuracy    <       0.00000489 Ry

     iteration # 11     ecut=    40.00 Ry     beta=0.30
     Davidson diagonalization with overlap
     ethr =  3.82E-09,  avg # of iterations =  2.8

     total cpu time spent up to now is      563.9 secs

     total energy              =    -858.65107930 Ry
     Harris-Foulkes estimate   =    -858.65107928 Ry
     estimated scf accuracy    <       0.00000037 Ry

     iteration # 12     ecut=    40.00 Ry     beta=0.30
     Davidson diagonalization with overlap
     ethr =  2.91E-10,  avg # of iterations =  2.0

     total cpu time spent up to now is      616.0 secs

     total energy              =    -858.65107932 Ry
     Harris-Foulkes estimate   =    -858.65107934 Ry
     estimated scf accuracy    <       0.00000016 Ry

     iteration # 13     ecut=    40.00 Ry     beta=0.30
     Davidson diagonalization with overlap
     ethr =  1.29E-10,  avg # of iterations =  2.2

     total cpu time spent up to now is      674.6 secs

     total energy              =    -858.65107934 Ry
     Harris-Foulkes estimate   =    -858.65107934 Ry
     estimated scf accuracy    <       0.00000004 Ry

     iteration # 14     ecut=    40.00 Ry     beta=0.30
     Davidson diagonalization with overlap
     ethr =  3.25E-11,  avg # of iterations =  2.0

     total cpu time spent up to now is      734.7 secs

     total energy              =    -858.65107935 Ry
     Harris-Foulkes estimate   =    -858.65107935 Ry
     estimated scf accuracy    <       0.00000002 Ry

     iteration # 15     ecut=    40.00 Ry     beta=0.30
     Davidson diagonalization with overlap
     ethr =  1.32E-11,  avg # of iterations =  2.0

     total cpu time spent up to now is      785.5 secs

     total energy              =    -858.65107935 Ry
     Harris-Foulkes estimate   =    -858.65107935 Ry
     estimated scf accuracy    <          4.0E-09 Ry

     iteration # 16     ecut=    40.00 Ry     beta=0.30
     Davidson diagonalization with overlap
     ethr =  3.10E-12,  avg # of iterations =  2.0

     total cpu time spent up to now is      826.1 secs

     total energy              =    -858.65107935 Ry
     Harris-Foulkes estimate   =    -858.65107935 Ry
     estimated scf accuracy    <          1.6E-09 Ry

     iteration # 17     ecut=    40.00 Ry     beta=0.30
     Davidson diagonalization with overlap
     ethr =  1.24E-12,  avg # of iterations =  3.0

     total cpu time spent up to now is      880.5 secs

     total energy              =    -858.65107935 Ry
     Harris-Foulkes estimate   =    -858.65107935 Ry
     estimated scf accuracy    <          2.8E-10 Ry

     iteration # 18     ecut=    40.00 Ry     beta=0.30
     Davidson diagonalization with overlap
     ethr =  2.19E-13,  avg # of iterations =  2.0

     total cpu time spent up to now is      925.9 secs

     total energy              =    -858.65107935 Ry
     Harris-Foulkes estimate   =    -858.65107935 Ry
     estimated scf accuracy    <          1.2E-10 Ry

     iteration # 19     ecut=    40.00 Ry     beta=0.30
     Davidson diagonalization with overlap
     ethr =  1.00E-13,  avg # of iterations =  2.0

     total cpu time spent up to now is      975.0 secs

     End of self-consistent calculation

          k = 0.0000 0.0000 0.0000 (  7121 PWs)   bands (ev):

   -31.4183 -31.3282 -31.2168 -31.1353 -31.0866 -31.0372 -30.9658 -30.8567
   -13.2946 -13.0852 -13.0248 -12.9329 -12.7637 -12.6977 -12.6599 -12.5437
   -12.4921 -12.3843 -12.3693 -12.3535 -12.3019 -12.2598 -12.2570 -12.2233
   -12.1674 -12.1268 -12.0857 -12.0616 -12.0305 -12.0090 -11.9540 -11.9366
    -8.7580  -8.4382  -8.2361  -8.1614  -7.7500  -7.6964  -7.6641  -7.6274
     4.0842   4.1317   4.2628   4.3243   4.9571   5.1354   5.1507   5.2258
     5.3493   5.4250   5.4757   5.4857   5.5856   5.6853   5.7588   5.8535
     5.9397   5.9571   6.0717   6.1643   6.2249   6.3438   6.3769   6.6588

     occupation numbers 
     1.0000   1.0000   1.0000   1.0000   1.0000   1.0000   1.0000   1.0000
     1.0000   1.0000   1.0000   1.0000   1.0000   1.0000   1.0000   1.0000
     1.0000   1.0000   1.0000   1.0000   1.0000   1.0000   1.0000   1.0000
     1.0000   1.0000   1.0000   1.0000   1.0000   1.0000   1.0000   1.0000
     1.0000   1.0000   1.0000   1.0000   1.0000   1.0000   1.0000   1.0000
     1.0000   1.0000   1.0000   1.0000   1.0000   1.0000   1.0000   1.0000
     1.0000   1.0000   1.0000   1.0000   1.0000   1.0000   1.0000   1.0000
     1.0000   1.0000   1.0000   1.0000   1.0000   1.0000   1.0000   1.0000

          k = 0.1977 0.1829-0.1812 (  7086 PWs)   bands (ev):

   -31.4162 -31.3296 -31.2158 -31.1367 -31.0869 -31.0367 -30.9663 -30.8570
   -13.2203 -13.0219 -13.0131 -12.8957 -12.7721 -12.7131 -12.6490 -12.5913
   -12.5106 -12.4444 -12.3835 -12.3538 -12.2986 -12.2727 -12.2631 -12.2203
   -12.1845 -12.1508 -12.1008 -12.0580 -12.0513 -12.0054 -11.9809 -11.9387
    -8.6111  -8.3549  -8.1723  -8.1025  -7.8240  -7.7614  -7.7380  -7.6994
     4.2035   4.3005   4.3860   4.4599   4.8531   5.0389   5.1455   5.1974
     5.3312   5.3523   5.4172   5.5076   5.5657   5.6569   5.6981   5.7862
     5.9407   6.0292   6.0434   6.1221   6.2026   6.2413   6.3893   6.4947

     occupation numbers 
     1.0000   1.0000   1.0000   1.0000   1.0000   1.0000   1.0000   1.0000
     1.0000   1.0000   1.0000   1.0000   1.0000   1.0000   1.0000   1.0000
     1.0000   1.0000   1.0000   1.0000   1.0000   1.0000   1.0000   1.0000
     1.0000   1.0000   1.0000   1.0000   1.0000   1.0000   1.0000   1.0000
     1.0000   1.0000   1.0000   1.0000   1.0000   1.0000   1.0000   1.0000
     1.0000   1.0000   1.0000   1.0000   1.0000   1.0000   1.0000   1.0000
     1.0000   1.0000   1.0000   1.0000   1.0000   1.0000   1.0000   1.0000
     1.0000   1.0000   1.0000   1.0000   1.0000   1.0000   1.0000   1.0000

          k =-0.3954-0.3658 0.3623 (  7098 PWs)   bands (ev):

   -31.4143 -31.3305 -31.2150 -31.1384 -31.0874 -31.0357 -30.9670 -30.8571
   -13.1464 -12.9826 -12.9034 -12.8478 -12.8073 -12.7474 -12.6655 -12.5907
   -12.5175 -12.4944 -12.4838 -12.3750 -12.3211 -12.2859 -12.2626 -12.2377
   -12.2000 -12.1553 -12.0879 -12.0815 -12.0497 -12.0091 -11.9776 -11.9391
    -8.4295  -8.2193  -8.0983  -8.0138  -7.9501  -7.8625  -7.8180  -7.8073
     4.3713   4.4709   4.6111   4.7351   4.7824   4.9190   4.9888   5.0650
     5.1984   5.3518   5.4382   5.4713   5.5202   5.5544   5.6871   5.7832
     5.8293   5.9275   6.0510   6.1456   6.1766   6.1924   6.3566   6.5079

     occupation numbers 
     1.0000   1.0000   1.0000   1.0000   1.0000   1.0000   1.0000   1.0000
     1.0000   1.0000   1.0000   1.0000   1.0000   1.0000   1.0000   1.0000
     1.0000   1.0000   1.0000   1.0000   1.0000   1.0000   1.0000   1.0000
     1.0000   1.0000   1.0000   1.0000   1.0000   1.0000   1.0000   1.0000
     1.0000   1.0000   1.0000   1.0000   1.0000   1.0000   1.0000   1.0000
     1.0000   1.0000   1.0000   1.0000   1.0000   1.0000   1.0000   1.0000
     1.0000   1.0000   1.0000   1.0000   1.0000   1.0000   1.0000   1.0000
     1.0000   1.0000   1.0000   1.0000   1.0000   1.0000   1.0000   1.0000

          k = 0.1996-0.1828 0.1831 (  7110 PWs)   bands (ev):

   -31.4171 -31.3276 -31.2163 -31.1366 -31.0874 -31.0359 -30.9672 -30.8573
   -13.2568 -13.0093 -12.9691 -12.8743 -12.7478 -12.7189 -12.6485 -12.5428
   -12.4953 -12.4507 -12.3907 -12.3657 -12.3002 -12.2843 -12.2631 -12.2413
   -12.1862 -12.1638 -12.0993 -12.0729 -12.0543 -12.0453 -11.9898 -11.9434
    -8.6075  -8.3594  -8.1722  -8.0995  -7.8297  -7.7618  -7.7289  -7.6850
     4.2520   4.2984   4.4064   4.5142   4.9214   5.0890   5.1035   5.1651
     5.2884   5.4213   5.4925   5.5420   5.5777   5.6855   5.7095   5.7715
     5.8402   5.9152   5.9450   6.0330   6.1284   6.2742   6.3322   6.6091

     occupation numbers 
     1.0000   1.0000   1.0000   1.0000   1.0000   1.0000   1.0000   1.0000
     1.0000   1.0000   1.0000   1.0000   1.0000   1.0000   1.0000   1.0000
     1.0000   1.0000   1.0000   1.0000   1.0000   1.0000   1.0000   1.0000
     1.0000   1.0000   1.0000   1.0000   1.0000   1.0000   1.0000   1.0000
     1.0000   1.0000   1.0000   1.0000   1.0000   1.0000   1.0000   1.0000
     1.0000   1.0000   1.0000   1.0000   1.0000   1.0000   1.0000   1.0000
     1.0000   1.0000   1.0000   1.0000   1.0000   1.0000   1.0000   1.0000
     1.0000   1.0000   1.0000   1.0000   1.0000   1.0000   1.0000   1.0000

          k = 0.3974 0.0000 0.0019 (  7109 PWs)   bands (ev):

   -31.4154 -31.3294 -31.2156 -31.1361 -31.0884 -31.0350 -30.9680 -30.8575
   -13.2036 -12.9986 -12.9580 -12.8358 -12.7795 -12.7184 -12.6424 -12.5727
   -12.5208 -12.4773 -12.3949 -12.3472 -12.3141 -12.2886 -12.2564 -12.2328
   -12.1864 -12.1701 -12.1098 -12.0840 -12.0640 -12.0245 -11.9959 -11.9687
    -8.5745  -8.3588  -8.1285  -8.0628  -7.8399  -7.7692  -7.7594  -7.7205
     4.3012   4.3650   4.4493   4.5300   4.9390   5.0143   5.1794   5.2219
     5.2744   5.3081   5.3811   5.4524   5.5335   5.6786   5.7116   5.7935
     5.8620   5.9191   5.9758   6.0733   6.1461   6.3208   6.3660   6.5149

     occupation numbers 
     1.0000   1.0000   1.0000   1.0000   1.0000   1.0000   1.0000   1.0000
     1.0000   1.0000   1.0000   1.0000   1.0000   1.0000   1.0000   1.0000
     1.0000   1.0000   1.0000   1.0000   1.0000   1.0000   1.0000   1.0000
     1.0000   1.0000   1.0000   1.0000   1.0000   1.0000   1.0000   1.0000
     1.0000   1.0000   1.0000   1.0000   1.0000   1.0000   1.0000   1.0000
     1.0000   1.0000   1.0000   1.0000   1.0000   1.0000   1.0000   1.0000
     1.0000   1.0000   1.0000   1.0000   1.0000   1.0000   1.0000   1.0000
     1.0000   1.0000   1.0000   1.0000   1.0000   1.0000   1.0000   1.0000

          k =-0.1958-0.5486 0.5454 (  7109 PWs)   bands (ev):

   -31.4137 -31.3300 -31.2148 -31.1377 -31.0888 -31.0344 -30.9686 -30.8576
   -13.1353 -12.9598 -12.8706 -12.8080 -12.7790 -12.7238 -12.6379 -12.5767
   -12.5346 -12.5131 -12.4703 -12.3919 -12.3324 -12.3093 -12.2850 -12.2533
   -12.2049 -12.1842 -12.1062 -12.0841 -12.0650 -12.0359 -11.9875 -11.9652
    -8.4305  -8.2505  -8.0622  -7.9925  -7.9394  -7.8561  -7.8300  -7.7871
     4.4300   4.5109   4.6482   4.7018   4.8232   4.8879   4.9650   5.1366
     5.1834   5.3197   5.4078   5.4618   5.5142   5.5778   5.7652   5.8307
     5.8789   5.9055   5.9708   6.0513   6.0871   6.2441   6.3161   6.5249

     occupation numbers 
     1.0000   1.0000   1.0000   1.0000   1.0000   1.0000   1.0000   1.0000
     1.0000   1.0000   1.0000   1.0000   1.0000   1.0000   1.0000   1.0000
     1.0000   1.0000   1.0000   1.0000   1.0000   1.0000   1.0000   1.0000
     1.0000   1.0000   1.0000   1.0000   1.0000   1.0000   1.0000   1.0000
     1.0000   1.0000   1.0000   1.0000   1.0000   1.0000   1.0000   1.0000
     1.0000   1.0000   1.0000   1.0000   1.0000   1.0000   1.0000   1.0000
     1.0000   1.0000   1.0000   1.0000   1.0000   1.0000   1.0000   1.0000
     1.0000   1.0000   1.0000   1.0000   1.0000   1.0000   1.0000   1.0000

          k = 0.0019-0.3657 0.3643 (  7096 PWs)   bands (ev):

   -31.4151 -31.3288 -31.2154 -31.1376 -31.0879 -31.0356 -30.9676 -30.8575
   -13.1874 -12.9677 -12.9336 -12.8353 -12.7564 -12.6768 -12.6540 -12.5754
   -12.5256 -12.4755 -12.4327 -12.3940 -12.3314 -12.3040 -12.2725 -12.2405
   -12.2044 -12.1802 -12.1026 -12.0870 -12.0689 -12.0200 -12.0012 -11.9572
    -8.4638  -8.2628  -8.1271  -8.0442  -7.9158  -7.8265  -7.8035  -7.7343
     4.3795   4.4471   4.5550   4.6404   4.7670   4.9183   5.0401   5.1256
     5.3074   5.4081   5.4675   5.4879   5.5575   5.5918   5.7231   5.7460
     5.8187   5.9329   6.0063   6.0803   6.1131   6.2199   6.3123   6.4974

     occupation numbers 
     1.0000   1.0000   1.0000   1.0000   1.0000   1.0000   1.0000   1.0000
     1.0000   1.0000   1.0000   1.0000   1.0000   1.0000   1.0000   1.0000
     1.0000   1.0000   1.0000   1.0000   1.0000   1.0000   1.0000   1.0000
     1.0000   1.0000   1.0000   1.0000   1.0000   1.0000   1.0000   1.0000
     1.0000   1.0000   1.0000   1.0000   1.0000   1.0000   1.0000   1.0000
     1.0000   1.0000   1.0000   1.0000   1.0000   1.0000   1.0000   1.0000
     1.0000   1.0000   1.0000   1.0000   1.0000   1.0000   1.0000   1.0000
     1.0000   1.0000   1.0000   1.0000   1.0000   1.0000   1.0000   1.0000

          k =-0.3993 0.3657-0.3662 (  7096 PWs)   bands (ev):

   -31.4159 -31.3270 -31.2156 -31.1380 -31.0881 -31.0344 -30.9686 -30.8580
   -13.2126 -12.9117 -12.8724 -12.8044 -12.7343 -12.7136 -12.6869 -12.5890
   -12.5421 -12.4659 -12.4475 -12.3789 -12.3120 -12.2890 -12.2800 -12.2513
   -12.2033 -12.1802 -12.1354 -12.0958 -12.0744 -12.0684 -12.0147 -11.9455
    -8.4132  -8.2502  -8.0720  -8.0181  -7.9803  -7.8484  -7.8226  -7.7551
     4.5609   4.5946   4.6727   4.7518   4.8053   4.8672   5.0154   5.0608
     5.2472   5.3001   5.4306   5.4695   5.5486   5.6424   5.6701   5.7095
     5.7756   5.8864   5.9429   6.0081   6.0693   6.1630   6.3314   6.5137

     occupation numbers 
     1.0000   1.0000   1.0000   1.0000   1.0000   1.0000   1.0000   1.0000
     1.0000   1.0000   1.0000   1.0000   1.0000   1.0000   1.0000   1.0000
     1.0000   1.0000   1.0000   1.0000   1.0000   1.0000   1.0000   1.0000
     1.0000   1.0000   1.0000   1.0000   1.0000   1.0000   1.0000   1.0000
     1.0000   1.0000   1.0000   1.0000   1.0000   1.0000   1.0000   1.0000
     1.0000   1.0000   1.0000   1.0000   1.0000   1.0000   1.0000   1.0000
     1.0000   1.0000   1.0000   1.0000   1.0000   1.0000   1.0000   1.0000
     1.0000   1.0000   1.0000   1.0000   1.0000   1.0000   1.0000   1.0000

          k =-0.2016 0.5486-0.5474 (  7124 PWs)   bands (ev):

   -31.4144 -31.3286 -31.2151 -31.1371 -31.0894 -31.0338 -30.9694 -30.8581
   -13.1678 -12.9234 -12.8606 -12.7974 -12.7231 -12.6949 -12.6407 -12.5895
   -12.5600 -12.5202 -12.4392 -12.3910 -12.3403 -12.2983 -12.2731 -12.2554
   -12.2061 -12.1875 -12.1497 -12.1120 -12.0834 -12.0313 -12.0173 -11.9715
    -8.4220  -8.2635  -8.0477  -8.0016  -7.9586  -7.8417  -7.8251  -7.7686
     4.5225   4.6046   4.6705   4.7414   4.7789   4.8202   5.0419   5.0832
     5.2599   5.3185   5.4037   5.4804   5.5284   5.6261   5.6986   5.7286
     5.7917   5.8374   5.9308   6.0700   6.1436   6.1887   6.3263   6.5041

     occupation numbers 
     1.0000   1.0000   1.0000   1.0000   1.0000   1.0000   1.0000   1.0000
     1.0000   1.0000   1.0000   1.0000   1.0000   1.0000   1.0000   1.0000
     1.0000   1.0000   1.0000   1.0000   1.0000   1.0000   1.0000   1.0000
     1.0000   1.0000   1.0000   1.0000   1.0000   1.0000   1.0000   1.0000
     1.0000   1.0000   1.0000   1.0000   1.0000   1.0000   1.0000   1.0000
     1.0000   1.0000   1.0000   1.0000   1.0000   1.0000   1.0000   1.0000
     1.0000   1.0000   1.0000   1.0000   1.0000   1.0000   1.0000   1.0000
     1.0000   1.0000   1.0000   1.0000   1.0000   1.0000   1.0000   1.0000

          k =-0.7947-0.0001-0.0039 (  7134 PWs)   bands (ev):

   -31.4131 -31.3296 -31.2146 -31.1369 -31.0904 -31.0329 -30.9703 -30.8581
   -13.1252 -12.9343 -12.8395 -12.7705 -12.7215 -12.6773 -12.6063 -12.5949
   -12.5538 -12.5344 -12.4622 -12.4084 -12.3617 -12.3328 -12.2887 -12.2615
   -12.2209 -12.2016 -12.1590 -12.1000 -12.0662 -12.0598 -12.0066 -11.9712
    -8.4268  -8.2799  -8.0287  -7.9747  -7.9313  -7.8519  -7.8269  -7.7780
     4.4759   4.5706   4.6531   4.6979   4.8079   4.9198   5.0578   5.1384
     5.1766   5.3237   5.3479   5.4623   5.5258   5.5727   5.6993   5.7368
     5.9037   5.9196   5.9358   6.0216   6.1500   6.2535   6.2652   6.5471

     occupation numbers 
     1.0000   1.0000   1.0000   1.0000   1.0000   1.0000   1.0000   1.0000
     1.0000   1.0000   1.0000   1.0000   1.0000   1.0000   1.0000   1.0000
     1.0000   1.0000   1.0000   1.0000   1.0000   1.0000   1.0000   1.0000
     1.0000   1.0000   1.0000   1.0000   1.0000   1.0000   1.0000   1.0000
     1.0000   1.0000   1.0000   1.0000   1.0000   1.0000   1.0000   1.0000
     1.0000   1.0000   1.0000   1.0000   1.0000   1.0000   1.0000   1.0000
     1.0000   1.0000   1.0000   1.0000   1.0000   1.0000   1.0000   1.0000
     1.0000   1.0000   1.0000   1.0000   1.0000   1.0000   1.0000   1.0000

          k =-0.1977 0.1771 0.1754 (  7108 PWs)   bands (ev):

   -31.4164 -31.3297 -31.2154 -31.1366 -31.0867 -31.0362 -30.9671 -30.8571
   -13.2412 -13.0468 -12.9801 -12.8760 -12.7749 -12.7038 -12.6506 -12.5560
   -12.5189 -12.4230 -12.3731 -12.3556 -12.3191 -12.2807 -12.2725 -12.2136
   -12.1771 -12.1365 -12.0984 -12.0657 -12.0421 -12.0274 -12.0018 -11.9623
    -8.6303  -8.3897  -8.1915  -8.1216  -7.8005  -7.7416  -7.7195  -7.6606
     4.2319   4.2624   4.4195   4.4813   4.9462   5.0573   5.1345   5.1915
     5.2825   5.3826   5.4132   5.5047   5.5398   5.6580   5.7097   5.7804
     5.8721   5.9245   5.9903   6.1530   6.1783   6.3048   6.3837   6.5798

     occupation numbers 
     1.0000   1.0000   1.0000   1.0000   1.0000   1.0000   1.0000   1.0000
     1.0000   1.0000   1.0000   1.0000   1.0000   1.0000   1.0000   1.0000
     1.0000   1.0000   1.0000   1.0000   1.0000   1.0000   1.0000   1.0000
     1.0000   1.0000   1.0000   1.0000   1.0000   1.0000   1.0000   1.0000
     1.0000   1.0000   1.0000   1.0000   1.0000   1.0000   1.0000   1.0000
     1.0000   1.0000   1.0000   1.0000   1.0000   1.0000   1.0000   1.0000
     1.0000   1.0000   1.0000   1.0000   1.0000   1.0000   1.0000   1.0000
     1.0000   1.0000   1.0000   1.0000   1.0000   1.0000   1.0000   1.0000

          k = 0.0000 0.3600-0.0057 (  7103 PWs)   bands (ev):

   -31.4171 -31.3277 -31.2155 -31.1380 -31.0868 -31.0358 -30.9673 -30.8571
   -13.2428 -13.0158 -12.9772 -12.8783 -12.7210 -12.6679 -12.6430 -12.5868
   -12.5262 -12.4287 -12.4023 -12.3626 -12.3397 -12.2896 -12.2670 -12.2211
   -12.1990 -12.1537 -12.1010 -12.0789 -12.0560 -12.0148 -12.0031 -11.9482
    -8.5872  -8.3532  -8.1966  -8.0936  -7.8116  -7.7554  -7.7382  -7.6913
     4.2282   4.2800   4.4481   4.5045   4.9284   4.9896   5.0782   5.1752
     5.2405   5.3882   5.4486   5.5389   5.6097   5.6789   5.7374   5.7681
     5.9024   5.9796   5.9991   6.0677   6.1249   6.2740   6.3579   6.5927

     occupation numbers 
     1.0000   1.0000   1.0000   1.0000   1.0000   1.0000   1.0000   1.0000
     1.0000   1.0000   1.0000   1.0000   1.0000   1.0000   1.0000   1.0000
     1.0000   1.0000   1.0000   1.0000   1.0000   1.0000   1.0000   1.0000
     1.0000   1.0000   1.0000   1.0000   1.0000   1.0000   1.0000   1.0000
     1.0000   1.0000   1.0000   1.0000   1.0000   1.0000   1.0000   1.0000
     1.0000   1.0000   1.0000   1.0000   1.0000   1.0000   1.0000   1.0000
     1.0000   1.0000   1.0000   1.0000   1.0000   1.0000   1.0000   1.0000
     1.0000   1.0000   1.0000   1.0000   1.0000   1.0000   1.0000   1.0000

          k =-0.5931-0.1886 0.5378 (  7114 PWs)   bands (ev):

   -31.4151 -31.3288 -31.2145 -31.1396 -31.0873 -31.0350 -30.9679 -30.8573
   -13.1685 -12.9504 -12.9045 -12.8197 -12.7853 -12.7011 -12.6439 -12.5809
   -12.5199 -12.5050 -12.4546 -12.4070 -12.3394 -12.3172 -12.2776 -12.2479
   -12.2063 -12.1529 -12.1029 -12.0848 -12.0580 -12.0192 -11.9877 -11.9639
    -8.4262  -8.2359  -8.0986  -8.0026  -7.9309  -7.8559  -7.8280  -7.7842
     4.3554   4.4783   4.6378   4.6812   4.8065   4.8896   4.9650   5.0617
     5.1881   5.3279   5.4564   5.5271   5.5851   5.6464   5.6869   5.7830
     5.8387   5.9116   6.0121   6.0942   6.1508   6.2492   6.3199   6.5119

     occupation numbers 
     1.0000   1.0000   1.0000   1.0000   1.0000   1.0000   1.0000   1.0000
     1.0000   1.0000   1.0000   1.0000   1.0000   1.0000   1.0000   1.0000
     1.0000   1.0000   1.0000   1.0000   1.0000   1.0000   1.0000   1.0000
     1.0000   1.0000   1.0000   1.0000   1.0000   1.0000   1.0000   1.0000
     1.0000   1.0000   1.0000   1.0000   1.0000   1.0000   1.0000   1.0000
     1.0000   1.0000   1.0000   1.0000   1.0000   1.0000   1.0000   1.0000
     1.0000   1.0000   1.0000   1.0000   1.0000   1.0000   1.0000   1.0000
     1.0000   1.0000   1.0000   1.0000   1.0000   1.0000   1.0000   1.0000

          k =-0.3954-0.0057 0.3566 (  7111 PWs)   bands (ev):

   -31.4143 -31.3309 -31.2144 -31.1383 -31.0870 -31.0355 -30.9678 -30.8573
   -13.1567 -12.9832 -12.9357 -12.8334 -12.8134 -12.7346 -12.6329 -12.5693
   -12.5305 -12.4818 -12.4278 -12.3811 -12.3418 -12.2875 -12.2695 -12.2229
   -12.2009 -12.1427 -12.1048 -12.0775 -12.0571 -12.0166 -11.9989 -11.9715
    -8.4849  -8.2798  -8.0928  -8.0530  -7.8990  -7.8521  -7.7862  -7.7418
     4.3471   4.4592   4.5651   4.6413   4.8369   4.9569   5.0300   5.1477
     5.2679   5.3366   5.3883   5.4289   5.4915   5.5978   5.6930   5.8169
     5.8947   5.9390   6.0093   6.0649   6.1367   6.2607   6.3642   6.5301

     occupation numbers 
     1.0000   1.0000   1.0000   1.0000   1.0000   1.0000   1.0000   1.0000
     1.0000   1.0000   1.0000   1.0000   1.0000   1.0000   1.0000   1.0000
     1.0000   1.0000   1.0000   1.0000   1.0000   1.0000   1.0000   1.0000
     1.0000   1.0000   1.0000   1.0000   1.0000   1.0000   1.0000   1.0000
     1.0000   1.0000   1.0000   1.0000   1.0000   1.0000   1.0000   1.0000
     1.0000   1.0000   1.0000   1.0000   1.0000   1.0000   1.0000   1.0000
     1.0000   1.0000   1.0000   1.0000   1.0000   1.0000   1.0000   1.0000
     1.0000   1.0000   1.0000   1.0000   1.0000   1.0000   1.0000   1.0000

          k = 0.0019-0.0057 0.3585 (  7111 PWs)   bands (ev):

   -31.4161 -31.3293 -31.2164 -31.1354 -31.0876 -31.0373 -30.9659 -30.8574
   -13.2379 -13.0301 -12.9855 -12.8907 -12.7410 -12.6876 -12.6554 -12.5545
   -12.5058 -12.4276 -12.4048 -12.3507 -12.3124 -12.2890 -12.2762 -12.2410
   -12.2021 -12.1610 -12.1063 -12.0791 -12.0416 -12.0077 -11.9722 -11.9456
    -8.6149  -8.3722  -8.1763  -8.1282  -7.7988  -7.7543  -7.7285  -7.6753
     4.2541   4.3023   4.3914   4.4972   4.8239   5.1291   5.1516   5.2211
     5.2876   5.3588   5.4539   5.4958   5.5731   5.6164   5.6752   5.7389
     5.8412   5.9291   6.0493   6.1412   6.2154   6.2427   6.3485   6.5921

     occupation numbers 
     1.0000   1.0000   1.0000   1.0000   1.0000   1.0000   1.0000   1.0000
     1.0000   1.0000   1.0000   1.0000   1.0000   1.0000   1.0000   1.0000
     1.0000   1.0000   1.0000   1.0000   1.0000   1.0000   1.0000   1.0000
     1.0000   1.0000   1.0000   1.0000   1.0000   1.0000   1.0000   1.0000
     1.0000   1.0000   1.0000   1.0000   1.0000   1.0000   1.0000   1.0000
     1.0000   1.0000   1.0000   1.0000   1.0000   1.0000   1.0000   1.0000
     1.0000   1.0000   1.0000   1.0000   1.0000   1.0000   1.0000   1.0000
     1.0000   1.0000   1.0000   1.0000   1.0000   1.0000   1.0000   1.0000

          k = 0.1997 0.1772 0.1774 (  7116 PWs)   bands (ev):

   -31.4171 -31.3279 -31.2168 -31.1353 -31.0883 -31.0361 -30.9664 -30.8574
   -13.2543 -13.0342 -12.9839 -12.8745 -12.7369 -12.7047 -12.6356 -12.5702
   -12.5151 -12.4465 -12.3894 -12.3544 -12.3022 -12.2756 -12.2648 -12.2399
   -12.1932 -12.1639 -12.1038 -12.0871 -12.0518 -12.0077 -11.9655 -11.9401
    -8.6435  -8.4060  -8.1900  -8.1060  -7.7927  -7.7337  -7.7013  -7.6847
     4.2540   4.2954   4.3992   4.4919   4.9550   5.0824   5.1554   5.1838
     5.2787   5.3594   5.4245   5.4694   5.5708   5.6329   5.6762   5.7874
     5.8429   5.8755   5.9851   6.1640   6.2239   6.3232   6.3656   6.5552

     occupation numbers 
     1.0000   1.0000   1.0000   1.0000   1.0000   1.0000   1.0000   1.0000
     1.0000   1.0000   1.0000   1.0000   1.0000   1.0000   1.0000   1.0000
     1.0000   1.0000   1.0000   1.0000   1.0000   1.0000   1.0000   1.0000
     1.0000   1.0000   1.0000   1.0000   1.0000   1.0000   1.0000   1.0000
     1.0000   1.0000   1.0000   1.0000   1.0000   1.0000   1.0000   1.0000
     1.0000   1.0000   1.0000   1.0000   1.0000   1.0000   1.0000   1.0000
     1.0000   1.0000   1.0000   1.0000   1.0000   1.0000   1.0000   1.0000
     1.0000   1.0000   1.0000   1.0000   1.0000   1.0000   1.0000   1.0000

          k =-0.3935-0.3715 0.7209 (  7110 PWs)   bands (ev):

   -31.4151 -31.3290 -31.2158 -31.1369 -31.0887 -31.0354 -30.9671 -30.8576
   -13.1801 -12.9712 -12.9227 -12.8270 -12.7621 -12.7375 -12.6663 -12.5570
   -12.5221 -12.5073 -12.4450 -12.3656 -12.3343 -12.2935 -12.2679 -12.2432
   -12.2090 -12.1786 -12.1007 -12.0873 -12.0597 -12.0198 -11.9694 -11.9432
    -8.4854  -8.3112  -8.1154  -8.0199  -7.8776  -7.8358  -7.7801  -7.7665
     4.3831   4.4854   4.6022   4.6745   4.8319   4.9318   5.0106   5.1601
     5.2428   5.2906   5.3947   5.4654   5.5455   5.6173   5.6521   5.7412
     5.7971   5.9134   6.0382   6.1115   6.1451   6.2469   6.3798   6.4943

     occupation numbers 
     1.0000   1.0000   1.0000   1.0000   1.0000   1.0000   1.0000   1.0000
     1.0000   1.0000   1.0000   1.0000   1.0000   1.0000   1.0000   1.0000
     1.0000   1.0000   1.0000   1.0000   1.0000   1.0000   1.0000   1.0000
     1.0000   1.0000   1.0000   1.0000   1.0000   1.0000   1.0000   1.0000
     1.0000   1.0000   1.0000   1.0000   1.0000   1.0000   1.0000   1.0000
     1.0000   1.0000   1.0000   1.0000   1.0000   1.0000   1.0000   1.0000
     1.0000   1.0000   1.0000   1.0000   1.0000   1.0000   1.0000   1.0000
     1.0000   1.0000   1.0000   1.0000   1.0000   1.0000   1.0000   1.0000

          k =-0.1958-0.1886 0.5397 (  7119 PWs)   bands (ev):

   -31.4141 -31.3305 -31.2154 -31.1369 -31.0880 -31.0365 -30.9665 -30.8576
   -13.1584 -12.9815 -12.9107 -12.8386 -12.7905 -12.7172 -12.6335 -12.5526
   -12.5400 -12.4944 -12.4772 -12.3841 -12.3274 -12.2979 -12.2742 -12.2410
   -12.2125 -12.1619 -12.0967 -12.0877 -12.0578 -12.0194 -11.9799 -11.9455
    -8.4539  -8.2466  -8.1082  -8.0515  -7.9155  -7.8462  -7.7995  -7.7617
     4.4218   4.4717   4.5780   4.6774   4.7672   4.8988   4.9963   5.1465
     5.2551   5.3721   5.4450   5.4793   5.5197   5.5442   5.6975   5.7344
     5.8661   5.9272   5.9918   6.1029   6.1735   6.2297   6.3238   6.5162

     occupation numbers 
     1.0000   1.0000   1.0000   1.0000   1.0000   1.0000   1.0000   1.0000
     1.0000   1.0000   1.0000   1.0000   1.0000   1.0000   1.0000   1.0000
     1.0000   1.0000   1.0000   1.0000   1.0000   1.0000   1.0000   1.0000
     1.0000   1.0000   1.0000   1.0000   1.0000   1.0000   1.0000   1.0000
     1.0000   1.0000   1.0000   1.0000   1.0000   1.0000   1.0000   1.0000
     1.0000   1.0000   1.0000   1.0000   1.0000   1.0000   1.0000   1.0000
     1.0000   1.0000   1.0000   1.0000   1.0000   1.0000   1.0000   1.0000
     1.0000   1.0000   1.0000   1.0000   1.0000   1.0000   1.0000   1.0000

          k =-0.5970 0.5428-0.1908 (  7102 PWs)   bands (ev):

   -31.4149 -31.3287 -31.2158 -31.1367 -31.0883 -31.0359 -30.9673 -30.8580
   -13.1942 -12.9470 -12.8977 -12.8107 -12.7579 -12.6737 -12.6620 -12.5709
   -12.5364 -12.4941 -12.4222 -12.4068 -12.3422 -12.2868 -12.2763 -12.2496
   -12.2148 -12.1849 -12.1279 -12.0931 -12.0580 -12.0445 -11.9937 -11.9551
    -8.4491  -8.2576  -8.0977  -8.0521  -7.9243  -7.8433  -7.8043  -7.7353
     4.4755   4.5442   4.6173   4.6930   4.7957   4.8735   5.0563   5.1124
     5.2466   5.3306   5.4471   5.4834   5.5576   5.6413   5.6908   5.7181
     5.7718   5.8358   5.9940   6.0410   6.0933   6.1918   6.3408   6.5372

     occupation numbers 
     1.0000   1.0000   1.0000   1.0000   1.0000   1.0000   1.0000   1.0000
     1.0000   1.0000   1.0000   1.0000   1.0000   1.0000   1.0000   1.0000
     1.0000   1.0000   1.0000   1.0000   1.0000   1.0000   1.0000   1.0000
     1.0000   1.0000   1.0000   1.0000   1.0000   1.0000   1.0000   1.0000
     1.0000   1.0000   1.0000   1.0000   1.0000   1.0000   1.0000   1.0000
     1.0000   1.0000   1.0000   1.0000   1.0000   1.0000   1.0000   1.0000
     1.0000   1.0000   1.0000   1.0000   1.0000   1.0000   1.0000   1.0000
     1.0000   1.0000   1.0000   1.0000   1.0000   1.0000   1.0000   1.0000

          k =-0.3992 0.7257-0.3719 (  7118 PWs)   bands (ev):

   -31.4159 -31.3273 -31.2161 -31.1365 -31.0892 -31.0347 -30.9679 -30.8580
   -13.2126 -12.9486 -12.8930 -12.7991 -12.7548 -12.7037 -12.6449 -12.5834
   -12.5199 -12.4921 -12.4424 -12.3982 -12.3069 -12.2886 -12.2720 -12.2569
   -12.2091 -12.1887 -12.1409 -12.0941 -12.0660 -12.0273 -11.9962 -11.9508
    -8.4857  -8.3268  -8.0964  -8.0218  -7.8864  -7.8193  -7.7787  -7.7574
     4.4927   4.5124   4.5954   4.6999   4.8501   4.8657   5.0486   5.1981
     5.2446   5.3468   5.4147   5.4907   5.5529   5.5888   5.6059   5.6544
     5.7428   5.8606   5.9977   6.1051   6.1873   6.2252   6.3375   6.5117

     occupation numbers 
     1.0000   1.0000   1.0000   1.0000   1.0000   1.0000   1.0000   1.0000
     1.0000   1.0000   1.0000   1.0000   1.0000   1.0000   1.0000   1.0000
     1.0000   1.0000   1.0000   1.0000   1.0000   1.0000   1.0000   1.0000
     1.0000   1.0000   1.0000   1.0000   1.0000   1.0000   1.0000   1.0000
     1.0000   1.0000   1.0000   1.0000   1.0000   1.0000   1.0000   1.0000
     1.0000   1.0000   1.0000   1.0000   1.0000   1.0000   1.0000   1.0000
     1.0000   1.0000   1.0000   1.0000   1.0000   1.0000   1.0000   1.0000
     1.0000   1.0000   1.0000   1.0000   1.0000   1.0000   1.0000   1.0000

          k =-0.9924 0.1771 0.1716 (  7117 PWs)   bands (ev):

   -31.4144 -31.3286 -31.2157 -31.1360 -31.0902 -31.0340 -30.9687 -30.8581
   -13.1701 -12.9437 -12.8909 -12.7949 -12.7373 -12.6778 -12.6304 -12.5694
   -12.5343 -12.5199 -12.4546 -12.3825 -12.3478 -12.3075 -12.2901 -12.2590
   -12.2247 -12.2010 -12.1369 -12.0871 -12.0731 -12.0304 -11.9862 -11.9660
    -8.4658  -8.3330  -8.0918  -8.0071  -7.8811  -7.8327  -7.7783  -7.7521
     4.5141   4.5645   4.6380   4.7367   4.8234   4.9246   5.0188   5.1416
     5.1889   5.2749   5.3260   5.4138   5.4834   5.6462   5.6852   5.7226
     5.8192   5.8938   5.9681   6.0709   6.1892   6.2730   6.2859   6.5305

     occupation numbers 
     1.0000   1.0000   1.0000   1.0000   1.0000   1.0000   1.0000   1.0000
     1.0000   1.0000   1.0000   1.0000   1.0000   1.0000   1.0000   1.0000
     1.0000   1.0000   1.0000   1.0000   1.0000   1.0000   1.0000   1.0000
     1.0000   1.0000   1.0000   1.0000   1.0000   1.0000   1.0000   1.0000
     1.0000   1.0000   1.0000   1.0000   1.0000   1.0000   1.0000   1.0000
     1.0000   1.0000   1.0000   1.0000   1.0000   1.0000   1.0000   1.0000
     1.0000   1.0000   1.0000   1.0000   1.0000   1.0000   1.0000   1.0000
     1.0000   1.0000   1.0000   1.0000   1.0000   1.0000   1.0000   1.0000

          k =-0.7947 0.3600-0.0096 (  7110 PWs)   bands (ev):

   -31.4134 -31.3300 -31.2153 -31.1360 -31.0896 -31.0351 -30.9681 -30.8581
   -13.1507 -12.9641 -12.8674 -12.7847 -12.7206 -12.6808 -12.6436 -12.5875
   -12.5719 -12.5018 -12.4686 -12.3750 -12.3403 -12.3134 -12.2785 -12.2676
   -12.2242 -12.2031 -12.1236 -12.0926 -12.0649 -12.0426 -11.9954 -11.9632
    -8.4353  -8.2568  -8.0811  -8.0538  -7.9200  -7.8466  -7.8048  -7.7348
     4.5177   4.5909   4.6626   4.7655   4.8066   4.8594   4.9358   5.0339
     5.2281   5.3373   5.3932   5.4615   5.5366   5.6186   5.6633   5.7231
     5.8271   5.9062   5.9953   6.0554   6.1481   6.2215   6.2671   6.5372

     occupation numbers 
     1.0000   1.0000   1.0000   1.0000   1.0000   1.0000   1.0000   1.0000
     1.0000   1.0000   1.0000   1.0000   1.0000   1.0000   1.0000   1.0000
     1.0000   1.0000   1.0000   1.0000   1.0000   1.0000   1.0000   1.0000
     1.0000   1.0000   1.0000   1.0000   1.0000   1.0000   1.0000   1.0000
     1.0000   1.0000   1.0000   1.0000   1.0000   1.0000   1.0000   1.0000
     1.0000   1.0000   1.0000   1.0000   1.0000   1.0000   1.0000   1.0000
     1.0000   1.0000   1.0000   1.0000   1.0000   1.0000   1.0000   1.0000
     1.0000   1.0000   1.0000   1.0000   1.0000   1.0000   1.0000   1.0000

          k =-0.3973 0.3600-0.0077 (  7111 PWs)   bands (ev):

   -31.4152 -31.3291 -31.2148 -31.1380 -31.0875 -31.0348 -30.9686 -30.8577
   -13.1967 -12.9605 -12.9106 -12.8015 -12.7527 -12.7111 -12.6473 -12.5854
   -12.5644 -12.4861 -12.4040 -12.3618 -12.3273 -12.2942 -12.2800 -12.2174
   -12.2078 -12.1634 -12.1194 -12.0927 -12.0707 -12.0520 -12.0243 -11.9607
    -8.4678  -8.2867  -8.1181  -8.0378  -7.9187  -7.8365  -7.7836  -7.7210
     4.4295   4.4778   4.6150   4.7264   4.8618   4.9902   5.0314   5.1049
     5.1870   5.3218   5.3516   5.4491   5.5857   5.6242   5.7119   5.7597
     5.8223   5.9236   5.9350   6.0158   6.1068   6.2201   6.3680   6.5214

     occupation numbers 
     1.0000   1.0000   1.0000   1.0000   1.0000   1.0000   1.0000   1.0000
     1.0000   1.0000   1.0000   1.0000   1.0000   1.0000   1.0000   1.0000
     1.0000   1.0000   1.0000   1.0000   1.0000   1.0000   1.0000   1.0000
     1.0000   1.0000   1.0000   1.0000   1.0000   1.0000   1.0000   1.0000
     1.0000   1.0000   1.0000   1.0000   1.0000   1.0000   1.0000   1.0000
     1.0000   1.0000   1.0000   1.0000   1.0000   1.0000   1.0000   1.0000
     1.0000   1.0000   1.0000   1.0000   1.0000   1.0000   1.0000   1.0000
     1.0000   1.0000   1.0000   1.0000   1.0000   1.0000   1.0000   1.0000

          k =-0.1996 0.5429-0.1888 (  7110 PWs)   bands (ev):

   -31.4159 -31.3271 -31.2148 -31.1394 -31.0877 -31.0343 -30.9687 -30.8577
   -13.1997 -12.9185 -12.8955 -12.7944 -12.7168 -12.7009 -12.6452 -12.5704
   -12.5592 -12.5032 -12.4492 -12.4034 -12.3385 -12.2970 -12.2708 -12.2425
   -12.2177 -12.1824 -12.1373 -12.0892 -12.0683 -12.0411 -12.0240 -11.9532
    -8.4175  -8.2489  -8.0957  -7.9973  -7.9505  -7.8427  -7.8276  -7.7627
     4.4457   4.4850   4.6321   4.7521   4.8464   4.9249   4.9666   5.0109
     5.2362   5.3350   5.4708   5.5424   5.5756   5.6319   5.7137   5.7269
     5.7727   5.8462   5.9806   6.0184   6.1133   6.2622   6.3046   6.5217

     occupation numbers 
     1.0000   1.0000   1.0000   1.0000   1.0000   1.0000   1.0000   1.0000
     1.0000   1.0000   1.0000   1.0000   1.0000   1.0000   1.0000   1.0000
     1.0000   1.0000   1.0000   1.0000   1.0000   1.0000   1.0000   1.0000
     1.0000   1.0000   1.0000   1.0000   1.0000   1.0000   1.0000   1.0000
     1.0000   1.0000   1.0000   1.0000   1.0000   1.0000   1.0000   1.0000
     1.0000   1.0000   1.0000   1.0000   1.0000   1.0000   1.0000   1.0000
     1.0000   1.0000   1.0000   1.0000   1.0000   1.0000   1.0000   1.0000
     1.0000   1.0000   1.0000   1.0000   1.0000   1.0000   1.0000   1.0000

          k =-0.7928-0.0058 0.3547 (  7118 PWs)   bands (ev):

   -31.4145 -31.3284 -31.2143 -31.1389 -31.0888 -31.0335 -30.9696 -30.8578
   -13.1582 -12.9252 -12.8727 -12.7796 -12.7291 -12.6471 -12.6071 -12.5951
   -12.5572 -12.5373 -12.4726 -12.3975 -12.3583 -12.3290 -12.2890 -12.2776
   -12.2092 -12.1862 -12.1345 -12.0886 -12.0699 -12.0426 -12.0088 -11.9713
    -8.4125  -8.2584  -8.0489  -8.0075  -7.9383  -7.8558  -7.8158  -7.7754
     4.4861   4.5246   4.6700   4.7493   4.8294   4.8849   4.9544   4.9960
     5.2392   5.3306   5.3917   5.4188   5.5656   5.6501   5.6906   5.7999
     5.8393   5.9113   5.9458   6.0663   6.1242   6.2459   6.2807   6.5441

     occupation numbers 
     1.0000   1.0000   1.0000   1.0000   1.0000   1.0000   1.0000   1.0000
     1.0000   1.0000   1.0000   1.0000   1.0000   1.0000   1.0000   1.0000
     1.0000   1.0000   1.0000   1.0000   1.0000   1.0000   1.0000   1.0000
     1.0000   1.0000   1.0000   1.0000   1.0000   1.0000   1.0000   1.0000
     1.0000   1.0000   1.0000   1.0000   1.0000   1.0000   1.0000   1.0000
     1.0000   1.0000   1.0000   1.0000   1.0000   1.0000   1.0000   1.0000
     1.0000   1.0000   1.0000   1.0000   1.0000   1.0000   1.0000   1.0000
     1.0000   1.0000   1.0000   1.0000   1.0000   1.0000   1.0000   1.0000

          k =-0.5950 0.1771 0.1735 (  7106 PWs)   bands (ev):

   -31.4137 -31.3304 -31.2143 -31.1375 -31.0886 -31.0340 -30.9694 -30.8578
   -13.1477 -12.9709 -12.9029 -12.7946 -12.7164 -12.6973 -12.6442 -12.5970
   -12.5494 -12.5142 -12.4187 -12.3764 -12.3303 -12.2979 -12.2821 -12.2610
   -12.2078 -12.1791 -12.1299 -12.0881 -12.0751 -12.0459 -12.0188 -11.9716
    -8.4617  -8.2920  -8.0813  -8.0454  -7.9165  -7.8338  -7.7735  -7.7355
     4.4492   4.5264   4.6446   4.7272   4.8526   4.9334   5.0358   5.1140
     5.1596   5.2789   5.3744   5.4569   5.5197   5.5970   5.6950   5.7608
     5.8067   5.9379   5.9669   6.0418   6.1491   6.2503   6.3455   6.5391

     occupation numbers 
     1.0000   1.0000   1.0000   1.0000   1.0000   1.0000   1.0000   1.0000
     1.0000   1.0000   1.0000   1.0000   1.0000   1.0000   1.0000   1.0000
     1.0000   1.0000   1.0000   1.0000   1.0000   1.0000   1.0000   1.0000
     1.0000   1.0000   1.0000   1.0000   1.0000   1.0000   1.0000   1.0000
     1.0000   1.0000   1.0000   1.0000   1.0000   1.0000   1.0000   1.0000
     1.0000   1.0000   1.0000   1.0000   1.0000   1.0000   1.0000   1.0000
     1.0000   1.0000   1.0000   1.0000   1.0000   1.0000   1.0000   1.0000
     1.0000   1.0000   1.0000   1.0000   1.0000   1.0000   1.0000   1.0000

          k = 0.3954-0.3543-0.3509 (  7104 PWs)   bands (ev):

   -31.4143 -31.3312 -31.2139 -31.1380 -31.0869 -31.0352 -30.9685 -30.8575
   -13.1685 -12.9998 -12.9511 -12.8281 -12.7440 -12.6922 -12.6587 -12.6051
   -12.5209 -12.4952 -12.3940 -12.3617 -12.3272 -12.3062 -12.2639 -12.2046
   -12.1875 -12.1675 -12.1094 -12.0954 -12.0663 -12.0383 -12.0142 -11.9767
    -8.4926  -8.3036  -8.1529  -8.0663  -7.9004  -7.8220  -7.7429  -7.7010
     4.4110   4.4858   4.6497   4.7832   4.8841   4.9225   5.0273   5.1078
     5.1676   5.2492   5.3612   5.4167   5.5059   5.5646   5.6492   5.8045
     5.8259   5.9694   5.9828   6.1269   6.1421   6.2036   6.4140   6.5085

     occupation numbers 
     1.0000   1.0000   1.0000   1.0000   1.0000   1.0000   1.0000   1.0000
     1.0000   1.0000   1.0000   1.0000   1.0000   1.0000   1.0000   1.0000
     1.0000   1.0000   1.0000   1.0000   1.0000   1.0000   1.0000   1.0000
     1.0000   1.0000   1.0000   1.0000   1.0000   1.0000   1.0000   1.0000
     1.0000   1.0000   1.0000   1.0000   1.0000   1.0000   1.0000   1.0000
     1.0000   1.0000   1.0000   1.0000   1.0000   1.0000   1.0000   1.0000
     1.0000   1.0000   1.0000   1.0000   1.0000   1.0000   1.0000   1.0000
     1.0000   1.0000   1.0000   1.0000   1.0000   1.0000   1.0000   1.0000

          k = 0.5931-0.1714-0.5320 (  7118 PWs)   bands (ev):

   -31.4153 -31.3289 -31.2140 -31.1397 -31.0869 -31.0345 -30.9688 -30.8574
   -13.1875 -12.9739 -12.9016 -12.8077 -12.7226 -12.6875 -12.6267 -12.5967
   -12.5472 -12.5109 -12.4174 -12.3949 -12.3580 -12.3078 -12.2770 -12.2303
   -12.2035 -12.1538 -12.1302 -12.0766 -12.0636 -12.0501 -12.0166 -11.9599
    -8.4570  -8.2795  -8.1286  -8.0378  -7.9033  -7.8343  -7.7821  -7.7312
     4.3802   4.4575   4.6526   4.7334   4.8848   4.8976   4.9897   5.0330
     5.1817   5.3337   5.3910   5.4452   5.5579   5.6622   5.7390   5.7952
     5.8433   5.8896   5.9647   6.0588   6.1171   6.2757   6.3334   6.5658

     occupation numbers 
     1.0000   1.0000   1.0000   1.0000   1.0000   1.0000   1.0000   1.0000
     1.0000   1.0000   1.0000   1.0000   1.0000   1.0000   1.0000   1.0000
     1.0000   1.0000   1.0000   1.0000   1.0000   1.0000   1.0000   1.0000
     1.0000   1.0000   1.0000   1.0000   1.0000   1.0000   1.0000   1.0000
     1.0000   1.0000   1.0000   1.0000   1.0000   1.0000   1.0000   1.0000
     1.0000   1.0000   1.0000   1.0000   1.0000   1.0000   1.0000   1.0000
     1.0000   1.0000   1.0000   1.0000   1.0000   1.0000   1.0000   1.0000
     1.0000   1.0000   1.0000   1.0000   1.0000   1.0000   1.0000   1.0000

          k =-0.0001-0.7200 0.0114 (  7120 PWs)   bands (ev):

   -31.4158 -31.3272 -31.2140 -31.1407 -31.0873 -31.0342 -30.9688 -30.8575
   -13.1865 -12.9369 -12.8887 -12.8023 -12.7300 -12.6392 -12.6238 -12.5766
   -12.5459 -12.5209 -12.4348 -12.4106 -12.3644 -12.3530 -12.2752 -12.2564
   -12.2233 -12.1718 -12.1388 -12.0814 -12.0639 -12.0446 -11.9953 -11.9633
    -8.4209  -8.2452  -8.1136  -7.9939  -7.9035  -7.8471  -7.8289  -7.7728
     4.3414   4.4430   4.6427   4.6963   4.8088   4.9187   4.9552   5.1021
     5.1506   5.3570   5.4647   5.5573   5.6090   5.6561   5.6963   5.7387
     5.7902   5.9033   5.9815   6.0577   6.1702   6.2807   6.3629   6.5180

     occupation numbers 
     1.0000   1.0000   1.0000   1.0000   1.0000   1.0000   1.0000   1.0000
     1.0000   1.0000   1.0000   1.0000   1.0000   1.0000   1.0000   1.0000
     1.0000   1.0000   1.0000   1.0000   1.0000   1.0000   1.0000   1.0000
     1.0000   1.0000   1.0000   1.0000   1.0000   1.0000   1.0000   1.0000
     1.0000   1.0000   1.0000   1.0000   1.0000   1.0000   1.0000   1.0000
     1.0000   1.0000   1.0000   1.0000   1.0000   1.0000   1.0000   1.0000
     1.0000   1.0000   1.0000   1.0000   1.0000   1.0000   1.0000   1.0000
     1.0000   1.0000   1.0000   1.0000   1.0000   1.0000   1.0000   1.0000

          k = 0.5950-0.5371-0.1678 (  7104 PWs)   bands (ev):

   -31.4141 -31.3308 -31.2149 -31.1367 -31.0877 -31.0363 -30.9673 -30.8577
   -13.1699 -12.9862 -12.9377 -12.8084 -12.7825 -12.6966 -12.6092 -12.5799
   -12.5427 -12.4943 -12.4283 -12.3661 -12.3363 -12.3092 -12.2615 -12.2352
   -12.2086 -12.1707 -12.1170 -12.0979 -12.0336 -12.0259 -12.0176 -11.9686
    -8.4862  -8.2878  -8.1191  -8.0879  -7.8800  -7.8360  -7.7764  -7.7011
     4.4547   4.4782   4.5754   4.6938   4.8120   4.9769   5.0029   5.1430
     5.2443   5.2581   5.3639   5.4574   5.5289   5.6378   5.6886   5.7374
     5.8254   5.9220   6.0151   6.0797   6.1290   6.2189   6.3844   6.5258

     occupation numbers 
     1.0000   1.0000   1.0000   1.0000   1.0000   1.0000   1.0000   1.0000
     1.0000   1.0000   1.0000   1.0000   1.0000   1.0000   1.0000   1.0000
     1.0000   1.0000   1.0000   1.0000   1.0000   1.0000   1.0000   1.0000
     1.0000   1.0000   1.0000   1.0000   1.0000   1.0000   1.0000   1.0000
     1.0000   1.0000   1.0000   1.0000   1.0000   1.0000   1.0000   1.0000
     1.0000   1.0000   1.0000   1.0000   1.0000   1.0000   1.0000   1.0000
     1.0000   1.0000   1.0000   1.0000   1.0000   1.0000   1.0000   1.0000
     1.0000   1.0000   1.0000   1.0000   1.0000   1.0000   1.0000   1.0000

          k = 0.7927-0.3542-0.3489 (  7110 PWs)   bands (ev):

   -31.4154 -31.3288 -31.2155 -31.1366 -31.0885 -31.0352 -30.9678 -30.8577
   -13.2126 -13.0052 -12.9208 -12.8255 -12.7178 -12.6706 -12.6467 -12.5813
   -12.5280 -12.4646 -12.4052 -12.3688 -12.3416 -12.3134 -12.2835 -12.2500
   -12.2211 -12.1757 -12.1113 -12.0779 -12.0692 -12.0209 -12.0003 -11.9570
    -8.5308  -8.3625  -8.1620  -8.0943  -7.8279  -7.7724  -7.7418  -7.6913
     4.3857   4.4436   4.5847   4.6724   4.8444   5.0055   5.0522   5.0898
     5.1384   5.3014   5.3995   5.4947   5.5276   5.6538   5.7048   5.7603
     5.8394   5.8997   5.9602   6.1259   6.1561   6.2559   6.2953   6.6074

     occupation numbers 
     1.0000   1.0000   1.0000   1.0000   1.0000   1.0000   1.0000   1.0000
     1.0000   1.0000   1.0000   1.0000   1.0000   1.0000   1.0000   1.0000
     1.0000   1.0000   1.0000   1.0000   1.0000   1.0000   1.0000   1.0000
     1.0000   1.0000   1.0000   1.0000   1.0000   1.0000   1.0000   1.0000
     1.0000   1.0000   1.0000   1.0000   1.0000   1.0000   1.0000   1.0000
     1.0000   1.0000   1.0000   1.0000   1.0000   1.0000   1.0000   1.0000
     1.0000   1.0000   1.0000   1.0000   1.0000   1.0000   1.0000   1.0000
     1.0000   1.0000   1.0000   1.0000   1.0000   1.0000   1.0000   1.0000

          k = 0.1996-0.9029 0.1945 (  7126 PWs)   bands (ev):

   -31.4158 -31.3274 -31.2153 -31.1380 -31.0886 -31.0346 -30.9680 -30.8578
   -13.1965 -12.9404 -12.9225 -12.8102 -12.7185 -12.6781 -12.6303 -12.5920
   -12.5264 -12.5067 -12.4359 -12.3913 -12.3518 -12.3308 -12.2644 -12.2493
   -12.2263 -12.1743 -12.1314 -12.0868 -12.0619 -12.0246 -11.9914 -11.9584
    -8.4633  -8.3194  -8.1216  -8.0250  -7.8666  -7.8009  -7.7961  -7.7630
     4.4342   4.4884   4.6334   4.7585   4.8337   4.9183   4.9840   5.0634
     5.1934   5.2715   5.3691   5.5038   5.5483   5.6302   5.6555   5.7501
     5.8473   5.9129   6.0287   6.0759   6.1445   6.2391   6.3599   6.5081

     occupation numbers 
     1.0000   1.0000   1.0000   1.0000   1.0000   1.0000   1.0000   1.0000
     1.0000   1.0000   1.0000   1.0000   1.0000   1.0000   1.0000   1.0000
     1.0000   1.0000   1.0000   1.0000   1.0000   1.0000   1.0000   1.0000
     1.0000   1.0000   1.0000   1.0000   1.0000   1.0000   1.0000   1.0000
     1.0000   1.0000   1.0000   1.0000   1.0000   1.0000   1.0000   1.0000
     1.0000   1.0000   1.0000   1.0000   1.0000   1.0000   1.0000   1.0000
     1.0000   1.0000   1.0000   1.0000   1.0000   1.0000   1.0000   1.0000
     1.0000   1.0000   1.0000   1.0000   1.0000   1.0000   1.0000   1.0000

          k = 0.3973-0.7200 0.0134 (  7123 PWs)   bands (ev):

   -31.4149 -31.3287 -31.2149 -31.1387 -31.0878 -31.0353 -30.9676 -30.8578
   -13.1749 -12.9254 -12.8724 -12.7854 -12.7539 -12.7216 -12.6567 -12.6112
   -12.5549 -12.5068 -12.4414 -12.3973 -12.3402 -12.3183 -12.2783 -12.2475
   -12.2137 -12.1666 -12.1039 -12.0890 -12.0636 -12.0316 -12.0025 -11.9576
    -8.4126  -8.2290  -8.0525  -8.0166  -7.9385  -7.8912  -7.8245  -7.7830
     4.4945   4.5783   4.6190   4.7298   4.8305   4.9182   4.9484   5.0032
     5.2115   5.3343   5.3771   5.5093   5.5389   5.6342   5.6869   5.7753
     5.7969   5.8843   5.9660   6.0468   6.1351   6.2155   6.3479   6.5230

     occupation numbers 
     1.0000   1.0000   1.0000   1.0000   1.0000   1.0000   1.0000   1.0000
     1.0000   1.0000   1.0000   1.0000   1.0000   1.0000   1.0000   1.0000
     1.0000   1.0000   1.0000   1.0000   1.0000   1.0000   1.0000   1.0000
     1.0000   1.0000   1.0000   1.0000   1.0000   1.0000   1.0000   1.0000
     1.0000   1.0000   1.0000   1.0000   1.0000   1.0000   1.0000   1.0000
     1.0000   1.0000   1.0000   1.0000   1.0000   1.0000   1.0000   1.0000
     1.0000   1.0000   1.0000   1.0000   1.0000   1.0000   1.0000   1.0000
     1.0000   1.0000   1.0000   1.0000   1.0000   1.0000   1.0000   1.0000

          k =-0.0039 0.0114-0.7171 (  7122 PWs)   bands (ev):

   -31.4138 -31.3305 -31.2159 -31.1354 -31.0886 -31.0374 -30.9660 -30.8580
   -13.1695 -12.9758 -12.9327 -12.8483 -12.7205 -12.6560 -12.6187 -12.5626
   -12.5406 -12.5047 -12.4707 -12.3983 -12.3335 -12.3089 -12.2627 -12.2579
   -12.2083 -12.1844 -12.1393 -12.1131 -12.0281 -12.0157 -11.9902 -11.9512
    -8.4723  -8.2736  -8.1201  -8.0841  -7.8663  -7.8415  -7.7795  -7.7301
     4.4306   4.4853   4.5903   4.6642   4.7263   4.8842   5.0922   5.1217
     5.2776   5.3688   5.4484   5.4825   5.5689   5.6127   5.6748   5.7164
     5.7469   5.8352   5.9760   6.1379   6.2109   6.2490   6.3277   6.5170

     occupation numbers 
     1.0000   1.0000   1.0000   1.0000   1.0000   1.0000   1.0000   1.0000
     1.0000   1.0000   1.0000   1.0000   1.0000   1.0000   1.0000   1.0000
     1.0000   1.0000   1.0000   1.0000   1.0000   1.0000   1.0000   1.0000
     1.0000   1.0000   1.0000   1.0000   1.0000   1.0000   1.0000   1.0000
     1.0000   1.0000   1.0000   1.0000   1.0000   1.0000   1.0000   1.0000
     1.0000   1.0000   1.0000   1.0000   1.0000   1.0000   1.0000   1.0000
     1.0000   1.0000   1.0000   1.0000   1.0000   1.0000   1.0000   1.0000
     1.0000   1.0000   1.0000   1.0000   1.0000   1.0000   1.0000   1.0000

          k = 0.1938 0.1943-0.8982 (  7120 PWs)   bands (ev):

   -31.4150 -31.3287 -31.2164 -31.1355 -31.0894 -31.0360 -30.9667 -30.8580
   -13.2009 -12.9797 -12.8907 -12.8154 -12.7356 -12.6913 -12.6363 -12.5876
   -12.5199 -12.5129 -12.4471 -12.3792 -12.3060 -12.3030 -12.2844 -12.2605
   -12.2352 -12.1877 -12.1317 -12.0845 -12.0679 -12.0086 -11.9667 -11.9495
    -8.4900  -8.3325  -8.1230  -8.0593  -7.8613  -7.7944  -7.7801  -7.7363
     4.4521   4.5331   4.6142   4.7080   4.8098   4.9181   5.0365   5.0896
     5.2594   5.3334   5.3837   5.4899   5.5114   5.5867   5.6387   5.7263
     5.7650   5.8296   5.9875   6.1412   6.1825   6.2423   6.3345   6.5511

     occupation numbers 
     1.0000   1.0000   1.0000   1.0000   1.0000   1.0000   1.0000   1.0000
     1.0000   1.0000   1.0000   1.0000   1.0000   1.0000   1.0000   1.0000
     1.0000   1.0000   1.0000   1.0000   1.0000   1.0000   1.0000   1.0000
     1.0000   1.0000   1.0000   1.0000   1.0000   1.0000   1.0000   1.0000
     1.0000   1.0000   1.0000   1.0000   1.0000   1.0000   1.0000   1.0000
     1.0000   1.0000   1.0000   1.0000   1.0000   1.0000   1.0000   1.0000
     1.0000   1.0000   1.0000   1.0000   1.0000   1.0000   1.0000   1.0000
     1.0000   1.0000   1.0000   1.0000   1.0000   1.0000   1.0000   1.0000

          k =-0.3993-0.3543-0.3548 (  7120 PWs)   bands (ev):

   -31.4158 -31.3276 -31.2167 -31.1352 -31.0901 -31.0351 -30.9671 -30.8580
   -13.2058 -12.9597 -12.9404 -12.8185 -12.7512 -12.6666 -12.6137 -12.5796
   -12.5238 -12.5027 -12.4619 -12.3756 -12.3412 -12.2878 -12.2625 -12.2473
   -12.2217 -12.1915 -12.1507 -12.0929 -12.0429 -12.0265 -11.9594 -11.9489
    -8.4969  -8.3890  -8.1365  -8.0266  -7.8591  -7.7896  -7.7483  -7.7403
     4.5214   4.5763   4.6411   4.7386   4.8420   4.9080   5.0784   5.1007
     5.1711   5.2860   5.3267   5.4511   5.5008   5.5570   5.6117   5.6313
     5.8053   5.8478   6.0854   6.1322   6.1914   6.2649   6.3409   6.4953

     occupation numbers 
     1.0000   1.0000   1.0000   1.0000   1.0000   1.0000   1.0000   1.0000
     1.0000   1.0000   1.0000   1.0000   1.0000   1.0000   1.0000   1.0000
     1.0000   1.0000   1.0000   1.0000   1.0000   1.0000   1.0000   1.0000
     1.0000   1.0000   1.0000   1.0000   1.0000   1.0000   1.0000   1.0000
     1.0000   1.0000   1.0000   1.0000   1.0000   1.0000   1.0000   1.0000
     1.0000   1.0000   1.0000   1.0000   1.0000   1.0000   1.0000   1.0000
     1.0000   1.0000   1.0000   1.0000   1.0000   1.0000   1.0000   1.0000
     1.0000   1.0000   1.0000   1.0000   1.0000   1.0000   1.0000   1.0000

     highest occupied level (ev):     6.6588

!    total energy              =    -858.65107936 Ry
     Harris-Foulkes estimate   =    -858.65107935 Ry
     estimated scf accuracy    <          3.1E-11 Ry

     The total energy is the sum of the following terms:

     one-electron contribution =    -264.79835778 Ry
     hartree contribution      =     188.71365549 Ry
     xc contribution           =    -152.80068792 Ry
     ewald contribution        =    -629.76568913 Ry

     convergence has been achieved in  19 iterations

     Forces acting on atoms (Ry/au):

     atom    1 type  1   force =   0.29966338E-01 -0.17094544E-01 -0.51069654E-02
     atom    2 type  3   force =   0.76503760E-02 -0.11731712E-01 -0.78646610E-02
     atom    3 type  1   force =  -0.13873583E-02 -0.15267611E-01  0.18673212E-01
     atom    4 type  3   force =  -0.20802710E-02  0.20242453E-01  0.14578949E-01
     atom    5 type  1   force =   0.64049870E-02  0.12829861E-01 -0.11244785E-01
     atom    6 type  3   force =   0.58917656E-02 -0.43860081E-01 -0.35710178E-02
     atom    7 type  1   force =   0.10915604E-02 -0.28476464E-01 -0.30411683E-01
     atom    8 type  3   force =   0.84505197E-02 -0.20358688E-02  0.16922927E-03
     atom    9 type  1   force =   0.16597207E-01  0.32020399E-01 -0.63874277E-02
     atom   10 type  3   force =  -0.11542021E-02 -0.41386518E-01 -0.10412081E-01
     atom   11 type  1   force =  -0.20444172E-01 -0.72350077E-02  0.30176868E-02
     atom   12 type  3   force =   0.49271934E-02  0.18260115E-02 -0.52452806E-02
     atom   13 type  1   force =   0.33606926E-01  0.89161462E-01  0.37187229E-01
     atom   14 type  3   force =  -0.26005355E-01 -0.21372075E-01 -0.19726331E-01
     atom   15 type  1   force =  -0.45574238E-01  0.44117210E-02  0.13250573E-01
     atom   16 type  3   force =  -0.17941276E-01  0.27967973E-01  0.13093353E-01
     The non-local contrib.  to forces
     atom    1 type  1   force =   0.63926226E-02  0.22470058E-01  0.12241960E-01
     atom    2 type  3   force =   0.57086447E-01 -0.43581941E-01  0.26761012E-01
     atom    3 type  1   force =  -0.12279052E-01  0.25091248E-01 -0.20826572E-01
     atom    4 type  3   force =   0.18085581E-01  0.55839793E-01  0.24824961E-01
     atom    5 type  1   force =   0.33204950E-01  0.61817123E-02  0.99476944E-02
     atom    6 type  3   force =   0.94165139E-01 -0.80938920E-01 -0.47505333E-01
     atom    7 type  1   force =   0.33520450E-01 -0.11857351E-01 -0.22800004E-01
     atom    8 type  3   force =   0.29312810E-01  0.80937012E-01  0.17851913E-01
     atom    9 type  1   force =   0.34391023E-01  0.14976553E-01  0.67374245E-02
     atom   10 type  3   force =   0.58537784E-02 -0.64639998E-01 -0.31595023E-01
     atom   11 type  1   force =   0.36002126E-01 -0.21343929E-01 -0.10961910E-01
     atom   12 type  3   force =   0.62305684E-01 -0.25279110E-01 -0.41989852E-01
     atom   13 type  1   force =   0.36502077E-01  0.15862083E-01  0.28496785E-01
     atom   14 type  3   force =  -0.42450143E-01 -0.61719881E-01 -0.18906491E-01
     atom   15 type  1   force =   0.58952793E-02  0.38419509E-01 -0.56094859E-02
     atom   16 type  3   force =   0.48412604E-01  0.53941758E-01  0.89363956E-01
     The ionic contribution  to forces
     atom    1 type  1   force =   0.13960248E+01 -0.11946739E+00  0.30093660E+00
     atom    2 type  3   force =  -0.46199744E+00  0.10310982E+00 -0.98809638E+00
     atom    3 type  1   force =  -0.38988620E-02 -0.24750800E+00  0.24420393E+00
     atom    4 type  3   force =  -0.30265167E+00  0.52438273E-02  0.16051773E+00
     atom    5 type  1   force =   0.18432558E+01 -0.21612395E+00 -0.86423568E+00
     atom    6 type  3   force =  -0.17154334E+01 -0.13032553E+01  0.76684927E+00
     atom    7 type  1   force =   0.85729601E+00 -0.13882095E+01 -0.16801285E+01
     atom    8 type  3   force =   0.30401438E+00 -0.89184561E+00 -0.81356463E-02
     atom    9 type  1   force =   0.10627076E+01  0.17677336E+01 -0.18174760E+00
     atom   10 type  3   force =  -0.69587465E-01 -0.16024103E+01  0.52291741E-01
     atom   11 type  1   force =   0.16789152E+00 -0.14952722E+01  0.15853460E+00
     atom   12 type  3   force =  -0.35521210E+00  0.10691998E+01  0.74348781E+00
     atom   13 type  1   force =   0.20171478E+01  0.33652747E+01  0.20325370E+01
     atom   14 type  3   force =  -0.11841334E+01 -0.65609073E+00 -0.10430682E+01
     atom   15 type  1   force =  -0.17510367E+01  0.53494382E+00  0.12994252E+01
     atom   16 type  3   force =  -0.18043869E+01  0.10746774E+01 -0.99337178E+00
     The local contribution  to forces
     atom    1 type  1   force =  -0.13719231E+01  0.79936437E-01 -0.31874954E+00
     atom    2 type  3   force =   0.41283634E+00 -0.71603700E-01  0.95319095E+00
     atom    3 type  1   force =   0.15065352E-01  0.20585715E+00 -0.20484399E+00
     atom    4 type  3   force =   0.28244171E+00 -0.40286228E-01 -0.17033036E+00
     atom    5 type  1   force =  -0.18708009E+01  0.22331918E+00  0.84250680E+00
     atom    6 type  3   force =   0.16273789E+01  0.13389292E+01 -0.72296592E+00
     atom    7 type  1   force =  -0.89025265E+00  0.13714190E+01  0.16723777E+01
     atom    8 type  3   force =  -0.32468093E+00  0.80888230E+00 -0.95012254E-02
     atom    9 type  1   force =  -0.10815420E+01 -0.17500434E+01  0.16835851E+00
     atom   10 type  3   force =   0.62577456E-01  0.16245601E+01 -0.31425472E-01
     atom   11 type  1   force =  -0.22552617E+00  0.15099246E+01 -0.14494299E+00
     atom   12 type  3   force =   0.29796377E+00 -0.10420839E+01 -0.70695962E+00
     atom   13 type  1   force =  -0.20207894E+01 -0.32913041E+01 -0.20242609E+01
     atom   14 type  3   force =   0.11997332E+01  0.69576493E+00  0.10416994E+01
     atom   15 type  1   force =   0.16987103E+01 -0.57032126E+00 -0.12809861E+01
     atom   16 type  3   force =   0.17374441E+01 -0.10999909E+01  0.91750936E+00
     The core correction contribution to forces
     atom    1 type  1   force =  -0.53145420E-03 -0.34561864E-04  0.46253984E-03
     atom    2 type  3   force =  -0.27568880E-03  0.34271642E-03  0.28069093E-03
     atom    3 type  1   force =  -0.27366497E-03  0.12951331E-02  0.13539925E-03
     atom    4 type  3   force =   0.44079557E-04 -0.55455925E-03 -0.43332969E-03
     atom    5 type  1   force =   0.74702007E-03 -0.54805189E-03  0.54004928E-03
     atom    6 type  3   force =  -0.21769548E-03  0.14048239E-02  0.50767378E-04
     atom    7 type  1   force =   0.53012591E-03  0.17054859E-03  0.14093007E-03
     atom    8 type  3   force =  -0.19636676E-03 -0.96079896E-05 -0.45916092E-04
     atom    9 type  1   force =   0.10401832E-02 -0.64419221E-03  0.26576564E-03
     atom   10 type  3   force =   0.27649175E-05  0.11060604E-02  0.31552975E-03
     atom   11 type  1   force =   0.11887001E-02 -0.54124632E-03  0.38803355E-03
     atom   12 type  3   force =  -0.13049801E-03 -0.12327799E-04  0.21553206E-03
     atom   13 type  1   force =   0.74537827E-03 -0.67467176E-03  0.41586245E-03
     atom   14 type  3   force =   0.84472340E-03  0.67481895E-03  0.54950777E-03
     atom   15 type  1   force =   0.86004862E-03  0.13715561E-02  0.41783432E-03
     atom   16 type  3   force =   0.58841080E-03 -0.66084904E-03 -0.40873814E-03
     The Hubbard contrib.    to forces
     atom    1 type  1   force =   0.00000000E+00  0.00000000E+00  0.00000000E+00
     atom    2 type  3   force =   0.00000000E+00  0.00000000E+00  0.00000000E+00
     atom    3 type  1   force =   0.00000000E+00  0.00000000E+00  0.00000000E+00
     atom    4 type  3   force =   0.00000000E+00  0.00000000E+00  0.00000000E+00
     atom    5 type  1   force =   0.00000000E+00  0.00000000E+00  0.00000000E+00
     atom    6 type  3   force =   0.00000000E+00  0.00000000E+00  0.00000000E+00
     atom    7 type  1   force =   0.00000000E+00  0.00000000E+00  0.00000000E+00
     atom    8 type  3   force =   0.00000000E+00  0.00000000E+00  0.00000000E+00
     atom    9 type  1   force =   0.00000000E+00  0.00000000E+00  0.00000000E+00
     atom   10 type  3   force =   0.00000000E+00  0.00000000E+00  0.00000000E+00
     atom   11 type  1   force =   0.00000000E+00  0.00000000E+00  0.00000000E+00
     atom   12 type  3   force =   0.00000000E+00  0.00000000E+00  0.00000000E+00
     atom   13 type  1   force =   0.00000000E+00  0.00000000E+00  0.00000000E+00
     atom   14 type  3   force =   0.00000000E+00  0.00000000E+00  0.00000000E+00
     atom   15 type  1   force =   0.00000000E+00  0.00000000E+00  0.00000000E+00
     atom   16 type  3   force =   0.00000000E+00  0.00000000E+00  0.00000000E+00
     The SCF correction term to forces
     atom    1 type  1   force =   0.35498850E-05  0.10420898E-05  0.13613778E-05
     atom    2 type  3   force =   0.85103326E-06  0.15218289E-05 -0.10447913E-05
     atom    3 type  1   force =  -0.10000702E-05 -0.30194012E-05  0.43331016E-05
     atom    4 type  3   force =   0.16022060E-06 -0.25031840E-06 -0.16215572E-06
     atom    5 type  1   force =  -0.16970557E-05  0.10944194E-05 -0.37541655E-05
     atom    6 type  3   force =  -0.11019895E-05  0.21970856E-06  0.84287878E-07
     atom    7 type  1   force =  -0.22427827E-05  0.93333755E-06 -0.19257277E-05
     atom    8 type  3   force =   0.75801640E-06  0.16363709E-06 -0.55290717E-08
     atom    9 type  1   force =   0.46281356E-06 -0.20250349E-05 -0.16353905E-05
     atom   10 type  3   force =  -0.60623158E-06 -0.22805156E-05  0.10338554E-05
     atom   11 type  1   force =  -0.21719676E-06 -0.21058027E-05 -0.15447932E-06
     atom   12 type  3   force =   0.47300077E-06  0.16582733E-05  0.73492619E-06
     atom   13 type  1   force =   0.11675867E-05  0.35950764E-05 -0.16017875E-05
     atom   14 type  3   force =   0.45101394E-06 -0.10830657E-05 -0.67930922E-06
     atom   15 type  1   force =  -0.31003250E-05 -0.17744349E-05  0.30567149E-05
     atom   16 type  3   force =   0.63610428E-06  0.67403892E-06  0.44791214E-06

     Total force =     0.161341     Total SCF correction =     0.000012


     entering subroutine stress ...

          total   stress  (Ry/bohr**3)                   (kbar)     P=  -37.49
  -0.0000591434   0.0002547263  -0.0001415485         -8.70     37.47    -20.82
   0.0002547263  -0.0002372877  -0.0002539802         37.47    -34.91    -37.36
  -0.0001415485  -0.0002539802  -0.0004680825        -20.82    -37.36    -68.86

     kinetic stress (kbar)  16768.47     14.85    -22.89
                               14.85  16761.96    -41.52
                              -22.89    -41.52  16712.27

     local   stress (kbar)  -5609.04   -325.21   1190.83
                             -325.21  -3875.14   1659.45
                             1190.83   1659.45  -1276.91

     nonloc. stress (kbar)   3954.70      0.17      1.34
                                0.17   3953.18      1.99
                                1.34      1.99   3960.04

     hartree stress (kbar)   6377.54    135.21   -458.06
                              135.21   5608.34   -631.58
                             -458.06   -631.58   4695.25

     exc-cor stress (kbar)  -2767.96     -0.22     -0.67
                               -0.22  -2767.62     -0.91
                               -0.67     -0.91  -2769.84

     corecor stress (kbar)  -1390.15     -0.06      0.07
                               -0.06  -1390.14      0.14
                                0.07      0.14  -1389.99

     ewald   stress (kbar) -17342.25    212.73   -731.44
                              212.73 -18325.48  -1024.93
                             -731.44  -1024.93 -19999.67

     hubbard stress (kbar)      0.00      0.00      0.00
                                0.00      0.00      0.00
                                0.00      0.00      0.00

     london  stress (kbar)      0.00      0.00      0.00
                                0.00      0.00      0.00
                                0.00      0.00      0.00

     XDM     stress (kbar)      0.00      0.00      0.00
                                0.00      0.00      0.00
                                0.00      0.00      0.00

     dft-nl  stress (kbar)      0.00      0.00      0.00
                                0.00      0.00      0.00
                                0.00      0.00      0.00



     Writing output data file mix.dummy4848.save

     init_run     :     22.95s CPU     23.28s WALL (       1 calls)
     electrons    :    904.90s CPU    951.30s WALL (       1 calls)
     forces       :      7.70s CPU      7.55s WALL (       1 calls)
     stress       :     16.94s CPU     17.07s WALL (       1 calls)

     Called by init_run:
     wfcinit      :     20.00s CPU     20.31s WALL (       1 calls)
     potinit      :      0.79s CPU      0.79s WALL (       1 calls)

     Called by electrons:
     c_bands      :    787.89s CPU    830.94s WALL (      19 calls)
     sum_band     :    107.15s CPU    110.44s WALL (      19 calls)
     v_of_rho     :      1.08s CPU      1.09s WALL (      20 calls)
     v_h          :      0.07s CPU      0.07s WALL (      20 calls)
     v_xc         :      1.10s CPU      1.12s WALL (      22 calls)
     newd         :      7.22s CPU      7.23s WALL (      20 calls)
     mix_rho      :      1.77s CPU      1.77s WALL (      19 calls)

     Called by c_bands:
     init_us_2    :      3.93s CPU      3.85s WALL (    1476 calls)
     cegterg      :    757.67s CPU    799.20s WALL (     684 calls)

     Called by sum_band:
     sum_band:bec :      1.01s CPU      0.93s WALL (     684 calls)
     addusdens    :      6.92s CPU      6.92s WALL (      19 calls)

     Called by *egterg:
     h_psi        :    414.53s CPU    424.86s WALL (    2242 calls)
     s_psi        :     38.18s CPU     36.34s WALL (    2242 calls)
     g_psi        :      0.40s CPU      0.47s WALL (    1522 calls)
     cdiaghg      :     99.03s CPU    109.65s WALL (    2206 calls)
     cegterg:over :    109.87s CPU    120.39s WALL (    1522 calls)
     cegterg:upda :     16.01s CPU     18.00s WALL (    1522 calls)
     cegterg:last :      9.14s CPU      9.06s WALL (     684 calls)

     Called by h_psi:
     h_psi:vloc   :    281.88s CPU    284.58s WALL (    2242 calls)
     h_psi:vnl    :    131.92s CPU    139.52s WALL (    2242 calls)
     add_vuspsi   :     38.88s CPU     39.08s WALL (    2242 calls)

     General routines
     calbec       :    133.41s CPU    143.51s WALL (    2998 calls)
     fft          :      3.25s CPU      3.22s WALL (     341 calls)
     ffts         :      1.04s CPU      1.02s WALL (     449 calls)
     fftw         :    326.54s CPU    330.11s WALL (  263066 calls)
     interpolate  :      0.22s CPU      0.22s WALL (      39 calls)

     Parallel routines
     fft_scatter  :    172.45s CPU    173.98s WALL (  263856 calls)

     PWSCF        : 15m55.66s CPU    16m42.82s WALL


   This run was terminated on:   6:34:50  15Nov2017            

=------------------------------------------------------------------------------=
   JOB DONE.
=------------------------------------------------------------------------------=
