
     Program PWSCF v.5.1 starts on  8Dec2017 at  1:30:43 

     This program is part of the open-source Quantum ESPRESSO suite
     for quantum simulation of materials; please cite
         "P. Giannozzi et al., J. Phys.:Condens. Matter 21 395502 (2009);
          URL http://www.quantum-espresso.org", 
     in publications or presentations arising from this work. More details at
     http://www.quantum-espresso.org/quote

     Parallel version (MPI), running on    16 processors
     R & G space division:  proc/nbgrp/npool/nimage =      16
     Waiting for input...
     Reading input from standard input
Warning: card &IONS ignored
Warning: card   ION_DYNAMICS='BFGS', ignored
Warning: card / ignored
Warning: card &CELL ignored
Warning: card  CELL_DYNAMICS = 'BFGS' ignored
Warning: card / ignored

     Current dimensions of program PWSCF are:
     Max number of different atomic species (ntypx) = 10
     Max number of k-points (npk) =  40000
     Max angular momentum in pseudopotentials (lmaxx) =  3
 kfg - two_fermi_energies  F

     Subspace diagonalization in iterative solution of the eigenvalue problem:
     a serial algorithm will be used


     Parallelization info
     --------------------
     sticks:   dense  smooth     PW     G-vecs:    dense   smooth      PW
     Min         122      97     28                 3893     2776     431
     Max         123      98     29                 3897     2796     434
     Sum        1967    1567    457                62331    44587    6921



     bravais-lattice index     =            0
     lattice parameter (alat)  =    12.331294361  a.u.
     unit-cell volume          =    1304.3680 (a.u.)^3
     number of atoms/cell      =           16
     number of atomic types    =            3
     number of electrons       =       128.00
     number of Kohn-Sham states=           64
     kinetic-energy cutoff     =      40.0000  Ry
     charge density cutoff     =     200.0000  Ry
     convergence threshold     =      1.0E-10
     mixing beta               =       0.3000
     number of iterations used =            8  local-TF  mixing
     Exchange-correlation      = SLA  PW   PSX  PSC ( 1  4 10  8 0)
     A smooth kinetic-energy cutoff is imposed at      39.5000 Ry
     height of the smooth step-function =             800.0000 Ry
     width of the smooth step-function  =               1.0000 Ry


     celldm(1)=  12.331294  celldm(2)=   0.000000  celldm(3)=   0.000000
     celldm(4)=   0.000000  celldm(5)=   0.000000  celldm(6)=   0.000000

     crystal axes: (cart. coord. in units of alat)
               a(1) = (  -0.040467449288   0.713125090487   0.699867838142 )  
               a(2) = (   0.660758928759   0.015712587047   0.643687801808 )  
               a(3) = (   0.721881304767   0.718067430159  -0.045409788960 )  

     reciprocal axes: (cart. coord. in units 2 pi/alat)
               b(1) = ( -0.665482  0.711119  0.665772 )  
               b(2) = (  0.769001 -0.723644  0.781817 )  
               b(3) = (  0.644074  0.702237 -0.678298 )  


     PseudoPot. # 1 for Ca read from file:
     /users/kfg/psuedo/gbrv_1.5/ca.pbesol.UPF
     MD5 check sum: 0533207b58cddeaa036efa5b63902087
     Pseudo is Ultrasoft + core correction, Zval = 10.0
     Generated by new atomic code, or converted to UPF format
     Using radial grid of  845 points,  6 beta functions with: 
                l(1) =   0
                l(2) =   0
                l(3) =   1
                l(4) =   1
                l(5) =   2
                l(6) =   2
     Q(r) pseudized with  8 coefficients,  rinner =    1.500   1.500   1.500
                                                       1.500   1.500

     PseudoPot. # 2 for Mg read from file:
     /users/kfg/psuedo/gbrv_1.5/mg.pbesol.UPF
     MD5 check sum: 4059f37963cf5867752dbf5ab2400678
     Pseudo is Ultrasoft, Zval = 10.0
     Generated by new atomic code, or converted to UPF format
     Using radial grid of  821 points,  7 beta functions with: 
                l(1) =   0
                l(2) =   0
                l(3) =   0
                l(4) =   1
                l(5) =   1
                l(6) =   2
                l(7) =   2
     Q(r) pseudized with  8 coefficients,  rinner =    1.200   1.200   1.200
                                                       1.200   1.200

     PseudoPot. # 3 for O  read from file:
     /users/kfg/psuedo/gbrv_1.5/o.pbesol.UPF
     MD5 check sum: 501638753501ef6325af9037351f7734
     Pseudo is Ultrasoft + core correction, Zval =  6.0
     Generated by new atomic code, or converted to UPF format
     Using radial grid of  737 points,  5 beta functions with: 
                l(1) =   0
                l(2) =   0
                l(3) =   1
                l(4) =   1
                l(5) =   2
     Q(r) pseudized with  8 coefficients,  rinner =    0.900   0.900   0.900
                                                       0.900   0.900

     atomic species   valence    mass     pseudopotential
        Ca            10.00    40.07800     Ca( 1.00)
        Mg            10.00    40.07800     Mg( 1.00)
        O              6.00    15.99940     O ( 1.00)

     No symmetry found


                                    s                        frac. trans.

      isym =  1     identity                                     

 cryst.   s( 1) = (     1          0          0      )
                  (     0          1          0      )
                  (     0          0          1      )

 cart.    s( 1) = (  1.0000000  0.0000000 -0.0000000 )
                  (  0.0000000  1.0000000 -0.0000000 )
                  ( -0.0000000 -0.0000000  1.0000000 )


     point group C_1 (1)    
     there are  1 classes
     the character table:

       E    
A      1.00

     the symmetry operations in each class:
     E        1

   Cartesian axes

     site n.     atom                  positions (alat units)
         1           Mg  tau(   1) = (   -0.06788446015   -0.01395121028    0.05914725340  )
         2           O   tau(   2) = (    0.36200107896    0.33764046298    0.31696024534  )
         3           Mg  tau(   3) = (    0.33068129361    0.37908953838   -0.05235112783  )
         4           O   tau(   4) = (    0.66318409049    0.69333005182    0.31870245788  )
         5           Mg  tau(   5) = (    0.41662829906    0.02866647535    0.23566666290  )
         6           O   tau(   6) = (    0.67891510277    0.33923873329    0.68720267764  )
         7           Ca  tau(   7) = (    0.70549294730    0.35401164039    0.33295614536  )
         8           O   tau(   8) = (    1.01444627995    0.71591460378    0.62657948713  )
         9           Ca  tau(   9) = (   -0.04029211000    0.33768219186    0.38237365738  )
        10           O   tau(  10) = (    0.34561539426    0.74928725785    0.66463413048  )
        11           Ca  tau(  11) = (    0.33788479437    0.68879733648    0.32791537894  )
        12           O   tau(  12) = (    0.66062022969    1.10079149279    0.67475068757  )
        13           Ca  tau(  13) = (    0.30758036990    0.36528456742    0.65105790780  )
        14           O   tau(  14) = (    0.66065306587    0.73253137224    0.95686409736  )
        15           Mg  tau(  15) = (    0.67103361076    0.75623117722    0.64966940765  )
        16           O   tau(  16) = (    1.00647671859    1.11688495458    0.95674603692  )

   Crystallographic axes

     site n.     atom                  positions (cryst. coord.)
         1           Mg  tau(   1) = (    0.07463351668    0.00413480282   -0.09363913365  )
         2           O   tau(   2) = (    0.21022083654    0.28185249102    0.25526582937  )
         3           Mg  tau(   3) = (    0.01466149192   -0.06096068822    0.51470362702  )
         4           O   tau(   4) = (    0.26388660251    0.25743191331    0.69784668144  )
         5           Mg  tau(   5) = (   -0.09997294767    0.48389147024    0.12861815196  )
         6           O   tau(   6) = (    0.24695405071    0.81386492010    0.20936986391  )
         7           Ca  tau(   7) = (    0.00392470150    0.54665708887    0.47714661018  )
         8           O   tau(   8) = (    0.25116431610    0.75191319735    0.73111313022  )
         9           Ca  tau(   9) = (    0.52151979404    0.02359967181   -0.04818136696  )
        10           O   tau(  10) = (    0.74532683440    0.24318330095    0.29795941699  )
        11           Ca  tau(  11) = (    0.48327780543    0.01775926873    0.47889759270  )
        12           O   tau(  12) = (    0.79239354886    0.23896763277    0.74082314485  )
        13           Ca  tau(  13) = (    0.48852809732    0.48120157234    0.01300992335  )
        14           O   tau(  14) = (    0.71831818630    0.72604323692    0.29088164190  )
        15           Mg  tau(  15) = (    0.52374175457    0.47670568602    0.52257976863  )
        16           O   tau(  16) = (    0.76142141080    0.71375443496    0.78360511810  )

     number of k points=    36
                       cart. coord. in units 2pi/alat
        k(    1) = (   0.0000000   0.0000000   0.0000000), wk =   0.0312500
        k(    2) = (   0.1610186   0.1755592  -0.1695744), wk =   0.0625000
        k(    3) = (  -0.3220372  -0.3511184   0.3391488), wk =   0.0312500
        k(    4) = (   0.1922503  -0.1809111   0.1954542), wk =   0.0625000
        k(    5) = (   0.3532689  -0.0053519   0.0258798), wk =   0.0625000
        k(    6) = (  -0.1297869  -0.5320295   0.5346030), wk =   0.0625000
        k(    7) = (   0.0312317  -0.3564703   0.3650286), wk =   0.0625000
        k(    8) = (  -0.3845006   0.3618222  -0.3909084), wk =   0.0312500
        k(    9) = (  -0.2234820   0.5373814  -0.5604828), wk =   0.0625000
        k(   10) = (  -0.7065378   0.0107038  -0.0517596), wk =   0.0312500
        k(   11) = (  -0.1663705   0.1777798   0.1664431), wk =   0.0625000
        k(   12) = (  -0.0053519   0.3533390  -0.0031313), wk =   0.0625000
        k(   13) = (  -0.4884077  -0.1733386   0.5055919), wk =   0.0625000
        k(   14) = (  -0.3273891   0.0022206   0.3360175), wk =   0.0625000
        k(   15) = (   0.0258798  -0.0031313   0.3618973), wk =   0.0625000
        k(   16) = (   0.1868984   0.1724279   0.1923229), wk =   0.0625000
        k(   17) = (  -0.2961574  -0.3542497   0.7010461), wk =   0.0625000
        k(   18) = (  -0.1351388  -0.1786905   0.5314717), wk =   0.0625000
        k(   19) = (  -0.5508711   0.5396020  -0.2244653), wk =   0.0625000
        k(   20) = (  -0.3898525   0.7151612  -0.3940397), wk =   0.0625000
        k(   21) = (  -0.8729083   0.1884836   0.1146835), wk =   0.0625000
        k(   22) = (  -0.7118897   0.3640428  -0.0548909), wk =   0.0625000
        k(   23) = (  -0.3586208   0.3586909  -0.0290111), wk =   0.0625000
        k(   24) = (  -0.1976022   0.5342501  -0.1985855), wk =   0.0625000
        k(   25) = (  -0.6806580   0.0075725   0.3101377), wk =   0.0625000
        k(   26) = (  -0.5196394   0.1831317   0.1405633), wk =   0.0625000
        k(   27) = (   0.3327410  -0.3555596  -0.3328862), wk =   0.0312500
        k(   28) = (   0.4937596  -0.1800004  -0.5024606), wk =   0.0625000
        k(   29) = (   0.0107038  -0.7066780   0.0062626), wk =   0.0312500
        k(   30) = (   0.5249912  -0.5364707  -0.1374320), wk =   0.0625000
        k(   31) = (   0.6860098  -0.3609115  -0.3070064), wk =   0.0625000
        k(   32) = (   0.2029540  -0.8875891   0.2017168), wk =   0.0625000
        k(   33) = (   0.3639726  -0.7120299   0.0321424), wk =   0.0625000
        k(   34) = (  -0.0517596   0.0062626  -0.7237946), wk =   0.0312500
        k(   35) = (   0.1092590   0.1818218  -0.8933690), wk =   0.0625000
        k(   36) = (  -0.3737968  -0.3448558  -0.3846458), wk =   0.0312500

                       cryst. coord.
        k(    1) = (   0.0000000   0.0000000   0.0000000), wk =   0.0312500
        k(    2) = (  -0.0000000   0.0000000   0.2500000), wk =   0.0625000
        k(    3) = (   0.0000000   0.0000000  -0.5000000), wk =   0.0312500
        k(    4) = (   0.0000000   0.2500000  -0.0000000), wk =   0.0625000
        k(    5) = (  -0.0000000   0.2500000   0.2500000), wk =   0.0625000
        k(    6) = (  -0.0000000   0.2500000  -0.5000000), wk =   0.0625000
        k(    7) = (   0.0000000   0.2500000  -0.2500000), wk =   0.0625000
        k(    8) = (   0.0000000  -0.5000000   0.0000000), wk =   0.0312500
        k(    9) = (   0.0000000  -0.5000000   0.2500000), wk =   0.0625000
        k(   10) = (   0.0000000  -0.5000000  -0.5000000), wk =   0.0312500
        k(   11) = (   0.2500000   0.0000000  -0.0000000), wk =   0.0625000
        k(   12) = (   0.2500000  -0.0000000   0.2500000), wk =   0.0625000
        k(   13) = (   0.2500000   0.0000000  -0.5000000), wk =   0.0625000
        k(   14) = (   0.2500000  -0.0000000  -0.2500000), wk =   0.0625000
        k(   15) = (   0.2500000   0.2500000  -0.0000000), wk =   0.0625000
        k(   16) = (   0.2500000   0.2500000   0.2500000), wk =   0.0625000
        k(   17) = (   0.2500000   0.2500000  -0.5000000), wk =   0.0625000
        k(   18) = (   0.2500000   0.2500000  -0.2500000), wk =   0.0625000
        k(   19) = (   0.2500000  -0.5000000   0.0000000), wk =   0.0625000
        k(   20) = (   0.2500000  -0.5000000   0.2500000), wk =   0.0625000
        k(   21) = (   0.2500000  -0.5000000  -0.5000000), wk =   0.0625000
        k(   22) = (   0.2500000  -0.5000000  -0.2500000), wk =   0.0625000
        k(   23) = (   0.2500000  -0.2500000  -0.0000000), wk =   0.0625000
        k(   24) = (   0.2500000  -0.2500000   0.2500000), wk =   0.0625000
        k(   25) = (   0.2500000  -0.2500000  -0.5000000), wk =   0.0625000
        k(   26) = (   0.2500000  -0.2500000  -0.2500000), wk =   0.0625000
        k(   27) = (  -0.5000000   0.0000000   0.0000000), wk =   0.0312500
        k(   28) = (  -0.5000000  -0.0000000   0.2500000), wk =   0.0625000
        k(   29) = (  -0.5000000   0.0000000  -0.5000000), wk =   0.0312500
        k(   30) = (  -0.5000000   0.2500000  -0.0000000), wk =   0.0625000
        k(   31) = (  -0.5000000   0.2500000   0.2500000), wk =   0.0625000
        k(   32) = (  -0.5000000   0.2500000  -0.5000000), wk =   0.0625000
        k(   33) = (  -0.5000000   0.2500000  -0.2500000), wk =   0.0625000
        k(   34) = (  -0.5000000  -0.5000000   0.0000000), wk =   0.0312500
        k(   35) = (  -0.5000000  -0.5000000   0.2500000), wk =   0.0625000
        k(   36) = (  -0.5000000  -0.5000000  -0.5000000), wk =   0.0312500

     Dense  grid:    62331 G-vectors     FFT dimensions: (  60,  54,  60)

     Smooth grid:    44587 G-vectors     FFT dimensions: (  50,  45,  54)

     Largest allocated arrays     est. size (Mb)     dimensions
        Kohn-Sham Wavefunctions         0.35 Mb     (     357,   64)
        NL pseudopotentials             1.37 Mb     (     357,  252)
        Each V/rho on FFT grid          0.20 Mb     (   12960)
        Each G-vector array             0.03 Mb     (    3895)
        G-vector shells                 0.03 Mb     (    3872)
     Largest temporary arrays     est. size (Mb)     dimensions
        Auxiliary wavefunctions         1.39 Mb     (     357,  256)
        Each subspace H/S matrix        1.00 Mb     (     256,  256)
        Each <psi_i|beta_j> matrix      0.25 Mb     (     252,   64)
        Arrays for rho mixing           1.58 Mb     (   12960,    8)

     Check: negative/imaginary core charge=   -0.000003    0.000000

     Initial potential from superposition of free atoms

     starting charge  126.77837, renormalised to  128.00000
     Starting wfc are   92 randomized atomic wfcs

     total cpu time spent up to now is       16.9 secs

     Self-consistent Calculation

     iteration #  1     ecut=    40.00 Ry     beta=0.30
     Davidson diagonalization with overlap
     ethr =  1.00E-02,  avg # of iterations =  2.0

     total cpu time spent up to now is       52.3 secs

     total energy              =   -1059.77201643 Ry
     Harris-Foulkes estimate   =   -1060.43712542 Ry
     estimated scf accuracy    <       3.43102421 Ry

     iteration #  2     ecut=    40.00 Ry     beta=0.30
     Davidson diagonalization with overlap
     ethr =  2.68E-03,  avg # of iterations =  1.6

     total cpu time spent up to now is       82.5 secs

     total energy              =   -1059.27332246 Ry
     Harris-Foulkes estimate   =   -1059.87914874 Ry
     estimated scf accuracy    <       1.48419833 Ry

     iteration #  3     ecut=    40.00 Ry     beta=0.30
     Davidson diagonalization with overlap
     ethr =  1.16E-03,  avg # of iterations =  2.0

     total cpu time spent up to now is      119.5 secs

     total energy              =   -1059.50604414 Ry
     Harris-Foulkes estimate   =   -1059.55251519 Ry
     estimated scf accuracy    <       0.17765378 Ry

     iteration #  4     ecut=    40.00 Ry     beta=0.30
     Davidson diagonalization with overlap
     ethr =  1.39E-04,  avg # of iterations =  2.0

     total cpu time spent up to now is      155.2 secs

     total energy              =   -1059.46448157 Ry
     Harris-Foulkes estimate   =   -1059.52731658 Ry
     estimated scf accuracy    <       0.11358856 Ry

     iteration #  5     ecut=    40.00 Ry     beta=0.30
     Davidson diagonalization with overlap
     ethr =  8.87E-05,  avg # of iterations =  2.0

     total cpu time spent up to now is      194.0 secs

     total energy              =   -1059.48183086 Ry
     Harris-Foulkes estimate   =   -1059.48351282 Ry
     estimated scf accuracy    <       0.01513563 Ry

     iteration #  6     ecut=    40.00 Ry     beta=0.30
     Davidson diagonalization with overlap
     ethr =  1.18E-05,  avg # of iterations =  1.0

     total cpu time spent up to now is      219.9 secs

     total energy              =   -1059.47932592 Ry
     Harris-Foulkes estimate   =   -1059.48224225 Ry
     estimated scf accuracy    <       0.00833890 Ry

     iteration #  7     ecut=    40.00 Ry     beta=0.30
     Davidson diagonalization with overlap
     ethr =  6.51E-06,  avg # of iterations =  2.0

     total cpu time spent up to now is      255.3 secs

     total energy              =   -1059.47970341 Ry
     Harris-Foulkes estimate   =   -1059.48002504 Ry
     estimated scf accuracy    <       0.00214623 Ry

     iteration #  8     ecut=    40.00 Ry     beta=0.30
     Davidson diagonalization with overlap
     ethr =  1.68E-06,  avg # of iterations =  1.8

     total cpu time spent up to now is      290.6 secs

     total energy              =   -1059.47928595 Ry
     Harris-Foulkes estimate   =   -1059.47976681 Ry
     estimated scf accuracy    <       0.00114656 Ry

     iteration #  9     ecut=    40.00 Ry     beta=0.30
     Davidson diagonalization with overlap
     ethr =  8.96E-07,  avg # of iterations =  2.8

     total cpu time spent up to now is      337.5 secs

     total energy              =   -1059.47950737 Ry
     Harris-Foulkes estimate   =   -1059.47953149 Ry
     estimated scf accuracy    <       0.00017077 Ry

     iteration # 10     ecut=    40.00 Ry     beta=0.30
     Davidson diagonalization with overlap
     ethr =  1.33E-07,  avg # of iterations =  2.0

     total cpu time spent up to now is      372.9 secs

     total energy              =   -1059.47948794 Ry
     Harris-Foulkes estimate   =   -1059.47951488 Ry
     estimated scf accuracy    <       0.00009071 Ry

     iteration # 11     ecut=    40.00 Ry     beta=0.30
     Davidson diagonalization with overlap
     ethr =  7.09E-08,  avg # of iterations =  2.0

     total cpu time spent up to now is      408.5 secs

     total energy              =   -1059.47949156 Ry
     Harris-Foulkes estimate   =   -1059.47949731 Ry
     estimated scf accuracy    <       0.00001771 Ry

     iteration # 12     ecut=    40.00 Ry     beta=0.30
     Davidson diagonalization with overlap
     ethr =  1.38E-08,  avg # of iterations =  2.1

     total cpu time spent up to now is      445.9 secs

     total energy              =   -1059.47949252 Ry
     Harris-Foulkes estimate   =   -1059.47949366 Ry
     estimated scf accuracy    <       0.00000371 Ry

     iteration # 13     ecut=    40.00 Ry     beta=0.30
     Davidson diagonalization with overlap
     ethr =  2.90E-09,  avg # of iterations =  2.5

     total cpu time spent up to now is      484.6 secs

     total energy              =   -1059.47949216 Ry
     Harris-Foulkes estimate   =   -1059.47949329 Ry
     estimated scf accuracy    <       0.00000273 Ry

     iteration # 14     ecut=    40.00 Ry     beta=0.30
     Davidson diagonalization with overlap
     ethr =  2.13E-09,  avg # of iterations =  2.4

     total cpu time spent up to now is      523.5 secs

     total energy              =   -1059.47949251 Ry
     Harris-Foulkes estimate   =   -1059.47949259 Ry
     estimated scf accuracy    <       0.00000027 Ry

     iteration # 15     ecut=    40.00 Ry     beta=0.30
     Davidson diagonalization with overlap
     ethr =  2.14E-10,  avg # of iterations =  2.2

     total cpu time spent up to now is      560.3 secs

     total energy              =   -1059.47949252 Ry
     Harris-Foulkes estimate   =   -1059.47949254 Ry
     estimated scf accuracy    <       0.00000009 Ry

     iteration # 16     ecut=    40.00 Ry     beta=0.30
     Davidson diagonalization with overlap
     ethr =  7.27E-11,  avg # of iterations =  2.0

     total cpu time spent up to now is      593.2 secs

     total energy              =   -1059.47949251 Ry
     Harris-Foulkes estimate   =   -1059.47949253 Ry
     estimated scf accuracy    <       0.00000004 Ry

     iteration # 17     ecut=    40.00 Ry     beta=0.30
     Davidson diagonalization with overlap
     ethr =  3.24E-11,  avg # of iterations =  2.0

     total cpu time spent up to now is      630.7 secs

     total energy              =   -1059.47949251 Ry
     Harris-Foulkes estimate   =   -1059.47949251 Ry
     estimated scf accuracy    <          4.6E-09 Ry

     iteration # 18     ecut=    40.00 Ry     beta=0.30
     Davidson diagonalization with overlap
     ethr =  3.57E-12,  avg # of iterations =  2.0

     total cpu time spent up to now is      664.9 secs

     total energy              =   -1059.47949251 Ry
     Harris-Foulkes estimate   =   -1059.47949251 Ry
     estimated scf accuracy    <          2.5E-09 Ry

     iteration # 19     ecut=    40.00 Ry     beta=0.30
     Davidson diagonalization with overlap
     ethr =  1.95E-12,  avg # of iterations =  2.2

     total cpu time spent up to now is      702.3 secs

     total energy              =   -1059.47949251 Ry
     Harris-Foulkes estimate   =   -1059.47949251 Ry
     estimated scf accuracy    <          6.7E-10 Ry

     iteration # 20     ecut=    40.00 Ry     beta=0.30
     Davidson diagonalization with overlap
     ethr =  5.27E-13,  avg # of iterations =  2.0

     total cpu time spent up to now is      737.4 secs

     total energy              =   -1059.47949251 Ry
     Harris-Foulkes estimate   =   -1059.47949251 Ry
     estimated scf accuracy    <          2.7E-10 Ry

     iteration # 21     ecut=    40.00 Ry     beta=0.30
     Davidson diagonalization with overlap
     ethr =  2.09E-13,  avg # of iterations =  2.0

     total cpu time spent up to now is      773.7 secs

     End of self-consistent calculation

          k = 0.0000 0.0000 0.0000 (  5599 PWs)   bands (ev):

   -65.8394 -65.7382 -65.6665 -64.9039 -32.8877 -32.7837 -32.7524 -32.7439
   -32.7004 -32.6751 -32.6667 -32.6413 -32.6063 -31.9197 -31.8969 -31.8739
   -30.3461 -29.9285 -29.4323 -29.3569 -12.2852 -11.9749 -11.8446 -11.7497
   -11.2385 -11.1775 -11.0767 -11.0327 -10.8817 -10.7211 -10.6519 -10.4385
    -8.9166  -8.3166  -8.1029  -7.8905  -7.8340  -7.2396  -7.1775  -6.9992
     2.9976   3.6828   3.9071   4.5328   4.5684   4.6809   4.8596   5.6777
     5.7280   5.8237   5.9981   6.0238   6.1624   6.2031   6.2984   6.3431
     6.5238   6.6241   6.7132   6.8485   6.9689   7.0249   7.1348   7.5746

     occupation numbers 
     1.0000   1.0000   1.0000   1.0000   1.0000   1.0000   1.0000   1.0000
     1.0000   1.0000   1.0000   1.0000   1.0000   1.0000   1.0000   1.0000
     1.0000   1.0000   1.0000   1.0000   1.0000   1.0000   1.0000   1.0000
     1.0000   1.0000   1.0000   1.0000   1.0000   1.0000   1.0000   1.0000
     1.0000   1.0000   1.0000   1.0000   1.0000   1.0000   1.0000   1.0000
     1.0000   1.0000   1.0000   1.0000   1.0000   1.0000   1.0000   1.0000
     1.0000   1.0000   1.0000   1.0000   1.0000   1.0000   1.0000   1.0000
     1.0000   1.0000   1.0000   1.0000   1.0000   1.0000   1.0000   1.0000

          k = 0.1610 0.1756-0.1696 (  5587 PWs)   bands (ev):

   -65.8394 -65.7382 -65.6665 -64.9039 -32.8877 -32.7837 -32.7524 -32.7438
   -32.7004 -32.6750 -32.6667 -32.6413 -32.6064 -31.9197 -31.8969 -31.8739
   -30.3453 -29.9283 -29.4329 -29.3574 -12.2481 -11.9156 -11.7857 -11.6950
   -11.2824 -11.2193 -11.1317 -11.0294 -10.9680 -10.8403 -10.6780 -10.4387
    -8.7580  -8.2501  -8.0146  -7.9036  -7.7340  -7.3404  -7.2282  -7.1153
     3.2241   3.9127   4.1027   4.4905   4.6377   4.7875   4.9180   5.5066
     5.6484   5.7715   5.8603   5.9148   6.0557   6.1136   6.2196   6.2963
     6.3719   6.4693   6.6360   6.7374   6.9061   6.9863   7.1090   7.4780

     occupation numbers 
     1.0000   1.0000   1.0000   1.0000   1.0000   1.0000   1.0000   1.0000
     1.0000   1.0000   1.0000   1.0000   1.0000   1.0000   1.0000   1.0000
     1.0000   1.0000   1.0000   1.0000   1.0000   1.0000   1.0000   1.0000
     1.0000   1.0000   1.0000   1.0000   1.0000   1.0000   1.0000   1.0000
     1.0000   1.0000   1.0000   1.0000   1.0000   1.0000   1.0000   1.0000
     1.0000   1.0000   1.0000   1.0000   1.0000   1.0000   1.0000   1.0000
     1.0000   1.0000   1.0000   1.0000   1.0000   1.0000   1.0000   1.0000
     1.0000   1.0000   1.0000   1.0000   1.0000   1.0000   1.0000   1.0000

          k =-0.3220-0.3511 0.3391 (  5584 PWs)   bands (ev):

   -65.8394 -65.7382 -65.6665 -64.9039 -32.8876 -32.7837 -32.7525 -32.7437
   -32.7004 -32.6750 -32.6667 -32.6413 -32.6064 -31.9198 -31.8969 -31.8739
   -30.3445 -29.9281 -29.4335 -29.3580 -12.2128 -11.8286 -11.7002 -11.6280
   -11.3498 -11.3024 -11.1684 -11.1104 -10.9997 -10.9386 -10.7010 -10.4392
    -8.5813  -8.1826  -8.0165  -7.8232  -7.5289  -7.4707  -7.3445  -7.2756
     3.5812   4.1670   4.3398   4.4547   4.6434   4.9430   5.0848   5.2136
     5.4111   5.5871   5.6680   5.8104   5.8678   6.0036   6.1892   6.2155
     6.2976   6.4213   6.5534   6.7200   6.8588   6.9457   7.1972   7.3257

     occupation numbers 
     1.0000   1.0000   1.0000   1.0000   1.0000   1.0000   1.0000   1.0000
     1.0000   1.0000   1.0000   1.0000   1.0000   1.0000   1.0000   1.0000
     1.0000   1.0000   1.0000   1.0000   1.0000   1.0000   1.0000   1.0000
     1.0000   1.0000   1.0000   1.0000   1.0000   1.0000   1.0000   1.0000
     1.0000   1.0000   1.0000   1.0000   1.0000   1.0000   1.0000   1.0000
     1.0000   1.0000   1.0000   1.0000   1.0000   1.0000   1.0000   1.0000
     1.0000   1.0000   1.0000   1.0000   1.0000   1.0000   1.0000   1.0000
     1.0000   1.0000   1.0000   1.0000   1.0000   1.0000   1.0000   1.0000

          k = 0.1923-0.1809 0.1955 (  5581 PWs)   bands (ev):

   -65.8394 -65.7382 -65.6665 -64.9039 -32.8877 -32.7833 -32.7526 -32.7439
   -32.7006 -32.6752 -32.6667 -32.6413 -32.6063 -31.9197 -31.8969 -31.8739
   -30.3416 -29.9329 -29.4245 -29.3651 -12.1566 -11.8938 -11.7701 -11.7018
   -11.3195 -11.2160 -11.1513 -11.0842 -10.9742 -10.7449 -10.7090 -10.6020
    -8.6726  -8.2432  -7.9818  -7.8973  -7.7443  -7.3632  -7.2933  -7.0703
     3.2936   3.9576   4.1873   4.5484   4.7193   4.7675   4.9683   5.6170
     5.6763   5.8194   5.8625   5.9424   6.0702   6.0957   6.1628   6.2972
     6.3781   6.4283   6.5268   6.7065   6.7801   6.8782   6.9848   7.1880

     occupation numbers 
     1.0000   1.0000   1.0000   1.0000   1.0000   1.0000   1.0000   1.0000
     1.0000   1.0000   1.0000   1.0000   1.0000   1.0000   1.0000   1.0000
     1.0000   1.0000   1.0000   1.0000   1.0000   1.0000   1.0000   1.0000
     1.0000   1.0000   1.0000   1.0000   1.0000   1.0000   1.0000   1.0000
     1.0000   1.0000   1.0000   1.0000   1.0000   1.0000   1.0000   1.0000
     1.0000   1.0000   1.0000   1.0000   1.0000   1.0000   1.0000   1.0000
     1.0000   1.0000   1.0000   1.0000   1.0000   1.0000   1.0000   1.0000
     1.0000   1.0000   1.0000   1.0000   1.0000   1.0000   1.0000   1.0000

          k = 0.3533-0.0054 0.0259 (  5577 PWs)   bands (ev):

   -65.8394 -65.7382 -65.6665 -64.9039 -32.8877 -32.7833 -32.7525 -32.7439
   -32.7006 -32.6752 -32.6667 -32.6413 -32.6064 -31.9197 -31.8969 -31.8739
   -30.3418 -29.9327 -29.4246 -29.3650 -12.1550 -11.9104 -11.7826 -11.6624
   -11.3642 -11.2441 -11.1330 -11.0371 -10.9096 -10.8021 -10.7365 -10.5849
    -8.7033  -8.2524  -8.0461  -7.8363  -7.6601  -7.3060  -7.2876  -7.1721
     3.3445   3.9268   4.1869   4.5642   4.7265   4.7950   4.9811   5.4207
     5.5824   5.7424   5.8620   5.9498   6.0245   6.0922   6.1623   6.3095
     6.3636   6.4903   6.6330   6.7342   6.8271   6.8431   7.0081   7.2737

     occupation numbers 
     1.0000   1.0000   1.0000   1.0000   1.0000   1.0000   1.0000   1.0000
     1.0000   1.0000   1.0000   1.0000   1.0000   1.0000   1.0000   1.0000
     1.0000   1.0000   1.0000   1.0000   1.0000   1.0000   1.0000   1.0000
     1.0000   1.0000   1.0000   1.0000   1.0000   1.0000   1.0000   1.0000
     1.0000   1.0000   1.0000   1.0000   1.0000   1.0000   1.0000   1.0000
     1.0000   1.0000   1.0000   1.0000   1.0000   1.0000   1.0000   1.0000
     1.0000   1.0000   1.0000   1.0000   1.0000   1.0000   1.0000   1.0000
     1.0000   1.0000   1.0000   1.0000   1.0000   1.0000   1.0000   1.0000

          k =-0.1298-0.5320 0.5346 (  5576 PWs)   bands (ev):

   -65.8394 -65.7382 -65.6665 -64.9039 -32.8877 -32.7833 -32.7526 -32.7438
   -32.7006 -32.6752 -32.6667 -32.6413 -32.6064 -31.9197 -31.8969 -31.8739
   -30.3410 -29.9325 -29.4252 -29.3655 -12.1035 -11.8522 -11.7232 -11.5395
   -11.3891 -11.3365 -11.2636 -11.0527 -10.9869 -10.8713 -10.7578 -10.5803
    -8.5450  -8.1825  -7.9845  -7.8436  -7.4927  -7.4214  -7.3601  -7.3204
     3.7194   4.2438   4.3726   4.4765   4.8023   4.9427   5.0437   5.1559
     5.3785   5.4493   5.6338   5.8466   6.0067   6.0563   6.1177   6.1850
     6.3417   6.4302   6.5065   6.7041   6.7388   6.8411   7.0548   7.1806

     occupation numbers 
     1.0000   1.0000   1.0000   1.0000   1.0000   1.0000   1.0000   1.0000
     1.0000   1.0000   1.0000   1.0000   1.0000   1.0000   1.0000   1.0000
     1.0000   1.0000   1.0000   1.0000   1.0000   1.0000   1.0000   1.0000
     1.0000   1.0000   1.0000   1.0000   1.0000   1.0000   1.0000   1.0000
     1.0000   1.0000   1.0000   1.0000   1.0000   1.0000   1.0000   1.0000
     1.0000   1.0000   1.0000   1.0000   1.0000   1.0000   1.0000   1.0000
     1.0000   1.0000   1.0000   1.0000   1.0000   1.0000   1.0000   1.0000
     1.0000   1.0000   1.0000   1.0000   1.0000   1.0000   1.0000   1.0000

          k = 0.0312-0.3565 0.3650 (  5574 PWs)   bands (ev):

   -65.8394 -65.7382 -65.6665 -64.9039 -32.8877 -32.7833 -32.7526 -32.7438
   -32.7006 -32.6752 -32.6667 -32.6413 -32.6064 -31.9197 -31.8969 -31.8739
   -30.3408 -29.9327 -29.4251 -29.3656 -12.1085 -11.8272 -11.7023 -11.6159
   -11.3585 -11.2774 -11.2441 -11.1123 -11.0670 -10.8313 -10.7256 -10.5880
    -8.4941  -8.1992  -7.9482  -7.8217  -7.6621  -7.5198  -7.3570  -7.1503
     3.6440   4.2557   4.3823   4.4786   4.6996   4.9231   5.0680   5.3747
     5.4677   5.5986   5.6946   5.8939   5.9509   6.0211   6.1386   6.1737
     6.2705   6.3504   6.4871   6.6357   6.7238   6.8041   6.9779   7.2286

     occupation numbers 
     1.0000   1.0000   1.0000   1.0000   1.0000   1.0000   1.0000   1.0000
     1.0000   1.0000   1.0000   1.0000   1.0000   1.0000   1.0000   1.0000
     1.0000   1.0000   1.0000   1.0000   1.0000   1.0000   1.0000   1.0000
     1.0000   1.0000   1.0000   1.0000   1.0000   1.0000   1.0000   1.0000
     1.0000   1.0000   1.0000   1.0000   1.0000   1.0000   1.0000   1.0000
     1.0000   1.0000   1.0000   1.0000   1.0000   1.0000   1.0000   1.0000
     1.0000   1.0000   1.0000   1.0000   1.0000   1.0000   1.0000   1.0000
     1.0000   1.0000   1.0000   1.0000   1.0000   1.0000   1.0000   1.0000

          k =-0.3845 0.3618-0.3909 (  5568 PWs)   bands (ev):

   -65.8394 -65.7382 -65.6665 -64.9039 -32.8878 -32.7829 -32.7527 -32.7440
   -32.7009 -32.6753 -32.6667 -32.6413 -32.6063 -31.9197 -31.8969 -31.8739
   -30.3369 -29.9375 -29.4134 -29.3765 -11.9195 -11.8318 -11.6874 -11.6292
   -11.4858 -11.3745 -11.1332 -11.0989 -11.0556 -10.9091 -10.7188 -10.7029
    -8.4048  -8.1408  -7.9448  -7.8005  -7.6140  -7.5520  -7.4519  -7.1731
     3.9886   4.0358   4.4431   4.5706   4.9167   4.9891   5.1592   5.2956
     5.5493   5.6297   5.7220   5.7649   5.8958   5.9249   6.1268   6.1581
     6.2641   6.3326   6.5299   6.5529   6.6699   6.6931   6.8407   6.8948

     occupation numbers 
     1.0000   1.0000   1.0000   1.0000   1.0000   1.0000   1.0000   1.0000
     1.0000   1.0000   1.0000   1.0000   1.0000   1.0000   1.0000   1.0000
     1.0000   1.0000   1.0000   1.0000   1.0000   1.0000   1.0000   1.0000
     1.0000   1.0000   1.0000   1.0000   1.0000   1.0000   1.0000   1.0000
     1.0000   1.0000   1.0000   1.0000   1.0000   1.0000   1.0000   1.0000
     1.0000   1.0000   1.0000   1.0000   1.0000   1.0000   1.0000   1.0000
     1.0000   1.0000   1.0000   1.0000   1.0000   1.0000   1.0000   1.0000
     1.0000   1.0000   1.0000   1.0000   1.0000   1.0000   1.0000   1.0000

          k =-0.2235 0.5374-0.5605 (  5559 PWs)   bands (ev):

   -65.8394 -65.7382 -65.6665 -64.9039 -32.8878 -32.7829 -32.7527 -32.7439
   -32.7009 -32.6753 -32.6667 -32.6413 -32.6064 -31.9197 -31.8969 -31.8739
   -30.3372 -29.9372 -29.4136 -29.3763 -11.9422 -11.8251 -11.7276 -11.5649
   -11.4897 -11.4068 -11.1592 -11.0369 -10.9899 -10.9307 -10.7733 -10.6902
    -8.4915  -8.1018  -7.9618  -7.8420  -7.5588  -7.4763  -7.4310  -7.2199
     3.8877   4.2786   4.3569   4.5305   4.9099   5.0080   5.1227   5.2392
     5.4234   5.4913   5.6339   5.8518   5.9182   5.9852   6.0634   6.1794
     6.2459   6.3640   6.4999   6.6072   6.6598   6.8451   6.9219   6.9428

     occupation numbers 
     1.0000   1.0000   1.0000   1.0000   1.0000   1.0000   1.0000   1.0000
     1.0000   1.0000   1.0000   1.0000   1.0000   1.0000   1.0000   1.0000
     1.0000   1.0000   1.0000   1.0000   1.0000   1.0000   1.0000   1.0000
     1.0000   1.0000   1.0000   1.0000   1.0000   1.0000   1.0000   1.0000
     1.0000   1.0000   1.0000   1.0000   1.0000   1.0000   1.0000   1.0000
     1.0000   1.0000   1.0000   1.0000   1.0000   1.0000   1.0000   1.0000
     1.0000   1.0000   1.0000   1.0000   1.0000   1.0000   1.0000   1.0000
     1.0000   1.0000   1.0000   1.0000   1.0000   1.0000   1.0000   1.0000

          k =-0.7065 0.0107-0.0518 (  5572 PWs)   bands (ev):

   -65.8394 -65.7382 -65.6665 -64.9039 -32.8878 -32.7829 -32.7527 -32.7439
   -32.7009 -32.6753 -32.6667 -32.6413 -32.6064 -31.9197 -31.8969 -31.8739
   -30.3375 -29.9370 -29.4138 -29.3760 -11.9758 -11.8265 -11.7268 -11.5102
   -11.4555 -11.4335 -11.2293 -10.9981 -10.9738 -10.9167 -10.7948 -10.6828
    -8.5592  -8.1150  -7.9866  -7.8055  -7.4908  -7.4649  -7.3794  -7.2854
     3.9203   4.1787   4.3542   4.7245   4.9146   4.9704   5.0527   5.1582
     5.3352   5.4807   5.5817   5.8026   5.8696   5.9152   6.0026   6.2200
     6.3232   6.3660   6.4890   6.6304   6.7552   6.9103   6.9818   7.0637

     occupation numbers 
     1.0000   1.0000   1.0000   1.0000   1.0000   1.0000   1.0000   1.0000
     1.0000   1.0000   1.0000   1.0000   1.0000   1.0000   1.0000   1.0000
     1.0000   1.0000   1.0000   1.0000   1.0000   1.0000   1.0000   1.0000
     1.0000   1.0000   1.0000   1.0000   1.0000   1.0000   1.0000   1.0000
     1.0000   1.0000   1.0000   1.0000   1.0000   1.0000   1.0000   1.0000
     1.0000   1.0000   1.0000   1.0000   1.0000   1.0000   1.0000   1.0000
     1.0000   1.0000   1.0000   1.0000   1.0000   1.0000   1.0000   1.0000
     1.0000   1.0000   1.0000   1.0000   1.0000   1.0000   1.0000   1.0000

          k =-0.1664 0.1778 0.1664 (  5568 PWs)   bands (ev):

   -65.8394 -65.7382 -65.6665 -64.9039 -32.8877 -32.7833 -32.7525 -32.7439
   -32.7005 -32.6752 -32.6667 -32.6413 -32.6063 -31.9197 -31.8969 -31.8739
   -30.3458 -29.9284 -29.4247 -29.3648 -12.2724 -11.9366 -11.8237 -11.6911
   -11.2448 -11.1625 -11.1019 -11.0276 -10.8899 -10.8002 -10.7093 -10.5951
    -8.7327  -8.2221  -8.0444  -7.8349  -7.7363  -7.3527  -7.2802  -7.1166
     3.2310   3.8955   4.1032   4.3810   4.6785   4.7292   4.9811   5.4462
     5.6273   5.7760   5.8577   5.9488   6.0189   6.1222   6.2712   6.3749
     6.4450   6.5421   6.6417   6.7615   6.8990   6.9278   7.0846   7.4623

     occupation numbers 
     1.0000   1.0000   1.0000   1.0000   1.0000   1.0000   1.0000   1.0000
     1.0000   1.0000   1.0000   1.0000   1.0000   1.0000   1.0000   1.0000
     1.0000   1.0000   1.0000   1.0000   1.0000   1.0000   1.0000   1.0000
     1.0000   1.0000   1.0000   1.0000   1.0000   1.0000   1.0000   1.0000
     1.0000   1.0000   1.0000   1.0000   1.0000   1.0000   1.0000   1.0000
     1.0000   1.0000   1.0000   1.0000   1.0000   1.0000   1.0000   1.0000
     1.0000   1.0000   1.0000   1.0000   1.0000   1.0000   1.0000   1.0000
     1.0000   1.0000   1.0000   1.0000   1.0000   1.0000   1.0000   1.0000

          k =-0.0054 0.3533-0.0031 (  5569 PWs)   bands (ev):

   -65.8394 -65.7382 -65.6665 -64.9039 -32.8876 -32.7833 -32.7526 -32.7438
   -32.7005 -32.6752 -32.6667 -32.6413 -32.6064 -31.9197 -31.8969 -31.8739
   -30.3453 -29.9282 -29.4247 -29.3656 -12.2604 -11.9437 -11.7802 -11.6037
   -11.2901 -11.2222 -11.0909 -11.0568 -10.9717 -10.7518 -10.7136 -10.6033
    -8.6729  -8.1780  -8.0950  -7.8815  -7.8001  -7.3597  -7.2507  -7.0509
     3.3074   3.9621   4.1568   4.5188   4.6885   4.7739   5.0313   5.4950
     5.6473   5.7551   5.8355   5.9090   5.9733   6.0787   6.1540   6.2327
     6.3321   6.3761   6.5224   6.6826   6.8721   6.9473   7.0687   7.5458

     occupation numbers 
     1.0000   1.0000   1.0000   1.0000   1.0000   1.0000   1.0000   1.0000
     1.0000   1.0000   1.0000   1.0000   1.0000   1.0000   1.0000   1.0000
     1.0000   1.0000   1.0000   1.0000   1.0000   1.0000   1.0000   1.0000
     1.0000   1.0000   1.0000   1.0000   1.0000   1.0000   1.0000   1.0000
     1.0000   1.0000   1.0000   1.0000   1.0000   1.0000   1.0000   1.0000
     1.0000   1.0000   1.0000   1.0000   1.0000   1.0000   1.0000   1.0000
     1.0000   1.0000   1.0000   1.0000   1.0000   1.0000   1.0000   1.0000
     1.0000   1.0000   1.0000   1.0000   1.0000   1.0000   1.0000   1.0000

          k =-0.4884-0.1733 0.5056 (  5577 PWs)   bands (ev):

   -65.8394 -65.7382 -65.6665 -64.9039 -32.8876 -32.7833 -32.7526 -32.7438
   -32.7005 -32.6752 -32.6667 -32.6414 -32.6065 -31.9198 -31.8969 -31.8739
   -30.3444 -29.9280 -29.4253 -29.3661 -12.2264 -11.8681 -11.7180 -11.5407
   -11.3448 -11.2478 -11.1408 -11.1037 -11.0127 -10.8787 -10.7543 -10.5855
    -8.5157  -8.1145  -8.0355  -7.9505  -7.6523  -7.3816  -7.3361  -7.1897
     3.6657   4.2175   4.2951   4.5494   4.7303   5.0294   5.0879   5.1617
     5.3465   5.5150   5.7146   5.7879   5.8852   5.9616   6.0743   6.1576
     6.2406   6.3759   6.5421   6.6598   6.7979   6.9683   7.0764   7.4353

     occupation numbers 
     1.0000   1.0000   1.0000   1.0000   1.0000   1.0000   1.0000   1.0000
     1.0000   1.0000   1.0000   1.0000   1.0000   1.0000   1.0000   1.0000
     1.0000   1.0000   1.0000   1.0000   1.0000   1.0000   1.0000   1.0000
     1.0000   1.0000   1.0000   1.0000   1.0000   1.0000   1.0000   1.0000
     1.0000   1.0000   1.0000   1.0000   1.0000   1.0000   1.0000   1.0000
     1.0000   1.0000   1.0000   1.0000   1.0000   1.0000   1.0000   1.0000
     1.0000   1.0000   1.0000   1.0000   1.0000   1.0000   1.0000   1.0000
     1.0000   1.0000   1.0000   1.0000   1.0000   1.0000   1.0000   1.0000

          k =-0.3274 0.0022 0.3360 (  5584 PWs)   bands (ev):

   -65.8394 -65.7382 -65.6665 -64.9039 -32.8876 -32.7833 -32.7526 -32.7438
   -32.7005 -32.6752 -32.6667 -32.6413 -32.6064 -31.9198 -31.8969 -31.8739
   -30.3450 -29.9282 -29.4252 -29.3654 -12.2349 -11.8664 -11.7767 -11.6518
   -11.2988 -11.1828 -11.1018 -11.0210 -10.9831 -10.9144 -10.7772 -10.5803
    -8.5983  -8.1912  -7.9513  -7.8241  -7.5207  -7.5104  -7.3227  -7.2874
     3.5502   4.1220   4.2795   4.3884   4.7413   4.7842   5.0509   5.1783
     5.4224   5.6323   5.8132   5.8558   6.0263   6.0589   6.1718   6.2335
     6.3054   6.4258   6.5550   6.7302   6.8153   6.9697   7.1470   7.3275

     occupation numbers 
     1.0000   1.0000   1.0000   1.0000   1.0000   1.0000   1.0000   1.0000
     1.0000   1.0000   1.0000   1.0000   1.0000   1.0000   1.0000   1.0000
     1.0000   1.0000   1.0000   1.0000   1.0000   1.0000   1.0000   1.0000
     1.0000   1.0000   1.0000   1.0000   1.0000   1.0000   1.0000   1.0000
     1.0000   1.0000   1.0000   1.0000   1.0000   1.0000   1.0000   1.0000
     1.0000   1.0000   1.0000   1.0000   1.0000   1.0000   1.0000   1.0000
     1.0000   1.0000   1.0000   1.0000   1.0000   1.0000   1.0000   1.0000
     1.0000   1.0000   1.0000   1.0000   1.0000   1.0000   1.0000   1.0000

          k = 0.0259-0.0031 0.3619 (  5569 PWs)   bands (ev):

   -65.8394 -65.7382 -65.6665 -64.9039 -32.8878 -32.7837 -32.7524 -32.7438
   -32.7005 -32.6751 -32.6667 -32.6413 -32.6063 -31.9197 -31.8969 -31.8739
   -30.3415 -29.9329 -29.4323 -29.3571 -12.1489 -11.8722 -11.8119 -11.7326
   -11.3475 -11.2386 -11.1595 -11.0858 -10.9700 -10.8064 -10.6565 -10.4386
    -8.6687  -8.3734  -7.9709  -7.7672  -7.7341  -7.5163  -7.1959  -7.0936
     3.3715   4.0152   4.1843   4.4955   4.6423   4.7569   4.9350   5.4153
     5.7339   5.7701   5.9114   5.9808   6.0594   6.1778   6.2118   6.2676
     6.3138   6.3826   6.6102   6.6265   6.8074   6.8568   6.9843   7.2843

     occupation numbers 
     1.0000   1.0000   1.0000   1.0000   1.0000   1.0000   1.0000   1.0000
     1.0000   1.0000   1.0000   1.0000   1.0000   1.0000   1.0000   1.0000
     1.0000   1.0000   1.0000   1.0000   1.0000   1.0000   1.0000   1.0000
     1.0000   1.0000   1.0000   1.0000   1.0000   1.0000   1.0000   1.0000
     1.0000   1.0000   1.0000   1.0000   1.0000   1.0000   1.0000   1.0000
     1.0000   1.0000   1.0000   1.0000   1.0000   1.0000   1.0000   1.0000
     1.0000   1.0000   1.0000   1.0000   1.0000   1.0000   1.0000   1.0000
     1.0000   1.0000   1.0000   1.0000   1.0000   1.0000   1.0000   1.0000

          k = 0.1869 0.1724 0.1923 (  5583 PWs)   bands (ev):

   -65.8394 -65.7382 -65.6665 -64.9039 -32.8878 -32.7837 -32.7524 -32.7438
   -32.7005 -32.6751 -32.6667 -32.6413 -32.6064 -31.9197 -31.8969 -31.8739
   -30.3420 -29.9327 -29.4319 -29.3572 -12.1740 -11.9339 -11.8098 -11.7079
   -11.3166 -11.2501 -11.1801 -11.1015 -10.8882 -10.7421 -10.6722 -10.4388
    -8.7099  -8.3613  -8.0233  -7.8562  -7.7701  -7.3611  -7.2397  -7.0461
     3.2758   3.9327   4.1797   4.4922   4.6749   4.7452   4.9380   5.4576
     5.7450   5.7888   5.8845   5.9574   6.0282   6.1519   6.2404   6.3248
     6.4383   6.5178   6.5555   6.6808   6.8059   6.9116   6.9898   7.2240

     occupation numbers 
     1.0000   1.0000   1.0000   1.0000   1.0000   1.0000   1.0000   1.0000
     1.0000   1.0000   1.0000   1.0000   1.0000   1.0000   1.0000   1.0000
     1.0000   1.0000   1.0000   1.0000   1.0000   1.0000   1.0000   1.0000
     1.0000   1.0000   1.0000   1.0000   1.0000   1.0000   1.0000   1.0000
     1.0000   1.0000   1.0000   1.0000   1.0000   1.0000   1.0000   1.0000
     1.0000   1.0000   1.0000   1.0000   1.0000   1.0000   1.0000   1.0000
     1.0000   1.0000   1.0000   1.0000   1.0000   1.0000   1.0000   1.0000
     1.0000   1.0000   1.0000   1.0000   1.0000   1.0000   1.0000   1.0000

          k =-0.2962-0.3542 0.7010 (  5564 PWs)   bands (ev):

   -65.8394 -65.7382 -65.6665 -64.9039 -32.8878 -32.7837 -32.7525 -32.7437
   -32.7005 -32.6751 -32.6667 -32.6413 -32.6065 -31.9197 -31.8969 -31.8739
   -30.3411 -29.9325 -29.4325 -29.3577 -12.1208 -11.8914 -11.7446 -11.6267
   -11.4043 -11.3260 -11.2390 -11.0737 -10.9636 -10.8139 -10.6861 -10.4389
    -8.5731  -8.3006  -8.0599  -7.9024  -7.6450  -7.3241  -7.2802  -7.1838
     3.5742   4.2026   4.3334   4.4838   4.7202   4.8823   5.0552   5.2080
     5.3744   5.6588   5.6871   5.9078   5.9594   6.0802   6.1690   6.2600
     6.3464   6.4144   6.4927   6.6347   6.7677   6.8933   7.0187   7.2298

     occupation numbers 
     1.0000   1.0000   1.0000   1.0000   1.0000   1.0000   1.0000   1.0000
     1.0000   1.0000   1.0000   1.0000   1.0000   1.0000   1.0000   1.0000
     1.0000   1.0000   1.0000   1.0000   1.0000   1.0000   1.0000   1.0000
     1.0000   1.0000   1.0000   1.0000   1.0000   1.0000   1.0000   1.0000
     1.0000   1.0000   1.0000   1.0000   1.0000   1.0000   1.0000   1.0000
     1.0000   1.0000   1.0000   1.0000   1.0000   1.0000   1.0000   1.0000
     1.0000   1.0000   1.0000   1.0000   1.0000   1.0000   1.0000   1.0000
     1.0000   1.0000   1.0000   1.0000   1.0000   1.0000   1.0000   1.0000

          k =-0.1351-0.1787 0.5315 (  5571 PWs)   bands (ev):

   -65.8394 -65.7382 -65.6665 -64.9039 -32.8878 -32.7837 -32.7525 -32.7438
   -32.7005 -32.6751 -32.6667 -32.6413 -32.6064 -31.9198 -31.8969 -31.8739
   -30.3406 -29.9327 -29.4329 -29.3577 -12.0968 -11.8060 -11.7434 -11.6733
   -11.4315 -11.3089 -11.2008 -11.1098 -11.0318 -10.8578 -10.6814 -10.4390
    -8.5183  -8.3145  -8.0007  -7.9063  -7.5388  -7.4157  -7.2928  -7.2362
     3.7532   4.2882   4.3618   4.3959   4.7020   4.8675   5.0681   5.2189
     5.3749   5.5439   5.6789   5.8248   5.9658   6.0188   6.1537   6.2736
     6.2994   6.4315   6.5197   6.6647   6.7218   6.8513   7.0381   7.1995

     occupation numbers 
     1.0000   1.0000   1.0000   1.0000   1.0000   1.0000   1.0000   1.0000
     1.0000   1.0000   1.0000   1.0000   1.0000   1.0000   1.0000   1.0000
     1.0000   1.0000   1.0000   1.0000   1.0000   1.0000   1.0000   1.0000
     1.0000   1.0000   1.0000   1.0000   1.0000   1.0000   1.0000   1.0000
     1.0000   1.0000   1.0000   1.0000   1.0000   1.0000   1.0000   1.0000
     1.0000   1.0000   1.0000   1.0000   1.0000   1.0000   1.0000   1.0000
     1.0000   1.0000   1.0000   1.0000   1.0000   1.0000   1.0000   1.0000
     1.0000   1.0000   1.0000   1.0000   1.0000   1.0000   1.0000   1.0000

          k =-0.5509 0.5396-0.2245 (  5568 PWs)   bands (ev):

   -65.8394 -65.7382 -65.6665 -64.9039 -32.8879 -32.7833 -32.7526 -32.7439
   -32.7007 -32.6752 -32.6667 -32.6413 -32.6063 -31.9197 -31.8969 -31.8739
   -30.3368 -29.9374 -29.4244 -29.3653 -11.9107 -11.8132 -11.7235 -11.6824
   -11.5065 -11.4422 -11.1382 -11.1139 -11.0366 -10.7993 -10.7177 -10.5845
    -8.3986  -8.2888  -8.0207  -7.8999  -7.5978  -7.4313  -7.3090  -7.2020
     3.9447   4.2779   4.3933   4.4361   4.7728   4.9362   5.1505   5.2728
     5.3792   5.6193   5.7012   5.8091   5.8936   6.0568   6.1122   6.1538
     6.2990   6.4253   6.4513   6.5751   6.6997   6.7811   6.8110   6.9968

     occupation numbers 
     1.0000   1.0000   1.0000   1.0000   1.0000   1.0000   1.0000   1.0000
     1.0000   1.0000   1.0000   1.0000   1.0000   1.0000   1.0000   1.0000
     1.0000   1.0000   1.0000   1.0000   1.0000   1.0000   1.0000   1.0000
     1.0000   1.0000   1.0000   1.0000   1.0000   1.0000   1.0000   1.0000
     1.0000   1.0000   1.0000   1.0000   1.0000   1.0000   1.0000   1.0000
     1.0000   1.0000   1.0000   1.0000   1.0000   1.0000   1.0000   1.0000
     1.0000   1.0000   1.0000   1.0000   1.0000   1.0000   1.0000   1.0000
     1.0000   1.0000   1.0000   1.0000   1.0000   1.0000   1.0000   1.0000

          k =-0.3899 0.7152-0.3940 (  5566 PWs)   bands (ev):

   -65.8394 -65.7382 -65.6665 -64.9039 -32.8878 -32.7833 -32.7526 -32.7438
   -32.7007 -32.6752 -32.6667 -32.6413 -32.6064 -31.9197 -31.8969 -31.8739
   -30.3373 -29.9372 -29.4240 -29.3655 -11.9703 -11.8492 -11.7454 -11.6832
   -11.4747 -11.3696 -11.1686 -11.0818 -10.9723 -10.7920 -10.7387 -10.5925
    -8.4722  -8.3027  -7.9495  -7.7936  -7.6663  -7.5530  -7.3087  -7.1318
     3.7558   4.2653   4.3614   4.5131   4.7296   4.8682   5.1360   5.3509
     5.4377   5.6526   5.7962   5.8698   5.9958   6.0725   6.1517   6.1948
     6.2823   6.4088   6.4927   6.5421   6.5830   6.8204   6.8395   6.9489

     occupation numbers 
     1.0000   1.0000   1.0000   1.0000   1.0000   1.0000   1.0000   1.0000
     1.0000   1.0000   1.0000   1.0000   1.0000   1.0000   1.0000   1.0000
     1.0000   1.0000   1.0000   1.0000   1.0000   1.0000   1.0000   1.0000
     1.0000   1.0000   1.0000   1.0000   1.0000   1.0000   1.0000   1.0000
     1.0000   1.0000   1.0000   1.0000   1.0000   1.0000   1.0000   1.0000
     1.0000   1.0000   1.0000   1.0000   1.0000   1.0000   1.0000   1.0000
     1.0000   1.0000   1.0000   1.0000   1.0000   1.0000   1.0000   1.0000
     1.0000   1.0000   1.0000   1.0000   1.0000   1.0000   1.0000   1.0000

          k =-0.8729 0.1885 0.1147 (  5558 PWs)   bands (ev):

   -65.8394 -65.7382 -65.6665 -64.9039 -32.8878 -32.7833 -32.7525 -32.7438
   -32.7007 -32.6752 -32.6667 -32.6413 -32.6064 -31.9197 -31.8969 -31.8739
   -30.3376 -29.9370 -29.4241 -29.3653 -11.9983 -11.8419 -11.7629 -11.5689
   -11.4720 -11.3912 -11.3022 -11.0711 -10.9076 -10.7929 -10.7438 -10.5862
    -8.5410  -8.2155  -7.9176  -7.8895  -7.6379  -7.4406  -7.3613  -7.1707
     3.8500   4.2194   4.3802   4.5227   4.7629   4.9292   5.1014   5.2900
     5.4531   5.5338   5.5709   5.7905   5.9128   6.0205   6.1499   6.2436
     6.2952   6.4286   6.5081   6.5658   6.7970   6.8303   6.8852   7.0041

     occupation numbers 
     1.0000   1.0000   1.0000   1.0000   1.0000   1.0000   1.0000   1.0000
     1.0000   1.0000   1.0000   1.0000   1.0000   1.0000   1.0000   1.0000
     1.0000   1.0000   1.0000   1.0000   1.0000   1.0000   1.0000   1.0000
     1.0000   1.0000   1.0000   1.0000   1.0000   1.0000   1.0000   1.0000
     1.0000   1.0000   1.0000   1.0000   1.0000   1.0000   1.0000   1.0000
     1.0000   1.0000   1.0000   1.0000   1.0000   1.0000   1.0000   1.0000
     1.0000   1.0000   1.0000   1.0000   1.0000   1.0000   1.0000   1.0000
     1.0000   1.0000   1.0000   1.0000   1.0000   1.0000   1.0000   1.0000

          k =-0.7119 0.3640-0.0549 (  5562 PWs)   bands (ev):

   -65.8394 -65.7382 -65.6665 -64.9039 -32.8878 -32.7833 -32.7526 -32.7438
   -32.7007 -32.6752 -32.6667 -32.6413 -32.6064 -31.9198 -31.8969 -31.8739
   -30.3371 -29.9372 -29.4246 -29.3652 -11.9314 -11.8158 -11.7153 -11.6292
   -11.5112 -11.4518 -11.2621 -11.0496 -10.9794 -10.8268 -10.7166 -10.5825
    -8.4679  -8.2009  -8.0264  -7.9282  -7.5223  -7.3898  -7.3506  -7.2559
     4.0767   4.2825   4.4147   4.4554   4.7525   4.9027   5.0628   5.1825
     5.3338   5.3953   5.6974   5.9097   5.9642   6.0625   6.1117   6.1319
     6.2827   6.3382   6.4183   6.6080   6.7282   6.8144   6.9344   7.0540

     occupation numbers 
     1.0000   1.0000   1.0000   1.0000   1.0000   1.0000   1.0000   1.0000
     1.0000   1.0000   1.0000   1.0000   1.0000   1.0000   1.0000   1.0000
     1.0000   1.0000   1.0000   1.0000   1.0000   1.0000   1.0000   1.0000
     1.0000   1.0000   1.0000   1.0000   1.0000   1.0000   1.0000   1.0000
     1.0000   1.0000   1.0000   1.0000   1.0000   1.0000   1.0000   1.0000
     1.0000   1.0000   1.0000   1.0000   1.0000   1.0000   1.0000   1.0000
     1.0000   1.0000   1.0000   1.0000   1.0000   1.0000   1.0000   1.0000
     1.0000   1.0000   1.0000   1.0000   1.0000   1.0000   1.0000   1.0000

          k =-0.3586 0.3587-0.0290 (  5578 PWs)   bands (ev):

   -65.8394 -65.7382 -65.6665 -64.9039 -32.8877 -32.7829 -32.7527 -32.7440
   -32.7008 -32.6753 -32.6667 -32.6413 -32.6063 -31.9197 -31.8969 -31.8739
   -30.3413 -29.9329 -29.4138 -29.3760 -12.1413 -11.8592 -11.7589 -11.6191
   -11.3626 -11.2391 -11.1085 -11.0371 -10.9808 -10.9076 -10.7636 -10.6687
    -8.5448  -8.1165  -8.0557  -7.8499  -7.5891  -7.4641  -7.3041  -7.2325
     3.6200   4.1831   4.3254   4.4412   4.7973   4.8698   5.1714   5.1955
     5.4562   5.5944   5.8480   5.8743   5.9578   5.9881   6.0967   6.2221
     6.2926   6.4365   6.5309   6.6521   6.7318   6.8810   6.9314   7.2306

     occupation numbers 
     1.0000   1.0000   1.0000   1.0000   1.0000   1.0000   1.0000   1.0000
     1.0000   1.0000   1.0000   1.0000   1.0000   1.0000   1.0000   1.0000
     1.0000   1.0000   1.0000   1.0000   1.0000   1.0000   1.0000   1.0000
     1.0000   1.0000   1.0000   1.0000   1.0000   1.0000   1.0000   1.0000
     1.0000   1.0000   1.0000   1.0000   1.0000   1.0000   1.0000   1.0000
     1.0000   1.0000   1.0000   1.0000   1.0000   1.0000   1.0000   1.0000
     1.0000   1.0000   1.0000   1.0000   1.0000   1.0000   1.0000   1.0000
     1.0000   1.0000   1.0000   1.0000   1.0000   1.0000   1.0000   1.0000

          k =-0.1976 0.5343-0.1986 (  5571 PWs)   bands (ev):

   -65.8394 -65.7382 -65.6665 -64.9039 -32.8877 -32.7829 -32.7527 -32.7439
   -32.7008 -32.6753 -32.6667 -32.6414 -32.6064 -31.9197 -31.8969 -31.8739
   -30.3407 -29.9327 -29.4136 -29.3771 -12.1206 -11.8601 -11.7137 -11.5594
   -11.3338 -11.2338 -11.1643 -11.0932 -11.0359 -10.9350 -10.7458 -10.7055
    -8.4488  -8.0829  -8.0295  -7.8836  -7.6804  -7.4906  -7.3611  -7.1321
     3.8182   4.2483   4.3830   4.5357   4.8768   4.9522   5.1532   5.2969
     5.3922   5.4951   5.7265   5.7813   5.8178   5.9113   6.0581   6.1678
     6.2998   6.3277   6.4702   6.5999   6.7287   6.8401   6.9268   7.1910

     occupation numbers 
     1.0000   1.0000   1.0000   1.0000   1.0000   1.0000   1.0000   1.0000
     1.0000   1.0000   1.0000   1.0000   1.0000   1.0000   1.0000   1.0000
     1.0000   1.0000   1.0000   1.0000   1.0000   1.0000   1.0000   1.0000
     1.0000   1.0000   1.0000   1.0000   1.0000   1.0000   1.0000   1.0000
     1.0000   1.0000   1.0000   1.0000   1.0000   1.0000   1.0000   1.0000
     1.0000   1.0000   1.0000   1.0000   1.0000   1.0000   1.0000   1.0000
     1.0000   1.0000   1.0000   1.0000   1.0000   1.0000   1.0000   1.0000
     1.0000   1.0000   1.0000   1.0000   1.0000   1.0000   1.0000   1.0000

          k =-0.6807 0.0076 0.3101 (  5571 PWs)   bands (ev):

   -65.8394 -65.7382 -65.6665 -64.9039 -32.8877 -32.7829 -32.7527 -32.7438
   -32.7008 -32.6753 -32.6667 -32.6414 -32.6065 -31.9197 -31.8969 -31.8739
   -30.3410 -29.9324 -29.4138 -29.3769 -12.1179 -11.8622 -11.7586 -11.4522
   -11.3314 -11.2751 -11.2214 -11.0370 -10.9893 -10.9697 -10.7988 -10.7118
    -8.4887  -8.0673  -7.8599  -7.8445  -7.6571  -7.5518  -7.4475  -7.1701
     4.0159   4.2466   4.3638   4.4884   4.9088   4.9988   5.0846   5.1926
     5.2755   5.4389   5.4809   5.7366   5.8863   6.0277   6.1087   6.1951
     6.3030   6.3783   6.4928   6.6207   6.7286   6.8215   6.9789   7.1746

     occupation numbers 
     1.0000   1.0000   1.0000   1.0000   1.0000   1.0000   1.0000   1.0000
     1.0000   1.0000   1.0000   1.0000   1.0000   1.0000   1.0000   1.0000
     1.0000   1.0000   1.0000   1.0000   1.0000   1.0000   1.0000   1.0000
     1.0000   1.0000   1.0000   1.0000   1.0000   1.0000   1.0000   1.0000
     1.0000   1.0000   1.0000   1.0000   1.0000   1.0000   1.0000   1.0000
     1.0000   1.0000   1.0000   1.0000   1.0000   1.0000   1.0000   1.0000
     1.0000   1.0000   1.0000   1.0000   1.0000   1.0000   1.0000   1.0000
     1.0000   1.0000   1.0000   1.0000   1.0000   1.0000   1.0000   1.0000

          k =-0.5196 0.1831 0.1406 (  5587 PWs)   bands (ev):

   -65.8394 -65.7382 -65.6665 -64.9039 -32.8877 -32.7829 -32.7527 -32.7439
   -32.7008 -32.6753 -32.6667 -32.6413 -32.6064 -31.9197 -31.8969 -31.8739
   -30.3416 -29.9326 -29.4140 -29.3758 -12.1418 -11.8821 -11.7632 -11.5477
   -11.3576 -11.2646 -11.1448 -11.0281 -10.9396 -10.9112 -10.8189 -10.6698
    -8.5783  -8.0839  -7.9549  -7.8152  -7.5120  -7.4776  -7.4142  -7.2997
     3.7511   4.1355   4.3280   4.4567   4.8569   4.9373   5.0730   5.1933
     5.2772   5.5094   5.6859   5.8441   5.8879   6.0280   6.1365   6.2788
     6.3299   6.4645   6.5737   6.7209   6.7693   6.8461   7.0193   7.1803

     occupation numbers 
     1.0000   1.0000   1.0000   1.0000   1.0000   1.0000   1.0000   1.0000
     1.0000   1.0000   1.0000   1.0000   1.0000   1.0000   1.0000   1.0000
     1.0000   1.0000   1.0000   1.0000   1.0000   1.0000   1.0000   1.0000
     1.0000   1.0000   1.0000   1.0000   1.0000   1.0000   1.0000   1.0000
     1.0000   1.0000   1.0000   1.0000   1.0000   1.0000   1.0000   1.0000
     1.0000   1.0000   1.0000   1.0000   1.0000   1.0000   1.0000   1.0000
     1.0000   1.0000   1.0000   1.0000   1.0000   1.0000   1.0000   1.0000
     1.0000   1.0000   1.0000   1.0000   1.0000   1.0000   1.0000   1.0000

          k = 0.3327-0.3556-0.3329 (  5566 PWs)   bands (ev):

   -65.8394 -65.7382 -65.6665 -64.9039 -32.8876 -32.7829 -32.7527 -32.7440
   -32.7007 -32.6753 -32.6667 -32.6413 -32.6063 -31.9198 -31.8969 -31.8740
   -30.3456 -29.9283 -29.4142 -29.3756 -12.2595 -11.9009 -11.8030 -11.6006
   -11.2546 -11.1585 -11.0951 -11.0001 -10.9294 -10.8942 -10.8665 -10.6524
    -8.5780  -8.0976  -7.8907  -7.8209  -7.5440  -7.5244  -7.4246  -7.3049
     3.6478   3.9502   4.2914   4.4401   4.6759   4.8836   5.1211   5.3312
     5.3982   5.5236   5.6250   5.7940   5.9610   5.9754   6.1642   6.2757
     6.4511   6.5332   6.5899   6.6362   6.8888   7.0518   7.0655   7.3298

     occupation numbers 
     1.0000   1.0000   1.0000   1.0000   1.0000   1.0000   1.0000   1.0000
     1.0000   1.0000   1.0000   1.0000   1.0000   1.0000   1.0000   1.0000
     1.0000   1.0000   1.0000   1.0000   1.0000   1.0000   1.0000   1.0000
     1.0000   1.0000   1.0000   1.0000   1.0000   1.0000   1.0000   1.0000
     1.0000   1.0000   1.0000   1.0000   1.0000   1.0000   1.0000   1.0000
     1.0000   1.0000   1.0000   1.0000   1.0000   1.0000   1.0000   1.0000
     1.0000   1.0000   1.0000   1.0000   1.0000   1.0000   1.0000   1.0000
     1.0000   1.0000   1.0000   1.0000   1.0000   1.0000   1.0000   1.0000

          k = 0.4938-0.1800-0.5025 (  5566 PWs)   bands (ev):

   -65.8394 -65.7382 -65.6665 -64.9039 -32.8876 -32.7829 -32.7527 -32.7439
   -32.7007 -32.6753 -32.6667 -32.6413 -32.6064 -31.9198 -31.8969 -31.8740
   -30.3450 -29.9281 -29.4139 -29.3767 -12.2477 -11.8954 -11.7849 -11.5416
   -11.2720 -11.1523 -11.0993 -11.0176 -10.9817 -10.9395 -10.8118 -10.6926
    -8.5093  -8.1452  -7.9862  -7.8429  -7.6638  -7.4814  -7.3428  -7.1877
     3.6961   4.1086   4.3306   4.4475   4.7613   4.9405   5.1674   5.2527
     5.3347   5.4924   5.6815   5.7816   5.8414   5.9756   6.0929   6.2395
     6.3086   6.4084   6.6027   6.6589   6.7373   6.9747   7.0684   7.4225

     occupation numbers 
     1.0000   1.0000   1.0000   1.0000   1.0000   1.0000   1.0000   1.0000
     1.0000   1.0000   1.0000   1.0000   1.0000   1.0000   1.0000   1.0000
     1.0000   1.0000   1.0000   1.0000   1.0000   1.0000   1.0000   1.0000
     1.0000   1.0000   1.0000   1.0000   1.0000   1.0000   1.0000   1.0000
     1.0000   1.0000   1.0000   1.0000   1.0000   1.0000   1.0000   1.0000
     1.0000   1.0000   1.0000   1.0000   1.0000   1.0000   1.0000   1.0000
     1.0000   1.0000   1.0000   1.0000   1.0000   1.0000   1.0000   1.0000
     1.0000   1.0000   1.0000   1.0000   1.0000   1.0000   1.0000   1.0000

          k = 0.0107-0.7067 0.0063 (  5570 PWs)   bands (ev):

   -65.8394 -65.7382 -65.6665 -64.9039 -32.8876 -32.7829 -32.7527 -32.7438
   -32.7007 -32.6753 -32.6667 -32.6414 -32.6065 -31.9198 -31.8969 -31.8740
   -30.3444 -29.9280 -29.4137 -29.3777 -12.2389 -11.9078 -11.7267 -11.4437
   -11.3106 -11.1860 -11.1043 -11.0793 -11.0156 -10.9614 -10.7858 -10.6938
    -8.4347  -8.2418  -8.0042  -7.8581  -7.7361  -7.4928  -7.2637  -7.1065
     3.7944   4.1221   4.3625   4.6871   4.8808   4.9258   5.1403   5.2290
     5.2755   5.5647   5.5999   5.7599   5.7952   5.9090   5.9689   6.0506
     6.2071   6.3935   6.4791   6.6111   6.8445   6.9105   7.0576   7.5037

     occupation numbers 
     1.0000   1.0000   1.0000   1.0000   1.0000   1.0000   1.0000   1.0000
     1.0000   1.0000   1.0000   1.0000   1.0000   1.0000   1.0000   1.0000
     1.0000   1.0000   1.0000   1.0000   1.0000   1.0000   1.0000   1.0000
     1.0000   1.0000   1.0000   1.0000   1.0000   1.0000   1.0000   1.0000
     1.0000   1.0000   1.0000   1.0000   1.0000   1.0000   1.0000   1.0000
     1.0000   1.0000   1.0000   1.0000   1.0000   1.0000   1.0000   1.0000
     1.0000   1.0000   1.0000   1.0000   1.0000   1.0000   1.0000   1.0000
     1.0000   1.0000   1.0000   1.0000   1.0000   1.0000   1.0000   1.0000

          k = 0.5250-0.5365-0.1374 (  5580 PWs)   bands (ev):

   -65.8394 -65.7382 -65.6665 -64.9039 -32.8878 -32.7834 -32.7526 -32.7439
   -32.7006 -32.6752 -32.6667 -32.6413 -32.6063 -31.9198 -31.8969 -31.8739
   -30.3412 -29.9328 -29.4246 -29.3651 -12.1328 -11.8325 -11.7715 -11.7012
   -11.3815 -11.2794 -11.1294 -11.0597 -10.9779 -10.8388 -10.7156 -10.5836
    -8.4932  -8.2907  -7.9749  -7.8838  -7.5578  -7.4231  -7.3107  -7.2642
     3.7944   4.1690   4.3215   4.3946   4.6728   4.8929   5.1030   5.2114
     5.3366   5.5315   5.7085   5.8868   5.9974   6.1111   6.1434   6.1763
     6.3662   6.4398   6.5657   6.6284   6.7356   6.8912   7.0385   7.1479

     occupation numbers 
     1.0000   1.0000   1.0000   1.0000   1.0000   1.0000   1.0000   1.0000
     1.0000   1.0000   1.0000   1.0000   1.0000   1.0000   1.0000   1.0000
     1.0000   1.0000   1.0000   1.0000   1.0000   1.0000   1.0000   1.0000
     1.0000   1.0000   1.0000   1.0000   1.0000   1.0000   1.0000   1.0000
     1.0000   1.0000   1.0000   1.0000   1.0000   1.0000   1.0000   1.0000
     1.0000   1.0000   1.0000   1.0000   1.0000   1.0000   1.0000   1.0000
     1.0000   1.0000   1.0000   1.0000   1.0000   1.0000   1.0000   1.0000
     1.0000   1.0000   1.0000   1.0000   1.0000   1.0000   1.0000   1.0000

          k = 0.6860-0.3609-0.3070 (  5569 PWs)   bands (ev):

   -65.8394 -65.7382 -65.6665 -64.9039 -32.8877 -32.7833 -32.7525 -32.7439
   -32.7006 -32.6752 -32.6667 -32.6413 -32.6064 -31.9197 -31.8969 -31.8739
   -30.3417 -29.9326 -29.4242 -29.3651 -12.1604 -11.8996 -11.8002 -11.6081
   -11.3338 -11.2627 -11.2028 -11.1053 -10.8997 -10.7946 -10.7139 -10.5943
    -8.5503  -8.2461  -7.9336  -7.7654  -7.7164  -7.5518  -7.3514  -7.1122
     3.6392   4.1625   4.3247   4.3885   4.6697   4.8602   5.0926   5.2674
     5.4757   5.6230   5.7808   5.8560   5.9356   6.0832   6.1492   6.2356
     6.3285   6.4310   6.5887   6.6610   6.7622   6.8708   6.9689   7.2202

     occupation numbers 
     1.0000   1.0000   1.0000   1.0000   1.0000   1.0000   1.0000   1.0000
     1.0000   1.0000   1.0000   1.0000   1.0000   1.0000   1.0000   1.0000
     1.0000   1.0000   1.0000   1.0000   1.0000   1.0000   1.0000   1.0000
     1.0000   1.0000   1.0000   1.0000   1.0000   1.0000   1.0000   1.0000
     1.0000   1.0000   1.0000   1.0000   1.0000   1.0000   1.0000   1.0000
     1.0000   1.0000   1.0000   1.0000   1.0000   1.0000   1.0000   1.0000
     1.0000   1.0000   1.0000   1.0000   1.0000   1.0000   1.0000   1.0000
     1.0000   1.0000   1.0000   1.0000   1.0000   1.0000   1.0000   1.0000

          k = 0.2030-0.8876 0.2017 (  5565 PWs)   bands (ev):

   -65.8394 -65.7382 -65.6665 -64.9039 -32.8877 -32.7833 -32.7526 -32.7438
   -32.7007 -32.6752 -32.6667 -32.6413 -32.6065 -31.9197 -31.8969 -31.8739
   -30.3411 -29.9324 -29.4243 -29.3660 -12.1344 -11.9049 -11.7685 -11.5491
   -11.3626 -11.2785 -11.2182 -11.0976 -10.9678 -10.7999 -10.7281 -10.5958
    -8.4785  -8.2207  -8.0503  -7.8623  -7.7297  -7.4215  -7.3346  -7.1007
     3.7771   4.1943   4.4011   4.5708   4.7427   4.8684   5.1683   5.2879
     5.3434   5.4854   5.6088   5.8054   5.9069   5.9444   6.1160   6.2218
     6.3849   6.4314   6.5068   6.5748   6.7422   6.8779   6.9131   7.1990

     occupation numbers 
     1.0000   1.0000   1.0000   1.0000   1.0000   1.0000   1.0000   1.0000
     1.0000   1.0000   1.0000   1.0000   1.0000   1.0000   1.0000   1.0000
     1.0000   1.0000   1.0000   1.0000   1.0000   1.0000   1.0000   1.0000
     1.0000   1.0000   1.0000   1.0000   1.0000   1.0000   1.0000   1.0000
     1.0000   1.0000   1.0000   1.0000   1.0000   1.0000   1.0000   1.0000
     1.0000   1.0000   1.0000   1.0000   1.0000   1.0000   1.0000   1.0000
     1.0000   1.0000   1.0000   1.0000   1.0000   1.0000   1.0000   1.0000
     1.0000   1.0000   1.0000   1.0000   1.0000   1.0000   1.0000   1.0000

          k = 0.3640-0.7120 0.0321 (  5572 PWs)   bands (ev):

   -65.8394 -65.7382 -65.6665 -64.9039 -32.8877 -32.7833 -32.7526 -32.7438
   -32.7006 -32.6752 -32.6667 -32.6413 -32.6064 -31.9198 -31.8969 -31.8739
   -30.3406 -29.9326 -29.4247 -29.3659 -12.1106 -11.8305 -11.7360 -11.6554
   -11.4203 -11.2633 -11.1324 -11.1071 -11.0142 -10.8266 -10.7560 -10.5809
    -8.4217  -8.2393  -8.1116  -7.9420  -7.5754  -7.3378  -7.3079  -7.2348
     3.9731   4.2384   4.3769   4.5465   4.7554   4.9695   5.0046   5.1630
     5.2755   5.3844   5.6983   5.8643   5.8998   6.0051   6.0988   6.2008
     6.2992   6.4212   6.4753   6.5372   6.7550   6.8839   6.9528   7.1852

     occupation numbers 
     1.0000   1.0000   1.0000   1.0000   1.0000   1.0000   1.0000   1.0000
     1.0000   1.0000   1.0000   1.0000   1.0000   1.0000   1.0000   1.0000
     1.0000   1.0000   1.0000   1.0000   1.0000   1.0000   1.0000   1.0000
     1.0000   1.0000   1.0000   1.0000   1.0000   1.0000   1.0000   1.0000
     1.0000   1.0000   1.0000   1.0000   1.0000   1.0000   1.0000   1.0000
     1.0000   1.0000   1.0000   1.0000   1.0000   1.0000   1.0000   1.0000
     1.0000   1.0000   1.0000   1.0000   1.0000   1.0000   1.0000   1.0000
     1.0000   1.0000   1.0000   1.0000   1.0000   1.0000   1.0000   1.0000

          k =-0.0518 0.0063-0.7238 (  5558 PWs)   bands (ev):

   -65.8394 -65.7382 -65.6665 -64.9039 -32.8879 -32.7838 -32.7525 -32.7438
   -32.7006 -32.6751 -32.6667 -32.6413 -32.6063 -31.9198 -31.8969 -31.8739
   -30.3367 -29.9374 -29.4323 -29.3573 -11.9052 -11.8191 -11.7632 -11.6775
   -11.5391 -11.4883 -11.1506 -11.1114 -11.0114 -10.8193 -10.6550 -10.4386
    -8.5154  -8.3162  -8.0616  -7.9577  -7.5732  -7.3615  -7.2451  -7.1951
     4.0102   4.2474   4.3374   4.5563   4.6085   5.0035   5.0934   5.1080
     5.2818   5.6120   5.7248   5.8260   5.9836   6.0156   6.0861   6.2063
     6.2908   6.3593   6.4655   6.4970   6.7645   6.8450   6.8968   7.1453

     occupation numbers 
     1.0000   1.0000   1.0000   1.0000   1.0000   1.0000   1.0000   1.0000
     1.0000   1.0000   1.0000   1.0000   1.0000   1.0000   1.0000   1.0000
     1.0000   1.0000   1.0000   1.0000   1.0000   1.0000   1.0000   1.0000
     1.0000   1.0000   1.0000   1.0000   1.0000   1.0000   1.0000   1.0000
     1.0000   1.0000   1.0000   1.0000   1.0000   1.0000   1.0000   1.0000
     1.0000   1.0000   1.0000   1.0000   1.0000   1.0000   1.0000   1.0000
     1.0000   1.0000   1.0000   1.0000   1.0000   1.0000   1.0000   1.0000
     1.0000   1.0000   1.0000   1.0000   1.0000   1.0000   1.0000   1.0000

          k = 0.1093 0.1818-0.8934 (  5563 PWs)   bands (ev):

   -65.8394 -65.7382 -65.6665 -64.9039 -32.8879 -32.7838 -32.7524 -32.7438
   -32.7006 -32.6751 -32.6667 -32.6413 -32.6064 -31.9197 -31.8969 -31.8739
   -30.3372 -29.9372 -29.4319 -29.3574 -11.9592 -11.8447 -11.7458 -11.7241
   -11.4943 -11.4216 -11.2108 -11.0884 -10.9608 -10.8008 -10.6752 -10.4389
    -8.4690  -8.3795  -8.0162  -7.8725  -7.6752  -7.4260  -7.2500  -7.1573
     3.8925   4.2663   4.3449   4.4727   4.6653   4.8599   5.1359   5.2197
     5.4593   5.5846   5.6675   5.8807   5.9930   6.0448   6.0620   6.2399
     6.3518   6.3840   6.5027   6.6243   6.6506   6.7930   6.8768   7.0542

     occupation numbers 
     1.0000   1.0000   1.0000   1.0000   1.0000   1.0000   1.0000   1.0000
     1.0000   1.0000   1.0000   1.0000   1.0000   1.0000   1.0000   1.0000
     1.0000   1.0000   1.0000   1.0000   1.0000   1.0000   1.0000   1.0000
     1.0000   1.0000   1.0000   1.0000   1.0000   1.0000   1.0000   1.0000
     1.0000   1.0000   1.0000   1.0000   1.0000   1.0000   1.0000   1.0000
     1.0000   1.0000   1.0000   1.0000   1.0000   1.0000   1.0000   1.0000
     1.0000   1.0000   1.0000   1.0000   1.0000   1.0000   1.0000   1.0000
     1.0000   1.0000   1.0000   1.0000   1.0000   1.0000   1.0000   1.0000

          k =-0.3738-0.3449-0.3846 (  5570 PWs)   bands (ev):

   -65.8394 -65.7382 -65.6665 -64.9039 -32.8879 -32.7837 -32.7524 -32.7437
   -32.7006 -32.6751 -32.6667 -32.6413 -32.6065 -31.9197 -31.8969 -31.8739
   -30.3377 -29.9370 -29.4316 -29.3574 -12.0248 -11.8564 -11.7856 -11.6439
   -11.4604 -11.3505 -11.3172 -11.1315 -10.8906 -10.7609 -10.6846 -10.4390
    -8.5128  -8.3331  -7.9795  -7.8022  -7.6966  -7.5493  -7.2952  -7.1015
     3.8237   4.1364   4.3741   4.5215   4.5789   4.9684   5.1942   5.3957
     5.4287   5.5565   5.7052   5.8514   5.9516   5.9670   6.1064   6.3040
     6.3353   6.4530   6.5083   6.5517   6.6728   6.7973   6.9210   7.0030

     occupation numbers 
     1.0000   1.0000   1.0000   1.0000   1.0000   1.0000   1.0000   1.0000
     1.0000   1.0000   1.0000   1.0000   1.0000   1.0000   1.0000   1.0000
     1.0000   1.0000   1.0000   1.0000   1.0000   1.0000   1.0000   1.0000
     1.0000   1.0000   1.0000   1.0000   1.0000   1.0000   1.0000   1.0000
     1.0000   1.0000   1.0000   1.0000   1.0000   1.0000   1.0000   1.0000
     1.0000   1.0000   1.0000   1.0000   1.0000   1.0000   1.0000   1.0000
     1.0000   1.0000   1.0000   1.0000   1.0000   1.0000   1.0000   1.0000
     1.0000   1.0000   1.0000   1.0000   1.0000   1.0000   1.0000   1.0000

     highest occupied level (ev):     7.5746

!    total energy              =   -1059.47949251 Ry
     Harris-Foulkes estimate   =   -1059.47949251 Ry
     estimated scf accuracy    <          6.3E-11 Ry

     The total energy is the sum of the following terms:

     one-electron contribution =    -506.88710200 Ry
     hartree contribution      =     300.68968850 Ry
     xc contribution           =    -172.90827510 Ry
     ewald contribution        =    -680.37380391 Ry

     convergence has been achieved in  21 iterations

     Forces acting on atoms (Ry/au):

     atom    1 type  2   force =   0.44776872E-01 -0.71089276E-02 -0.55374857E-02
     atom    2 type  3   force =  -0.20467881E-01 -0.12268989E-01 -0.56510696E-02
     atom    3 type  2   force =   0.63672930E-01 -0.77293404E-02  0.65389833E-01
     atom    4 type  3   force =   0.35458817E-01  0.53588191E-01  0.29641737E-01
     atom    5 type  2   force =  -0.88863353E-01  0.18665473E-02  0.11974617E+00
     atom    6 type  3   force =  -0.16274935E-01 -0.14787423E-01 -0.50582788E-01
     atom    7 type  1   force =  -0.24622790E-01  0.14428925E-01 -0.52164445E-01
     atom    8 type  3   force =  -0.24259182E-01  0.95402274E-02 -0.14347763E-01
     atom    9 type  1   force =   0.18535161E-01  0.18382552E-01 -0.57168303E-01
     atom   10 type  3   force =  -0.45291864E-02 -0.15466779E-02 -0.88994659E-01
     atom   11 type  1   force =  -0.34766894E-01  0.88977557E-02 -0.33978284E-02
     atom   12 type  3   force =   0.12320735E-02 -0.88699424E-02 -0.29197423E-01
     atom   13 type  1   force =   0.13382138E-01 -0.19853077E-02  0.49725403E-01
     atom   14 type  3   force =   0.12865214E-01 -0.32768210E-01  0.19063053E-01
     atom   15 type  2   force =   0.85067737E-02 -0.21911528E-01 -0.82342890E-02
     atom   16 type  3   force =   0.15354242E-01  0.22721461E-02  0.31709861E-01
     The non-local contrib.  to forces
     atom    1 type  2   force =   0.32896508E+00  0.12594285E+00 -0.34776094E+00
     atom    2 type  3   force =   0.31267930E-01 -0.76097557E-01  0.48317972E-01
     atom    3 type  2   force =  -0.48063877E-01 -0.74636910E-01 -0.90640195E-01
     atom    4 type  3   force =  -0.12068794E+00  0.16954313E+00 -0.80951033E-02
     atom    5 type  2   force =  -0.37751383E+00 -0.16622807E+00  0.54807972E+00
     atom    6 type  3   force =  -0.52144142E-01 -0.10206117E+00 -0.23706398E+00
     atom    7 type  1   force =   0.39966791E-01 -0.74325980E-02  0.34963092E-01
     atom    8 type  3   force =   0.88456853E-01 -0.44236087E-01  0.13614944E+00
     atom    9 type  1   force =   0.59616389E-01  0.27919399E-02  0.20359322E-01
     atom   10 type  3   force =   0.21644142E+00 -0.87439275E-02  0.12948915E+00
     atom   11 type  1   force =  -0.20807342E-01  0.21826185E-01  0.38827514E-02
     atom   12 type  3   force =   0.66840848E-02  0.46778596E-03 -0.18540448E+00
     atom   13 type  1   force =  -0.21464241E-01  0.17382642E-01 -0.93077264E-02
     atom   14 type  3   force =  -0.23924587E+00 -0.90060156E-03 -0.16569741E+00
     atom   15 type  2   force =   0.13239588E+00 -0.31656007E-01 -0.18608377E+00
     atom   16 type  3   force =   0.13141948E+00 -0.33473574E-02  0.17390202E+00
     The ionic contribution  to forces
     atom    1 type  2   force =   0.58600995E+01  0.18642825E+01 -0.45835663E+01
     atom    2 type  3   force =  -0.27634716E+01 -0.12674592E+00  0.82711135E+00
     atom    3 type  2   force =  -0.33419292E+00 -0.53965504E-01 -0.17732524E+00
     atom    4 type  3   force =   0.42155670E+01  0.68370071E+00  0.10235826E+01
     atom    5 type  2   force =  -0.74620531E+01 -0.25381973E+01  0.71874767E+01
     atom    6 type  3   force =  -0.55796989E+00 -0.72154941E-01  0.72473992E+00
     atom    7 type  1   force =   0.10430887E+01  0.63691537E-01  0.10703679E+01
     atom    8 type  3   force =  -0.18390649E+01  0.19521723E+01 -0.34452228E+01
     atom    9 type  1   force =   0.27636590E+01  0.84883973E+00 -0.57111714E+00
     atom   10 type  3   force =  -0.50363431E+01 -0.14876716E+01 -0.38025209E+01
     atom   11 type  1   force =  -0.27284893E+01  0.54175173E+00  0.15239014E+01
     atom   12 type  3   force =   0.18473580E+01  0.10010864E+01 -0.40218080E+00
     atom   13 type  1   force =  -0.10065988E+01  0.54240978E+00 -0.10369857E+00
     atom   14 type  3   force =   0.34659674E+01 -0.22987890E+01  0.49557546E+01
     atom   15 type  2   force =   0.32758028E+01 -0.15297792E+01 -0.30785177E+01
     atom   16 type  3   force =  -0.74335894E+00  0.60936869E+00 -0.11487851E+01
     The local contribution  to forces
     atom    1 type  2   force =  -0.61442769E+01 -0.19973324E+01  0.49257790E+01
     atom    2 type  3   force =   0.27113394E+01  0.18979551E+00 -0.88147436E+00
     atom    3 type  2   force =   0.44593033E+00  0.12086763E+00  0.33335424E+00
     atom    4 type  3   force =  -0.40589473E+01 -0.79817576E+00 -0.98537582E+00
     atom    5 type  2   force =   0.77506970E+01  0.27062900E+01 -0.76158089E+01
     atom    6 type  3   force =   0.59350512E+00  0.15879689E+00 -0.54004426E+00
     atom    7 type  1   force =  -0.11091366E+01 -0.41182263E-01 -0.11592535E+01
     atom    8 type  3   force =   0.17262224E+01 -0.18984927E+01  0.32947255E+01
     atom    9 type  1   force =  -0.28055482E+01 -0.83285437E+00  0.49207230E+00
     atom   10 type  3   force =   0.48160032E+01  0.14949206E+01  0.35836449E+01
     atom   11 type  1   force =   0.27151991E+01 -0.55450692E+00 -0.15315491E+01
     atom   12 type  3   force =  -0.18528963E+01 -0.10105187E+01  0.55742955E+00
     atom   13 type  1   force =   0.10422880E+01 -0.56218451E+00  0.16341969E+00
     atom   14 type  3   force =  -0.32148460E+01  0.22662244E+01 -0.47712097E+01
     atom   15 type  2   force =  -0.33996967E+01  0.15395210E+01  0.32563739E+01
     atom   16 type  3   force =   0.62794701E+00 -0.60352378E+00  0.10079601E+01
     The core correction contribution to forces
     atom    1 type  2   force =   0.00000000E+00  0.00000000E+00  0.00000000E+00
     atom    2 type  3   force =   0.39355466E-03  0.77631229E-03  0.39395897E-03
     atom    3 type  2   force =   0.00000000E+00  0.00000000E+00  0.00000000E+00
     atom    4 type  3   force =  -0.47045981E-03 -0.14783450E-02 -0.46878139E-03
     atom    5 type  2   force =   0.00000000E+00  0.00000000E+00  0.00000000E+00
     atom    6 type  3   force =   0.33722882E-03  0.63128087E-03  0.17860772E-02
     atom    7 type  1   force =   0.14587356E-02 -0.65126825E-03  0.17595211E-02
     atom    8 type  3   force =   0.12599852E-03  0.95868263E-04 -0.25256528E-05
     atom    9 type  1   force =   0.80628438E-03 -0.38918794E-03  0.15171318E-02
     atom   10 type  3   force =  -0.63295001E-03 -0.51603358E-04  0.39491143E-03
     atom   11 type  1   force =  -0.67418254E-03 -0.17142625E-03  0.37206762E-03
     atom   12 type  3   force =   0.86520932E-04  0.96662510E-04  0.95564170E-03
     atom   13 type  1   force =  -0.84183370E-03  0.41207293E-03 -0.68962158E-03
     atom   14 type  3   force =   0.98884040E-03  0.69558851E-03  0.21626898E-03
     atom   15 type  2   force =   0.00000000E+00  0.00000000E+00  0.00000000E+00
     atom   16 type  3   force =  -0.65277474E-03 -0.22120963E-03 -0.13663273E-02
     The Hubbard contrib.    to forces
     atom    1 type  2   force =   0.00000000E+00  0.00000000E+00  0.00000000E+00
     atom    2 type  3   force =   0.00000000E+00  0.00000000E+00  0.00000000E+00
     atom    3 type  2   force =   0.00000000E+00  0.00000000E+00  0.00000000E+00
     atom    4 type  3   force =   0.00000000E+00  0.00000000E+00  0.00000000E+00
     atom    5 type  2   force =   0.00000000E+00  0.00000000E+00  0.00000000E+00
     atom    6 type  3   force =   0.00000000E+00  0.00000000E+00  0.00000000E+00
     atom    7 type  1   force =   0.00000000E+00  0.00000000E+00  0.00000000E+00
     atom    8 type  3   force =   0.00000000E+00  0.00000000E+00  0.00000000E+00
     atom    9 type  1   force =   0.00000000E+00  0.00000000E+00  0.00000000E+00
     atom   10 type  3   force =   0.00000000E+00  0.00000000E+00  0.00000000E+00
     atom   11 type  1   force =   0.00000000E+00  0.00000000E+00  0.00000000E+00
     atom   12 type  3   force =   0.00000000E+00  0.00000000E+00  0.00000000E+00
     atom   13 type  1   force =   0.00000000E+00  0.00000000E+00  0.00000000E+00
     atom   14 type  3   force =   0.00000000E+00  0.00000000E+00  0.00000000E+00
     atom   15 type  2   force =   0.00000000E+00  0.00000000E+00  0.00000000E+00
     atom   16 type  3   force =   0.00000000E+00  0.00000000E+00  0.00000000E+00
     The SCF correction term to forces
     atom    1 type  2   force =  -0.10608379E-04 -0.14349457E-05  0.11242215E-04
     atom    2 type  3   force =   0.29888330E-05  0.31822523E-05  0.46601603E-06
     atom    3 type  2   force =  -0.48354383E-06  0.59561006E-05  0.14847448E-05
     atom    4 type  3   force =  -0.23570571E-05 -0.10264615E-05 -0.69704896E-06
     atom    5 type  2   force =   0.66882186E-05  0.24198338E-05 -0.88966956E-06
     atom    6 type  3   force =  -0.31410407E-05  0.10280001E-05 -0.76577994E-07
     atom    7 type  1   force =  -0.22005653E-06  0.40272455E-05 -0.10557844E-05
     atom    8 type  3   force =   0.59035404E-06  0.13706102E-05  0.30955571E-05
     atom    9 type  1   force =   0.18251365E-05 -0.50541194E-05  0.54033969E-06
     atom   10 type  3   force =   0.23520884E-05  0.36268920E-06 -0.22509277E-05
     atom   11 type  1   force =   0.48879223E-05 -0.13070319E-05 -0.45530950E-05
     atom   12 type  3   force =  -0.16743937E-06 -0.15063747E-05  0.31263717E-05
     atom   13 type  1   force =  -0.91733701E-06 -0.47762593E-05  0.20845911E-05
     atom   14 type  3   force =   0.10089419E-05  0.18379918E-05 -0.30836173E-06
     atom   15 type  2   force =   0.48425455E-05  0.31456506E-05 -0.62299208E-05
     atom   16 type  3   force =  -0.41927824E-06 -0.36908347E-05 -0.37220519E-06

     Total force =     0.256977     Total SCF correction =     0.000025


     entering subroutine stress ...

          total   stress  (Ry/bohr**3)                   (kbar)     P=   38.33
   0.0005366313  -0.0000377618   0.0007129647         78.94     -5.55    104.88
  -0.0000377618  -0.0004191581  -0.0000344932         -5.55    -61.66     -5.07
   0.0007129647  -0.0000344932   0.0006642940        104.88     -5.07     97.72

     kinetic stress (kbar)  20123.18    -21.74     63.91
                              -21.74  19957.67     21.01
                               63.91     21.01  20157.08

     local   stress (kbar)  -4436.02    472.60   -357.60
                              472.60  -2401.40  -1281.97
                             -357.60  -1281.97  -7398.24

     nonloc. stress (kbar)   5074.27     -1.12     -0.53
                               -1.12   5073.53      2.83
                               -0.53      2.83   5081.94

     hartree stress (kbar)  11119.96   -229.61    132.42
                             -229.61  10545.99    522.04
                              132.42    522.04  12245.47

     exc-cor stress (kbar)  -5089.31     -0.13     -0.62
                               -0.13  -5091.61      0.76
                               -0.62      0.76  -5087.37

     corecor stress (kbar)  -1009.58      0.08     -0.17
                                0.08  -1009.03     -0.10
                               -0.17     -0.10  -1009.79

     ewald   stress (kbar) -25703.56   -225.63    267.48
                             -225.63 -27136.81    730.35
                              267.48    730.35 -23891.37

     hubbard stress (kbar)      0.00      0.00      0.00
                                0.00      0.00      0.00
                                0.00      0.00      0.00

     london  stress (kbar)      0.00      0.00      0.00
                                0.00      0.00      0.00
                                0.00      0.00      0.00

     XDM     stress (kbar)      0.00      0.00      0.00
                                0.00      0.00      0.00
                                0.00      0.00      0.00

     dft-nl  stress (kbar)      0.00      0.00      0.00
                                0.00      0.00      0.00
                                0.00      0.00      0.00



     Writing output data file mix.dummy48157.save

     init_run     :     14.56s CPU     15.72s WALL (       1 calls)
     electrons    :    688.19s CPU    756.84s WALL (       1 calls)
     forces       :      5.51s CPU      5.89s WALL (       1 calls)
     stress       :      9.22s CPU      9.45s WALL (       1 calls)

     Called by init_run:
     wfcinit      :     12.66s CPU     13.80s WALL (       1 calls)
     potinit      :      0.46s CPU      0.47s WALL (       1 calls)

     Called by electrons:
     c_bands      :    608.05s CPU    670.91s WALL (      21 calls)
     sum_band     :     73.72s CPU     79.31s WALL (      21 calls)
     v_of_rho     :      0.69s CPU      0.74s WALL (      22 calls)
     v_h          :      0.03s CPU      0.04s WALL (      22 calls)
     v_xc         :      0.72s CPU      0.76s WALL (      24 calls)
     newd         :      4.54s CPU      4.57s WALL (      22 calls)
     mix_rho      :      1.30s CPU      1.38s WALL (      21 calls)

     Called by c_bands:
     init_us_2    :      3.32s CPU      3.36s WALL (    1620 calls)
     cegterg      :    582.28s CPU    643.66s WALL (     756 calls)

     Called by sum_band:
     sum_band:bec :      0.92s CPU      0.88s WALL (     756 calls)
     addusdens    :      4.36s CPU      4.41s WALL (      21 calls)

     Called by *egterg:
     h_psi        :    291.34s CPU    311.14s WALL (    2325 calls)
     s_psi        :     28.79s CPU     31.86s WALL (    2325 calls)
     g_psi        :      0.32s CPU      0.34s WALL (    1533 calls)
     cdiaghg      :     80.86s CPU     93.07s WALL (    2289 calls)
     cegterg:over :     92.06s CPU    102.29s WALL (    1533 calls)
     cegterg:upda :     10.83s CPU     14.60s WALL (    1533 calls)
     cegterg:last :      6.83s CPU      8.64s WALL (     756 calls)

     Called by h_psi:
     h_psi:vloc   :    179.96s CPU    184.69s WALL (    2325 calls)
     h_psi:vnl    :    110.90s CPU    125.97s WALL (    2325 calls)
     add_vuspsi   :     29.36s CPU     34.43s WALL (    2325 calls)

     General routines
     calbec       :    114.93s CPU    129.89s WALL (    3153 calls)
     fft          :      1.22s CPU      1.26s WALL (     373 calls)
     ffts         :      0.80s CPU      0.86s WALL (     627 calls)
     fftw         :    203.49s CPU    208.86s WALL (  278858 calls)
     interpolate  :      0.14s CPU      0.14s WALL (      43 calls)

     Parallel routines
     fft_scatter  :     95.71s CPU     97.87s WALL (  279858 calls)

     PWSCF        : 12m 0.04s CPU    13m11.18s WALL


   This run was terminated on:   1:43:54   8Dec2017            

=------------------------------------------------------------------------------=
   JOB DONE.
=------------------------------------------------------------------------------=
