
     Program PWSCF v.5.1 starts on 16Nov2017 at  3:55:46 

     This program is part of the open-source Quantum ESPRESSO suite
     for quantum simulation of materials; please cite
         "P. Giannozzi et al., J. Phys.:Condens. Matter 21 395502 (2009);
          URL http://www.quantum-espresso.org", 
     in publications or presentations arising from this work. More details at
     http://www.quantum-espresso.org/quote

     Parallel version (MPI), running on    16 processors
     R & G space division:  proc/nbgrp/npool/nimage =      16
     Waiting for input...
     Reading input from standard input
Warning: card &IONS ignored
Warning: card   ION_DYNAMICS='BFGS', ignored
Warning: card / ignored
Warning: card &CELL ignored
Warning: card  CELL_DYNAMICS = 'BFGS' ignored
Warning: card / ignored

     Current dimensions of program PWSCF are:
     Max number of different atomic species (ntypx) = 10
     Max number of k-points (npk) =  40000
     Max angular momentum in pseudopotentials (lmaxx) =  3
 kfg - two_fermi_energies  F

     Subspace diagonalization in iterative solution of the eigenvalue problem:
     a serial algorithm will be used


     Parallelization info
     --------------------
     sticks:   dense  smooth     PW     G-vecs:    dense   smooth      PW
     Min         132     106     30                 4006     2861     440
     Max         133     107     31                 4011     2874     444
     Sum        2127    1707    493                64151    45887    7083



     bravais-lattice index     =            0
     lattice parameter (alat)  =    12.340488102  a.u.
     unit-cell volume          =    1342.4972 (a.u.)^3
     number of atoms/cell      =           16
     number of atomic types    =            3
     number of electrons       =       128.00
     number of Kohn-Sham states=           64
     kinetic-energy cutoff     =      40.0000  Ry
     charge density cutoff     =     200.0000  Ry
     convergence threshold     =      1.0E-10
     mixing beta               =       0.3000
     number of iterations used =            8  local-TF  mixing
     Exchange-correlation      = SLA  PW   PSX  PSC ( 1  4 10  8 0)
     A smooth kinetic-energy cutoff is imposed at      39.5000 Ry
     height of the smooth step-function =             800.0000 Ry
     width of the smooth step-function  =               1.0000 Ry


     celldm(1)=  12.340488  celldm(2)=   0.000000  celldm(3)=   0.000000
     celldm(4)=   0.000000  celldm(5)=   0.000000  celldm(6)=   0.000000

     crystal axes: (cart. coord. in units of alat)
               a(1) = (  -0.008416527559   0.706870897835   0.707292510817 )  
               a(2) = (   0.711700125648  -0.014362295522   0.713238278779 )  
               a(3) = (   0.697284834128   0.698401374279   0.000052995997 )  

     reciprocal axes: (cart. coord. in units 2 pi/alat)
               b(1) = ( -0.697307  0.696138  0.709821 )  
               b(2) = (  0.691441 -0.690388  0.698204 )  
               b(3) = (  0.719982  0.713063 -0.704071 )  


     PseudoPot. # 1 for Ca read from file:
     /users/kfg/psuedo/gbrv_1.5/ca.pbesol.UPF
     MD5 check sum: 0533207b58cddeaa036efa5b63902087
     Pseudo is Ultrasoft + core correction, Zval = 10.0
     Generated by new atomic code, or converted to UPF format
     Using radial grid of  845 points,  6 beta functions with: 
                l(1) =   0
                l(2) =   0
                l(3) =   1
                l(4) =   1
                l(5) =   2
                l(6) =   2
     Q(r) pseudized with  8 coefficients,  rinner =    1.500   1.500   1.500
                                                       1.500   1.500

     PseudoPot. # 2 for Mg read from file:
     /users/kfg/psuedo/gbrv_1.5/mg.pbesol.UPF
     MD5 check sum: 4059f37963cf5867752dbf5ab2400678
     Pseudo is Ultrasoft, Zval = 10.0
     Generated by new atomic code, or converted to UPF format
     Using radial grid of  821 points,  7 beta functions with: 
                l(1) =   0
                l(2) =   0
                l(3) =   0
                l(4) =   1
                l(5) =   1
                l(6) =   2
                l(7) =   2
     Q(r) pseudized with  8 coefficients,  rinner =    1.200   1.200   1.200
                                                       1.200   1.200

     PseudoPot. # 3 for O  read from file:
     /users/kfg/psuedo/gbrv_1.5/o.pbesol.UPF
     MD5 check sum: 501638753501ef6325af9037351f7734
     Pseudo is Ultrasoft + core correction, Zval =  6.0
     Generated by new atomic code, or converted to UPF format
     Using radial grid of  737 points,  5 beta functions with: 
                l(1) =   0
                l(2) =   0
                l(3) =   1
                l(4) =   1
                l(5) =   2
     Q(r) pseudized with  8 coefficients,  rinner =    0.900   0.900   0.900
                                                       0.900   0.900

     atomic species   valence    mass     pseudopotential
        Ca            10.00    40.07800     Ca( 1.00)
        Mg            10.00    40.07800     Mg( 1.00)
        O              6.00    15.99940     O ( 1.00)

     No symmetry found


                                    s                        frac. trans.

      isym =  1     identity                                     

 cryst.   s( 1) = (     1          0          0      )
                  (     0          1          0      )
                  (     0          0          1      )

 cart.    s( 1) = (  1.0000000 -0.0000000 -0.0000000 )
                  (  0.0000000  1.0000000  0.0000000 )
                  ( -0.0000000 -0.0000000  1.0000000 )


     point group C_1 (1)    
     there are  1 classes
     the character table:

       E    
A      1.00

     the symmetry operations in each class:
     E        1

   Cartesian axes

     site n.     atom                  positions (alat units)
         1           Mg  tau(   1) = (   -0.02113793737    0.00960183729   -0.04220368073  )
         2           O   tau(   2) = (    0.39983541029    0.33082008534    0.36636872237  )
         3           Ca  tau(   3) = (    0.36670384262    0.34616385712    0.00106685763  )
         4           O   tau(   4) = (    0.69251619565    0.68353501885    0.39923644094  )
         5           Ca  tau(   5) = (    0.35988715725    0.00475691829    0.33587601840  )
         6           O   tau(   6) = (    0.72633184964    0.34683106903    0.70461244681  )
         7           Mg  tau(   7) = (    0.71068586683    0.35762949995    0.34917580167  )
         8           O   tau(   8) = (    1.07394225526    0.70119519566    0.72169125430  )
         9           Ca  tau(   9) = (   -0.02601750515    0.33927043899    0.34148372063  )
        10           O   tau(  10) = (    0.30119018416    0.69896470453    0.72902868557  )
        11           Ca  tau(  11) = (    0.35908677438    0.68976939208    0.35711505544  )
        12           O   tau(  12) = (    0.68843277199    1.07384086237    0.72221777657  )
        13           Mg  tau(  13) = (    0.29848970046    0.37415455099    0.72450404244  )
        14           O   tau(  14) = (    0.71022193917    0.65074994885    1.04435063196  )
        15           Mg  tau(  15) = (    0.73282917281    0.68361028547    0.71949656502  )
        16           O   tau(  16) = (    1.03041291531    1.05456619474    1.04948237451  )

   Crystallographic axes

     site n.     atom                  positions (cryst. coord.)
         1           Mg  tau(   1) = (   -0.00853322660   -0.05071141803    0.02134216084  )
         2           O   tau(   2) = (    0.21154478208    0.30386842844    0.26582061592  )
         3           Ca  tau(   3) = (   -0.01396994254    0.01531137646    0.51010596854  )
         4           O   tau(   4) = (    0.27632501242    0.28567798116    0.70491256025  )
         5           Ca  tau(   5) = (   -0.00922845458    0.48006657275    0.02602386382  )
         6           O   tau(   6) = (    0.23511494205    0.75473077605    0.27416158150  )
         7           Mg  tau(   7) = (    0.00124575256    0.48828995533    0.52084931638  )
         8           O   tau(   8) = (    0.25153312867    0.76235842272    0.76509437667  )
         9           Ca  tau(   9) = (    0.49671370561   -0.01379237491   -0.01723953399  )
        10           O   tau(  10) = (    0.79403407219    0.23470926107    0.20196995019  )
        11           Ca  tau(  11) = (    0.48326901026    0.02141789331    0.49895119890  )
        12           O   tau(  12) = (    0.78013824693    0.23889903608    0.75288365294  )
        13           Mg  tau(  13) = (    0.56659265536    0.45392797230   -0.02839894230  )
        14           O   tau(  14) = (    0.69907141967    0.77097646828    0.24007641570  )
        15           Mg  tau(  15) = (    0.47559429401    0.53710708658    0.50850502826  )
        16           O   tau(  16) = (    0.76055460190    0.71716256243    0.75494178637  )

     number of k points=    36
                       cart. coord. in units 2pi/alat
        k(    1) = (   0.0000000   0.0000000   0.0000000), wk =   0.0312500
        k(    2) = (   0.1799956   0.1782659  -0.1760177), wk =   0.0625000
        k(    3) = (  -0.3599912  -0.3565317   0.3520355), wk =   0.0312500
        k(    4) = (   0.1728601  -0.1725970   0.1745511), wk =   0.0625000
        k(    5) = (   0.3528557   0.0056689  -0.0014666), wk =   0.0625000
        k(    6) = (  -0.1871311  -0.5291288   0.5265866), wk =   0.0625000
        k(    7) = (  -0.0071355  -0.3508629   0.3505688), wk =   0.0625000
        k(    8) = (  -0.3457203   0.3451940  -0.3491022), wk =   0.0312500
        k(    9) = (  -0.1657247   0.5234599  -0.5251199), wk =   0.0625000
        k(   10) = (  -0.7057114  -0.0113377   0.0029332), wk =   0.0312500
        k(   11) = (  -0.1743267   0.1740346   0.1774553), wk =   0.0625000
        k(   12) = (   0.0056689   0.3523005   0.0014376), wk =   0.0625000
        k(   13) = (  -0.5343179  -0.1824972   0.5294907), wk =   0.0625000
        k(   14) = (  -0.3543223  -0.0042313   0.3534730), wk =   0.0625000
        k(   15) = (  -0.0014666   0.0014376   0.3520064), wk =   0.0625000
        k(   16) = (   0.1785290   0.1797034   0.1759887), wk =   0.0625000
        k(   17) = (  -0.3614578  -0.3550942   0.7040418), wk =   0.0625000
        k(   18) = (  -0.1814622  -0.1768283   0.5280241), wk =   0.0625000
        k(   19) = (  -0.5200470   0.5192286  -0.1716469), wk =   0.0625000
        k(   20) = (  -0.3400514   0.6974945  -0.3476647), wk =   0.0625000
        k(   21) = (  -0.8800382   0.1626969   0.1803885), wk =   0.0625000
        k(   22) = (  -0.7000426   0.3409628   0.0043708), wk =   0.0625000
        k(   23) = (  -0.3471869   0.3466316   0.0029042), wk =   0.0625000
        k(   24) = (  -0.1671913   0.5248975  -0.1731136), wk =   0.0625000
        k(   25) = (  -0.7071781  -0.0099001   0.3549396), wk =   0.0625000
        k(   26) = (  -0.5271825   0.1683657   0.1789219), wk =   0.0625000
        k(   27) = (   0.3486535  -0.3480692  -0.3549106), wk =   0.0312500
        k(   28) = (   0.5286491  -0.1698033  -0.5309283), wk =   0.0625000
        k(   29) = (  -0.0113377  -0.7046009  -0.0028751), wk =   0.0312500
        k(   30) = (   0.5215136  -0.5206662  -0.1803595), wk =   0.0625000
        k(   31) = (   0.7015092  -0.3424003  -0.3563772), wk =   0.0625000
        k(   32) = (   0.1615224  -0.8771979   0.1716760), wk =   0.0625000
        k(   33) = (   0.3415180  -0.6989321  -0.0043417), wk =   0.0625000
        k(   34) = (   0.0029332  -0.0028751  -0.7040128), wk =   0.0312500
        k(   35) = (   0.1829288   0.1753908  -0.8800305), wk =   0.0625000
        k(   36) = (  -0.3570580  -0.3594069  -0.3519773), wk =   0.0312500

                       cryst. coord.
        k(    1) = (   0.0000000   0.0000000   0.0000000), wk =   0.0312500
        k(    2) = (  -0.0000000   0.0000000   0.2500000), wk =   0.0625000
        k(    3) = (   0.0000000   0.0000000  -0.5000000), wk =   0.0312500
        k(    4) = (   0.0000000   0.2500000  -0.0000000), wk =   0.0625000
        k(    5) = (  -0.0000000   0.2500000   0.2500000), wk =   0.0625000
        k(    6) = (   0.0000000   0.2500000  -0.5000000), wk =   0.0625000
        k(    7) = (   0.0000000   0.2500000  -0.2500000), wk =   0.0625000
        k(    8) = (   0.0000000  -0.5000000   0.0000000), wk =   0.0312500
        k(    9) = (  -0.0000000  -0.5000000   0.2500000), wk =   0.0625000
        k(   10) = (   0.0000000  -0.5000000  -0.5000000), wk =   0.0312500
        k(   11) = (   0.2500000  -0.0000000  -0.0000000), wk =   0.0625000
        k(   12) = (   0.2500000  -0.0000000   0.2500000), wk =   0.0625000
        k(   13) = (   0.2500000   0.0000000  -0.5000000), wk =   0.0625000
        k(   14) = (   0.2500000   0.0000000  -0.2500000), wk =   0.0625000
        k(   15) = (   0.2500000   0.2500000  -0.0000000), wk =   0.0625000
        k(   16) = (   0.2500000   0.2500000   0.2500000), wk =   0.0625000
        k(   17) = (   0.2500000   0.2500000  -0.5000000), wk =   0.0625000
        k(   18) = (   0.2500000   0.2500000  -0.2500000), wk =   0.0625000
        k(   19) = (   0.2500000  -0.5000000  -0.0000000), wk =   0.0625000
        k(   20) = (   0.2500000  -0.5000000   0.2500000), wk =   0.0625000
        k(   21) = (   0.2500000  -0.5000000  -0.5000000), wk =   0.0625000
        k(   22) = (   0.2500000  -0.5000000  -0.2500000), wk =   0.0625000
        k(   23) = (   0.2500000  -0.2500000  -0.0000000), wk =   0.0625000
        k(   24) = (   0.2500000  -0.2500000   0.2500000), wk =   0.0625000
        k(   25) = (   0.2500000  -0.2500000  -0.5000000), wk =   0.0625000
        k(   26) = (   0.2500000  -0.2500000  -0.2500000), wk =   0.0625000
        k(   27) = (  -0.5000000   0.0000000   0.0000000), wk =   0.0312500
        k(   28) = (  -0.5000000   0.0000000   0.2500000), wk =   0.0625000
        k(   29) = (  -0.5000000   0.0000000  -0.5000000), wk =   0.0312500
        k(   30) = (  -0.5000000   0.2500000   0.0000000), wk =   0.0625000
        k(   31) = (  -0.5000000   0.2500000   0.2500000), wk =   0.0625000
        k(   32) = (  -0.5000000   0.2500000  -0.5000000), wk =   0.0625000
        k(   33) = (  -0.5000000   0.2500000  -0.2500000), wk =   0.0625000
        k(   34) = (  -0.5000000  -0.5000000   0.0000000), wk =   0.0312500
        k(   35) = (  -0.5000000  -0.5000000   0.2500000), wk =   0.0625000
        k(   36) = (  -0.5000000  -0.5000000  -0.5000000), wk =   0.0312500

     Dense  grid:    64151 G-vectors     FFT dimensions: (  60,  60,  60)

     Smooth grid:    45887 G-vectors     FFT dimensions: (  50,  54,  50)

     Largest allocated arrays     est. size (Mb)     dimensions
        Kohn-Sham Wavefunctions         0.36 Mb     (     368,   64)
        NL pseudopotentials             1.42 Mb     (     368,  252)
        Each V/rho on FFT grid          0.22 Mb     (   14400)
        Each G-vector array             0.03 Mb     (    4011)
        G-vector shells                 0.03 Mb     (    3894)
     Largest temporary arrays     est. size (Mb)     dimensions
        Auxiliary wavefunctions         1.44 Mb     (     368,  256)
        Each subspace H/S matrix        1.00 Mb     (     256,  256)
        Each <psi_i|beta_j> matrix      0.25 Mb     (     252,   64)
        Arrays for rho mixing           1.76 Mb     (   14400,    8)

     Check: negative/imaginary core charge=   -0.000003    0.000000

     Initial potential from superposition of free atoms

     starting charge  126.77837, renormalised to  128.00000
     Starting wfc are   92 randomized atomic wfcs

     total cpu time spent up to now is       20.2 secs

     per-process dynamical memory:    32.7 Mb

     Self-consistent Calculation

     iteration #  1     ecut=    40.00 Ry     beta=0.30
     Davidson diagonalization with overlap
     ethr =  1.00E-02,  avg # of iterations =  2.0

     total cpu time spent up to now is       62.1 secs

     total energy              =   -1059.91831036 Ry
     Harris-Foulkes estimate   =   -1060.56248258 Ry
     estimated scf accuracy    <       3.34071156 Ry

     iteration #  2     ecut=    40.00 Ry     beta=0.30
     Davidson diagonalization with overlap
     ethr =  2.61E-03,  avg # of iterations =  1.8

     total cpu time spent up to now is      105.1 secs

     total energy              =   -1059.46276308 Ry
     Harris-Foulkes estimate   =   -1060.02633633 Ry
     estimated scf accuracy    <       1.41336456 Ry

     iteration #  3     ecut=    40.00 Ry     beta=0.30
     Davidson diagonalization with overlap
     ethr =  1.10E-03,  avg # of iterations =  2.0

     total cpu time spent up to now is      152.1 secs

     total energy              =   -1059.67504971 Ry
     Harris-Foulkes estimate   =   -1059.72003649 Ry
     estimated scf accuracy    <       0.17071631 Ry

     iteration #  4     ecut=    40.00 Ry     beta=0.30
     Davidson diagonalization with overlap
     ethr =  1.33E-04,  avg # of iterations =  2.0

     total cpu time spent up to now is      195.0 secs

     total energy              =   -1059.63270899 Ry
     Harris-Foulkes estimate   =   -1059.69323417 Ry
     estimated scf accuracy    <       0.10676231 Ry

     iteration #  5     ecut=    40.00 Ry     beta=0.30
     Davidson diagonalization with overlap
     ethr =  8.34E-05,  avg # of iterations =  2.0

     total cpu time spent up to now is      243.6 secs

     total energy              =   -1059.64906245 Ry
     Harris-Foulkes estimate   =   -1059.65052220 Ry
     estimated scf accuracy    <       0.01582703 Ry

     iteration #  6     ecut=    40.00 Ry     beta=0.30
     Davidson diagonalization with overlap
     ethr =  1.24E-05,  avg # of iterations =  1.0

     total cpu time spent up to now is      275.7 secs

     total energy              =   -1059.64589979 Ry
     Harris-Foulkes estimate   =   -1059.64934382 Ry
     estimated scf accuracy    <       0.00915474 Ry

     iteration #  7     ecut=    40.00 Ry     beta=0.30
     Davidson diagonalization with overlap
     ethr =  7.15E-06,  avg # of iterations =  2.0

     total cpu time spent up to now is      319.7 secs

     total energy              =   -1059.64641981 Ry
     Harris-Foulkes estimate   =   -1059.64674784 Ry
     estimated scf accuracy    <       0.00119380 Ry

     iteration #  8     ecut=    40.00 Ry     beta=0.30
     Davidson diagonalization with overlap
     ethr =  9.33E-07,  avg # of iterations =  2.0

     total cpu time spent up to now is      365.0 secs

     total energy              =   -1059.64644963 Ry
     Harris-Foulkes estimate   =   -1059.64654888 Ry
     estimated scf accuracy    <       0.00024141 Ry

     iteration #  9     ecut=    40.00 Ry     beta=0.30
     Davidson diagonalization with overlap
     ethr =  1.89E-07,  avg # of iterations =  3.0

     total cpu time spent up to now is      416.3 secs

     total energy              =   -1059.64647804 Ry
     Harris-Foulkes estimate   =   -1059.64650259 Ry
     estimated scf accuracy    <       0.00013772 Ry

     iteration # 10     ecut=    40.00 Ry     beta=0.30
     Davidson diagonalization with overlap
     ethr =  1.08E-07,  avg # of iterations =  1.9

     total cpu time spent up to now is      453.3 secs

     total energy              =   -1059.64646069 Ry
     Harris-Foulkes estimate   =   -1059.64648186 Ry
     estimated scf accuracy    <       0.00006619 Ry

     iteration # 11     ecut=    40.00 Ry     beta=0.30
     Davidson diagonalization with overlap
     ethr =  5.17E-08,  avg # of iterations =  2.0

     total cpu time spent up to now is      494.7 secs

     total energy              =   -1059.64646709 Ry
     Harris-Foulkes estimate   =   -1059.64646898 Ry
     estimated scf accuracy    <       0.00000768 Ry

     iteration # 12     ecut=    40.00 Ry     beta=0.30
     Davidson diagonalization with overlap
     ethr =  6.00E-09,  avg # of iterations =  2.0

     total cpu time spent up to now is      536.7 secs

     total energy              =   -1059.64646613 Ry
     Harris-Foulkes estimate   =   -1059.64646776 Ry
     estimated scf accuracy    <       0.00000410 Ry

     iteration # 13     ecut=    40.00 Ry     beta=0.30
     Davidson diagonalization with overlap
     ethr =  3.20E-09,  avg # of iterations =  2.0

     total cpu time spent up to now is      579.6 secs

     total energy              =   -1059.64646661 Ry
     Harris-Foulkes estimate   =   -1059.64646668 Ry
     estimated scf accuracy    <       0.00000026 Ry

     iteration # 14     ecut=    40.00 Ry     beta=0.30
     Davidson diagonalization with overlap
     ethr =  2.05E-10,  avg # of iterations =  3.0

     total cpu time spent up to now is      630.0 secs

     total energy              =   -1059.64646664 Ry
     Harris-Foulkes estimate   =   -1059.64646666 Ry
     estimated scf accuracy    <       0.00000009 Ry

     iteration # 15     ecut=    40.00 Ry     beta=0.30
     Davidson diagonalization with overlap
     ethr =  7.29E-11,  avg # of iterations =  2.0

     total cpu time spent up to now is      671.1 secs

     total energy              =   -1059.64646664 Ry
     Harris-Foulkes estimate   =   -1059.64646664 Ry
     estimated scf accuracy    <       0.00000003 Ry

     iteration # 16     ecut=    40.00 Ry     beta=0.30
     Davidson diagonalization with overlap
     ethr =  2.41E-11,  avg # of iterations =  2.0

     total cpu time spent up to now is      716.3 secs

     total energy              =   -1059.64646663 Ry
     Harris-Foulkes estimate   =   -1059.64646664 Ry
     estimated scf accuracy    <       0.00000002 Ry

     iteration # 17     ecut=    40.00 Ry     beta=0.30
     Davidson diagonalization with overlap
     ethr =  1.41E-11,  avg # of iterations =  2.0

     total cpu time spent up to now is      758.6 secs

     total energy              =   -1059.64646664 Ry
     Harris-Foulkes estimate   =   -1059.64646664 Ry
     estimated scf accuracy    <          2.8E-09 Ry

     iteration # 18     ecut=    40.00 Ry     beta=0.30
     Davidson diagonalization with overlap
     ethr =  2.17E-12,  avg # of iterations =  2.4

     total cpu time spent up to now is      804.5 secs

     total energy              =   -1059.64646664 Ry
     Harris-Foulkes estimate   =   -1059.64646664 Ry
     estimated scf accuracy    <          1.3E-09 Ry

     iteration # 19     ecut=    40.00 Ry     beta=0.30
     Davidson diagonalization with overlap
     ethr =  1.03E-12,  avg # of iterations =  2.0

     total cpu time spent up to now is      853.2 secs

     total energy              =   -1059.64646664 Ry
     Harris-Foulkes estimate   =   -1059.64646664 Ry
     estimated scf accuracy    <          4.5E-10 Ry

     iteration # 20     ecut=    40.00 Ry     beta=0.30
     Davidson diagonalization with overlap
     ethr =  3.52E-13,  avg # of iterations =  2.3

     total cpu time spent up to now is      898.8 secs

     End of self-consistent calculation

          k = 0.0000 0.0000 0.0000 (  5767 PWs)   bands (ev):

   -66.2208 -66.1707 -66.0165 -65.5530 -33.2162 -33.1926 -33.1712 -33.1373
   -33.1330 -33.0973 -32.9981 -32.9846 -32.9630 -32.5548 -32.5169 -32.4889
   -30.3365 -30.1379 -30.0602 -29.5251 -12.2764 -12.1659 -11.9865 -11.9571
   -11.5282 -11.3672 -11.3241 -11.2328 -11.1715 -11.1181 -10.8723 -10.8233
    -9.0872  -8.5371  -8.3892  -8.3592  -7.6385  -7.5923  -7.5092  -7.4252
     2.7911   3.4408   3.5012   4.2901   4.3587   4.5097   4.5959   5.4805
     5.4984   5.5622   5.6266   5.7649   5.8274   5.9164   5.9788   6.0271
     6.1438   6.2391   6.4867   6.5290   6.5941   6.8006   6.9434   7.0400

     occupation numbers 
     1.0000   1.0000   1.0000   1.0000   1.0000   1.0000   1.0000   1.0000
     1.0000   1.0000   1.0000   1.0000   1.0000   1.0000   1.0000   1.0000
     1.0000   1.0000   1.0000   1.0000   1.0000   1.0000   1.0000   1.0000
     1.0000   1.0000   1.0000   1.0000   1.0000   1.0000   1.0000   1.0000
     1.0000   1.0000   1.0000   1.0000   1.0000   1.0000   1.0000   1.0000
     1.0000   1.0000   1.0000   1.0000   1.0000   1.0000   1.0000   1.0000
     1.0000   1.0000   1.0000   1.0000   1.0000   1.0000   1.0000   1.0000
     1.0000   1.0000   1.0000   1.0000   1.0000   1.0000   1.0000   1.0000

          k = 0.1800 0.1783-0.1760 (  5744 PWs)   bands (ev):

   -66.2208 -66.1707 -66.0165 -65.5530 -33.2161 -33.1925 -33.1712 -33.1373
   -33.1330 -33.0973 -32.9982 -32.9846 -32.9630 -32.5548 -32.5169 -32.4889
   -30.3324 -30.1409 -30.0611 -29.5256 -12.1729 -12.0810 -11.9447 -11.8892
   -11.5781 -11.4591 -11.4213 -11.3304 -11.1943 -11.1313 -10.9728 -10.8296
    -8.9095  -8.4503  -8.2745  -8.2489  -7.7365  -7.6762  -7.5896  -7.5010
     3.0408   3.6549   3.7628   4.2207   4.4873   4.5827   4.7151   5.2557
     5.4463   5.5123   5.5321   5.5994   5.7791   5.7845   5.9212   6.0276
     6.1271   6.1825   6.3173   6.3588   6.5015   6.5887   6.7442   6.9245

     occupation numbers 
     1.0000   1.0000   1.0000   1.0000   1.0000   1.0000   1.0000   1.0000
     1.0000   1.0000   1.0000   1.0000   1.0000   1.0000   1.0000   1.0000
     1.0000   1.0000   1.0000   1.0000   1.0000   1.0000   1.0000   1.0000
     1.0000   1.0000   1.0000   1.0000   1.0000   1.0000   1.0000   1.0000
     1.0000   1.0000   1.0000   1.0000   1.0000   1.0000   1.0000   1.0000
     1.0000   1.0000   1.0000   1.0000   1.0000   1.0000   1.0000   1.0000
     1.0000   1.0000   1.0000   1.0000   1.0000   1.0000   1.0000   1.0000
     1.0000   1.0000   1.0000   1.0000   1.0000   1.0000   1.0000   1.0000

          k =-0.3600-0.3565 0.3520 (  5728 PWs)   bands (ev):

   -66.2208 -66.1707 -66.0165 -65.5530 -33.2161 -33.1925 -33.1712 -33.1373
   -33.1330 -33.0973 -32.9983 -32.9846 -32.9629 -32.5548 -32.5170 -32.4890
   -30.3281 -30.1440 -30.0619 -29.5260 -12.0161 -11.9405 -11.8608 -11.7993
   -11.6838 -11.6457 -11.5961 -11.3668 -11.2301 -11.1383 -11.0608 -10.8335
    -8.7403  -8.2282  -8.1679  -8.1046  -7.9377  -7.8163  -7.6833  -7.5714
     3.5586   3.7629   3.9247   4.2960   4.6517   4.6870   4.8125   5.1296
     5.2366   5.3428   5.3812   5.4495   5.4857   5.7064   5.8496   5.9616
     6.0190   6.1768   6.1976   6.3057   6.3999   6.4748   6.6342   6.8598

     occupation numbers 
     1.0000   1.0000   1.0000   1.0000   1.0000   1.0000   1.0000   1.0000
     1.0000   1.0000   1.0000   1.0000   1.0000   1.0000   1.0000   1.0000
     1.0000   1.0000   1.0000   1.0000   1.0000   1.0000   1.0000   1.0000
     1.0000   1.0000   1.0000   1.0000   1.0000   1.0000   1.0000   1.0000
     1.0000   1.0000   1.0000   1.0000   1.0000   1.0000   1.0000   1.0000
     1.0000   1.0000   1.0000   1.0000   1.0000   1.0000   1.0000   1.0000
     1.0000   1.0000   1.0000   1.0000   1.0000   1.0000   1.0000   1.0000
     1.0000   1.0000   1.0000   1.0000   1.0000   1.0000   1.0000   1.0000

          k = 0.1729-0.1726 0.1746 (  5766 PWs)   bands (ev):

   -66.2208 -66.1707 -66.0165 -65.5531 -33.2162 -33.1926 -33.1712 -33.1373
   -33.1330 -33.0972 -32.9981 -32.9846 -32.9631 -32.5548 -32.5169 -32.4889
   -30.3360 -30.1375 -30.0601 -29.5260 -12.2638 -12.1100 -11.9770 -11.9126
   -11.5241 -11.3714 -11.3304 -11.2533 -11.1952 -11.1322 -10.9864 -10.9084
    -8.9395  -8.4854  -8.2889  -8.2496  -7.7223  -7.6722  -7.5464  -7.5158
     3.0378   3.6459   3.7177   4.2118   4.4629   4.5227   4.6939   5.1404
     5.4034   5.5017   5.5577   5.6776   5.8036   5.8842   5.9298   6.0101
     6.1347   6.1992   6.2933   6.4475   6.5093   6.6672   6.7557   6.9446

     occupation numbers 
     1.0000   1.0000   1.0000   1.0000   1.0000   1.0000   1.0000   1.0000
     1.0000   1.0000   1.0000   1.0000   1.0000   1.0000   1.0000   1.0000
     1.0000   1.0000   1.0000   1.0000   1.0000   1.0000   1.0000   1.0000
     1.0000   1.0000   1.0000   1.0000   1.0000   1.0000   1.0000   1.0000
     1.0000   1.0000   1.0000   1.0000   1.0000   1.0000   1.0000   1.0000
     1.0000   1.0000   1.0000   1.0000   1.0000   1.0000   1.0000   1.0000
     1.0000   1.0000   1.0000   1.0000   1.0000   1.0000   1.0000   1.0000
     1.0000   1.0000   1.0000   1.0000   1.0000   1.0000   1.0000   1.0000

          k = 0.3529 0.0057-0.0015 (  5746 PWs)   bands (ev):

   -66.2208 -66.1707 -66.0165 -65.5530 -33.2162 -33.1925 -33.1713 -33.1373
   -33.1330 -33.0972 -32.9982 -32.9846 -32.9631 -32.5548 -32.5169 -32.4889
   -30.3321 -30.1411 -30.0611 -29.5253 -12.1628 -12.0674 -11.9751 -11.9199
   -11.5865 -11.4562 -11.4394 -11.3192 -11.1720 -11.1217 -10.9036 -10.8656
    -8.8742  -8.5038  -8.3276  -8.2292  -7.7940  -7.6236  -7.5797  -7.4668
     3.1289   3.6900   3.7710   4.2754   4.4345   4.5848   4.6932   5.2058
     5.3920   5.4913   5.5765   5.6149   5.7451   5.8037   5.8824   5.9264
     6.0487   6.1404   6.2103   6.4306   6.5350   6.6498   6.7779   6.8878

     occupation numbers 
     1.0000   1.0000   1.0000   1.0000   1.0000   1.0000   1.0000   1.0000
     1.0000   1.0000   1.0000   1.0000   1.0000   1.0000   1.0000   1.0000
     1.0000   1.0000   1.0000   1.0000   1.0000   1.0000   1.0000   1.0000
     1.0000   1.0000   1.0000   1.0000   1.0000   1.0000   1.0000   1.0000
     1.0000   1.0000   1.0000   1.0000   1.0000   1.0000   1.0000   1.0000
     1.0000   1.0000   1.0000   1.0000   1.0000   1.0000   1.0000   1.0000
     1.0000   1.0000   1.0000   1.0000   1.0000   1.0000   1.0000   1.0000
     1.0000   1.0000   1.0000   1.0000   1.0000   1.0000   1.0000   1.0000

          k =-0.1871-0.5291 0.5266 (  5731 PWs)   bands (ev):

   -66.2208 -66.1707 -66.0165 -65.5530 -33.2161 -33.1925 -33.1713 -33.1373
   -33.1330 -33.0972 -32.9983 -32.9846 -32.9630 -32.5548 -32.5170 -32.4890
   -30.3278 -30.1443 -30.0619 -29.5258 -11.9953 -11.9622 -11.9109 -11.8153
   -11.6783 -11.6496 -11.6065 -11.3494 -11.1927 -11.1334 -10.9641 -10.8804
    -8.7258  -8.3843  -8.2042  -8.1718  -7.8893  -7.7490  -7.6182  -7.5311
     3.5754   3.8733   3.9931   4.1739   4.6012   4.7605   4.8601   4.9934
     5.1249   5.2747   5.3773   5.4596   5.5731   5.6739   5.7849   5.8648
     6.1029   6.1531   6.2377   6.3700   6.4289   6.5519   6.5981   6.7764

     occupation numbers 
     1.0000   1.0000   1.0000   1.0000   1.0000   1.0000   1.0000   1.0000
     1.0000   1.0000   1.0000   1.0000   1.0000   1.0000   1.0000   1.0000
     1.0000   1.0000   1.0000   1.0000   1.0000   1.0000   1.0000   1.0000
     1.0000   1.0000   1.0000   1.0000   1.0000   1.0000   1.0000   1.0000
     1.0000   1.0000   1.0000   1.0000   1.0000   1.0000   1.0000   1.0000
     1.0000   1.0000   1.0000   1.0000   1.0000   1.0000   1.0000   1.0000
     1.0000   1.0000   1.0000   1.0000   1.0000   1.0000   1.0000   1.0000
     1.0000   1.0000   1.0000   1.0000   1.0000   1.0000   1.0000   1.0000

          k =-0.0071-0.3509 0.3506 (  5735 PWs)   bands (ev):

   -66.2208 -66.1707 -66.0165 -65.5531 -33.2162 -33.1925 -33.1712 -33.1373
   -33.1330 -33.0972 -32.9982 -32.9846 -32.9631 -32.5548 -32.5170 -32.4889
   -30.3319 -30.1405 -30.0610 -29.5265 -12.1680 -12.0112 -11.9209 -11.8389
   -11.5992 -11.4727 -11.4238 -11.3498 -11.2296 -11.1386 -11.0762 -10.8840
    -8.8044  -8.4058  -8.1497  -8.1008  -7.8913  -7.7521  -7.6537  -7.5374
     3.3847   3.8336   4.0194   4.1296   4.5454   4.6534   4.8347   4.9732
     5.1358   5.3647   5.4665   5.5984   5.6548   5.8061   5.8201   5.9406
     6.0287   6.1656   6.2308   6.3337   6.4692   6.5694   6.6508   6.8083

     occupation numbers 
     1.0000   1.0000   1.0000   1.0000   1.0000   1.0000   1.0000   1.0000
     1.0000   1.0000   1.0000   1.0000   1.0000   1.0000   1.0000   1.0000
     1.0000   1.0000   1.0000   1.0000   1.0000   1.0000   1.0000   1.0000
     1.0000   1.0000   1.0000   1.0000   1.0000   1.0000   1.0000   1.0000
     1.0000   1.0000   1.0000   1.0000   1.0000   1.0000   1.0000   1.0000
     1.0000   1.0000   1.0000   1.0000   1.0000   1.0000   1.0000   1.0000
     1.0000   1.0000   1.0000   1.0000   1.0000   1.0000   1.0000   1.0000
     1.0000   1.0000   1.0000   1.0000   1.0000   1.0000   1.0000   1.0000

          k =-0.3457 0.3452-0.3491 (  5716 PWs)   bands (ev):

   -66.2208 -66.1707 -66.0165 -65.5531 -33.2162 -33.1926 -33.1712 -33.1373
   -33.1329 -33.0971 -32.9981 -32.9847 -32.9632 -32.5548 -32.5169 -32.4889
   -30.3355 -30.1371 -30.0600 -29.5269 -12.2508 -12.0594 -11.9533 -11.8505
   -11.5219 -11.3764 -11.3514 -11.2830 -11.2191 -11.1389 -11.1074 -10.9821
    -8.8240  -8.3259  -8.1683  -8.0910  -7.9397  -7.7675  -7.6622  -7.5361
     3.5033   3.7739   4.0286   4.0801   4.4115   4.5986   4.8170   5.1031
     5.1675   5.3004   5.3374   5.5380   5.7042   5.8100   5.8572   5.9659
     6.0409   6.1785   6.2456   6.3592   6.4737   6.6341   6.6876   6.8478

     occupation numbers 
     1.0000   1.0000   1.0000   1.0000   1.0000   1.0000   1.0000   1.0000
     1.0000   1.0000   1.0000   1.0000   1.0000   1.0000   1.0000   1.0000
     1.0000   1.0000   1.0000   1.0000   1.0000   1.0000   1.0000   1.0000
     1.0000   1.0000   1.0000   1.0000   1.0000   1.0000   1.0000   1.0000
     1.0000   1.0000   1.0000   1.0000   1.0000   1.0000   1.0000   1.0000
     1.0000   1.0000   1.0000   1.0000   1.0000   1.0000   1.0000   1.0000
     1.0000   1.0000   1.0000   1.0000   1.0000   1.0000   1.0000   1.0000
     1.0000   1.0000   1.0000   1.0000   1.0000   1.0000   1.0000   1.0000

          k =-0.1657 0.5235-0.5251 (  5733 PWs)   bands (ev):

   -66.2208 -66.1707 -66.0165 -65.5531 -33.2162 -33.1925 -33.1713 -33.1373
   -33.1330 -33.0971 -32.9982 -32.9846 -32.9632 -32.5548 -32.5170 -32.4890
   -30.3316 -30.1408 -30.0610 -29.5262 -12.1519 -11.9959 -11.9469 -11.8975
   -11.6009 -11.4739 -11.4422 -11.3260 -11.2035 -11.1347 -10.9838 -10.9430
    -8.7663  -8.3976  -8.2245  -8.1922  -7.8702  -7.7217  -7.6097  -7.5229
     3.5670   3.8670   3.9900   4.1409   4.4637   4.6508   4.8208   5.0418
     5.1324   5.2896   5.3669   5.5181   5.5880   5.7421   5.8060   5.8570
     6.1033   6.2411   6.2917   6.3406   6.4492   6.5572   6.6803   6.7532

     occupation numbers 
     1.0000   1.0000   1.0000   1.0000   1.0000   1.0000   1.0000   1.0000
     1.0000   1.0000   1.0000   1.0000   1.0000   1.0000   1.0000   1.0000
     1.0000   1.0000   1.0000   1.0000   1.0000   1.0000   1.0000   1.0000
     1.0000   1.0000   1.0000   1.0000   1.0000   1.0000   1.0000   1.0000
     1.0000   1.0000   1.0000   1.0000   1.0000   1.0000   1.0000   1.0000
     1.0000   1.0000   1.0000   1.0000   1.0000   1.0000   1.0000   1.0000
     1.0000   1.0000   1.0000   1.0000   1.0000   1.0000   1.0000   1.0000
     1.0000   1.0000   1.0000   1.0000   1.0000   1.0000   1.0000   1.0000

          k =-0.7057-0.0113 0.0029 (  5734 PWs)   bands (ev):

   -66.2208 -66.1707 -66.0165 -65.5530 -33.2162 -33.1925 -33.1713 -33.1373
   -33.1330 -33.0972 -32.9983 -32.9846 -32.9632 -32.5548 -32.5170 -32.4890
   -30.3276 -30.1446 -30.0620 -29.5255 -12.0115 -11.9695 -11.9288 -11.8312
   -11.6617 -11.6516 -11.6149 -11.3416 -11.1697 -11.1239 -10.9285 -10.8682
    -8.7075  -8.5127  -8.2782  -8.1525  -7.9216  -7.6483  -7.5934  -7.4865
     3.6407   3.7892   4.0855   4.3117   4.6144   4.6993   4.7848   4.9724
     5.0196   5.2871   5.4115   5.4630   5.4903   5.6164   5.7375   5.7670
     6.0441   6.1868   6.2776   6.3546   6.4571   6.6442   6.7069   6.7236

     occupation numbers 
     1.0000   1.0000   1.0000   1.0000   1.0000   1.0000   1.0000   1.0000
     1.0000   1.0000   1.0000   1.0000   1.0000   1.0000   1.0000   1.0000
     1.0000   1.0000   1.0000   1.0000   1.0000   1.0000   1.0000   1.0000
     1.0000   1.0000   1.0000   1.0000   1.0000   1.0000   1.0000   1.0000
     1.0000   1.0000   1.0000   1.0000   1.0000   1.0000   1.0000   1.0000
     1.0000   1.0000   1.0000   1.0000   1.0000   1.0000   1.0000   1.0000
     1.0000   1.0000   1.0000   1.0000   1.0000   1.0000   1.0000   1.0000
     1.0000   1.0000   1.0000   1.0000   1.0000   1.0000   1.0000   1.0000

          k =-0.1743 0.1740 0.1775 (  5760 PWs)   bands (ev):

   -66.2208 -66.1707 -66.0165 -65.5531 -33.2162 -33.1926 -33.1713 -33.1373
   -33.1330 -33.0972 -32.9981 -32.9846 -32.9631 -32.5548 -32.5169 -32.4889
   -30.3338 -30.1371 -30.0636 -29.5254 -12.2389 -12.0755 -11.9129 -11.8967
   -11.5836 -11.4481 -11.3901 -11.3134 -11.2102 -11.1244 -10.9127 -10.8675
    -8.9311  -8.4707  -8.3048  -8.2762  -7.7287  -7.6563  -7.5550  -7.4922
     3.0484   3.6577   3.7356   4.3704   4.4348   4.5357   4.7045   5.3037
     5.3634   5.4875   5.5515   5.5659   5.7135   5.7837   5.8860   6.0378
     6.0659   6.2194   6.3170   6.3948   6.4687   6.5838   6.8840   6.9562

     occupation numbers 
     1.0000   1.0000   1.0000   1.0000   1.0000   1.0000   1.0000   1.0000
     1.0000   1.0000   1.0000   1.0000   1.0000   1.0000   1.0000   1.0000
     1.0000   1.0000   1.0000   1.0000   1.0000   1.0000   1.0000   1.0000
     1.0000   1.0000   1.0000   1.0000   1.0000   1.0000   1.0000   1.0000
     1.0000   1.0000   1.0000   1.0000   1.0000   1.0000   1.0000   1.0000
     1.0000   1.0000   1.0000   1.0000   1.0000   1.0000   1.0000   1.0000
     1.0000   1.0000   1.0000   1.0000   1.0000   1.0000   1.0000   1.0000
     1.0000   1.0000   1.0000   1.0000   1.0000   1.0000   1.0000   1.0000

          k = 0.0057 0.3523 0.0014 (  5747 PWs)   bands (ev):

   -66.2208 -66.1707 -66.0165 -65.5530 -33.2161 -33.1925 -33.1712 -33.1373
   -33.1330 -33.0972 -32.9982 -32.9846 -32.9631 -32.5548 -32.5169 -32.4889
   -30.3336 -30.1350 -30.0653 -29.5259 -12.1710 -12.0918 -11.9274 -11.8680
   -11.5569 -11.4460 -11.3863 -11.3540 -11.2378 -11.1343 -10.9713 -10.8846
    -8.9215  -8.4653  -8.2641  -8.1757  -7.7250  -7.6654  -7.6133  -7.5333
     3.1198   3.6874   3.7581   4.2925   4.5060   4.6269   4.7781   5.1989
     5.3599   5.4232   5.5436   5.5954   5.6505   5.7652   5.8803   5.9900
     6.0531   6.1580   6.3414   6.4094   6.5382   6.5612   6.7545   6.8940

     occupation numbers 
     1.0000   1.0000   1.0000   1.0000   1.0000   1.0000   1.0000   1.0000
     1.0000   1.0000   1.0000   1.0000   1.0000   1.0000   1.0000   1.0000
     1.0000   1.0000   1.0000   1.0000   1.0000   1.0000   1.0000   1.0000
     1.0000   1.0000   1.0000   1.0000   1.0000   1.0000   1.0000   1.0000
     1.0000   1.0000   1.0000   1.0000   1.0000   1.0000   1.0000   1.0000
     1.0000   1.0000   1.0000   1.0000   1.0000   1.0000   1.0000   1.0000
     1.0000   1.0000   1.0000   1.0000   1.0000   1.0000   1.0000   1.0000
     1.0000   1.0000   1.0000   1.0000   1.0000   1.0000   1.0000   1.0000

          k =-0.5343-0.1825 0.5295 (  5743 PWs)   bands (ev):

   -66.2208 -66.1707 -66.0165 -65.5530 -33.2161 -33.1925 -33.1712 -33.1373
   -33.1330 -33.0972 -32.9983 -32.9846 -32.9631 -32.5549 -32.5170 -32.4889
   -30.3294 -30.1381 -30.0661 -29.5264 -12.0150 -11.9796 -11.8586 -11.7862
   -11.6570 -11.6305 -11.4821 -11.4430 -11.2402 -11.1503 -11.0513 -10.8827
    -8.7823  -8.2889  -8.1540  -8.1128  -7.8776  -7.8012  -7.6717  -7.5506
     3.5651   3.8498   4.0757   4.1485   4.6365   4.7543   4.8790   5.0082
     5.1644   5.2373   5.3374   5.4923   5.5858   5.6475   5.8113   5.8659
     6.0679   6.1549   6.2183   6.3241   6.4208   6.4912   6.5902   6.8582

     occupation numbers 
     1.0000   1.0000   1.0000   1.0000   1.0000   1.0000   1.0000   1.0000
     1.0000   1.0000   1.0000   1.0000   1.0000   1.0000   1.0000   1.0000
     1.0000   1.0000   1.0000   1.0000   1.0000   1.0000   1.0000   1.0000
     1.0000   1.0000   1.0000   1.0000   1.0000   1.0000   1.0000   1.0000
     1.0000   1.0000   1.0000   1.0000   1.0000   1.0000   1.0000   1.0000
     1.0000   1.0000   1.0000   1.0000   1.0000   1.0000   1.0000   1.0000
     1.0000   1.0000   1.0000   1.0000   1.0000   1.0000   1.0000   1.0000
     1.0000   1.0000   1.0000   1.0000   1.0000   1.0000   1.0000   1.0000

          k =-0.3543-0.0042 0.3535 (  5724 PWs)   bands (ev):

   -66.2208 -66.1707 -66.0165 -65.5530 -33.2162 -33.1925 -33.1713 -33.1373
   -33.1330 -33.0972 -32.9982 -32.9846 -32.9631 -32.5548 -32.5170 -32.4890
   -30.3296 -30.1402 -30.0644 -29.5258 -12.1256 -11.9563 -11.8497 -11.7916
   -11.6626 -11.6352 -11.4693 -11.4070 -11.2373 -11.1378 -10.9583 -10.8940
    -8.7747  -8.3533  -8.2317  -8.1682  -7.8567  -7.7732  -7.6293  -7.4996
     3.4215   3.8491   4.0312   4.2196   4.5537   4.6993   4.8116   5.0029
     5.1106   5.3524   5.4371   5.5706   5.6294   5.8095   5.8402   5.9112
     5.9902   6.0976   6.2138   6.2382   6.4134   6.5137   6.7493   6.8833

     occupation numbers 
     1.0000   1.0000   1.0000   1.0000   1.0000   1.0000   1.0000   1.0000
     1.0000   1.0000   1.0000   1.0000   1.0000   1.0000   1.0000   1.0000
     1.0000   1.0000   1.0000   1.0000   1.0000   1.0000   1.0000   1.0000
     1.0000   1.0000   1.0000   1.0000   1.0000   1.0000   1.0000   1.0000
     1.0000   1.0000   1.0000   1.0000   1.0000   1.0000   1.0000   1.0000
     1.0000   1.0000   1.0000   1.0000   1.0000   1.0000   1.0000   1.0000
     1.0000   1.0000   1.0000   1.0000   1.0000   1.0000   1.0000   1.0000
     1.0000   1.0000   1.0000   1.0000   1.0000   1.0000   1.0000   1.0000

          k =-0.0015 0.0014 0.3520 (  5744 PWs)   bands (ev):

   -66.2208 -66.1707 -66.0165 -65.5531 -33.2162 -33.1926 -33.1713 -33.1373
   -33.1330 -33.0973 -32.9981 -32.9846 -32.9630 -32.5548 -32.5170 -32.4889
   -30.3339 -30.1367 -30.0636 -29.5256 -12.2589 -12.0904 -11.9250 -11.8255
   -11.5821 -11.4513 -11.4099 -11.3081 -11.2060 -11.1393 -10.9570 -10.8251
    -8.8995  -8.5479  -8.3216  -8.1656  -7.8178  -7.6503  -7.5213  -7.4861
     3.0897   3.6931   3.8058   4.3180   4.4500   4.5537   4.7418   5.1181
     5.4109   5.4632   5.5900   5.6627   5.7357   5.8455   5.8613   5.9327
     6.0114   6.0597   6.2717   6.3966   6.5196   6.5900   6.8264   6.9506

     occupation numbers 
     1.0000   1.0000   1.0000   1.0000   1.0000   1.0000   1.0000   1.0000
     1.0000   1.0000   1.0000   1.0000   1.0000   1.0000   1.0000   1.0000
     1.0000   1.0000   1.0000   1.0000   1.0000   1.0000   1.0000   1.0000
     1.0000   1.0000   1.0000   1.0000   1.0000   1.0000   1.0000   1.0000
     1.0000   1.0000   1.0000   1.0000   1.0000   1.0000   1.0000   1.0000
     1.0000   1.0000   1.0000   1.0000   1.0000   1.0000   1.0000   1.0000
     1.0000   1.0000   1.0000   1.0000   1.0000   1.0000   1.0000   1.0000
     1.0000   1.0000   1.0000   1.0000   1.0000   1.0000   1.0000   1.0000

          k = 0.1785 0.1797 0.1760 (  5741 PWs)   bands (ev):

   -66.2208 -66.1707 -66.0165 -65.5530 -33.2161 -33.1925 -33.1713 -33.1373
   -33.1330 -33.0973 -32.9982 -32.9846 -32.9630 -32.5548 -32.5169 -32.4889
   -30.3340 -30.1353 -30.0654 -29.5250 -12.1814 -12.1373 -11.9734 -11.8893
   -11.5486 -11.4420 -11.3698 -11.3559 -11.2387 -11.1180 -10.8735 -10.8257
    -8.9276  -8.4876  -8.3140  -8.2712  -7.7098  -7.6841  -7.5508  -7.4892
     3.0157   3.6616   3.7472   4.3230   4.3922   4.5361   4.6919   5.2684
     5.4817   5.5287   5.5624   5.6003   5.7449   5.8370   5.8760   5.9959
     6.1340   6.2096   6.3075   6.4259   6.5095   6.5452   6.8125   6.8669

     occupation numbers 
     1.0000   1.0000   1.0000   1.0000   1.0000   1.0000   1.0000   1.0000
     1.0000   1.0000   1.0000   1.0000   1.0000   1.0000   1.0000   1.0000
     1.0000   1.0000   1.0000   1.0000   1.0000   1.0000   1.0000   1.0000
     1.0000   1.0000   1.0000   1.0000   1.0000   1.0000   1.0000   1.0000
     1.0000   1.0000   1.0000   1.0000   1.0000   1.0000   1.0000   1.0000
     1.0000   1.0000   1.0000   1.0000   1.0000   1.0000   1.0000   1.0000
     1.0000   1.0000   1.0000   1.0000   1.0000   1.0000   1.0000   1.0000
     1.0000   1.0000   1.0000   1.0000   1.0000   1.0000   1.0000   1.0000

          k =-0.3615-0.3551 0.7040 (  5746 PWs)   bands (ev):

   -66.2208 -66.1707 -66.0165 -65.5530 -33.2161 -33.1924 -33.1713 -33.1373
   -33.1330 -33.0973 -32.9983 -32.9846 -32.9630 -32.5548 -32.5170 -32.4890
   -30.3298 -30.1384 -30.0661 -29.5254 -12.0493 -12.0116 -11.9130 -11.8513
   -11.6375 -11.6152 -11.4704 -11.3940 -11.2367 -11.1312 -10.9600 -10.8322
    -8.7817  -8.4038  -8.2019  -8.1594  -7.8707  -7.7178  -7.6399  -7.5329
     3.3735   3.8770   4.0106   4.1666   4.5032   4.6721   4.9417   5.0161
     5.1479   5.4015   5.4678   5.5458   5.6286   5.7584   5.8117   5.9725
     5.9947   6.1117   6.2279   6.3252   6.4186   6.5235   6.6600   6.7992

     occupation numbers 
     1.0000   1.0000   1.0000   1.0000   1.0000   1.0000   1.0000   1.0000
     1.0000   1.0000   1.0000   1.0000   1.0000   1.0000   1.0000   1.0000
     1.0000   1.0000   1.0000   1.0000   1.0000   1.0000   1.0000   1.0000
     1.0000   1.0000   1.0000   1.0000   1.0000   1.0000   1.0000   1.0000
     1.0000   1.0000   1.0000   1.0000   1.0000   1.0000   1.0000   1.0000
     1.0000   1.0000   1.0000   1.0000   1.0000   1.0000   1.0000   1.0000
     1.0000   1.0000   1.0000   1.0000   1.0000   1.0000   1.0000   1.0000
     1.0000   1.0000   1.0000   1.0000   1.0000   1.0000   1.0000   1.0000

          k =-0.1815-0.1768 0.5280 (  5721 PWs)   bands (ev):

   -66.2208 -66.1707 -66.0165 -65.5531 -33.2162 -33.1925 -33.1713 -33.1373
   -33.1330 -33.0973 -32.9982 -32.9846 -32.9629 -32.5549 -32.5170 -32.4890
   -30.3297 -30.1398 -30.0643 -29.5260 -12.1601 -11.9386 -11.8335 -11.7910
   -11.6678 -11.6230 -11.4474 -11.4040 -11.2334 -11.1530 -11.0462 -10.8296
    -8.7449  -8.4184  -8.2049  -8.1749  -7.8588  -7.7135  -7.6240  -7.5443
     3.5211   3.9105   4.0247   4.2268   4.6337   4.6856   4.7878   4.9806
     5.1043   5.3203   5.3906   5.4507   5.5895   5.6954   5.8004   5.9139
     6.0279   6.1692   6.2164   6.3332   6.4162   6.5643   6.6231   6.8049

     occupation numbers 
     1.0000   1.0000   1.0000   1.0000   1.0000   1.0000   1.0000   1.0000
     1.0000   1.0000   1.0000   1.0000   1.0000   1.0000   1.0000   1.0000
     1.0000   1.0000   1.0000   1.0000   1.0000   1.0000   1.0000   1.0000
     1.0000   1.0000   1.0000   1.0000   1.0000   1.0000   1.0000   1.0000
     1.0000   1.0000   1.0000   1.0000   1.0000   1.0000   1.0000   1.0000
     1.0000   1.0000   1.0000   1.0000   1.0000   1.0000   1.0000   1.0000
     1.0000   1.0000   1.0000   1.0000   1.0000   1.0000   1.0000   1.0000
     1.0000   1.0000   1.0000   1.0000   1.0000   1.0000   1.0000   1.0000

          k =-0.5200 0.5192-0.1716 (  5711 PWs)   bands (ev):

   -66.2208 -66.1707 -66.0165 -65.5531 -33.2162 -33.1926 -33.1713 -33.1373
   -33.1330 -33.0972 -32.9981 -32.9846 -32.9631 -32.5548 -32.5170 -32.4889
   -30.3334 -30.1363 -30.0635 -29.5265 -12.2445 -12.0177 -11.9162 -11.8022
   -11.5749 -11.4683 -11.4216 -11.3100 -11.2120 -11.1597 -11.0555 -10.9065
    -8.7780  -8.4606  -8.2079  -8.1850  -7.8294  -7.7133  -7.6048  -7.5369
     3.5195   3.8431   4.1031   4.1571   4.4565   4.6679   4.7649   4.9800
     5.1574   5.2837   5.3889   5.4645   5.6644   5.7463   5.8239   5.8934
     6.0912   6.1670   6.2144   6.3141   6.4557   6.5930   6.6860   6.8339

     occupation numbers 
     1.0000   1.0000   1.0000   1.0000   1.0000   1.0000   1.0000   1.0000
     1.0000   1.0000   1.0000   1.0000   1.0000   1.0000   1.0000   1.0000
     1.0000   1.0000   1.0000   1.0000   1.0000   1.0000   1.0000   1.0000
     1.0000   1.0000   1.0000   1.0000   1.0000   1.0000   1.0000   1.0000
     1.0000   1.0000   1.0000   1.0000   1.0000   1.0000   1.0000   1.0000
     1.0000   1.0000   1.0000   1.0000   1.0000   1.0000   1.0000   1.0000
     1.0000   1.0000   1.0000   1.0000   1.0000   1.0000   1.0000   1.0000
     1.0000   1.0000   1.0000   1.0000   1.0000   1.0000   1.0000   1.0000

          k =-0.3401 0.6975-0.3477 (  5732 PWs)   bands (ev):

   -66.2208 -66.1707 -66.0165 -65.5530 -33.2162 -33.1925 -33.1713 -33.1373
   -33.1330 -33.0972 -32.9982 -32.9847 -32.9631 -32.5548 -32.5170 -32.4889
   -30.3335 -30.1349 -30.0653 -29.5259 -12.1704 -12.0833 -11.9702 -11.8231
   -11.5556 -11.4714 -11.3905 -11.3609 -11.2345 -11.1426 -10.9651 -10.8988
    -8.8171  -8.4046  -8.2320  -8.1478  -7.8842  -7.7661  -7.6089  -7.4770
     3.3593   3.8946   3.9276   4.2520   4.3899   4.5628   4.7897   5.0279
     5.2031   5.3217   5.5907   5.6806   5.7544   5.7822   5.8344   5.8872
     5.9836   6.1123   6.2208   6.2432   6.4560   6.5847   6.7658   6.8132

     occupation numbers 
     1.0000   1.0000   1.0000   1.0000   1.0000   1.0000   1.0000   1.0000
     1.0000   1.0000   1.0000   1.0000   1.0000   1.0000   1.0000   1.0000
     1.0000   1.0000   1.0000   1.0000   1.0000   1.0000   1.0000   1.0000
     1.0000   1.0000   1.0000   1.0000   1.0000   1.0000   1.0000   1.0000
     1.0000   1.0000   1.0000   1.0000   1.0000   1.0000   1.0000   1.0000
     1.0000   1.0000   1.0000   1.0000   1.0000   1.0000   1.0000   1.0000
     1.0000   1.0000   1.0000   1.0000   1.0000   1.0000   1.0000   1.0000
     1.0000   1.0000   1.0000   1.0000   1.0000   1.0000   1.0000   1.0000

          k =-0.8800 0.1627 0.1804 (  5740 PWs)   bands (ev):

   -66.2208 -66.1707 -66.0165 -65.5530 -33.2161 -33.1924 -33.1713 -33.1373
   -33.1330 -33.0972 -32.9983 -32.9846 -32.9631 -32.5548 -32.5170 -32.4890
   -30.3296 -30.1387 -30.0662 -29.5252 -12.0579 -11.9937 -11.9235 -11.8795
   -11.6418 -11.6209 -11.4651 -11.3989 -11.2378 -11.1201 -10.8852 -10.8647
    -8.7519  -8.4234  -8.2524  -8.1679  -7.9100  -7.7090  -7.6075  -7.4971
     3.4826   3.8573   4.1223   4.2948   4.4287   4.5797   4.9514   5.0649
     5.1015   5.2770   5.3254   5.4834   5.6426   5.7356   5.7994   5.8616
     6.0721   6.1614   6.2072   6.3373   6.4383   6.5834   6.6444   6.7354

     occupation numbers 
     1.0000   1.0000   1.0000   1.0000   1.0000   1.0000   1.0000   1.0000
     1.0000   1.0000   1.0000   1.0000   1.0000   1.0000   1.0000   1.0000
     1.0000   1.0000   1.0000   1.0000   1.0000   1.0000   1.0000   1.0000
     1.0000   1.0000   1.0000   1.0000   1.0000   1.0000   1.0000   1.0000
     1.0000   1.0000   1.0000   1.0000   1.0000   1.0000   1.0000   1.0000
     1.0000   1.0000   1.0000   1.0000   1.0000   1.0000   1.0000   1.0000
     1.0000   1.0000   1.0000   1.0000   1.0000   1.0000   1.0000   1.0000
     1.0000   1.0000   1.0000   1.0000   1.0000   1.0000   1.0000   1.0000

          k =-0.7000 0.3410 0.0044 (  5729 PWs)   bands (ev):

   -66.2208 -66.1707 -66.0165 -65.5531 -33.2162 -33.1925 -33.1713 -33.1373
   -33.1330 -33.0972 -32.9982 -32.9846 -32.9631 -32.5548 -32.5170 -32.4890
   -30.3295 -30.1401 -30.0643 -29.5258 -12.1486 -11.9188 -11.8759 -11.8015
   -11.7241 -11.6355 -11.4323 -11.3682 -11.2306 -11.1404 -10.9556 -10.8823
    -8.7139  -8.3919  -8.3656  -8.1548  -7.8136  -7.6994  -7.6255  -7.5307
     3.7158   3.9080   4.0670   4.2480   4.5623   4.7743   4.8140   4.8595
     5.0257   5.0874   5.3637   5.4919   5.5581   5.6609   5.8176   5.9681
     6.0238   6.1761   6.2929   6.3448   6.4161   6.4782   6.6428   6.7151

     occupation numbers 
     1.0000   1.0000   1.0000   1.0000   1.0000   1.0000   1.0000   1.0000
     1.0000   1.0000   1.0000   1.0000   1.0000   1.0000   1.0000   1.0000
     1.0000   1.0000   1.0000   1.0000   1.0000   1.0000   1.0000   1.0000
     1.0000   1.0000   1.0000   1.0000   1.0000   1.0000   1.0000   1.0000
     1.0000   1.0000   1.0000   1.0000   1.0000   1.0000   1.0000   1.0000
     1.0000   1.0000   1.0000   1.0000   1.0000   1.0000   1.0000   1.0000
     1.0000   1.0000   1.0000   1.0000   1.0000   1.0000   1.0000   1.0000
     1.0000   1.0000   1.0000   1.0000   1.0000   1.0000   1.0000   1.0000

          k =-0.3472 0.3466 0.0029 (  5726 PWs)   bands (ev):

   -66.2208 -66.1707 -66.0165 -65.5531 -33.2162 -33.1926 -33.1713 -33.1373
   -33.1330 -33.0971 -32.9981 -32.9846 -32.9632 -32.5548 -32.5170 -32.4889
   -30.3333 -30.1367 -30.0635 -29.5263 -12.2233 -12.0021 -11.8924 -11.8785
   -11.6099 -11.4595 -11.3909 -11.3106 -11.2172 -11.1454 -10.9941 -10.9595
    -8.8181  -8.4019  -8.2658  -8.1528  -7.8148  -7.6951  -7.6361  -7.5376
     3.4269   3.8682   3.9893   4.1171   4.5033   4.6906   4.7761   4.9120
     5.2132   5.3470   5.4512   5.5135   5.6618   5.7407   5.8254   5.9426
     6.0768   6.1712   6.2591   6.3417   6.4293   6.5812   6.7450   6.8424

     occupation numbers 
     1.0000   1.0000   1.0000   1.0000   1.0000   1.0000   1.0000   1.0000
     1.0000   1.0000   1.0000   1.0000   1.0000   1.0000   1.0000   1.0000
     1.0000   1.0000   1.0000   1.0000   1.0000   1.0000   1.0000   1.0000
     1.0000   1.0000   1.0000   1.0000   1.0000   1.0000   1.0000   1.0000
     1.0000   1.0000   1.0000   1.0000   1.0000   1.0000   1.0000   1.0000
     1.0000   1.0000   1.0000   1.0000   1.0000   1.0000   1.0000   1.0000
     1.0000   1.0000   1.0000   1.0000   1.0000   1.0000   1.0000   1.0000
     1.0000   1.0000   1.0000   1.0000   1.0000   1.0000   1.0000   1.0000

          k =-0.1672 0.5249-0.1731 (  5734 PWs)   bands (ev):

   -66.2208 -66.1707 -66.0165 -65.5531 -33.2162 -33.1925 -33.1712 -33.1373
   -33.1330 -33.0971 -32.9982 -32.9847 -32.9632 -32.5549 -32.5170 -32.4889
   -30.3331 -30.1346 -30.0653 -29.5269 -12.1603 -12.0454 -11.9023 -11.7939
   -11.5558 -11.4737 -11.4154 -11.3775 -11.2350 -11.1582 -11.0723 -10.9476
    -8.8286  -8.3156  -8.1459  -8.1344  -7.8575  -7.7904  -7.6752  -7.5241
     3.5561   3.8721   3.9872   4.1439   4.6132   4.6530   4.8451   4.9443
     5.1285   5.2111   5.3766   5.5256   5.6812   5.7350   5.7997   5.9092
     5.9897   6.1552   6.2809   6.3581   6.4693   6.5591   6.6740   6.7952

     occupation numbers 
     1.0000   1.0000   1.0000   1.0000   1.0000   1.0000   1.0000   1.0000
     1.0000   1.0000   1.0000   1.0000   1.0000   1.0000   1.0000   1.0000
     1.0000   1.0000   1.0000   1.0000   1.0000   1.0000   1.0000   1.0000
     1.0000   1.0000   1.0000   1.0000   1.0000   1.0000   1.0000   1.0000
     1.0000   1.0000   1.0000   1.0000   1.0000   1.0000   1.0000   1.0000
     1.0000   1.0000   1.0000   1.0000   1.0000   1.0000   1.0000   1.0000
     1.0000   1.0000   1.0000   1.0000   1.0000   1.0000   1.0000   1.0000
     1.0000   1.0000   1.0000   1.0000   1.0000   1.0000   1.0000   1.0000

          k =-0.7072-0.0099 0.3549 (  5756 PWs)   bands (ev):

   -66.2208 -66.1707 -66.0165 -65.5530 -33.2161 -33.1924 -33.1713 -33.1373
   -33.1330 -33.0971 -32.9983 -32.9846 -32.9632 -32.5549 -32.5170 -32.4890
   -30.3291 -30.1384 -30.0661 -29.5261 -12.0231 -11.9509 -11.8848 -11.8205
   -11.6584 -11.6411 -11.4765 -11.4414 -11.2389 -11.1400 -10.9667 -10.9219
    -8.7597  -8.2891  -8.2098  -8.1296  -7.8979  -7.8313  -7.6255  -7.5060
     3.7412   3.8723   4.1270   4.2139   4.5973   4.6465   4.8495   4.9418
     5.0886   5.1142   5.3335   5.5031   5.6040   5.6749   5.7922   5.8613
     6.0142   6.1532   6.2223   6.3615   6.4292   6.5219   6.5813   6.7648

     occupation numbers 
     1.0000   1.0000   1.0000   1.0000   1.0000   1.0000   1.0000   1.0000
     1.0000   1.0000   1.0000   1.0000   1.0000   1.0000   1.0000   1.0000
     1.0000   1.0000   1.0000   1.0000   1.0000   1.0000   1.0000   1.0000
     1.0000   1.0000   1.0000   1.0000   1.0000   1.0000   1.0000   1.0000
     1.0000   1.0000   1.0000   1.0000   1.0000   1.0000   1.0000   1.0000
     1.0000   1.0000   1.0000   1.0000   1.0000   1.0000   1.0000   1.0000
     1.0000   1.0000   1.0000   1.0000   1.0000   1.0000   1.0000   1.0000
     1.0000   1.0000   1.0000   1.0000   1.0000   1.0000   1.0000   1.0000

          k =-0.5272 0.1684 0.1789 (  5734 PWs)   bands (ev):

   -66.2208 -66.1707 -66.0165 -65.5531 -33.2162 -33.1925 -33.1713 -33.1373
   -33.1330 -33.0971 -32.9982 -32.9846 -32.9632 -32.5548 -32.5170 -32.4890
   -30.3293 -30.1405 -30.0644 -29.5255 -12.1141 -11.9373 -11.9115 -11.8013
   -11.6779 -11.6423 -11.4630 -11.3755 -11.2368 -11.1287 -10.9502 -10.8702
    -8.7428  -8.4038  -8.2499  -8.2266  -7.8529  -7.6962  -7.5955  -7.5326
     3.5566   3.8542   4.1197   4.2947   4.4622   4.6499   4.8599   4.9524
     5.1516   5.2203   5.3310   5.4785   5.5960   5.6581   5.7795   5.9308
     6.0519   6.1818   6.2692   6.3631   6.4162   6.5145   6.6920   6.7946

     occupation numbers 
     1.0000   1.0000   1.0000   1.0000   1.0000   1.0000   1.0000   1.0000
     1.0000   1.0000   1.0000   1.0000   1.0000   1.0000   1.0000   1.0000
     1.0000   1.0000   1.0000   1.0000   1.0000   1.0000   1.0000   1.0000
     1.0000   1.0000   1.0000   1.0000   1.0000   1.0000   1.0000   1.0000
     1.0000   1.0000   1.0000   1.0000   1.0000   1.0000   1.0000   1.0000
     1.0000   1.0000   1.0000   1.0000   1.0000   1.0000   1.0000   1.0000
     1.0000   1.0000   1.0000   1.0000   1.0000   1.0000   1.0000   1.0000
     1.0000   1.0000   1.0000   1.0000   1.0000   1.0000   1.0000   1.0000

          k = 0.3487-0.3481-0.3549 (  5746 PWs)   bands (ev):

   -66.2208 -66.1707 -66.0165 -65.5531 -33.2162 -33.1926 -33.1713 -33.1373
   -33.1330 -33.0971 -32.9981 -32.9846 -32.9632 -32.5548 -32.5170 -32.4890
   -30.3310 -30.1363 -30.0671 -29.5256 -12.2042 -11.9014 -11.8031 -11.7889
   -11.6792 -11.6509 -11.5059 -11.3648 -11.2321 -11.1254 -10.9862 -10.8721
    -8.7682  -8.3517  -8.2418  -8.1799  -7.8089  -7.7807  -7.6194  -7.5518
     3.5155   3.8307   4.0367   4.3436   4.6336   4.6598   4.6896   5.0913
     5.1742   5.2318   5.2571   5.5437   5.6106   5.6177   5.8383   5.8715
     6.0329   6.1260   6.2679   6.3297   6.3782   6.5327   6.7983   6.8914

     occupation numbers 
     1.0000   1.0000   1.0000   1.0000   1.0000   1.0000   1.0000   1.0000
     1.0000   1.0000   1.0000   1.0000   1.0000   1.0000   1.0000   1.0000
     1.0000   1.0000   1.0000   1.0000   1.0000   1.0000   1.0000   1.0000
     1.0000   1.0000   1.0000   1.0000   1.0000   1.0000   1.0000   1.0000
     1.0000   1.0000   1.0000   1.0000   1.0000   1.0000   1.0000   1.0000
     1.0000   1.0000   1.0000   1.0000   1.0000   1.0000   1.0000   1.0000
     1.0000   1.0000   1.0000   1.0000   1.0000   1.0000   1.0000   1.0000
     1.0000   1.0000   1.0000   1.0000   1.0000   1.0000   1.0000   1.0000

          k = 0.5286-0.1698-0.5309 (  5727 PWs)   bands (ev):

   -66.2208 -66.1707 -66.0165 -65.5531 -33.2162 -33.1925 -33.1713 -33.1373
   -33.1330 -33.0971 -32.9982 -32.9846 -32.9632 -32.5549 -32.5170 -32.4889
   -30.3308 -30.1340 -30.0690 -29.5262 -12.1138 -11.9998 -11.8283 -11.7472
   -11.6549 -11.5533 -11.4723 -11.4589 -11.2879 -11.1236 -10.9681 -10.9402
    -8.7970  -8.3310  -8.2012  -8.1582  -7.8207  -7.7729  -7.6417  -7.5424
     3.5625   3.8709   4.0762   4.2254   4.6237   4.7614   4.8540   4.9210
     5.1392   5.2125   5.2912   5.4900   5.5823   5.6193   5.7343   5.9615
     6.0485   6.1690   6.2609   6.3650   6.3975   6.4892   6.6504   6.8763

     occupation numbers 
     1.0000   1.0000   1.0000   1.0000   1.0000   1.0000   1.0000   1.0000
     1.0000   1.0000   1.0000   1.0000   1.0000   1.0000   1.0000   1.0000
     1.0000   1.0000   1.0000   1.0000   1.0000   1.0000   1.0000   1.0000
     1.0000   1.0000   1.0000   1.0000   1.0000   1.0000   1.0000   1.0000
     1.0000   1.0000   1.0000   1.0000   1.0000   1.0000   1.0000   1.0000
     1.0000   1.0000   1.0000   1.0000   1.0000   1.0000   1.0000   1.0000
     1.0000   1.0000   1.0000   1.0000   1.0000   1.0000   1.0000   1.0000
     1.0000   1.0000   1.0000   1.0000   1.0000   1.0000   1.0000   1.0000

          k =-0.0113-0.7046-0.0029 (  5732 PWs)   bands (ev):

   -66.2208 -66.1707 -66.0165 -65.5530 -33.2161 -33.1924 -33.1712 -33.1373
   -33.1330 -33.0971 -32.9983 -32.9847 -32.9632 -32.5549 -32.5170 -32.4889
   -30.3307 -30.1315 -30.0711 -29.5268 -12.0879 -11.9492 -11.8197 -11.6761
   -11.6578 -11.6268 -11.5672 -11.4131 -11.2707 -11.1244 -11.0610 -10.9258
    -8.8213  -8.3397  -8.1611  -8.1018  -7.8388  -7.7679  -7.6676  -7.5315
     3.6460   3.8467   3.9515   4.4147   4.7016   4.7905   4.8692   4.9626
     5.0983   5.1712   5.2310   5.3656   5.5918   5.6238   5.7023   5.8452
     5.9848   6.0789   6.3158   6.3902   6.5052   6.5282   6.6728   6.8026

     occupation numbers 
     1.0000   1.0000   1.0000   1.0000   1.0000   1.0000   1.0000   1.0000
     1.0000   1.0000   1.0000   1.0000   1.0000   1.0000   1.0000   1.0000
     1.0000   1.0000   1.0000   1.0000   1.0000   1.0000   1.0000   1.0000
     1.0000   1.0000   1.0000   1.0000   1.0000   1.0000   1.0000   1.0000
     1.0000   1.0000   1.0000   1.0000   1.0000   1.0000   1.0000   1.0000
     1.0000   1.0000   1.0000   1.0000   1.0000   1.0000   1.0000   1.0000
     1.0000   1.0000   1.0000   1.0000   1.0000   1.0000   1.0000   1.0000
     1.0000   1.0000   1.0000   1.0000   1.0000   1.0000   1.0000   1.0000

          k = 0.5215-0.5207-0.1804 (  5718 PWs)   bands (ev):

   -66.2208 -66.1707 -66.0165 -65.5531 -33.2162 -33.1926 -33.1713 -33.1373
   -33.1330 -33.0972 -32.9981 -32.9846 -32.9631 -32.5548 -32.5170 -32.4890
   -30.3311 -30.1358 -30.0671 -29.5258 -12.2296 -11.9244 -11.8113 -11.7574
   -11.6772 -11.6175 -11.5139 -11.3633 -11.2248 -11.1231 -10.9537 -10.9024
    -8.7587  -8.4580  -8.2405  -8.2121  -7.7947  -7.7240  -7.5858  -7.5366
     3.5206   3.8915   4.0937   4.2614   4.5633   4.7452   4.7969   4.9740
     5.0202   5.2782   5.3335   5.4714   5.5744   5.6421   5.7869   5.9641
     6.0510   6.1479   6.2093   6.3024   6.3992   6.5770   6.7487   6.8388

     occupation numbers 
     1.0000   1.0000   1.0000   1.0000   1.0000   1.0000   1.0000   1.0000
     1.0000   1.0000   1.0000   1.0000   1.0000   1.0000   1.0000   1.0000
     1.0000   1.0000   1.0000   1.0000   1.0000   1.0000   1.0000   1.0000
     1.0000   1.0000   1.0000   1.0000   1.0000   1.0000   1.0000   1.0000
     1.0000   1.0000   1.0000   1.0000   1.0000   1.0000   1.0000   1.0000
     1.0000   1.0000   1.0000   1.0000   1.0000   1.0000   1.0000   1.0000
     1.0000   1.0000   1.0000   1.0000   1.0000   1.0000   1.0000   1.0000
     1.0000   1.0000   1.0000   1.0000   1.0000   1.0000   1.0000   1.0000

          k = 0.7015-0.3424-0.3564 (  5729 PWs)   bands (ev):

   -66.2208 -66.1707 -66.0165 -65.5530 -33.2162 -33.1925 -33.1713 -33.1373
   -33.1330 -33.0972 -32.9982 -32.9846 -32.9631 -32.5548 -32.5170 -32.4889
   -30.3312 -30.1343 -30.0690 -29.5252 -12.1431 -12.0444 -11.8880 -11.7822
   -11.6241 -11.5427 -11.4572 -11.4350 -11.2870 -11.1160 -10.8873 -10.8670
    -8.8070  -8.4221  -8.2338  -8.1975  -7.8033  -7.7550  -7.5947  -7.5214
     3.3361   3.9011   4.0321   4.3186   4.4916   4.6653   4.8704   4.9295
     5.1115   5.3415   5.4756   5.5094   5.6119   5.7218   5.8893   5.9160
     6.0360   6.1687   6.2482   6.3171   6.4050   6.5039   6.7356   6.8075

     occupation numbers 
     1.0000   1.0000   1.0000   1.0000   1.0000   1.0000   1.0000   1.0000
     1.0000   1.0000   1.0000   1.0000   1.0000   1.0000   1.0000   1.0000
     1.0000   1.0000   1.0000   1.0000   1.0000   1.0000   1.0000   1.0000
     1.0000   1.0000   1.0000   1.0000   1.0000   1.0000   1.0000   1.0000
     1.0000   1.0000   1.0000   1.0000   1.0000   1.0000   1.0000   1.0000
     1.0000   1.0000   1.0000   1.0000   1.0000   1.0000   1.0000   1.0000
     1.0000   1.0000   1.0000   1.0000   1.0000   1.0000   1.0000   1.0000
     1.0000   1.0000   1.0000   1.0000   1.0000   1.0000   1.0000   1.0000

          k = 0.1615-0.8772 0.1717 (  5734 PWs)   bands (ev):

   -66.2208 -66.1707 -66.0165 -65.5530 -33.2161 -33.1924 -33.1713 -33.1373
   -33.1330 -33.0972 -32.9983 -32.9847 -32.9631 -32.5549 -32.5170 -32.4889
   -30.3311 -30.1318 -30.0711 -29.5258 -12.1033 -11.9871 -11.8997 -11.7346
   -11.6381 -11.5855 -11.5375 -11.4123 -11.2735 -11.1153 -10.9581 -10.8827
    -8.8140  -8.3118  -8.2145  -8.1260  -7.8754  -7.7828  -7.6471  -7.5128
     3.4794   3.9176   4.0361   4.2309   4.5792   4.6938   4.9406   5.0098
     5.0908   5.2633   5.3226   5.4966   5.6342   5.6919   5.7189   5.8666
     6.1062   6.1804   6.2506   6.3224   6.4065   6.4759   6.6960   6.7834

     occupation numbers 
     1.0000   1.0000   1.0000   1.0000   1.0000   1.0000   1.0000   1.0000
     1.0000   1.0000   1.0000   1.0000   1.0000   1.0000   1.0000   1.0000
     1.0000   1.0000   1.0000   1.0000   1.0000   1.0000   1.0000   1.0000
     1.0000   1.0000   1.0000   1.0000   1.0000   1.0000   1.0000   1.0000
     1.0000   1.0000   1.0000   1.0000   1.0000   1.0000   1.0000   1.0000
     1.0000   1.0000   1.0000   1.0000   1.0000   1.0000   1.0000   1.0000
     1.0000   1.0000   1.0000   1.0000   1.0000   1.0000   1.0000   1.0000
     1.0000   1.0000   1.0000   1.0000   1.0000   1.0000   1.0000   1.0000

          k = 0.3415-0.6989-0.0043 (  5732 PWs)   bands (ev):

   -66.2208 -66.1707 -66.0165 -65.5531 -33.2162 -33.1925 -33.1713 -33.1373
   -33.1330 -33.0972 -32.9982 -32.9846 -32.9631 -32.5549 -32.5170 -32.4889
   -30.3310 -30.1335 -30.0690 -29.5264 -12.1310 -12.0022 -11.8787 -11.6790
   -11.6101 -11.5751 -11.4730 -11.4495 -11.2829 -11.1279 -11.0466 -10.8981
    -8.7696  -8.2996  -8.2522  -8.1719  -7.8414  -7.7616  -7.6468  -7.5150
     3.7271   3.9462   4.1049   4.1659   4.5839   4.7080   4.8546   4.9021
     4.9953   5.1301   5.3130   5.5478   5.6249   5.7500   5.7931   5.8888
     5.9922   6.0698   6.1558   6.3484   6.4380   6.5335   6.6551   6.8018

     occupation numbers 
     1.0000   1.0000   1.0000   1.0000   1.0000   1.0000   1.0000   1.0000
     1.0000   1.0000   1.0000   1.0000   1.0000   1.0000   1.0000   1.0000
     1.0000   1.0000   1.0000   1.0000   1.0000   1.0000   1.0000   1.0000
     1.0000   1.0000   1.0000   1.0000   1.0000   1.0000   1.0000   1.0000
     1.0000   1.0000   1.0000   1.0000   1.0000   1.0000   1.0000   1.0000
     1.0000   1.0000   1.0000   1.0000   1.0000   1.0000   1.0000   1.0000
     1.0000   1.0000   1.0000   1.0000   1.0000   1.0000   1.0000   1.0000
     1.0000   1.0000   1.0000   1.0000   1.0000   1.0000   1.0000   1.0000

          k = 0.0029-0.0029-0.7040 (  5740 PWs)   bands (ev):

   -66.2208 -66.1707 -66.0165 -65.5531 -33.2162 -33.1926 -33.1713 -33.1373
   -33.1330 -33.0973 -32.9981 -32.9846 -32.9630 -32.5548 -32.5171 -32.4890
   -30.3313 -30.1353 -30.0671 -29.5260 -12.2537 -11.9543 -11.8152 -11.7236
   -11.6437 -11.5982 -11.5212 -11.3612 -11.2197 -11.1274 -11.0365 -10.8253
    -8.7316  -8.5775  -8.2431  -8.2318  -7.7899  -7.6645  -7.5535  -7.5291
     3.5389   3.9223   4.0594   4.3792   4.5488   4.7077   4.7419   4.9875
     5.0582   5.2993   5.3371   5.3887   5.5285   5.7047   5.7641   5.8827
     5.9325   6.1320   6.2159   6.2631   6.5258   6.5872   6.7736   6.8235

     occupation numbers 
     1.0000   1.0000   1.0000   1.0000   1.0000   1.0000   1.0000   1.0000
     1.0000   1.0000   1.0000   1.0000   1.0000   1.0000   1.0000   1.0000
     1.0000   1.0000   1.0000   1.0000   1.0000   1.0000   1.0000   1.0000
     1.0000   1.0000   1.0000   1.0000   1.0000   1.0000   1.0000   1.0000
     1.0000   1.0000   1.0000   1.0000   1.0000   1.0000   1.0000   1.0000
     1.0000   1.0000   1.0000   1.0000   1.0000   1.0000   1.0000   1.0000
     1.0000   1.0000   1.0000   1.0000   1.0000   1.0000   1.0000   1.0000
     1.0000   1.0000   1.0000   1.0000   1.0000   1.0000   1.0000   1.0000

          k = 0.1829 0.1754-0.8800 (  5723 PWs)   bands (ev):

   -66.2208 -66.1707 -66.0165 -65.5531 -33.2162 -33.1925 -33.1713 -33.1373
   -33.1330 -33.0973 -32.9982 -32.9846 -32.9630 -32.5548 -32.5170 -32.4889
   -30.3314 -30.1338 -30.0690 -29.5254 -12.1595 -12.0477 -11.9143 -11.7387
   -11.5959 -11.5543 -11.4522 -11.4342 -11.2838 -11.1187 -10.9520 -10.8282
    -8.7663  -8.4465  -8.2409  -8.2168  -7.8344  -7.7127  -7.5979  -7.5126
     3.4318   3.9720   4.1183   4.2501   4.4393   4.6195   4.8524   5.0021
     5.1018   5.2805   5.3946   5.5155   5.6229   5.7051   5.8223   5.9049
     6.0689   6.1379   6.2328   6.3154   6.4039   6.5411   6.6938   6.7697

     occupation numbers 
     1.0000   1.0000   1.0000   1.0000   1.0000   1.0000   1.0000   1.0000
     1.0000   1.0000   1.0000   1.0000   1.0000   1.0000   1.0000   1.0000
     1.0000   1.0000   1.0000   1.0000   1.0000   1.0000   1.0000   1.0000
     1.0000   1.0000   1.0000   1.0000   1.0000   1.0000   1.0000   1.0000
     1.0000   1.0000   1.0000   1.0000   1.0000   1.0000   1.0000   1.0000
     1.0000   1.0000   1.0000   1.0000   1.0000   1.0000   1.0000   1.0000
     1.0000   1.0000   1.0000   1.0000   1.0000   1.0000   1.0000   1.0000
     1.0000   1.0000   1.0000   1.0000   1.0000   1.0000   1.0000   1.0000

          k =-0.3571-0.3594-0.3520 (  5724 PWs)   bands (ev):

   -66.2208 -66.1707 -66.0165 -65.5530 -33.2161 -33.1924 -33.1713 -33.1373
   -33.1331 -33.0973 -32.9983 -32.9847 -32.9630 -32.5548 -32.5170 -32.4889
   -30.3315 -30.1322 -30.0711 -29.5248 -12.1301 -12.0146 -11.9444 -11.7769
   -11.6224 -11.5654 -11.5246 -11.4085 -11.2747 -11.1100 -10.8741 -10.8280
    -8.8006  -8.3233  -8.2292  -8.1462  -7.9335  -7.7791  -7.6314  -7.4974
     3.3638   3.9419   4.0783   4.1744   4.4805   4.5350   4.9971   5.1252
     5.2045   5.3449   5.3651   5.4901   5.6635   5.7411   5.7756   5.8810
     6.0645   6.1038   6.2114   6.3652   6.4207   6.4687   6.7125   6.8090

     occupation numbers 
     1.0000   1.0000   1.0000   1.0000   1.0000   1.0000   1.0000   1.0000
     1.0000   1.0000   1.0000   1.0000   1.0000   1.0000   1.0000   1.0000
     1.0000   1.0000   1.0000   1.0000   1.0000   1.0000   1.0000   1.0000
     1.0000   1.0000   1.0000   1.0000   1.0000   1.0000   1.0000   1.0000
     1.0000   1.0000   1.0000   1.0000   1.0000   1.0000   1.0000   1.0000
     1.0000   1.0000   1.0000   1.0000   1.0000   1.0000   1.0000   1.0000
     1.0000   1.0000   1.0000   1.0000   1.0000   1.0000   1.0000   1.0000
     1.0000   1.0000   1.0000   1.0000   1.0000   1.0000   1.0000   1.0000

     highest occupied level (ev):     7.0400

!    total energy              =   -1059.64646664 Ry
     Harris-Foulkes estimate   =   -1059.64646664 Ry
     estimated scf accuracy    <          9.1E-11 Ry

     The total energy is the sum of the following terms:

     one-electron contribution =    -501.37114028 Ry
     hartree contribution      =     296.21712222 Ry
     xc contribution           =    -172.52576569 Ry
     ewald contribution        =    -681.96668290 Ry

     convergence has been achieved in  20 iterations

     Forces acting on atoms (Ry/au):

     atom    1 type  2   force =   0.23474403E-01  0.19067782E-01  0.10921665E-01
     atom    2 type  3   force =  -0.34324256E-01  0.45058252E-01  0.55399795E-02
     atom    3 type  1   force =  -0.59224917E-01  0.45497186E-02 -0.46350752E-02
     atom    4 type  3   force =   0.25545316E-01  0.14735224E-01  0.96722601E-02
     atom    5 type  1   force =  -0.13288985E-01 -0.28814189E-01  0.75334136E-01
     atom    6 type  3   force =  -0.16634643E-01 -0.14662732E-01 -0.53238192E-02
     atom    7 type  2   force =  -0.57402439E-03  0.23654075E-01  0.39868308E-01
     atom    8 type  3   force =  -0.14685779E-01  0.45729252E-02 -0.11609188E-01
     atom    9 type  1   force =   0.21189058E-01 -0.19811698E-01 -0.20090077E-01
     atom   10 type  3   force =  -0.19854894E-02 -0.15978179E-01 -0.83461214E-01
     atom   11 type  1   force =  -0.27246854E-01 -0.54350551E-02  0.89585901E-02
     atom   12 type  3   force =   0.44285762E-01 -0.20696220E-01 -0.42605232E-02
     atom   13 type  2   force =   0.53291696E-01 -0.11492913E-01 -0.84036482E-02
     atom   14 type  3   force =  -0.26047157E-02  0.73294909E-01  0.11429180E-01
     atom   15 type  2   force =   0.89955295E-02 -0.39079758E-01 -0.14892268E-01
     atom   16 type  3   force =  -0.62121006E-02 -0.28962140E-01 -0.90483052E-02
     The non-local contrib.  to forces
     atom    1 type  2   force =   0.53048856E-01 -0.75304036E-02  0.59520553E-01
     atom    2 type  3   force =   0.13540054E-01  0.88934684E-01 -0.45667807E-01
     atom    3 type  1   force =  -0.24758918E-02 -0.23296376E-03 -0.13488394E-01
     atom    4 type  3   force =   0.23796373E-01  0.17959123E-01  0.13616108E+00
     atom    5 type  1   force =   0.71375455E-02 -0.19688158E-01  0.46126011E-01
     atom    6 type  3   force =   0.27896818E-01 -0.26801251E-01  0.11353475E-01
     atom    7 type  2   force =   0.12076676E+00 -0.21881727E+00 -0.50016899E-01
     atom    8 type  3   force =   0.77442508E-02 -0.35338213E-01 -0.73264068E-02
     atom    9 type  1   force =   0.24780373E-01 -0.37058879E-01  0.32251137E-01
     atom   10 type  3   force =  -0.41105314E-01 -0.12463486E+00 -0.14169645E+00
     atom   11 type  1   force =  -0.22648751E-01  0.19590763E-01  0.17619450E-01
     atom   12 type  3   force =   0.22174408E+00 -0.39049593E-01  0.27376412E-01
     atom   13 type  2   force =   0.25872711E+00 -0.17555267E+00 -0.17457943E+00
     atom   14 type  3   force =  -0.28811393E-01  0.15027011E+00  0.19160524E-01
     atom   15 type  2   force =  -0.14252508E+00  0.26114749E+00  0.94525828E-01
     atom   16 type  3   force =  -0.71113135E-01 -0.64632510E-01 -0.13085402E+00
     The ionic contribution  to forces
     atom    1 type  2   force =   0.91902126E-01  0.24356671E+01  0.87795942E+00
     atom    2 type  3   force =  -0.28583253E+01  0.31864409E+00  0.11591817E+01
     atom    3 type  1   force =  -0.12403182E+01 -0.87472612E+00 -0.71405041E+00
     atom    4 type  3   force =   0.36899187E+00  0.20551193E+01 -0.11487177E+01
     atom    5 type  1   force =  -0.25184301E+00  0.87759288E+00  0.20058140E+01
     atom    6 type  3   force =  -0.12480691E+01 -0.98217950E+00  0.44549885E+00
     atom    7 type  2   force =   0.19452497E+00 -0.23610691E+01  0.17616172E+01
     atom    8 type  3   force =  -0.52896061E+00  0.10162034E+01 -0.35173840E+00
     atom    9 type  1   force =   0.15047382E+01 -0.23718197E+01 -0.57738559E-01
     atom   10 type  3   force =   0.16157539E+01  0.17328141E+01 -0.18066103E+01
     atom   11 type  1   force =  -0.77636954E+00  0.88591946E+00  0.96029395E+00
     atom   12 type  3   force =  -0.14716322E+01 -0.15878315E+01 -0.17675696E+01
     atom   13 type  2   force =   0.44427792E+01 -0.24345461E+01 -0.32321149E+01
     atom   14 type  3   force =   0.44389009E+00  0.11632440E+01  0.16116247E+00
     atom   15 type  2   force =  -0.18267733E+01  0.15559751E+01 -0.12308792E+00
     atom   16 type  3   force =   0.15397109E+01 -0.14290074E+01  0.18301003E+01
     The local contribution  to forces
     atom    1 type  2   force =  -0.12147162E+00 -0.24090754E+01 -0.92655404E+00
     atom    2 type  3   force =   0.28099546E+01 -0.36135585E+00 -0.11077033E+01
     atom    3 type  1   force =   0.11826420E+01  0.87973122E+00  0.72335435E+00
     atom    4 type  3   force =  -0.36650591E+00 -0.20582591E+01  0.10228946E+01
     atom    5 type  1   force =   0.23106876E+00 -0.88666638E+00 -0.19766966E+01
     atom    6 type  3   force =   0.12030489E+01  0.99393314E+00 -0.46252413E+00
     atom    7 type  2   force =  -0.31586522E+00  0.26035359E+01 -0.16717387E+01
     atom    8 type  3   force =   0.50625688E+00 -0.97606491E+00  0.34704622E+00
     atom    9 type  1   force =  -0.15082034E+01  0.23901017E+01  0.44758022E-02
     atom   10 type  3   force =  -0.15767645E+01 -0.16250512E+01  0.18627826E+01
     atom   11 type  1   force =   0.77210037E+00 -0.91151506E+00 -0.96923584E+00
     atom   12 type  3   force =   0.12959258E+01  0.16056487E+01  0.17360181E+01
     atom   13 type  2   force =  -0.46482160E+01  0.25986046E+01  0.33982878E+01
     atom   14 type  3   force =  -0.41785942E+00 -0.12380179E+01 -0.16865769E+00
     atom   15 type  2   force =   0.19782849E+01 -0.18561885E+01  0.13666537E-01
     atom   16 type  3   force =  -0.14754448E+01  0.14638782E+01 -0.17090492E+01
     The core correction contribution to forces
     atom    1 type  2   force =   0.00000000E+00  0.00000000E+00  0.00000000E+00
     atom    2 type  3   force =   0.50802209E-03 -0.11650343E-02 -0.26916128E-03
     atom    3 type  1   force =   0.93575787E-03 -0.22614080E-03 -0.45138084E-03
     atom    4 type  3   force =  -0.73882428E-03 -0.82195544E-04 -0.66384401E-03
     atom    5 type  1   force =   0.34770665E-03 -0.50930769E-04  0.88402105E-04
     atom    6 type  3   force =   0.48877588E-03  0.38364021E-03  0.34724597E-03
     atom    7 type  2   force =   0.00000000E+00  0.00000000E+00  0.00000000E+00
     atom    8 type  3   force =   0.27521975E-03 -0.22579003E-03  0.41037277E-03
     atom    9 type  1   force =  -0.12634164E-03 -0.10389103E-02  0.92995134E-03
     atom   10 type  3   force =   0.13278059E-03  0.89368798E-03  0.20626760E-02
     atom   11 type  1   force =  -0.32552870E-03  0.56914873E-03  0.28447816E-03
     atom   12 type  3   force =  -0.17529154E-02  0.53270351E-03 -0.85470057E-04
     atom   13 type  2   force =   0.00000000E+00  0.00000000E+00  0.00000000E+00
     atom   14 type  3   force =   0.17745709E-03 -0.22016701E-02 -0.23500132E-03
     atom   15 type  2   force =   0.00000000E+00  0.00000000E+00  0.00000000E+00
     atom   16 type  3   force =   0.63554255E-03  0.79722084E-03  0.75585517E-03
     The Hubbard contrib.    to forces
     atom    1 type  2   force =   0.00000000E+00  0.00000000E+00  0.00000000E+00
     atom    2 type  3   force =   0.00000000E+00  0.00000000E+00  0.00000000E+00
     atom    3 type  1   force =   0.00000000E+00  0.00000000E+00  0.00000000E+00
     atom    4 type  3   force =   0.00000000E+00  0.00000000E+00  0.00000000E+00
     atom    5 type  1   force =   0.00000000E+00  0.00000000E+00  0.00000000E+00
     atom    6 type  3   force =   0.00000000E+00  0.00000000E+00  0.00000000E+00
     atom    7 type  2   force =   0.00000000E+00  0.00000000E+00  0.00000000E+00
     atom    8 type  3   force =   0.00000000E+00  0.00000000E+00  0.00000000E+00
     atom    9 type  1   force =   0.00000000E+00  0.00000000E+00  0.00000000E+00
     atom   10 type  3   force =   0.00000000E+00  0.00000000E+00  0.00000000E+00
     atom   11 type  1   force =   0.00000000E+00  0.00000000E+00  0.00000000E+00
     atom   12 type  3   force =   0.00000000E+00  0.00000000E+00  0.00000000E+00
     atom   13 type  2   force =   0.00000000E+00  0.00000000E+00  0.00000000E+00
     atom   14 type  3   force =   0.00000000E+00  0.00000000E+00  0.00000000E+00
     atom   15 type  2   force =   0.00000000E+00  0.00000000E+00  0.00000000E+00
     atom   16 type  3   force =   0.00000000E+00  0.00000000E+00  0.00000000E+00
     The SCF correction term to forces
     atom    1 type  2   force =  -0.41500531E-05  0.63238338E-05 -0.37481668E-05
     atom    2 type  3   force =  -0.77430366E-06  0.22152201E-06 -0.95492562E-06
     atom    3 type  1   force =  -0.77855652E-05  0.35750352E-05  0.12700628E-05
     atom    4 type  3   force =   0.26123553E-05 -0.20294501E-05 -0.13094281E-05
     atom    5 type  1   force =   0.81719781E-06 -0.17490117E-05  0.28890445E-05
     atom    6 type  3   force =   0.75408980E-06  0.10924629E-05  0.12597673E-05
     atom    7 type  2   force =   0.27902566E-06  0.44750210E-05  0.72282954E-05
     atom    8 type  3   force =  -0.72132830E-06 -0.17393473E-05 -0.46562896E-06
     atom    9 type  1   force =   0.10203989E-05  0.38912892E-05 -0.78975063E-05
     atom   10 type  3   force =  -0.15113816E-05 -0.68671357E-07  0.74829812E-06
     atom   11 type  1   force =  -0.25932344E-05  0.49150265E-06 -0.29318517E-05
     atom   12 type  3   force =   0.17515177E-05  0.33423260E-05  0.55534947E-06
     atom   13 type  2   force =   0.21887566E-05  0.10542877E-05  0.33792255E-05
     atom   14 type  3   force =  -0.64641309E-06  0.27443737E-06 -0.61280739E-06
     atom   15 type  2   force =   0.97982539E-05 -0.14039622E-04  0.38000900E-05
     atom   16 type  3   force =   0.18758963E-06  0.22345819E-05 -0.79943730E-06

     Total force =     0.203913     Total SCF correction =     0.000026


     entering subroutine stress ...

          total   stress  (Ry/bohr**3)                   (kbar)     P=  -29.65
  -0.0001537285   0.0002683147  -0.0000264363        -22.61     39.47     -3.89
   0.0002683147  -0.0001554644   0.0000018668         39.47    -22.87      0.27
  -0.0000264363   0.0000018668  -0.0002954524         -3.89      0.27    -43.46

     kinetic stress (kbar)  19435.65     41.62     12.93
                               41.62  19458.83    -12.11
                               12.93    -12.11  19416.99

     local   stress (kbar)  -5247.24   -369.13   -568.30
                             -369.13  -3730.19    200.15
                             -568.30    200.15  -4201.46

     nonloc. stress (kbar)   4936.55     -0.66     -0.01
                               -0.66   4920.67      0.31
                               -0.01      0.31   4928.46

     hartree stress (kbar)  11132.67    125.42    198.64
                              125.42  10539.05    -71.01
                              198.64    -71.01  10786.47

     exc-cor stress (kbar)  -4931.69      0.13      0.43
                                0.13  -4932.49     -0.20
                                0.43     -0.20  -4932.72

     corecor stress (kbar)   -980.55     -0.14     -0.07
                               -0.14   -980.56      0.05
                               -0.07      0.05   -980.42

     ewald   stress (kbar) -24368.01    242.24    352.49
                              242.24 -25298.17   -116.91
                              352.49   -116.91 -25060.79

     hubbard stress (kbar)      0.00      0.00      0.00
                                0.00      0.00      0.00
                                0.00      0.00      0.00

     london  stress (kbar)      0.00      0.00      0.00
                                0.00      0.00      0.00
                                0.00      0.00      0.00

     XDM     stress (kbar)      0.00      0.00      0.00
                                0.00      0.00      0.00
                                0.00      0.00      0.00

     dft-nl  stress (kbar)      0.00      0.00      0.00
                                0.00      0.00      0.00
                                0.00      0.00      0.00



     Writing output data file mix.dummy26233.save

     init_run     :     18.93s CPU     19.46s WALL (       1 calls)
     electrons    :    831.32s CPU    878.70s WALL (       1 calls)
     forces       :      6.63s CPU      6.69s WALL (       1 calls)
     stress       :     12.38s CPU     12.61s WALL (       1 calls)

     Called by init_run:
     wfcinit      :     16.64s CPU     17.15s WALL (       1 calls)
     potinit      :      0.56s CPU      0.56s WALL (       1 calls)

     Called by electrons:
     c_bands      :    725.01s CPU    767.46s WALL (      20 calls)
     sum_band     :     98.25s CPU    103.14s WALL (      20 calls)
     v_of_rho     :      1.00s CPU      1.00s WALL (      21 calls)
     v_h          :      0.06s CPU      0.06s WALL (      21 calls)
     v_xc         :      1.00s CPU      1.01s WALL (      23 calls)
     newd         :      5.48s CPU      5.49s WALL (      21 calls)
     mix_rho      :      1.65s CPU      1.67s WALL (      20 calls)

     Called by c_bands:
     init_us_2    :      3.56s CPU      3.57s WALL (    1548 calls)
     cegterg      :    696.77s CPU    738.35s WALL (     720 calls)

     Called by sum_band:
     sum_band:bec :      1.07s CPU      1.04s WALL (     720 calls)
     addusdens    :      5.63s CPU      5.62s WALL (      20 calls)

     Called by *egterg:
     h_psi        :    375.62s CPU    386.99s WALL (    2245 calls)
     s_psi        :     33.76s CPU     32.92s WALL (    2245 calls)
     g_psi        :      0.42s CPU      0.39s WALL (    1489 calls)
     cdiaghg      :     92.37s CPU    102.11s WALL (    2209 calls)
     cegterg:over :    100.25s CPU    111.02s WALL (    1489 calls)
     cegterg:upda :     12.44s CPU     15.23s WALL (    1489 calls)
     cegterg:last :      7.78s CPU      8.55s WALL (     720 calls)

     Called by h_psi:
     h_psi:vloc   :    249.30s CPU    251.85s WALL (    2245 calls)
     h_psi:vnl    :    125.73s CPU    134.50s WALL (    2245 calls)
     add_vuspsi   :     34.68s CPU     36.01s WALL (    2245 calls)

     General routines
     calbec       :    128.38s CPU    140.44s WALL (    3037 calls)
     fft          :      2.50s CPU      2.53s WALL (     357 calls)
     ffts         :      0.94s CPU      0.99s WALL (     556 calls)
     fftw         :    287.53s CPU    290.98s WALL (  267894 calls)
     interpolate  :      0.19s CPU      0.22s WALL (      41 calls)

     Parallel routines
     fft_scatter  :    140.42s CPU    142.89s WALL (  268807 calls)

     PWSCF        : 14m31.89s CPU    15m20.61s WALL


   This run was terminated on:   4:11: 7  16Nov2017            

=------------------------------------------------------------------------------=
   JOB DONE.
=------------------------------------------------------------------------------=
