
     Program PWSCF v.5.1 starts on  8Dec2017 at  3:12:15 

     This program is part of the open-source Quantum ESPRESSO suite
     for quantum simulation of materials; please cite
         "P. Giannozzi et al., J. Phys.:Condens. Matter 21 395502 (2009);
          URL http://www.quantum-espresso.org", 
     in publications or presentations arising from this work. More details at
     http://www.quantum-espresso.org/quote

     Parallel version (MPI), running on    16 processors
     R & G space division:  proc/nbgrp/npool/nimage =      16
     Waiting for input...
     Reading input from standard input
Warning: card &IONS ignored
Warning: card   ION_DYNAMICS='BFGS', ignored
Warning: card / ignored
Warning: card &CELL ignored
Warning: card  CELL_DYNAMICS = 'BFGS' ignored
Warning: card / ignored

     Current dimensions of program PWSCF are:
     Max number of different atomic species (ntypx) = 10
     Max number of k-points (npk) =  40000
     Max angular momentum in pseudopotentials (lmaxx) =  3
 kfg - two_fermi_energies  F

     Subspace diagonalization in iterative solution of the eigenvalue problem:
     a serial algorithm will be used


     Parallelization info
     --------------------
     sticks:   dense  smooth     PW     G-vecs:    dense   smooth      PW
     Min         124      99     28                 3676     2616     410
     Max         125     100     29                 3679     2641     414
     Sum        1991    1587    461                58825    42039    6583



     bravais-lattice index     =            0
     lattice parameter (alat)  =    12.366225280  a.u.
     unit-cell volume          =    1231.1990 (a.u.)^3
     number of atoms/cell      =           16
     number of atomic types    =            3
     number of electrons       =       128.00
     number of Kohn-Sham states=           64
     kinetic-energy cutoff     =      40.0000  Ry
     charge density cutoff     =     200.0000  Ry
     convergence threshold     =      1.0E-10
     mixing beta               =       0.3000
     number of iterations used =            8  local-TF  mixing
     Exchange-correlation      = SLA  PW   PSX  PSC ( 1  4 10  8 0)
     A smooth kinetic-energy cutoff is imposed at      39.5000 Ry
     height of the smooth step-function =             800.0000 Ry
     width of the smooth step-function  =               1.0000 Ry


     celldm(1)=  12.366225  celldm(2)=   0.000000  celldm(3)=   0.000000
     celldm(4)=   0.000000  celldm(5)=   0.000000  celldm(6)=   0.000000

     crystal axes: (cart. coord. in units of alat)
               a(1) = (   0.001066661030   0.713823826183   0.700324501505 )  
               a(2) = (   0.648623052293  -0.001044561042   0.702435723577 )  
               a(3) = (   0.648757915151   0.716069911114  -0.001179423901 )  

     reciprocal axes: (cart. coord. in units 2 pi/alat)
               b(1) = ( -0.772581  0.701134  0.714437 )  
               b(2) = (  0.771554 -0.697857  0.710134 )  
               b(3) = (  0.771283  0.696559 -0.711161 )  


     PseudoPot. # 1 for Ca read from file:
     /users/kfg/psuedo/gbrv_1.5/ca.pbesol.UPF
     MD5 check sum: 0533207b58cddeaa036efa5b63902087
     Pseudo is Ultrasoft + core correction, Zval = 10.0
     Generated by new atomic code, or converted to UPF format
     Using radial grid of  845 points,  6 beta functions with: 
                l(1) =   0
                l(2) =   0
                l(3) =   1
                l(4) =   1
                l(5) =   2
                l(6) =   2
     Q(r) pseudized with  8 coefficients,  rinner =    1.500   1.500   1.500
                                                       1.500   1.500

     PseudoPot. # 2 for Mg read from file:
     /users/kfg/psuedo/gbrv_1.5/mg.pbesol.UPF
     MD5 check sum: 4059f37963cf5867752dbf5ab2400678
     Pseudo is Ultrasoft, Zval = 10.0
     Generated by new atomic code, or converted to UPF format
     Using radial grid of  821 points,  7 beta functions with: 
                l(1) =   0
                l(2) =   0
                l(3) =   0
                l(4) =   1
                l(5) =   1
                l(6) =   2
                l(7) =   2
     Q(r) pseudized with  8 coefficients,  rinner =    1.200   1.200   1.200
                                                       1.200   1.200

     PseudoPot. # 3 for O  read from file:
     /users/kfg/psuedo/gbrv_1.5/o.pbesol.UPF
     MD5 check sum: 501638753501ef6325af9037351f7734
     Pseudo is Ultrasoft + core correction, Zval =  6.0
     Generated by new atomic code, or converted to UPF format
     Using radial grid of  737 points,  5 beta functions with: 
                l(1) =   0
                l(2) =   0
                l(3) =   1
                l(4) =   1
                l(5) =   2
     Q(r) pseudized with  8 coefficients,  rinner =    0.900   0.900   0.900
                                                       0.900   0.900

     atomic species   valence    mass     pseudopotential
        Ca            10.00    40.07800     Ca( 1.00)
        Mg            10.00    40.07800     Mg( 1.00)
        O              6.00    15.99940     O ( 1.00)

     No symmetry found


                                    s                        frac. trans.

      isym =  1     identity                                     

 cryst.   s( 1) = (     1          0          0      )
                  (     0          1          0      )
                  (     0          0          1      )

 cart.    s( 1) = (  1.0000000  0.0000000  0.0000000 )
                  (  0.0000000  1.0000000 -0.0000000 )
                  ( -0.0000000  0.0000000  1.0000000 )


     point group C_1 (1)    
     there are  1 classes
     the character table:

       E    
A      1.00

     the symmetry operations in each class:
     E        1

   Cartesian axes

     site n.     atom                  positions (alat units)
         1           Ca  tau(   1) = (    0.00819448170   -0.02468445723    0.01283883432  )
         2           O   tau(   2) = (    0.34190394246    0.37405240154    0.33792334939  )
         3           Ca  tau(   3) = (    0.33009341740    0.33449268662   -0.01847798672  )
         4           O   tau(   4) = (    0.63277879997    0.73645047048    0.37513092978  )
         5           Ca  tau(   5) = (    0.32288850817    0.05725378342    0.35249653861  )
         6           O   tau(   6) = (    0.64514322127    0.37936692548    0.67894801896  )
         7           Mg  tau(   7) = (    0.66812855182    0.36952611755    0.34698450097  )
         8           O   tau(   8) = (    0.96027392334    0.71596982953    0.71942204039  )
         9           Mg  tau(   9) = (   -0.02036522908    0.38466994192    0.34029817937  )
        10           O   tau(  10) = (    0.34734564335    0.66341667002    0.70165425479  )
        11           Mg  tau(  11) = (    0.33522915186    0.70310356203    0.33363622037  )
        12           O   tau(  12) = (    0.64219925525    1.04435618838    0.69955682750  )
        13           Mg  tau(  13) = (    0.31526008742    0.36229576423    0.71621356299  )
        14           O   tau(  14) = (    0.64543428924    0.71745444742    1.08364083241  )
        15           Mg  tau(  15) = (    0.64452024675    0.70994085241    0.70264544588  )
        16           O   tau(  16) = (    0.97165747991    1.04542987371    1.02657325808  )

   Crystallographic axes

     site n.     atom                  positions (cryst. coord.)
         1           Ca  tau(   1) = (   -0.01446546666    0.03266599436   -0.02000438872  )
         2           O   tau(   2) = (    0.23953730898    0.24273307702    0.28393667922  )
         3           Ca  tau(   3) = (   -0.03370121907    0.00813508744    0.50073032227  )
         4           O   tau(   4) = (    0.29548487662    0.24067914370    0.73425474408  )
         5           Ca  tau(   5) = (    0.04252168407    0.45949066777    0.03823754892  )
         6           O   tau(   6) = (    0.25262731507    0.71516291287    0.27899868024  )
         7           Mg  tau(   7) = (   -0.00919761554    0.50402638196    0.52595155186  )
         8           O   tau(   8) = (    0.27408307707    0.75214462373    0.72773405452  )
         9           Mg  tau(   9) = (    0.52856066622   -0.04250031375    0.01023133426  )
        10           O   tau(  10) = (    0.69807921103    0.30329430158    0.23102200423  )
        11           Mg  tau(  11) = (    0.47234013875    0.00490803919    0.51104094445  )
        12           O   tau(  12) = (    0.73587193510    0.26345910844    0.72527620439  )
        13           Mg  tau(  13) = (    0.52214357437    0.49901692671   -0.01382756914  )
        14           O   tau(  14) = (    0.77857474185    0.76683670931    0.22691953880  )
        15           Mg  tau(  15) = (    0.50181550318    0.50081727867    0.49192979434  )
        16           O   tau(  16) = (    0.71572426894    0.74913006099    0.74756855627  )

     number of k points=    36
                       cart. coord. in units 2pi/alat
        k(    1) = (   0.0000000   0.0000000   0.0000000), wk =   0.0312500
        k(    2) = (   0.1928209   0.1741398  -0.1777901), wk =   0.0625000
        k(    3) = (  -0.3856417  -0.3482796   0.3555803), wk =   0.0312500
        k(    4) = (   0.1928886  -0.1744642   0.1775334), wk =   0.0625000
        k(    5) = (   0.3857094  -0.0003245  -0.0002568), wk =   0.0625000
        k(    6) = (  -0.1927531  -0.5227438   0.5331137), wk =   0.0625000
        k(    7) = (   0.0000677  -0.3486040   0.3553235), wk =   0.0625000
        k(    8) = (  -0.3857771   0.3489285  -0.3550668), wk =   0.0312500
        k(    9) = (  -0.1929563   0.5230683  -0.5328569), wk =   0.0625000
        k(   10) = (  -0.7714188   0.0006489   0.0005135), wk =   0.0312500
        k(   11) = (  -0.1931453   0.1752835   0.1786094), wk =   0.0625000
        k(   12) = (  -0.0003245   0.3494232   0.0008192), wk =   0.0625000
        k(   13) = (  -0.5787870  -0.1729961   0.5341897), wk =   0.0625000
        k(   14) = (  -0.3859662   0.0011437   0.3563995), wk =   0.0625000
        k(   15) = (  -0.0002568   0.0008192   0.3561428), wk =   0.0625000
        k(   16) = (   0.1925641   0.1749590   0.1783526), wk =   0.0625000
        k(   17) = (  -0.3858985  -0.3474603   0.7117231), wk =   0.0625000
        k(   18) = (  -0.1930776  -0.1733206   0.5339329), wk =   0.0625000
        k(   19) = (  -0.5789224   0.5242119  -0.1764574), wk =   0.0625000
        k(   20) = (  -0.3861016   0.6983517  -0.3542476), wk =   0.0625000
        k(   21) = (  -0.9645641   0.1759324   0.1791229), wk =   0.0625000
        k(   22) = (  -0.7717433   0.3500722   0.0013327), wk =   0.0625000
        k(   23) = (  -0.3860339   0.3497477   0.0010760), wk =   0.0625000
        k(   24) = (  -0.1932130   0.5238875  -0.1767142), wk =   0.0625000
        k(   25) = (  -0.7716756   0.0014681   0.3566563), wk =   0.0625000
        k(   26) = (  -0.5788547   0.1756079   0.1788661), wk =   0.0625000
        k(   27) = (   0.3862906  -0.3505669  -0.3572187), wk =   0.0312500
        k(   28) = (   0.5791115  -0.1764271  -0.5350089), wk =   0.0625000
        k(   29) = (   0.0006489  -0.6988465  -0.0016384), wk =   0.0312500
        k(   30) = (   0.5791792  -0.5250311  -0.1796853), wk =   0.0625000
        k(   31) = (   0.7720000  -0.3508914  -0.3574755), wk =   0.0625000
        k(   32) = (   0.1935375  -0.8733107   0.1758950), wk =   0.0625000
        k(   33) = (   0.3863583  -0.6991709  -0.0018952), wk =   0.0625000
        k(   34) = (   0.0005135  -0.0016384  -0.7122855), wk =   0.0312500
        k(   35) = (   0.1933344   0.1725013  -0.8900757), wk =   0.0625000
        k(   36) = (  -0.3851282  -0.3499180  -0.3567052), wk =   0.0312500

                       cryst. coord.
        k(    1) = (   0.0000000   0.0000000   0.0000000), wk =   0.0312500
        k(    2) = (   0.0000000  -0.0000000   0.2500000), wk =   0.0625000
        k(    3) = (   0.0000000   0.0000000  -0.5000000), wk =   0.0312500
        k(    4) = (   0.0000000   0.2500000   0.0000000), wk =   0.0625000
        k(    5) = (   0.0000000   0.2500000   0.2500000), wk =   0.0625000
        k(    6) = (   0.0000000   0.2500000  -0.5000000), wk =   0.0625000
        k(    7) = (   0.0000000   0.2500000  -0.2500000), wk =   0.0625000
        k(    8) = (  -0.0000000  -0.5000000  -0.0000000), wk =   0.0312500
        k(    9) = (   0.0000000  -0.5000000   0.2500000), wk =   0.0625000
        k(   10) = (  -0.0000000  -0.5000000  -0.5000000), wk =   0.0312500
        k(   11) = (   0.2500000   0.0000000   0.0000000), wk =   0.0625000
        k(   12) = (   0.2500000  -0.0000000   0.2500000), wk =   0.0625000
        k(   13) = (   0.2500000   0.0000000  -0.5000000), wk =   0.0625000
        k(   14) = (   0.2500000   0.0000000  -0.2500000), wk =   0.0625000
        k(   15) = (   0.2500000   0.2500000   0.0000000), wk =   0.0625000
        k(   16) = (   0.2500000   0.2500000   0.2500000), wk =   0.0625000
        k(   17) = (   0.2500000   0.2500000  -0.5000000), wk =   0.0625000
        k(   18) = (   0.2500000   0.2500000  -0.2500000), wk =   0.0625000
        k(   19) = (   0.2500000  -0.5000000   0.0000000), wk =   0.0625000
        k(   20) = (   0.2500000  -0.5000000   0.2500000), wk =   0.0625000
        k(   21) = (   0.2500000  -0.5000000  -0.5000000), wk =   0.0625000
        k(   22) = (   0.2500000  -0.5000000  -0.2500000), wk =   0.0625000
        k(   23) = (   0.2500000  -0.2500000   0.0000000), wk =   0.0625000
        k(   24) = (   0.2500000  -0.2500000   0.2500000), wk =   0.0625000
        k(   25) = (   0.2500000  -0.2500000  -0.5000000), wk =   0.0625000
        k(   26) = (   0.2500000  -0.2500000  -0.2500000), wk =   0.0625000
        k(   27) = (  -0.5000000   0.0000000  -0.0000000), wk =   0.0312500
        k(   28) = (  -0.5000000  -0.0000000   0.2500000), wk =   0.0625000
        k(   29) = (  -0.5000000   0.0000000  -0.5000000), wk =   0.0312500
        k(   30) = (  -0.5000000   0.2500000  -0.0000000), wk =   0.0625000
        k(   31) = (  -0.5000000   0.2500000   0.2500000), wk =   0.0625000
        k(   32) = (  -0.5000000   0.2500000  -0.5000000), wk =   0.0625000
        k(   33) = (  -0.5000000   0.2500000  -0.2500000), wk =   0.0625000
        k(   34) = (  -0.5000000  -0.5000000  -0.0000000), wk =   0.0312500
        k(   35) = (  -0.5000000  -0.5000000   0.2500000), wk =   0.0625000
        k(   36) = (  -0.5000000  -0.5000000  -0.5000000), wk =   0.0312500

     Dense  grid:    58825 G-vectors     FFT dimensions: (  60,  54,  54)

     Smooth grid:    42039 G-vectors     FFT dimensions: (  50,  48,  50)

     Largest allocated arrays     est. size (Mb)     dimensions
        Kohn-Sham Wavefunctions         0.33 Mb     (     339,   64)
        NL pseudopotentials             1.31 Mb     (     339,  253)
        Each V/rho on FFT grid          0.20 Mb     (   12960)
        Each G-vector array             0.03 Mb     (    3677)
        G-vector shells                 0.03 Mb     (    3677)
     Largest temporary arrays     est. size (Mb)     dimensions
        Auxiliary wavefunctions         1.32 Mb     (     339,  256)
        Each subspace H/S matrix        1.00 Mb     (     256,  256)
        Each <psi_i|beta_j> matrix      0.25 Mb     (     253,   64)
        Arrays for rho mixing           1.58 Mb     (   12960,    8)

     Check: negative/imaginary core charge=   -0.000003    0.000000

     Initial potential from superposition of free atoms

     starting charge  126.48332, renormalised to  128.00000
     Starting wfc are   87 randomized atomic wfcs

     total cpu time spent up to now is       15.0 secs

     Self-consistent Calculation

     iteration #  1     ecut=    40.00 Ry     beta=0.30
     Davidson diagonalization with overlap
     ethr =  1.00E-02,  avg # of iterations =  2.0

     total cpu time spent up to now is       50.9 secs

     total energy              =   -1110.16979367 Ry
     Harris-Foulkes estimate   =   -1110.77353826 Ry
     estimated scf accuracy    <       3.09923711 Ry

     iteration #  2     ecut=    40.00 Ry     beta=0.30
     Davidson diagonalization with overlap
     ethr =  2.42E-03,  avg # of iterations =  1.3

     total cpu time spent up to now is       77.1 secs

     total energy              =   -1109.68679032 Ry
     Harris-Foulkes estimate   =   -1110.25899498 Ry
     estimated scf accuracy    <       1.36329436 Ry

     iteration #  3     ecut=    40.00 Ry     beta=0.30
     Davidson diagonalization with overlap
     ethr =  1.07E-03,  avg # of iterations =  2.0

     total cpu time spent up to now is      118.1 secs

     total energy              =   -1109.89839098 Ry
     Harris-Foulkes estimate   =   -1109.94000639 Ry
     estimated scf accuracy    <       0.16416325 Ry

     iteration #  4     ecut=    40.00 Ry     beta=0.30
     Davidson diagonalization with overlap
     ethr =  1.28E-04,  avg # of iterations =  2.0

     total cpu time spent up to now is      157.9 secs

     total energy              =   -1109.85512664 Ry
     Harris-Foulkes estimate   =   -1109.91289210 Ry
     estimated scf accuracy    <       0.09842990 Ry

     iteration #  5     ecut=    40.00 Ry     beta=0.30
     Davidson diagonalization with overlap
     ethr =  7.69E-05,  avg # of iterations =  2.0

     total cpu time spent up to now is      198.4 secs

     total energy              =   -1109.86795045 Ry
     Harris-Foulkes estimate   =   -1109.86911200 Ry
     estimated scf accuracy    <       0.01096876 Ry

     iteration #  6     ecut=    40.00 Ry     beta=0.30
     Davidson diagonalization with overlap
     ethr =  8.57E-06,  avg # of iterations =  1.0

     total cpu time spent up to now is      224.8 secs

     total energy              =   -1109.86568789 Ry
     Harris-Foulkes estimate   =   -1109.86816228 Ry
     estimated scf accuracy    <       0.00682130 Ry

     iteration #  7     ecut=    40.00 Ry     beta=0.30
     Davidson diagonalization with overlap
     ethr =  5.33E-06,  avg # of iterations =  2.0

     total cpu time spent up to now is      260.6 secs

     total energy              =   -1109.86588619 Ry
     Harris-Foulkes estimate   =   -1109.86627119 Ry
     estimated scf accuracy    <       0.00106727 Ry

     iteration #  8     ecut=    40.00 Ry     beta=0.30
     Davidson diagonalization with overlap
     ethr =  8.34E-07,  avg # of iterations =  2.1

     total cpu time spent up to now is      296.0 secs

     total energy              =   -1109.86599367 Ry
     Harris-Foulkes estimate   =   -1109.86605879 Ry
     estimated scf accuracy    <       0.00019207 Ry

     iteration #  9     ecut=    40.00 Ry     beta=0.30
     Davidson diagonalization with overlap
     ethr =  1.50E-07,  avg # of iterations =  2.5

     total cpu time spent up to now is      333.5 secs

     total energy              =   -1109.86598616 Ry
     Harris-Foulkes estimate   =   -1109.86602172 Ry
     estimated scf accuracy    <       0.00015155 Ry

     iteration # 10     ecut=    40.00 Ry     beta=0.30
     Davidson diagonalization with overlap
     ethr =  1.18E-07,  avg # of iterations =  2.0

     total cpu time spent up to now is      366.2 secs

     total energy              =   -1109.86597567 Ry
     Harris-Foulkes estimate   =   -1109.86599268 Ry
     estimated scf accuracy    <       0.00005421 Ry

     iteration # 11     ecut=    40.00 Ry     beta=0.30
     Davidson diagonalization with overlap
     ethr =  4.24E-08,  avg # of iterations =  2.0

     total cpu time spent up to now is      401.8 secs

     total energy              =   -1109.86597893 Ry
     Harris-Foulkes estimate   =   -1109.86598196 Ry
     estimated scf accuracy    <       0.00000770 Ry

     iteration # 12     ecut=    40.00 Ry     beta=0.30
     Davidson diagonalization with overlap
     ethr =  6.02E-09,  avg # of iterations =  2.0

     total cpu time spent up to now is      438.6 secs

     total energy              =   -1109.86597871 Ry
     Harris-Foulkes estimate   =   -1109.86597969 Ry
     estimated scf accuracy    <       0.00000226 Ry

     iteration # 13     ecut=    40.00 Ry     beta=0.30
     Davidson diagonalization with overlap
     ethr =  1.76E-09,  avg # of iterations =  2.1

     total cpu time spent up to now is      473.5 secs

     total energy              =   -1109.86597910 Ry
     Harris-Foulkes estimate   =   -1109.86597914 Ry
     estimated scf accuracy    <       0.00000018 Ry

     iteration # 14     ecut=    40.00 Ry     beta=0.30
     Davidson diagonalization with overlap
     ethr =  1.39E-10,  avg # of iterations =  2.0

     total cpu time spent up to now is      509.2 secs

     total energy              =   -1109.86597912 Ry
     Harris-Foulkes estimate   =   -1109.86597913 Ry
     estimated scf accuracy    <       0.00000005 Ry

     iteration # 15     ecut=    40.00 Ry     beta=0.30
     Davidson diagonalization with overlap
     ethr =  4.02E-11,  avg # of iterations =  2.0

     total cpu time spent up to now is      543.5 secs

     total energy              =   -1109.86597912 Ry
     Harris-Foulkes estimate   =   -1109.86597912 Ry
     estimated scf accuracy    <       0.00000001 Ry

     iteration # 16     ecut=    40.00 Ry     beta=0.30
     Davidson diagonalization with overlap
     ethr =  9.98E-12,  avg # of iterations =  2.0

     total cpu time spent up to now is      577.7 secs

     total energy              =   -1109.86597912 Ry
     Harris-Foulkes estimate   =   -1109.86597912 Ry
     estimated scf accuracy    <          4.7E-09 Ry

     iteration # 17     ecut=    40.00 Ry     beta=0.30
     Davidson diagonalization with overlap
     ethr =  3.70E-12,  avg # of iterations =  2.0

     total cpu time spent up to now is      612.0 secs

     total energy              =   -1109.86597912 Ry
     Harris-Foulkes estimate   =   -1109.86597912 Ry
     estimated scf accuracy    <          1.5E-09 Ry

     iteration # 18     ecut=    40.00 Ry     beta=0.30
     Davidson diagonalization with overlap
     ethr =  1.19E-12,  avg # of iterations =  2.0

     total cpu time spent up to now is      648.3 secs

     total energy              =   -1109.86597912 Ry
     Harris-Foulkes estimate   =   -1109.86597912 Ry
     estimated scf accuracy    <          2.8E-10 Ry

     iteration # 19     ecut=    40.00 Ry     beta=0.30
     Davidson diagonalization with overlap
     ethr =  2.21E-13,  avg # of iterations =  2.0

     total cpu time spent up to now is      685.6 secs

     End of self-consistent calculation

          k = 0.0000 0.0000 0.0000 (  5251 PWs)   bands (ev):

   -65.9006 -65.4786 -64.8438 -64.7204 -64.5799 -32.8895 -32.8677 -32.8334
   -32.4899 -32.4460 -32.4067 -31.8519 -31.8281 -31.7778 -31.7229 -31.6881
   -31.6733 -31.5864 -31.5658 -31.5150 -29.7324 -29.5549 -29.4502 -11.8300
   -11.6953 -11.5360 -11.4622 -10.9415 -10.8619 -10.7385 -10.6443 -10.5515
    -8.9515  -8.1940  -8.0333  -7.9802  -7.5624  -7.3850  -7.2584  -7.1529
     2.9699   3.6698   3.7855   3.9480   4.4337   4.4740   4.7558   5.8634
     5.9512   6.0331   6.1627   6.2115   6.2367   6.3416   6.4415   6.4764
     6.5201   6.6105   6.6723   6.7411   6.8170   7.2693   7.3576   7.5261

     occupation numbers 
     1.0000   1.0000   1.0000   1.0000   1.0000   1.0000   1.0000   1.0000
     1.0000   1.0000   1.0000   1.0000   1.0000   1.0000   1.0000   1.0000
     1.0000   1.0000   1.0000   1.0000   1.0000   1.0000   1.0000   1.0000
     1.0000   1.0000   1.0000   1.0000   1.0000   1.0000   1.0000   1.0000
     1.0000   1.0000   1.0000   1.0000   1.0000   1.0000   1.0000   1.0000
     1.0000   1.0000   1.0000   1.0000   1.0000   1.0000   1.0000   1.0000
     1.0000   1.0000   1.0000   1.0000   1.0000   1.0000   1.0000   1.0000
     1.0000   1.0000   1.0000   1.0000   1.0000   1.0000   1.0000   1.0000

          k = 0.1928 0.1741-0.1778 (  5247 PWs)   bands (ev):

   -65.9006 -65.4786 -64.8438 -64.7204 -64.5799 -32.8895 -32.8677 -32.8334
   -32.4899 -32.4460 -32.4066 -31.8520 -31.8280 -31.7774 -31.7230 -31.6883
   -31.6734 -31.5865 -31.5658 -31.5153 -29.7269 -29.5596 -29.4509 -11.7599
   -11.6641 -11.5140 -11.4251 -11.0130 -10.8905 -10.7943 -10.7555 -10.5535
    -8.7566  -8.2093  -8.0356  -7.9739  -7.6049  -7.3892  -7.2691  -7.1993
     3.2405   3.9645   4.0275   4.1938   4.4332   4.5741   4.7451   5.5057
     5.7188   5.8697   5.9622   5.9988   6.1091   6.2135   6.3104   6.4614
     6.5132   6.6044   6.6858   6.7411   6.7699   6.9651   7.2487   7.4608

     occupation numbers 
     1.0000   1.0000   1.0000   1.0000   1.0000   1.0000   1.0000   1.0000
     1.0000   1.0000   1.0000   1.0000   1.0000   1.0000   1.0000   1.0000
     1.0000   1.0000   1.0000   1.0000   1.0000   1.0000   1.0000   1.0000
     1.0000   1.0000   1.0000   1.0000   1.0000   1.0000   1.0000   1.0000
     1.0000   1.0000   1.0000   1.0000   1.0000   1.0000   1.0000   1.0000
     1.0000   1.0000   1.0000   1.0000   1.0000   1.0000   1.0000   1.0000
     1.0000   1.0000   1.0000   1.0000   1.0000   1.0000   1.0000   1.0000
     1.0000   1.0000   1.0000   1.0000   1.0000   1.0000   1.0000   1.0000

          k =-0.3856-0.3483 0.3556 (  5248 PWs)   bands (ev):

   -65.9006 -65.4786 -64.8438 -64.7204 -64.5799 -32.8896 -32.8677 -32.8333
   -32.4900 -32.4460 -32.4065 -31.8520 -31.8279 -31.7771 -31.7231 -31.6885
   -31.6735 -31.5865 -31.5659 -31.5155 -29.7209 -29.5646 -29.4516 -11.7129
   -11.5810 -11.4778 -11.3806 -11.0964 -10.9877 -10.8859 -10.7930 -10.5549
    -8.4842  -8.1961  -8.1580  -7.9758  -7.6314  -7.4318  -7.2593  -7.2297
     3.7407   4.0643   4.4427   4.4645   4.7220   4.7420   4.8424   4.9144
     5.2492   5.4644   5.7341   5.8849   5.9419   6.0464   6.1042   6.2722
     6.3608   6.5507   6.6582   6.8906   6.9037   6.9939   7.1477   7.3502

     occupation numbers 
     1.0000   1.0000   1.0000   1.0000   1.0000   1.0000   1.0000   1.0000
     1.0000   1.0000   1.0000   1.0000   1.0000   1.0000   1.0000   1.0000
     1.0000   1.0000   1.0000   1.0000   1.0000   1.0000   1.0000   1.0000
     1.0000   1.0000   1.0000   1.0000   1.0000   1.0000   1.0000   1.0000
     1.0000   1.0000   1.0000   1.0000   1.0000   1.0000   1.0000   1.0000
     1.0000   1.0000   1.0000   1.0000   1.0000   1.0000   1.0000   1.0000
     1.0000   1.0000   1.0000   1.0000   1.0000   1.0000   1.0000   1.0000
     1.0000   1.0000   1.0000   1.0000   1.0000   1.0000   1.0000   1.0000

          k = 0.1929-0.1745 0.1775 (  5256 PWs)   bands (ev):

   -65.9006 -65.4786 -64.8438 -64.7204 -64.5800 -32.8895 -32.8677 -32.8334
   -32.4899 -32.4461 -32.4067 -31.8520 -31.8281 -31.7777 -31.7229 -31.6882
   -31.6728 -31.5867 -31.5660 -31.5153 -29.7285 -29.5547 -29.4542 -11.7988
   -11.6306 -11.4744 -11.4311 -10.9607 -10.9364 -10.8273 -10.6917 -10.6509
    -8.7280  -8.2148  -8.0572  -7.8788  -7.5808  -7.4262  -7.3072  -7.2116
     3.2347   3.9003   4.0583   4.2267   4.4035   4.5542   4.7389   5.5431
     5.6667   5.8628   5.9580   6.0160   6.0842   6.2135   6.3740   6.4390
     6.5498   6.6077   6.6778   6.7230   6.8417   7.0707   7.2689   7.3359

     occupation numbers 
     1.0000   1.0000   1.0000   1.0000   1.0000   1.0000   1.0000   1.0000
     1.0000   1.0000   1.0000   1.0000   1.0000   1.0000   1.0000   1.0000
     1.0000   1.0000   1.0000   1.0000   1.0000   1.0000   1.0000   1.0000
     1.0000   1.0000   1.0000   1.0000   1.0000   1.0000   1.0000   1.0000
     1.0000   1.0000   1.0000   1.0000   1.0000   1.0000   1.0000   1.0000
     1.0000   1.0000   1.0000   1.0000   1.0000   1.0000   1.0000   1.0000
     1.0000   1.0000   1.0000   1.0000   1.0000   1.0000   1.0000   1.0000
     1.0000   1.0000   1.0000   1.0000   1.0000   1.0000   1.0000   1.0000

          k = 0.3857-0.0003-0.0003 (  5274 PWs)   bands (ev):

   -65.9006 -65.4786 -64.8438 -64.7204 -64.5800 -32.8895 -32.8677 -32.8333
   -32.4899 -32.4461 -32.4066 -31.8520 -31.8282 -31.7776 -31.7230 -31.6881
   -31.6727 -31.5868 -31.5660 -31.5156 -29.7240 -29.5616 -29.4515 -11.7234
   -11.6232 -11.5005 -11.4391 -11.0279 -10.9090 -10.8539 -10.7593 -10.6074
    -8.6504  -8.2027  -8.0241  -7.9147  -7.5725  -7.4201  -7.3576  -7.2343
     3.4170   4.0036   4.0795   4.3297   4.4556   4.6048   4.7331   5.5353
     5.6066   5.7994   5.9189   5.9572   6.0628   6.1778   6.2756   6.3117
     6.4412   6.5960   6.6349   6.7796   6.8153   7.0578   7.1158   7.2600

     occupation numbers 
     1.0000   1.0000   1.0000   1.0000   1.0000   1.0000   1.0000   1.0000
     1.0000   1.0000   1.0000   1.0000   1.0000   1.0000   1.0000   1.0000
     1.0000   1.0000   1.0000   1.0000   1.0000   1.0000   1.0000   1.0000
     1.0000   1.0000   1.0000   1.0000   1.0000   1.0000   1.0000   1.0000
     1.0000   1.0000   1.0000   1.0000   1.0000   1.0000   1.0000   1.0000
     1.0000   1.0000   1.0000   1.0000   1.0000   1.0000   1.0000   1.0000
     1.0000   1.0000   1.0000   1.0000   1.0000   1.0000   1.0000   1.0000
     1.0000   1.0000   1.0000   1.0000   1.0000   1.0000   1.0000   1.0000

          k =-0.1928-0.5227 0.5331 (  5280 PWs)   bands (ev):

   -65.9006 -65.4786 -64.8438 -64.7204 -64.5800 -32.8896 -32.8677 -32.8333
   -32.4899 -32.4461 -32.4065 -31.8521 -31.8281 -31.7772 -31.7231 -31.6884
   -31.6728 -31.5868 -31.5661 -31.5159 -29.7179 -29.5668 -29.4521 -11.6145
   -11.5897 -11.4752 -11.3776 -11.1072 -11.0329 -10.9071 -10.8137 -10.6197
    -8.4841  -8.1900  -8.0208  -7.9002  -7.6358  -7.4968  -7.3246  -7.2500
     3.9018   4.1772   4.3641   4.4297   4.5714   4.7223   4.9174   5.1444
     5.3380   5.5100   5.6504   5.8157   5.8953   6.0276   6.2244   6.2642
     6.3759   6.5339   6.6522   6.7438   6.8114   6.8784   7.0207   7.2183

     occupation numbers 
     1.0000   1.0000   1.0000   1.0000   1.0000   1.0000   1.0000   1.0000
     1.0000   1.0000   1.0000   1.0000   1.0000   1.0000   1.0000   1.0000
     1.0000   1.0000   1.0000   1.0000   1.0000   1.0000   1.0000   1.0000
     1.0000   1.0000   1.0000   1.0000   1.0000   1.0000   1.0000   1.0000
     1.0000   1.0000   1.0000   1.0000   1.0000   1.0000   1.0000   1.0000
     1.0000   1.0000   1.0000   1.0000   1.0000   1.0000   1.0000   1.0000
     1.0000   1.0000   1.0000   1.0000   1.0000   1.0000   1.0000   1.0000
     1.0000   1.0000   1.0000   1.0000   1.0000   1.0000   1.0000   1.0000

          k = 0.0001-0.3486 0.3553 (  5258 PWs)   bands (ev):

   -65.9006 -65.4786 -64.8438 -64.7204 -64.5800 -32.8895 -32.8677 -32.8333
   -32.4899 -32.4461 -32.4066 -31.8520 -31.8280 -31.7773 -31.7230 -31.6885
   -31.6729 -31.5868 -31.5661 -31.5156 -29.7228 -29.5596 -29.4548 -11.7086
   -11.6050 -11.4392 -11.3896 -11.0382 -10.9799 -10.8682 -10.8229 -10.6463
    -8.5625  -8.2658  -7.9830  -7.8839  -7.6220  -7.4143  -7.3835  -7.2130
     3.5571   4.1947   4.2693   4.3914   4.4474   4.6792   4.9251   5.0813
     5.4219   5.6000   5.7804   5.9156   6.0492   6.1241   6.2645   6.3775
     6.4784   6.5282   6.6781   6.7149   6.7997   6.8623   7.1378   7.2576

     occupation numbers 
     1.0000   1.0000   1.0000   1.0000   1.0000   1.0000   1.0000   1.0000
     1.0000   1.0000   1.0000   1.0000   1.0000   1.0000   1.0000   1.0000
     1.0000   1.0000   1.0000   1.0000   1.0000   1.0000   1.0000   1.0000
     1.0000   1.0000   1.0000   1.0000   1.0000   1.0000   1.0000   1.0000
     1.0000   1.0000   1.0000   1.0000   1.0000   1.0000   1.0000   1.0000
     1.0000   1.0000   1.0000   1.0000   1.0000   1.0000   1.0000   1.0000
     1.0000   1.0000   1.0000   1.0000   1.0000   1.0000   1.0000   1.0000
     1.0000   1.0000   1.0000   1.0000   1.0000   1.0000   1.0000   1.0000

          k =-0.3858 0.3489-0.3551 (  5248 PWs)   bands (ev):

   -65.9006 -65.4786 -64.8438 -64.7204 -64.5800 -32.8895 -32.8677 -32.8333
   -32.4899 -32.4462 -32.4066 -31.8520 -31.8281 -31.7775 -31.7229 -31.6884
   -31.6722 -31.5870 -31.5662 -31.5156 -29.7245 -29.5544 -29.4583 -11.7904
   -11.4829 -11.4317 -11.3254 -11.1636 -10.9600 -10.9183 -10.7998 -10.6553
    -8.4332  -8.2030  -8.1578  -7.7741  -7.5951  -7.5113  -7.4486  -7.1832
     3.7979   3.9486   4.2627   4.4248   4.6501   4.7946   4.9006   5.1984
     5.2351   5.4502   5.6800   5.8089   5.8858   6.0432   6.2041   6.3376
     6.3882   6.5994   6.6823   6.7047   7.0003   7.0253   7.2085   7.3234

     occupation numbers 
     1.0000   1.0000   1.0000   1.0000   1.0000   1.0000   1.0000   1.0000
     1.0000   1.0000   1.0000   1.0000   1.0000   1.0000   1.0000   1.0000
     1.0000   1.0000   1.0000   1.0000   1.0000   1.0000   1.0000   1.0000
     1.0000   1.0000   1.0000   1.0000   1.0000   1.0000   1.0000   1.0000
     1.0000   1.0000   1.0000   1.0000   1.0000   1.0000   1.0000   1.0000
     1.0000   1.0000   1.0000   1.0000   1.0000   1.0000   1.0000   1.0000
     1.0000   1.0000   1.0000   1.0000   1.0000   1.0000   1.0000   1.0000
     1.0000   1.0000   1.0000   1.0000   1.0000   1.0000   1.0000   1.0000

          k =-0.1930 0.5231-0.5329 (  5281 PWs)   bands (ev):

   -65.9006 -65.4786 -64.8438 -64.7204 -64.5800 -32.8895 -32.8677 -32.8333
   -32.4899 -32.4461 -32.4065 -31.8521 -31.8282 -31.7774 -31.7230 -31.6883
   -31.6722 -31.5871 -31.5663 -31.5159 -29.7198 -29.5618 -29.4553 -11.7073
   -11.5206 -11.4113 -11.3150 -11.1745 -11.0354 -10.9319 -10.8121 -10.6563
    -8.4689  -8.1577  -8.0659  -7.7503  -7.6226  -7.5551  -7.4274  -7.2257
     3.9340   4.1112   4.2757   4.3683   4.5855   4.7829   4.9948   5.2216
     5.3380   5.5132   5.5872   5.7642   5.9002   6.0357   6.1801   6.2576
     6.4520   6.5557   6.6440   6.7563   6.8587   6.8814   7.0546   7.1692

     occupation numbers 
     1.0000   1.0000   1.0000   1.0000   1.0000   1.0000   1.0000   1.0000
     1.0000   1.0000   1.0000   1.0000   1.0000   1.0000   1.0000   1.0000
     1.0000   1.0000   1.0000   1.0000   1.0000   1.0000   1.0000   1.0000
     1.0000   1.0000   1.0000   1.0000   1.0000   1.0000   1.0000   1.0000
     1.0000   1.0000   1.0000   1.0000   1.0000   1.0000   1.0000   1.0000
     1.0000   1.0000   1.0000   1.0000   1.0000   1.0000   1.0000   1.0000
     1.0000   1.0000   1.0000   1.0000   1.0000   1.0000   1.0000   1.0000
     1.0000   1.0000   1.0000   1.0000   1.0000   1.0000   1.0000   1.0000

          k =-0.7714 0.0006 0.0005 (  5302 PWs)   bands (ev):

   -65.9006 -65.4786 -64.8438 -64.7204 -64.5800 -32.8896 -32.8677 -32.8333
   -32.4899 -32.4461 -32.4064 -31.8521 -31.8283 -31.7774 -31.7230 -31.6882
   -31.6721 -31.5871 -31.5663 -31.5162 -29.7148 -29.5692 -29.4526 -11.6053
   -11.5518 -11.3436 -11.3151 -11.2054 -11.1082 -11.0435 -10.8000 -10.6262
    -8.5046  -8.0882  -7.9534  -7.7908  -7.6345  -7.5751  -7.4325  -7.2641
     4.0569   4.2003   4.3243   4.4168   4.6406   4.8158   5.0679   5.2134
     5.2810   5.3915   5.5773   5.8141   5.9280   6.1187   6.1300   6.2685
     6.3205   6.4219   6.6057   6.7189   6.7485   6.8027   6.9537   7.1026

     occupation numbers 
     1.0000   1.0000   1.0000   1.0000   1.0000   1.0000   1.0000   1.0000
     1.0000   1.0000   1.0000   1.0000   1.0000   1.0000   1.0000   1.0000
     1.0000   1.0000   1.0000   1.0000   1.0000   1.0000   1.0000   1.0000
     1.0000   1.0000   1.0000   1.0000   1.0000   1.0000   1.0000   1.0000
     1.0000   1.0000   1.0000   1.0000   1.0000   1.0000   1.0000   1.0000
     1.0000   1.0000   1.0000   1.0000   1.0000   1.0000   1.0000   1.0000
     1.0000   1.0000   1.0000   1.0000   1.0000   1.0000   1.0000   1.0000
     1.0000   1.0000   1.0000   1.0000   1.0000   1.0000   1.0000   1.0000

          k =-0.1931 0.1753 0.1786 (  5248 PWs)   bands (ev):

   -65.9006 -65.4786 -64.8438 -64.7204 -64.5799 -32.8896 -32.8677 -32.8334
   -32.4899 -32.4460 -32.4065 -31.8521 -31.8281 -31.7779 -31.7231 -31.6881
   -31.6733 -31.5865 -31.5658 -31.5150 -29.7320 -29.5546 -29.4501 -11.8326
   -11.6923 -11.5478 -11.4922 -10.9393 -10.8576 -10.7408 -10.6439 -10.5512
    -8.7563  -8.2210  -8.0977  -8.0387  -7.5831  -7.3341  -7.2758  -7.1953
     3.2493   3.8632   4.0054   4.2435   4.4429   4.5446   4.6921   5.5872
     5.7238   5.8268   5.9129   5.9991   6.0534   6.2409   6.3581   6.4923
     6.5293   6.6393   6.6715   6.7597   6.8473   7.0302   7.2317   7.3757

     occupation numbers 
     1.0000   1.0000   1.0000   1.0000   1.0000   1.0000   1.0000   1.0000
     1.0000   1.0000   1.0000   1.0000   1.0000   1.0000   1.0000   1.0000
     1.0000   1.0000   1.0000   1.0000   1.0000   1.0000   1.0000   1.0000
     1.0000   1.0000   1.0000   1.0000   1.0000   1.0000   1.0000   1.0000
     1.0000   1.0000   1.0000   1.0000   1.0000   1.0000   1.0000   1.0000
     1.0000   1.0000   1.0000   1.0000   1.0000   1.0000   1.0000   1.0000
     1.0000   1.0000   1.0000   1.0000   1.0000   1.0000   1.0000   1.0000
     1.0000   1.0000   1.0000   1.0000   1.0000   1.0000   1.0000   1.0000

          k =-0.0003 0.3494 0.0008 (  5255 PWs)   bands (ev):

   -65.9006 -65.4786 -64.8438 -64.7204 -64.5799 -32.8895 -32.8677 -32.8334
   -32.4899 -32.4460 -32.4067 -31.8520 -31.8280 -31.7774 -31.7230 -31.6883
   -31.6734 -31.5864 -31.5659 -31.5152 -29.7268 -29.5595 -29.4509 -11.7643
   -11.6622 -11.5053 -11.4357 -11.0176 -10.8863 -10.7986 -10.7512 -10.5530
    -8.7524  -8.2266  -8.0352  -7.9361  -7.6001  -7.3982  -7.2672  -7.2171
     3.2543   3.9186   4.0602   4.2090   4.4419   4.6317   4.8505   5.5427
     5.6225   5.8310   5.8637   6.0037   6.0670   6.1681   6.3563   6.4234
     6.4464   6.5982   6.7284   6.7914   6.8342   6.9096   7.2136   7.3849

     occupation numbers 
     1.0000   1.0000   1.0000   1.0000   1.0000   1.0000   1.0000   1.0000
     1.0000   1.0000   1.0000   1.0000   1.0000   1.0000   1.0000   1.0000
     1.0000   1.0000   1.0000   1.0000   1.0000   1.0000   1.0000   1.0000
     1.0000   1.0000   1.0000   1.0000   1.0000   1.0000   1.0000   1.0000
     1.0000   1.0000   1.0000   1.0000   1.0000   1.0000   1.0000   1.0000
     1.0000   1.0000   1.0000   1.0000   1.0000   1.0000   1.0000   1.0000
     1.0000   1.0000   1.0000   1.0000   1.0000   1.0000   1.0000   1.0000
     1.0000   1.0000   1.0000   1.0000   1.0000   1.0000   1.0000   1.0000

          k =-0.5788-0.1730 0.5342 (  5251 PWs)   bands (ev):

   -65.9006 -65.4786 -64.8438 -64.7204 -64.5800 -32.8896 -32.8677 -32.8333
   -32.4899 -32.4460 -32.4066 -31.8520 -31.8279 -31.7770 -31.7231 -31.6885
   -31.6735 -31.5865 -31.5660 -31.5155 -29.7209 -29.5646 -29.4516 -11.7175
   -11.5814 -11.4718 -11.3826 -11.1000 -10.9876 -10.8874 -10.7907 -10.5545
    -8.5344  -8.2385  -8.0411  -7.9175  -7.6862  -7.4425  -7.2828  -7.2181
     3.6724   4.2500   4.3145   4.4891   4.5718   4.8148   4.9005   5.0330
     5.2264   5.5505   5.6169   5.8333   5.9838   6.0177   6.1774   6.3506
     6.4467   6.5464   6.6405   6.7193   6.8120   6.9769   7.0431   7.3444

     occupation numbers 
     1.0000   1.0000   1.0000   1.0000   1.0000   1.0000   1.0000   1.0000
     1.0000   1.0000   1.0000   1.0000   1.0000   1.0000   1.0000   1.0000
     1.0000   1.0000   1.0000   1.0000   1.0000   1.0000   1.0000   1.0000
     1.0000   1.0000   1.0000   1.0000   1.0000   1.0000   1.0000   1.0000
     1.0000   1.0000   1.0000   1.0000   1.0000   1.0000   1.0000   1.0000
     1.0000   1.0000   1.0000   1.0000   1.0000   1.0000   1.0000   1.0000
     1.0000   1.0000   1.0000   1.0000   1.0000   1.0000   1.0000   1.0000
     1.0000   1.0000   1.0000   1.0000   1.0000   1.0000   1.0000   1.0000

          k =-0.3860 0.0011 0.3564 (  5266 PWs)   bands (ev):

   -65.9006 -65.4786 -64.8438 -64.7204 -64.5799 -32.8896 -32.8677 -32.8334
   -32.4899 -32.4460 -32.4064 -31.8521 -31.8280 -31.7775 -31.7232 -31.6884
   -31.6734 -31.5865 -31.5659 -31.5153 -29.7264 -29.5593 -29.4508 -11.7661
   -11.6569 -11.5363 -11.4465 -11.0084 -10.8893 -10.7957 -10.7497 -10.5529
    -8.5212  -8.2171  -8.1313  -8.0300  -7.6611  -7.4211  -7.2343  -7.2091
     3.6688   4.2015   4.2896   4.3790   4.5531   4.6466   4.7278   5.1799
     5.4417   5.5684   5.7282   5.8692   5.9318   6.0746   6.2412   6.3332
     6.4164   6.5223   6.6010   6.7703   6.8673   7.0002   7.1712   7.3041

     occupation numbers 
     1.0000   1.0000   1.0000   1.0000   1.0000   1.0000   1.0000   1.0000
     1.0000   1.0000   1.0000   1.0000   1.0000   1.0000   1.0000   1.0000
     1.0000   1.0000   1.0000   1.0000   1.0000   1.0000   1.0000   1.0000
     1.0000   1.0000   1.0000   1.0000   1.0000   1.0000   1.0000   1.0000
     1.0000   1.0000   1.0000   1.0000   1.0000   1.0000   1.0000   1.0000
     1.0000   1.0000   1.0000   1.0000   1.0000   1.0000   1.0000   1.0000
     1.0000   1.0000   1.0000   1.0000   1.0000   1.0000   1.0000   1.0000
     1.0000   1.0000   1.0000   1.0000   1.0000   1.0000   1.0000   1.0000

          k =-0.0003 0.0008 0.3561 (  5234 PWs)   bands (ev):

   -65.9006 -65.4786 -64.8438 -64.7204 -64.5800 -32.8895 -32.8677 -32.8334
   -32.4899 -32.4461 -32.4066 -31.8521 -31.8281 -31.7777 -31.7230 -31.6883
   -31.6727 -31.5868 -31.5659 -31.5153 -29.7284 -29.5547 -29.4541 -11.8032
   -11.6209 -11.4759 -11.4375 -10.9600 -10.9371 -10.8298 -10.6910 -10.6509
    -8.7047  -8.2744  -7.9834  -7.9213  -7.5708  -7.4070  -7.3551  -7.1831
     3.3175   3.9244   4.0459   4.2165   4.4309   4.5930   4.8551   5.5330
     5.6563   5.8429   5.9376   6.0076   6.0862   6.1762   6.2891   6.4332
     6.4911   6.5669   6.6473   6.7108   6.7552   6.8739   7.2715   7.4343

     occupation numbers 
     1.0000   1.0000   1.0000   1.0000   1.0000   1.0000   1.0000   1.0000
     1.0000   1.0000   1.0000   1.0000   1.0000   1.0000   1.0000   1.0000
     1.0000   1.0000   1.0000   1.0000   1.0000   1.0000   1.0000   1.0000
     1.0000   1.0000   1.0000   1.0000   1.0000   1.0000   1.0000   1.0000
     1.0000   1.0000   1.0000   1.0000   1.0000   1.0000   1.0000   1.0000
     1.0000   1.0000   1.0000   1.0000   1.0000   1.0000   1.0000   1.0000
     1.0000   1.0000   1.0000   1.0000   1.0000   1.0000   1.0000   1.0000
     1.0000   1.0000   1.0000   1.0000   1.0000   1.0000   1.0000   1.0000

          k = 0.1926 0.1750 0.1784 (  5240 PWs)   bands (ev):

   -65.9006 -65.4786 -64.8438 -64.7204 -64.5800 -32.8895 -32.8677 -32.8333
   -32.4899 -32.4461 -32.4067 -31.8520 -31.8282 -31.7775 -31.7229 -31.6881
   -31.6727 -31.5867 -31.5660 -31.5155 -29.7243 -29.5619 -29.4515 -11.7261
   -11.6192 -11.4990 -11.4176 -11.0228 -10.9149 -10.8581 -10.7596 -10.6089
    -8.7451  -8.2168  -7.9554  -7.8848  -7.5933  -7.4486  -7.3335  -7.2067
     3.2485   3.9115   3.9990   4.2650   4.4134   4.5420   4.7635   5.5870
     5.7025   5.8227   5.9174   6.0278   6.1233   6.2382   6.3317   6.4171
     6.5919   6.6167   6.6590   6.7688   6.8523   6.9253   7.1842   7.4372

     occupation numbers 
     1.0000   1.0000   1.0000   1.0000   1.0000   1.0000   1.0000   1.0000
     1.0000   1.0000   1.0000   1.0000   1.0000   1.0000   1.0000   1.0000
     1.0000   1.0000   1.0000   1.0000   1.0000   1.0000   1.0000   1.0000
     1.0000   1.0000   1.0000   1.0000   1.0000   1.0000   1.0000   1.0000
     1.0000   1.0000   1.0000   1.0000   1.0000   1.0000   1.0000   1.0000
     1.0000   1.0000   1.0000   1.0000   1.0000   1.0000   1.0000   1.0000
     1.0000   1.0000   1.0000   1.0000   1.0000   1.0000   1.0000   1.0000
     1.0000   1.0000   1.0000   1.0000   1.0000   1.0000   1.0000   1.0000

          k =-0.3859-0.3475 0.7117 (  5273 PWs)   bands (ev):

   -65.9006 -65.4786 -64.8438 -64.7204 -64.5800 -32.8895 -32.8677 -32.8333
   -32.4900 -32.4461 -32.4066 -31.8520 -31.8280 -31.7771 -31.7230 -31.6883
   -31.6728 -31.5868 -31.5660 -31.5158 -29.7182 -29.5671 -29.4522 -11.6078
   -11.5890 -11.4787 -11.3717 -11.1041 -11.0281 -10.9012 -10.8226 -10.6199
    -8.5470  -8.1993  -7.9510  -7.9213  -7.6542  -7.4459  -7.3310  -7.2650
     3.6642   4.2177   4.2799   4.4392   4.5619   4.6576   4.8428   5.1033
     5.3687   5.5701   5.7336   5.8517   5.9487   6.1191   6.2403   6.3382
     6.4130   6.5994   6.6248   6.7307   6.8543   6.9942   7.0343   7.3159

     occupation numbers 
     1.0000   1.0000   1.0000   1.0000   1.0000   1.0000   1.0000   1.0000
     1.0000   1.0000   1.0000   1.0000   1.0000   1.0000   1.0000   1.0000
     1.0000   1.0000   1.0000   1.0000   1.0000   1.0000   1.0000   1.0000
     1.0000   1.0000   1.0000   1.0000   1.0000   1.0000   1.0000   1.0000
     1.0000   1.0000   1.0000   1.0000   1.0000   1.0000   1.0000   1.0000
     1.0000   1.0000   1.0000   1.0000   1.0000   1.0000   1.0000   1.0000
     1.0000   1.0000   1.0000   1.0000   1.0000   1.0000   1.0000   1.0000
     1.0000   1.0000   1.0000   1.0000   1.0000   1.0000   1.0000   1.0000

          k =-0.1931-0.1733 0.5339 (  5261 PWs)   bands (ev):

   -65.9006 -65.4786 -64.8438 -64.7204 -64.5800 -32.8896 -32.8676 -32.8334
   -32.4899 -32.4461 -32.4065 -31.8521 -31.8280 -31.7774 -31.7231 -31.6885
   -31.6728 -31.5869 -31.5660 -31.5156 -29.7226 -29.5596 -29.4548 -11.7125
   -11.5939 -11.4573 -11.3957 -11.0299 -10.9782 -10.8745 -10.8173 -10.6454
    -8.4774  -8.2677  -8.0163  -7.9274  -7.6426  -7.4590  -7.3076  -7.2309
     3.7844   4.2609   4.3113   4.4460   4.5102   4.7408   4.9118   5.1125
     5.2532   5.5404   5.6836   5.8640   5.8989   6.0929   6.1639   6.2797
     6.3253   6.5487   6.6731   6.7316   6.8109   6.9111   7.0440   7.3772

     occupation numbers 
     1.0000   1.0000   1.0000   1.0000   1.0000   1.0000   1.0000   1.0000
     1.0000   1.0000   1.0000   1.0000   1.0000   1.0000   1.0000   1.0000
     1.0000   1.0000   1.0000   1.0000   1.0000   1.0000   1.0000   1.0000
     1.0000   1.0000   1.0000   1.0000   1.0000   1.0000   1.0000   1.0000
     1.0000   1.0000   1.0000   1.0000   1.0000   1.0000   1.0000   1.0000
     1.0000   1.0000   1.0000   1.0000   1.0000   1.0000   1.0000   1.0000
     1.0000   1.0000   1.0000   1.0000   1.0000   1.0000   1.0000   1.0000
     1.0000   1.0000   1.0000   1.0000   1.0000   1.0000   1.0000   1.0000

          k =-0.5789 0.5242-0.1765 (  5258 PWs)   bands (ev):

   -65.9006 -65.4786 -64.8438 -64.7204 -64.5800 -32.8895 -32.8676 -32.8334
   -32.4899 -32.4461 -32.4066 -31.8521 -31.8281 -31.7776 -31.7230 -31.6884
   -31.6722 -31.5871 -31.5662 -31.5156 -29.7243 -29.5544 -29.4582 -11.7926
   -11.4793 -11.4237 -11.3372 -11.1625 -10.9626 -10.9170 -10.7996 -10.6551
    -8.4546  -8.2873  -8.0231  -7.7920  -7.6121  -7.5313  -7.3870  -7.2150
     3.7919   4.1643   4.2817   4.4389   4.5362   4.7353   4.9746   5.1790
     5.2648   5.5034   5.6337   5.7981   5.8973   6.0275   6.2537   6.3291
     6.3997   6.5595   6.6093   6.7309   6.8411   6.9377   7.1586   7.2630

     occupation numbers 
     1.0000   1.0000   1.0000   1.0000   1.0000   1.0000   1.0000   1.0000
     1.0000   1.0000   1.0000   1.0000   1.0000   1.0000   1.0000   1.0000
     1.0000   1.0000   1.0000   1.0000   1.0000   1.0000   1.0000   1.0000
     1.0000   1.0000   1.0000   1.0000   1.0000   1.0000   1.0000   1.0000
     1.0000   1.0000   1.0000   1.0000   1.0000   1.0000   1.0000   1.0000
     1.0000   1.0000   1.0000   1.0000   1.0000   1.0000   1.0000   1.0000
     1.0000   1.0000   1.0000   1.0000   1.0000   1.0000   1.0000   1.0000
     1.0000   1.0000   1.0000   1.0000   1.0000   1.0000   1.0000   1.0000

          k =-0.3861 0.6984-0.3542 (  5265 PWs)   bands (ev):

   -65.9006 -65.4786 -64.8438 -64.7204 -64.5800 -32.8895 -32.8676 -32.8333
   -32.4899 -32.4461 -32.4067 -31.8520 -31.8282 -31.7774 -31.7229 -31.6883
   -31.6721 -31.5870 -31.5662 -31.5158 -29.7200 -29.5621 -29.4554 -11.7063
   -11.5189 -11.3989 -11.3194 -11.1696 -11.0305 -10.9366 -10.8135 -10.6576
    -8.5027  -8.2100  -8.0152  -7.7583  -7.6248  -7.5066  -7.4354  -7.2323
     3.6883   4.1410   4.2432   4.3473   4.6163   4.7316   4.8170   5.1371
     5.4227   5.6373   5.6821   5.8131   5.9472   6.0783   6.2497   6.3314
     6.4393   6.5088   6.6232   6.7821   6.9444   6.9842   7.1138   7.2634

     occupation numbers 
     1.0000   1.0000   1.0000   1.0000   1.0000   1.0000   1.0000   1.0000
     1.0000   1.0000   1.0000   1.0000   1.0000   1.0000   1.0000   1.0000
     1.0000   1.0000   1.0000   1.0000   1.0000   1.0000   1.0000   1.0000
     1.0000   1.0000   1.0000   1.0000   1.0000   1.0000   1.0000   1.0000
     1.0000   1.0000   1.0000   1.0000   1.0000   1.0000   1.0000   1.0000
     1.0000   1.0000   1.0000   1.0000   1.0000   1.0000   1.0000   1.0000
     1.0000   1.0000   1.0000   1.0000   1.0000   1.0000   1.0000   1.0000
     1.0000   1.0000   1.0000   1.0000   1.0000   1.0000   1.0000   1.0000

          k =-0.9646 0.1759 0.1791 (  5279 PWs)   bands (ev):

   -65.9006 -65.4786 -64.8438 -64.7204 -64.5800 -32.8895 -32.8677 -32.8333
   -32.4899 -32.4461 -32.4066 -31.8521 -31.8283 -31.7773 -31.7230 -31.6882
   -31.6721 -31.5871 -31.5662 -31.5161 -29.7150 -29.5695 -29.4527 -11.6053
   -11.5433 -11.3454 -11.3173 -11.1985 -11.1028 -11.0445 -10.8020 -10.6276
    -8.5042  -8.1513  -7.9445  -7.7955  -7.6450  -7.5104  -7.4410  -7.2634
     3.9450   4.1507   4.2475   4.3863   4.5715   4.7881   5.0141   5.2156
     5.2700   5.4428   5.6400   5.8165   5.9817   6.0711   6.1958   6.3298
     6.3619   6.4985   6.6267   6.7684   6.8328   6.8743   6.9696   7.2182

     occupation numbers 
     1.0000   1.0000   1.0000   1.0000   1.0000   1.0000   1.0000   1.0000
     1.0000   1.0000   1.0000   1.0000   1.0000   1.0000   1.0000   1.0000
     1.0000   1.0000   1.0000   1.0000   1.0000   1.0000   1.0000   1.0000
     1.0000   1.0000   1.0000   1.0000   1.0000   1.0000   1.0000   1.0000
     1.0000   1.0000   1.0000   1.0000   1.0000   1.0000   1.0000   1.0000
     1.0000   1.0000   1.0000   1.0000   1.0000   1.0000   1.0000   1.0000
     1.0000   1.0000   1.0000   1.0000   1.0000   1.0000   1.0000   1.0000
     1.0000   1.0000   1.0000   1.0000   1.0000   1.0000   1.0000   1.0000

          k =-0.7717 0.3501 0.0013 (  5274 PWs)   bands (ev):

   -65.9006 -65.4786 -64.8438 -64.7204 -64.5800 -32.8896 -32.8676 -32.8333
   -32.4899 -32.4461 -32.4065 -31.8522 -31.8282 -31.7775 -31.7231 -31.6883
   -31.6721 -31.5872 -31.5662 -31.5159 -29.7196 -29.5618 -29.4553 -11.7102
   -11.5165 -11.4083 -11.3251 -11.1702 -11.0319 -10.9410 -10.8084 -10.6556
    -8.4597  -8.2200  -7.9450  -7.8614  -7.5855  -7.5472  -7.4142  -7.2372
     4.1120   4.2216   4.3075   4.4088   4.5358   4.8313   4.9743   5.0877
     5.2107   5.4091   5.5888   5.8479   5.9258   6.1287   6.2078   6.2818
     6.3850   6.4698   6.5846   6.6630   6.6840   6.8974   7.0223   7.1936

     occupation numbers 
     1.0000   1.0000   1.0000   1.0000   1.0000   1.0000   1.0000   1.0000
     1.0000   1.0000   1.0000   1.0000   1.0000   1.0000   1.0000   1.0000
     1.0000   1.0000   1.0000   1.0000   1.0000   1.0000   1.0000   1.0000
     1.0000   1.0000   1.0000   1.0000   1.0000   1.0000   1.0000   1.0000
     1.0000   1.0000   1.0000   1.0000   1.0000   1.0000   1.0000   1.0000
     1.0000   1.0000   1.0000   1.0000   1.0000   1.0000   1.0000   1.0000
     1.0000   1.0000   1.0000   1.0000   1.0000   1.0000   1.0000   1.0000
     1.0000   1.0000   1.0000   1.0000   1.0000   1.0000   1.0000   1.0000

          k =-0.3860 0.3497 0.0011 (  5275 PWs)   bands (ev):

   -65.9006 -65.4786 -64.8438 -64.7204 -64.5800 -32.8895 -32.8677 -32.8334
   -32.4899 -32.4461 -32.4065 -31.8521 -31.8282 -31.7777 -31.7231 -31.6883
   -31.6728 -31.5868 -31.5661 -31.5153 -29.7280 -29.5544 -29.4541 -11.8012
   -11.6283 -11.4987 -11.4511 -10.9626 -10.9235 -10.8327 -10.6833 -10.6499
    -8.5131  -8.2049  -8.1381  -7.9418  -7.6377  -7.4513  -7.3358  -7.1710
     3.6559   4.1403   4.2336   4.3585   4.5351   4.6840   4.8695   5.2158
     5.4197   5.4734   5.6610   5.8916   5.9893   6.0936   6.2734   6.4020
     6.4525   6.4909   6.6300   6.6940   6.8297   7.0132   7.2066   7.3023

     occupation numbers 
     1.0000   1.0000   1.0000   1.0000   1.0000   1.0000   1.0000   1.0000
     1.0000   1.0000   1.0000   1.0000   1.0000   1.0000   1.0000   1.0000
     1.0000   1.0000   1.0000   1.0000   1.0000   1.0000   1.0000   1.0000
     1.0000   1.0000   1.0000   1.0000   1.0000   1.0000   1.0000   1.0000
     1.0000   1.0000   1.0000   1.0000   1.0000   1.0000   1.0000   1.0000
     1.0000   1.0000   1.0000   1.0000   1.0000   1.0000   1.0000   1.0000
     1.0000   1.0000   1.0000   1.0000   1.0000   1.0000   1.0000   1.0000
     1.0000   1.0000   1.0000   1.0000   1.0000   1.0000   1.0000   1.0000

          k =-0.1932 0.5239-0.1767 (  5250 PWs)   bands (ev):

   -65.9006 -65.4786 -64.8438 -64.7204 -64.5800 -32.8895 -32.8677 -32.8333
   -32.4899 -32.4461 -32.4066 -31.8520 -31.8280 -31.7772 -31.7230 -31.6884
   -31.6729 -31.5867 -31.5662 -31.5156 -29.7227 -29.5595 -29.4548 -11.7072
   -11.6089 -11.4347 -11.4114 -11.0390 -10.9673 -10.8635 -10.8287 -10.6448
    -8.4887  -8.2217  -8.0950  -7.8325  -7.6536  -7.4813  -7.3314  -7.2231
     3.6734   4.1620   4.3701   4.4150   4.5546   4.7645   4.9106   5.2119
     5.3090   5.4617   5.6290   5.7726   5.9299   6.0394   6.2170   6.2818
     6.4957   6.5893   6.6484   6.7319   6.7826   6.9941   7.1372   7.2845

     occupation numbers 
     1.0000   1.0000   1.0000   1.0000   1.0000   1.0000   1.0000   1.0000
     1.0000   1.0000   1.0000   1.0000   1.0000   1.0000   1.0000   1.0000
     1.0000   1.0000   1.0000   1.0000   1.0000   1.0000   1.0000   1.0000
     1.0000   1.0000   1.0000   1.0000   1.0000   1.0000   1.0000   1.0000
     1.0000   1.0000   1.0000   1.0000   1.0000   1.0000   1.0000   1.0000
     1.0000   1.0000   1.0000   1.0000   1.0000   1.0000   1.0000   1.0000
     1.0000   1.0000   1.0000   1.0000   1.0000   1.0000   1.0000   1.0000
     1.0000   1.0000   1.0000   1.0000   1.0000   1.0000   1.0000   1.0000

          k =-0.7717 0.0015 0.3567 (  5265 PWs)   bands (ev):

   -65.9006 -65.4786 -64.8438 -64.7204 -64.5800 -32.8896 -32.8677 -32.8333
   -32.4899 -32.4461 -32.4065 -31.8521 -31.8281 -31.7772 -31.7231 -31.6884
   -31.6729 -31.5868 -31.5662 -31.5158 -29.7179 -29.5668 -29.4521 -11.6261
   -11.5845 -11.4720 -11.3768 -11.1091 -11.0313 -10.9125 -10.8101 -10.6199
    -8.4756  -8.1635  -8.0466  -7.8941  -7.6447  -7.4392  -7.3914  -7.2413
     3.9240   4.2003   4.3427   4.5100   4.6124   4.8599   4.9627   5.0590
     5.2318   5.3207   5.6085   5.7884   5.9127   6.0873   6.2221   6.3430
     6.3929   6.5536   6.6494   6.7170   6.7637   6.8624   6.9431   7.1682

     occupation numbers 
     1.0000   1.0000   1.0000   1.0000   1.0000   1.0000   1.0000   1.0000
     1.0000   1.0000   1.0000   1.0000   1.0000   1.0000   1.0000   1.0000
     1.0000   1.0000   1.0000   1.0000   1.0000   1.0000   1.0000   1.0000
     1.0000   1.0000   1.0000   1.0000   1.0000   1.0000   1.0000   1.0000
     1.0000   1.0000   1.0000   1.0000   1.0000   1.0000   1.0000   1.0000
     1.0000   1.0000   1.0000   1.0000   1.0000   1.0000   1.0000   1.0000
     1.0000   1.0000   1.0000   1.0000   1.0000   1.0000   1.0000   1.0000
     1.0000   1.0000   1.0000   1.0000   1.0000   1.0000   1.0000   1.0000

          k =-0.5789 0.1756 0.1789 (  5277 PWs)   bands (ev):

   -65.9006 -65.4786 -64.8438 -64.7204 -64.5800 -32.8896 -32.8677 -32.8334
   -32.4898 -32.4460 -32.4064 -31.8522 -31.8283 -31.7777 -31.7231 -31.6882
   -31.6727 -31.5868 -31.5661 -31.5156 -29.7235 -29.5613 -29.4513 -11.7328
   -11.6166 -11.5005 -11.4700 -11.0244 -10.9102 -10.8575 -10.7513 -10.6064
    -8.4964  -8.1769  -8.0527  -7.9729  -7.6841  -7.4530  -7.3147  -7.2107
     3.8995   4.1616   4.2147   4.4759   4.5772   4.7021   4.8535   5.2023
     5.3828   5.4889   5.6920   5.7636   5.9468   6.0267   6.1394   6.3781
     6.4662   6.5567   6.6242   6.6945   6.7691   6.9211   7.0554   7.2003

     occupation numbers 
     1.0000   1.0000   1.0000   1.0000   1.0000   1.0000   1.0000   1.0000
     1.0000   1.0000   1.0000   1.0000   1.0000   1.0000   1.0000   1.0000
     1.0000   1.0000   1.0000   1.0000   1.0000   1.0000   1.0000   1.0000
     1.0000   1.0000   1.0000   1.0000   1.0000   1.0000   1.0000   1.0000
     1.0000   1.0000   1.0000   1.0000   1.0000   1.0000   1.0000   1.0000
     1.0000   1.0000   1.0000   1.0000   1.0000   1.0000   1.0000   1.0000
     1.0000   1.0000   1.0000   1.0000   1.0000   1.0000   1.0000   1.0000
     1.0000   1.0000   1.0000   1.0000   1.0000   1.0000   1.0000   1.0000

          k = 0.3863-0.3506-0.3572 (  5252 PWs)   bands (ev):

   -65.9006 -65.4786 -64.8438 -64.7204 -64.5799 -32.8896 -32.8677 -32.8334
   -32.4898 -32.4460 -32.4064 -31.8522 -31.8282 -31.7780 -31.7232 -31.6882
   -31.6734 -31.5866 -31.5659 -31.5150 -29.7315 -29.5543 -29.4499 -11.8363
   -11.6897 -11.5754 -11.5015 -10.9368 -10.8534 -10.7428 -10.6434 -10.5508
    -8.5206  -8.2376  -8.1444  -8.0640  -7.7386  -7.3953  -7.2320  -7.1570
     3.7228   4.1072   4.1993   4.3433   4.6168   4.6831   4.9143   5.0642
     5.4484   5.5276   5.6426   5.8231   5.8800   5.9663   6.2623   6.3000
     6.4537   6.5179   6.7546   6.8438   6.8651   7.0020   7.2262   7.3314

     occupation numbers 
     1.0000   1.0000   1.0000   1.0000   1.0000   1.0000   1.0000   1.0000
     1.0000   1.0000   1.0000   1.0000   1.0000   1.0000   1.0000   1.0000
     1.0000   1.0000   1.0000   1.0000   1.0000   1.0000   1.0000   1.0000
     1.0000   1.0000   1.0000   1.0000   1.0000   1.0000   1.0000   1.0000
     1.0000   1.0000   1.0000   1.0000   1.0000   1.0000   1.0000   1.0000
     1.0000   1.0000   1.0000   1.0000   1.0000   1.0000   1.0000   1.0000
     1.0000   1.0000   1.0000   1.0000   1.0000   1.0000   1.0000   1.0000
     1.0000   1.0000   1.0000   1.0000   1.0000   1.0000   1.0000   1.0000

          k = 0.5791-0.1764-0.5350 (  5244 PWs)   bands (ev):

   -65.9006 -65.4786 -64.8438 -64.7204 -64.5799 -32.8896 -32.8677 -32.8334
   -32.4899 -32.4460 -32.4065 -31.8521 -31.8281 -31.7775 -31.7232 -31.6883
   -31.6735 -31.5865 -31.5660 -31.5153 -29.7264 -29.5592 -29.4508 -11.7701
   -11.6562 -11.5296 -11.4538 -11.0129 -10.8854 -10.7993 -10.7460 -10.5525
    -8.5212  -8.2474  -8.1097  -7.9832  -7.6842  -7.3996  -7.2783  -7.1966
     3.6784   4.1347   4.3065   4.4441   4.5780   4.7615   4.8273   5.2781
     5.3511   5.4276   5.6245   5.8118   5.9079   5.9724   6.2492   6.3527
     6.4047   6.5579   6.6452   6.8069   6.8817   6.9800   7.0552   7.3003

     occupation numbers 
     1.0000   1.0000   1.0000   1.0000   1.0000   1.0000   1.0000   1.0000
     1.0000   1.0000   1.0000   1.0000   1.0000   1.0000   1.0000   1.0000
     1.0000   1.0000   1.0000   1.0000   1.0000   1.0000   1.0000   1.0000
     1.0000   1.0000   1.0000   1.0000   1.0000   1.0000   1.0000   1.0000
     1.0000   1.0000   1.0000   1.0000   1.0000   1.0000   1.0000   1.0000
     1.0000   1.0000   1.0000   1.0000   1.0000   1.0000   1.0000   1.0000
     1.0000   1.0000   1.0000   1.0000   1.0000   1.0000   1.0000   1.0000
     1.0000   1.0000   1.0000   1.0000   1.0000   1.0000   1.0000   1.0000

          k = 0.0006-0.6988-0.0016 (  5260 PWs)   bands (ev):

   -65.9006 -65.4786 -64.8438 -64.7204 -64.5800 -32.8895 -32.8677 -32.8333
   -32.4899 -32.4460 -32.4066 -31.8520 -31.8280 -31.7769 -31.7231 -31.6885
   -31.6736 -31.5865 -31.5661 -31.5155 -29.7209 -29.5645 -29.4516 -11.7218
   -11.5797 -11.4569 -11.3973 -11.1034 -10.9876 -10.8882 -10.7889 -10.5541
    -8.5154  -8.2997  -8.0192  -7.8892  -7.6507  -7.4224  -7.3044  -7.2533
     3.6595   4.1316   4.3114   4.4016   4.7828   4.9182   5.0412   5.1660
     5.2839   5.4413   5.5986   5.7244   5.8295   6.0072   6.1313   6.2319
     6.3787   6.5524   6.6574   6.7455   6.8898   6.9375   7.1179   7.2731

     occupation numbers 
     1.0000   1.0000   1.0000   1.0000   1.0000   1.0000   1.0000   1.0000
     1.0000   1.0000   1.0000   1.0000   1.0000   1.0000   1.0000   1.0000
     1.0000   1.0000   1.0000   1.0000   1.0000   1.0000   1.0000   1.0000
     1.0000   1.0000   1.0000   1.0000   1.0000   1.0000   1.0000   1.0000
     1.0000   1.0000   1.0000   1.0000   1.0000   1.0000   1.0000   1.0000
     1.0000   1.0000   1.0000   1.0000   1.0000   1.0000   1.0000   1.0000
     1.0000   1.0000   1.0000   1.0000   1.0000   1.0000   1.0000   1.0000
     1.0000   1.0000   1.0000   1.0000   1.0000   1.0000   1.0000   1.0000

          k = 0.5792-0.5250-0.1797 (  5259 PWs)   bands (ev):

   -65.9006 -65.4786 -64.8438 -64.7204 -64.5800 -32.8896 -32.8677 -32.8334
   -32.4899 -32.4460 -32.4064 -31.8522 -31.8281 -31.7778 -31.7231 -31.6883
   -31.6728 -31.5869 -31.5660 -31.5153 -29.7279 -29.5544 -29.4540 -11.8054
   -11.6189 -11.5073 -11.4496 -10.9609 -10.9256 -10.8350 -10.6826 -10.6499
    -8.4837  -8.2650  -8.0549  -8.0069  -7.6586  -7.4139  -7.3015  -7.2051
     3.7861   4.1404   4.2981   4.4260   4.5945   4.6729   4.8525   5.2138
     5.3064   5.4215   5.7114   5.7989   5.9501   6.0692   6.2049   6.3547
     6.4400   6.5153   6.5929   6.7478   6.8439   6.9048   7.1496   7.2829

     occupation numbers 
     1.0000   1.0000   1.0000   1.0000   1.0000   1.0000   1.0000   1.0000
     1.0000   1.0000   1.0000   1.0000   1.0000   1.0000   1.0000   1.0000
     1.0000   1.0000   1.0000   1.0000   1.0000   1.0000   1.0000   1.0000
     1.0000   1.0000   1.0000   1.0000   1.0000   1.0000   1.0000   1.0000
     1.0000   1.0000   1.0000   1.0000   1.0000   1.0000   1.0000   1.0000
     1.0000   1.0000   1.0000   1.0000   1.0000   1.0000   1.0000   1.0000
     1.0000   1.0000   1.0000   1.0000   1.0000   1.0000   1.0000   1.0000
     1.0000   1.0000   1.0000   1.0000   1.0000   1.0000   1.0000   1.0000

          k = 0.7720-0.3509-0.3575 (  5262 PWs)   bands (ev):

   -65.9006 -65.4786 -64.8438 -64.7204 -64.5800 -32.8896 -32.8677 -32.8334
   -32.4899 -32.4460 -32.4066 -31.8521 -31.8282 -31.7776 -31.7230 -31.6882
   -31.6727 -31.5868 -31.5661 -31.5156 -29.7238 -29.5616 -29.4514 -11.7337
   -11.6128 -11.4937 -11.4572 -11.0188 -10.9167 -10.8615 -10.7514 -10.6080
    -8.5803  -8.2324  -8.0289  -7.9455  -7.5981  -7.4142  -7.3475  -7.2207
     3.5831   4.0811   4.2139   4.3543   4.4925   4.6583   4.9618   5.1894
     5.3724   5.5647   5.8385   5.9514   6.0261   6.1653   6.3039   6.3389
     6.4813   6.5600   6.6425   6.7162   6.7612   6.9044   7.0759   7.3018

     occupation numbers 
     1.0000   1.0000   1.0000   1.0000   1.0000   1.0000   1.0000   1.0000
     1.0000   1.0000   1.0000   1.0000   1.0000   1.0000   1.0000   1.0000
     1.0000   1.0000   1.0000   1.0000   1.0000   1.0000   1.0000   1.0000
     1.0000   1.0000   1.0000   1.0000   1.0000   1.0000   1.0000   1.0000
     1.0000   1.0000   1.0000   1.0000   1.0000   1.0000   1.0000   1.0000
     1.0000   1.0000   1.0000   1.0000   1.0000   1.0000   1.0000   1.0000
     1.0000   1.0000   1.0000   1.0000   1.0000   1.0000   1.0000   1.0000
     1.0000   1.0000   1.0000   1.0000   1.0000   1.0000   1.0000   1.0000

          k = 0.1935-0.8733 0.1759 (  5249 PWs)   bands (ev):

   -65.9006 -65.4786 -64.8438 -64.7204 -64.5800 -32.8895 -32.8677 -32.8333
   -32.4899 -32.4461 -32.4067 -31.8520 -31.8281 -31.7771 -31.7230 -31.6883
   -31.6728 -31.5867 -31.5661 -31.5158 -29.7181 -29.5671 -29.4522 -11.6192
   -11.5857 -11.4693 -11.3751 -11.1070 -11.0281 -10.9059 -10.8177 -10.6201
    -8.5329  -8.1958  -8.0005  -7.8378  -7.6747  -7.4829  -7.3371  -7.2470
     3.6962   4.1992   4.3116   4.4011   4.5742   4.7248   4.9619   5.1648
     5.3477   5.5261   5.6425   5.7830   5.8826   6.0586   6.2011   6.3589
     6.4796   6.5129   6.6327   6.7482   6.8370   6.9042   7.0915   7.3215

     occupation numbers 
     1.0000   1.0000   1.0000   1.0000   1.0000   1.0000   1.0000   1.0000
     1.0000   1.0000   1.0000   1.0000   1.0000   1.0000   1.0000   1.0000
     1.0000   1.0000   1.0000   1.0000   1.0000   1.0000   1.0000   1.0000
     1.0000   1.0000   1.0000   1.0000   1.0000   1.0000   1.0000   1.0000
     1.0000   1.0000   1.0000   1.0000   1.0000   1.0000   1.0000   1.0000
     1.0000   1.0000   1.0000   1.0000   1.0000   1.0000   1.0000   1.0000
     1.0000   1.0000   1.0000   1.0000   1.0000   1.0000   1.0000   1.0000
     1.0000   1.0000   1.0000   1.0000   1.0000   1.0000   1.0000   1.0000

          k = 0.3864-0.6992-0.0019 (  5241 PWs)   bands (ev):

   -65.9006 -65.4786 -64.8438 -64.7204 -64.5800 -32.8896 -32.8677 -32.8333
   -32.4899 -32.4461 -32.4066 -31.8521 -31.8280 -31.7773 -31.7231 -31.6885
   -31.6729 -31.5868 -31.5661 -31.5156 -29.7226 -29.5596 -29.4547 -11.7118
   -11.5976 -11.4622 -11.4071 -11.0307 -10.9647 -10.8709 -10.8220 -10.6439
    -8.4322  -8.2037  -8.0475  -7.9380  -7.7055  -7.4597  -7.3243  -7.2184
     4.0076   4.2049   4.3718   4.5340   4.6265   4.7983   4.9559   5.0337
     5.1346   5.3192   5.4722   5.6941   5.9428   6.0426   6.2177   6.3526
     6.4375   6.5226   6.6184   6.7099   6.7489   7.0044   7.0865   7.2505

     occupation numbers 
     1.0000   1.0000   1.0000   1.0000   1.0000   1.0000   1.0000   1.0000
     1.0000   1.0000   1.0000   1.0000   1.0000   1.0000   1.0000   1.0000
     1.0000   1.0000   1.0000   1.0000   1.0000   1.0000   1.0000   1.0000
     1.0000   1.0000   1.0000   1.0000   1.0000   1.0000   1.0000   1.0000
     1.0000   1.0000   1.0000   1.0000   1.0000   1.0000   1.0000   1.0000
     1.0000   1.0000   1.0000   1.0000   1.0000   1.0000   1.0000   1.0000
     1.0000   1.0000   1.0000   1.0000   1.0000   1.0000   1.0000   1.0000
     1.0000   1.0000   1.0000   1.0000   1.0000   1.0000   1.0000   1.0000

          k = 0.0005-0.0016-0.7123 (  5230 PWs)   bands (ev):

   -65.9006 -65.4786 -64.8438 -64.7204 -64.5800 -32.8896 -32.8676 -32.8334
   -32.4899 -32.4461 -32.4065 -31.8522 -31.8280 -31.7777 -31.7231 -31.6884
   -31.6722 -31.5872 -31.5661 -31.5156 -29.7242 -29.5544 -29.4582 -11.7945
   -11.4758 -11.4151 -11.3478 -11.1618 -10.9666 -10.9170 -10.7993 -10.6548
    -8.4602  -8.3231  -7.9165  -7.8699  -7.5726  -7.5168  -7.4324  -7.2059
     3.8781   4.1043   4.2876   4.4398   4.6718   4.8457   4.9972   5.1446
     5.3044   5.3888   5.7220   5.8245   5.9823   6.0225   6.1111   6.2534
     6.3156   6.4077   6.5458   6.6106   6.7509   6.9571   7.2042   7.3296

     occupation numbers 
     1.0000   1.0000   1.0000   1.0000   1.0000   1.0000   1.0000   1.0000
     1.0000   1.0000   1.0000   1.0000   1.0000   1.0000   1.0000   1.0000
     1.0000   1.0000   1.0000   1.0000   1.0000   1.0000   1.0000   1.0000
     1.0000   1.0000   1.0000   1.0000   1.0000   1.0000   1.0000   1.0000
     1.0000   1.0000   1.0000   1.0000   1.0000   1.0000   1.0000   1.0000
     1.0000   1.0000   1.0000   1.0000   1.0000   1.0000   1.0000   1.0000
     1.0000   1.0000   1.0000   1.0000   1.0000   1.0000   1.0000   1.0000
     1.0000   1.0000   1.0000   1.0000   1.0000   1.0000   1.0000   1.0000

          k = 0.1933 0.1725-0.8901 (  5265 PWs)   bands (ev):

   -65.9006 -65.4786 -64.8438 -64.7204 -64.5800 -32.8895 -32.8676 -32.8333
   -32.4899 -32.4461 -32.4066 -31.8521 -31.8281 -31.7774 -31.7230 -31.6883
   -31.6721 -31.5871 -31.5661 -31.5159 -29.7199 -29.5621 -29.4553 -11.7090
   -11.5143 -11.3960 -11.3296 -11.1656 -11.0274 -10.9460 -10.8097 -10.6569
    -8.4807  -8.2747  -7.9193  -7.8062  -7.6580  -7.4899  -7.4168  -7.2358
     3.8158   4.2095   4.2715   4.3472   4.5309   4.7968   4.9278   5.1859
     5.2968   5.5633   5.6412   5.7917   5.9711   6.0576   6.2199   6.3299
     6.3526   6.4808   6.6003   6.7064   6.8832   6.9533   7.0298   7.3402

     occupation numbers 
     1.0000   1.0000   1.0000   1.0000   1.0000   1.0000   1.0000   1.0000
     1.0000   1.0000   1.0000   1.0000   1.0000   1.0000   1.0000   1.0000
     1.0000   1.0000   1.0000   1.0000   1.0000   1.0000   1.0000   1.0000
     1.0000   1.0000   1.0000   1.0000   1.0000   1.0000   1.0000   1.0000
     1.0000   1.0000   1.0000   1.0000   1.0000   1.0000   1.0000   1.0000
     1.0000   1.0000   1.0000   1.0000   1.0000   1.0000   1.0000   1.0000
     1.0000   1.0000   1.0000   1.0000   1.0000   1.0000   1.0000   1.0000
     1.0000   1.0000   1.0000   1.0000   1.0000   1.0000   1.0000   1.0000

          k =-0.3851-0.3499-0.3567 (  5248 PWs)   bands (ev):

   -65.9006 -65.4786 -64.8438 -64.7204 -64.5800 -32.8895 -32.8676 -32.8333
   -32.4899 -32.4461 -32.4067 -31.8520 -31.8282 -31.7772 -31.7229 -31.6881
   -31.6720 -31.5870 -31.5662 -31.5161 -29.7153 -29.5698 -29.4528 -11.6062
   -11.5337 -11.3460 -11.3209 -11.1918 -11.0985 -11.0442 -10.8034 -10.6289
    -8.5092  -8.1961  -7.9660  -7.7571  -7.6603  -7.4599  -7.4521  -7.2673
     3.8422   3.9745   4.2477   4.3844   4.6705   4.7986   4.9102   5.1153
     5.3475   5.4617   5.6185   5.8322   5.9557   6.0045   6.1924   6.3409
     6.4328   6.5469   6.7883   6.8428   6.9287   6.9778   7.0215   7.3041

     occupation numbers 
     1.0000   1.0000   1.0000   1.0000   1.0000   1.0000   1.0000   1.0000
     1.0000   1.0000   1.0000   1.0000   1.0000   1.0000   1.0000   1.0000
     1.0000   1.0000   1.0000   1.0000   1.0000   1.0000   1.0000   1.0000
     1.0000   1.0000   1.0000   1.0000   1.0000   1.0000   1.0000   1.0000
     1.0000   1.0000   1.0000   1.0000   1.0000   1.0000   1.0000   1.0000
     1.0000   1.0000   1.0000   1.0000   1.0000   1.0000   1.0000   1.0000
     1.0000   1.0000   1.0000   1.0000   1.0000   1.0000   1.0000   1.0000
     1.0000   1.0000   1.0000   1.0000   1.0000   1.0000   1.0000   1.0000

     highest occupied level (ev):     7.5261

!    total energy              =   -1109.86597912 Ry
     Harris-Foulkes estimate   =   -1109.86597912 Ry
     estimated scf accuracy    <          8.0E-11 Ry

     The total energy is the sum of the following terms:

     one-electron contribution =    -548.97308257 Ry
     hartree contribution      =     319.22858606 Ry
     xc contribution           =    -177.71810942 Ry
     ewald contribution        =    -702.40337319 Ry

     convergence has been achieved in  19 iterations

     Forces acting on atoms (Ry/au):

     atom    1 type  1   force =  -0.34641786E-01  0.39202454E-01 -0.66490496E-02
     atom    2 type  3   force =  -0.26262907E-01  0.46217659E-01  0.88832249E-02
     atom    3 type  1   force =  -0.70624857E-01  0.28537708E-01 -0.47659249E-02
     atom    4 type  3   force =   0.19127880E-01 -0.13178271E-01 -0.30790840E-01
     atom    5 type  1   force =  -0.13726289E-01 -0.78991674E-01  0.39207233E-01
     atom    6 type  3   force =  -0.18146250E-01 -0.26973857E-01  0.31757803E-01
     atom    7 type  2   force =  -0.36757782E-01 -0.14900195E-01  0.35714116E-01
     atom    8 type  3   force =  -0.35711178E-02  0.65509730E-02 -0.96203253E-02
     atom    9 type  2   force =   0.21121621E-01 -0.15095103E-01 -0.11175723E-01
     atom   10 type  3   force =  -0.34989914E-01  0.63632426E-01  0.13232864E-01
     atom   11 type  2   force =  -0.31787424E-01  0.94552041E-03  0.11201815E-01
     atom   12 type  3   force =   0.10052858E+00  0.25447834E-01  0.98645491E-02
     atom   13 type  2   force =   0.41166249E-01 -0.34403959E-01 -0.20276725E-01
     atom   14 type  3   force =   0.53703448E-01 -0.30868855E-01 -0.55118012E-01
     atom   15 type  2   force =   0.33231546E-01 -0.15893527E-01 -0.24443111E-01
     atom   16 type  3   force =   0.16289994E-02  0.19770867E-01  0.12978105E-01
     The non-local contrib.  to forces
     atom    1 type  1   force =   0.30035816E-02  0.10231657E-01  0.37865205E-01
     atom    2 type  3   force =  -0.38343729E-01  0.20433542E-01 -0.30398204E-01
     atom    3 type  1   force =  -0.20412062E-01 -0.21376358E-01 -0.42936958E-02
     atom    4 type  3   force =  -0.32130426E-01 -0.82645288E-01 -0.12755158E+00
     atom    5 type  1   force =  -0.19251053E-01 -0.49903258E-01 -0.10655016E-01
     atom    6 type  3   force =  -0.97845931E-02 -0.26878664E-01  0.91910908E-01
     atom    7 type  2   force =  -0.81579300E-01  0.50438037E-01 -0.12939070E+00
     atom    8 type  3   force =  -0.67410222E-01  0.28943793E-01  0.70500586E-01
     atom    9 type  2   force =   0.21354978E+00 -0.27043157E-01  0.33086101E-01
     atom   10 type  3   force =  -0.46759624E-01  0.10538548E+00  0.96001660E-01
     atom   11 type  2   force =  -0.20041752E+00  0.28150338E-01  0.15530674E+00
     atom   12 type  3   force =   0.20175592E+00  0.11109575E+00  0.61798299E-01
     atom   13 type  2   force =  -0.66500653E-01 -0.20033993E+00 -0.18972375E+00
     atom   14 type  3   force =   0.94925245E-01 -0.18105855E+00 -0.13312776E+00
     atom   15 type  2   force =   0.55253762E-01  0.10188710E+00  0.18834966E+00
     atom   16 type  3   force =  -0.25929679E-01  0.10081091E+00 -0.19998292E-01
     The ionic contribution  to forces
     atom    1 type  1   force =  -0.40260645E+00  0.23371359E+01  0.24584109E+00
     atom    2 type  3   force =  -0.15233612E+01 -0.42022168E-01  0.15440650E-01
     atom    3 type  1   force =  -0.23635219E+01  0.42518689E+00 -0.96499591E-01
     atom    4 type  3   force =   0.25753279E+01  0.67875840E+00 -0.11784227E+01
     atom    5 type  1   force =  -0.10008846E+01 -0.22596154E+01  0.65665332E+00
     atom    6 type  3   force =   0.10914353E+01 -0.25986760E+01  0.70202859E+00
     atom    7 type  2   force =  -0.32578507E+00  0.22924275E+00  0.73985360E+00
     atom    8 type  3   force =   0.14699749E+01 -0.85861077E+00 -0.24568322E+01
     atom    9 type  2   force =   0.23326920E+01 -0.10882241E+00 -0.22873556E+00
     atom   10 type  3   force =  -0.22325388E+01  0.23033451E+01  0.32913638E+00
     atom   11 type  2   force =  -0.21653152E+01 -0.20265888E+00  0.87749329E+00
     atom   12 type  3   force =   0.78822028E-02  0.64750250E+00 -0.81197596E+00
     atom   13 type  2   force =   0.46534463E+00 -0.24736540E+01 -0.25856812E+01
     atom   14 type  3   force =  -0.74894560E-01  0.58641572E+00  0.38973178E+00
     atom   15 type  2   force =   0.18485028E+01  0.20510800E+00  0.14002602E+01
     atom   16 type  3   force =   0.29774802E+00  0.11313644E+01  0.20017083E+01
     The local contribution  to forces
     atom    1 type  1   force =   0.36418972E+00 -0.23075425E+01 -0.29146108E+00
     atom    2 type  3   force =   0.15348257E+01  0.68957419E-01  0.23987515E-01
     atom    3 type  1   force =   0.23131452E+01 -0.37403989E+00  0.96296599E-01
     atom    4 type  3   force =  -0.25240653E+01 -0.60981306E+00  0.12743362E+01
     atom    5 type  1   force =   0.10068597E+01  0.22303082E+01 -0.60576094E+00
     atom    6 type  3   force =  -0.11003181E+01  0.25980543E+01 -0.76125439E+00
     atom    7 type  2   force =   0.37061372E+00 -0.29457663E+00 -0.57475614E+00
     atom    8 type  3   force =  -0.14066906E+01  0.83650286E+00  0.23768609E+01
     atom    9 type  2   force =  -0.25251231E+01  0.12076977E+00  0.18447978E+00
     atom   10 type  3   force =   0.22438728E+01 -0.23438662E+01 -0.41153223E+00
     atom   11 type  2   force =   0.23339439E+01  0.17546168E+00 -0.10215951E+01
     atom   12 type  3   force =  -0.10660009E+00 -0.73250487E+00  0.76041142E+00
     atom   13 type  2   force =  -0.35768583E+00  0.26395869E+01  0.27551322E+01
     atom   14 type  3   force =   0.35137675E-01 -0.43738319E+00 -0.31340880E+00
     atom   15 type  2   force =  -0.18705245E+01 -0.32288226E+00 -0.16130524E+01
     atom   16 type  3   force =  -0.27027367E+00 -0.12115876E+01 -0.19686789E+01
     The core correction contribution to forces
     atom    1 type  1   force =   0.76938500E-03 -0.62398686E-03  0.11091965E-02
     atom    2 type  3   force =   0.61363169E-03 -0.11513436E-02 -0.14837551E-03
     atom    3 type  1   force =   0.16594705E-03 -0.12340662E-02 -0.27822876E-03
     atom    4 type  3   force =  -0.27525968E-05  0.52251540E-03  0.84649823E-03
     atom    5 type  1   force =  -0.45608065E-03  0.20578679E-03 -0.10311849E-02
     atom    6 type  3   force =   0.52346346E-03  0.52567985E-03 -0.92685605E-03
     atom    7 type  2   force =   0.00000000E+00  0.00000000E+00  0.00000000E+00
     atom    8 type  3   force =   0.55265187E-03 -0.28683085E-03 -0.15129855E-03
     atom    9 type  2   force =   0.00000000E+00  0.00000000E+00  0.00000000E+00
     atom   10 type  3   force =   0.43377297E-03 -0.12268582E-02 -0.37166461E-03
     atom   11 type  2   force =   0.00000000E+00  0.00000000E+00  0.00000000E+00
     atom   12 type  3   force =  -0.25127733E-02 -0.64711873E-03 -0.37142665E-03
     atom   13 type  2   force =   0.00000000E+00  0.00000000E+00  0.00000000E+00
     atom   14 type  3   force =  -0.14662894E-02  0.11544770E-02  0.16851271E-02
     atom   15 type  2   force =   0.00000000E+00  0.00000000E+00  0.00000000E+00
     atom   16 type  3   force =   0.84420475E-04 -0.81557367E-03 -0.47229574E-04
     The Hubbard contrib.    to forces
     atom    1 type  1   force =   0.00000000E+00  0.00000000E+00  0.00000000E+00
     atom    2 type  3   force =   0.00000000E+00  0.00000000E+00  0.00000000E+00
     atom    3 type  1   force =   0.00000000E+00  0.00000000E+00  0.00000000E+00
     atom    4 type  3   force =   0.00000000E+00  0.00000000E+00  0.00000000E+00
     atom    5 type  1   force =   0.00000000E+00  0.00000000E+00  0.00000000E+00
     atom    6 type  3   force =   0.00000000E+00  0.00000000E+00  0.00000000E+00
     atom    7 type  2   force =   0.00000000E+00  0.00000000E+00  0.00000000E+00
     atom    8 type  3   force =   0.00000000E+00  0.00000000E+00  0.00000000E+00
     atom    9 type  2   force =   0.00000000E+00  0.00000000E+00  0.00000000E+00
     atom   10 type  3   force =   0.00000000E+00  0.00000000E+00  0.00000000E+00
     atom   11 type  2   force =   0.00000000E+00  0.00000000E+00  0.00000000E+00
     atom   12 type  3   force =   0.00000000E+00  0.00000000E+00  0.00000000E+00
     atom   13 type  2   force =   0.00000000E+00  0.00000000E+00  0.00000000E+00
     atom   14 type  3   force =   0.00000000E+00  0.00000000E+00  0.00000000E+00
     atom   15 type  2   force =   0.00000000E+00  0.00000000E+00  0.00000000E+00
     atom   16 type  3   force =   0.00000000E+00  0.00000000E+00  0.00000000E+00
     The SCF correction term to forces
     atom    1 type  1   force =   0.75001743E-06  0.73929738E-06 -0.34928388E-05
     atom    2 type  3   force =   0.15007296E-05 -0.48014075E-06  0.16137309E-05
     atom    3 type  1   force =  -0.32395254E-05  0.43683157E-06  0.89664358E-05
     atom    4 type  3   force =  -0.27838837E-05 -0.15354675E-05  0.69097634E-06
     atom    5 type  1   force =   0.45262730E-05  0.12328675E-04  0.10249666E-05
     atom    6 type  3   force =  -0.35409426E-05  0.11642460E-06 -0.47237557E-06
     atom    7 type  2   force =  -0.83590896E-05 -0.50382860E-05  0.73338921E-05
     atom    8 type  3   force =   0.97063083E-06  0.12340623E-05  0.16120694E-05
     atom    9 type  2   force =   0.16643094E-05  0.20326000E-08 -0.60764916E-05
     atom   10 type  3   force =   0.71375176E-06 -0.57130238E-05 -0.13005886E-05
     atom   11 type  2   force =   0.13068169E-06 -0.83080749E-05 -0.31534089E-05
     atom   12 type  3   force =   0.20934774E-05  0.88167555E-06  0.21834956E-05
     atom   13 type  2   force =   0.68722456E-05  0.24240403E-05 -0.39229410E-05
     atom   14 type  3   force =   0.15204945E-06  0.20045186E-05  0.16235039E-05
     atom   15 type  2   force =  -0.17081698E-05 -0.70469407E-05 -0.55484864E-06
     atom   16 type  3   force =  -0.13136174E-05 -0.19915191E-05 -0.58056453E-05

     Total force =     0.238625     Total SCF correction =     0.000028


     entering subroutine stress ...

          total   stress  (Ry/bohr**3)                   (kbar)     P=    8.34
   0.0006822219  -0.0000844693   0.0000381229        100.36    -12.43      5.61
  -0.0000844693  -0.0003171828   0.0000027353        -12.43    -46.66      0.40
   0.0000381229   0.0000027353  -0.0001950560          5.61      0.40    -28.69

     kinetic stress (kbar)  21004.58    -36.94      5.25
                              -36.94  20798.48     15.34
                                5.25     15.34  20840.67

     local   stress (kbar) -10536.96   -578.43   -637.09
                             -578.43   -847.23    550.87
                             -637.09    550.87  -1601.91

     nonloc. stress (kbar)   5399.62      3.92      0.61
                                3.92   5372.67     -0.12
                                0.61     -0.12   5367.72

     hartree stress (kbar)  14975.21    283.25    291.20
                              283.25  11462.27   -251.80
                              291.20   -251.80  11704.31

     exc-cor stress (kbar)  -5791.77      0.08      0.29
                                0.08  -5799.59     -0.17
                                0.29     -0.17  -5798.79

     corecor stress (kbar)   -867.35      0.12     -0.01
                                0.12   -866.40     -0.06
                               -0.01     -0.06   -866.58

     ewald   stress (kbar) -24082.97    315.57    345.35
                              315.57 -30166.87   -313.66
                              345.35   -313.66 -29674.11

     hubbard stress (kbar)      0.00      0.00      0.00
                                0.00      0.00      0.00
                                0.00      0.00      0.00

     london  stress (kbar)      0.00      0.00      0.00
                                0.00      0.00      0.00
                                0.00      0.00      0.00

     XDM     stress (kbar)      0.00      0.00      0.00
                                0.00      0.00      0.00
                                0.00      0.00      0.00

     dft-nl  stress (kbar)      0.00      0.00      0.00
                                0.00      0.00      0.00
                                0.00      0.00      0.00



     Writing output data file mix.dummy4512.save

     init_run     :     12.87s CPU     14.28s WALL (       1 calls)
     electrons    :    609.85s CPU    670.57s WALL (       1 calls)
     forces       :      4.81s CPU      5.16s WALL (       1 calls)
     stress       :      8.47s CPU      8.79s WALL (       1 calls)

     Called by init_run:
     wfcinit      :     11.36s CPU     12.72s WALL (       1 calls)
     potinit      :      0.43s CPU      0.44s WALL (       1 calls)

     Called by electrons:
     c_bands      :    540.32s CPU    595.60s WALL (      19 calls)
     sum_band     :     63.95s CPU     69.21s WALL (      19 calls)
     v_of_rho     :      0.63s CPU      0.70s WALL (      20 calls)
     v_h          :      0.03s CPU      0.04s WALL (      20 calls)
     v_xc         :      0.65s CPU      0.71s WALL (      22 calls)
     newd         :      4.01s CPU      4.04s WALL (      20 calls)
     mix_rho      :      1.02s CPU      1.10s WALL (      19 calls)

     Called by c_bands:
     init_us_2    :      2.98s CPU      3.05s WALL (    1476 calls)
     cegterg      :    516.63s CPU    570.34s WALL (     684 calls)

     Called by sum_band:
     sum_band:bec :      0.87s CPU      0.80s WALL (     684 calls)
     addusdens    :      3.76s CPU      3.78s WALL (      19 calls)

     Called by *egterg:
     h_psi        :    255.26s CPU    273.66s WALL (    2047 calls)
     s_psi        :     27.60s CPU     29.45s WALL (    2047 calls)
     g_psi        :      0.31s CPU      0.30s WALL (    1327 calls)
     cdiaghg      :     70.98s CPU     81.33s WALL (    2011 calls)
     cegterg:over :     82.76s CPU     92.17s WALL (    1327 calls)
     cegterg:upda :      9.76s CPU     13.01s WALL (    1327 calls)
     cegterg:last :      6.07s CPU      7.19s WALL (     684 calls)

     Called by h_psi:
     h_psi:vloc   :    153.60s CPU    158.20s WALL (    2047 calls)
     h_psi:vnl    :    101.27s CPU    115.02s WALL (    2047 calls)
     add_vuspsi   :     27.61s CPU     31.54s WALL (    2047 calls)

     General routines
     calbec       :    103.48s CPU    118.10s WALL (    2803 calls)
     fft          :      1.10s CPU      1.16s WALL (     341 calls)
     ffts         :      0.67s CPU      0.67s WALL (     511 calls)
     fftw         :    172.24s CPU    177.34s WALL (  258084 calls)
     interpolate  :      0.12s CPU      0.14s WALL (      39 calls)

     Parallel routines
     fft_scatter  :     78.88s CPU     81.41s WALL (  258936 calls)

     PWSCF        : 10m38.81s CPU    11m42.08s WALL


   This run was terminated on:   3:23:58   8Dec2017            

=------------------------------------------------------------------------------=
   JOB DONE.
=------------------------------------------------------------------------------=
