
     Program PWSCF v.5.1 starts on  7Dec2017 at 20:54:16 

     This program is part of the open-source Quantum ESPRESSO suite
     for quantum simulation of materials; please cite
         "P. Giannozzi et al., J. Phys.:Condens. Matter 21 395502 (2009);
          URL http://www.quantum-espresso.org", 
     in publications or presentations arising from this work. More details at
     http://www.quantum-espresso.org/quote

     Parallel version (MPI), running on    16 processors
     R & G space division:  proc/nbgrp/npool/nimage =      16
     Waiting for input...
     Reading input from standard input
Warning: card &IONS ignored
Warning: card   ION_DYNAMICS='BFGS', ignored
Warning: card / ignored
Warning: card &CELL ignored
Warning: card  CELL_DYNAMICS = 'BFGS' ignored
Warning: card / ignored

     Current dimensions of program PWSCF are:
     Max number of different atomic species (ntypx) = 10
     Max number of k-points (npk) =  40000
     Max angular momentum in pseudopotentials (lmaxx) =  3
 kfg - two_fermi_energies  F

     Subspace diagonalization in iterative solution of the eigenvalue problem:
     a serial algorithm will be used


     Parallelization info
     --------------------
     sticks:   dense  smooth     PW     G-vecs:    dense   smooth      PW
     Min         130     104     30                 3702     2640     415
     Max         131     105     31                 3705     2655     418
     Sum        2083    1667    487                59255    42393    6663



     bravais-lattice index     =            0
     lattice parameter (alat)  =    12.391877426  a.u.
     unit-cell volume          =    1239.5991 (a.u.)^3
     number of atoms/cell      =           16
     number of atomic types    =            3
     number of electrons       =       128.00
     number of Kohn-Sham states=           64
     kinetic-energy cutoff     =      40.0000  Ry
     charge density cutoff     =     200.0000  Ry
     convergence threshold     =      1.0E-10
     mixing beta               =       0.3000
     number of iterations used =            8  local-TF  mixing
     Exchange-correlation      = SLA  PW   PSX  PSC ( 1  4 10  8 0)
     A smooth kinetic-energy cutoff is imposed at      39.5000 Ry
     height of the smooth step-function =             800.0000 Ry
     width of the smooth step-function  =               1.0000 Ry


     celldm(1)=  12.391877  celldm(2)=   0.000000  celldm(3)=   0.000000
     celldm(4)=   0.000000  celldm(5)=   0.000000  celldm(6)=   0.000000

     crystal axes: (cart. coord. in units of alat)
               a(1) = (   0.001575481422   0.695458531082   0.718564506084 )  
               a(2) = (   0.717742039688   0.025126368084   0.695013619422 )  
               a(3) = (   0.707068845172   0.661234449903   0.035799562601 )  

     reciprocal axes: (cart. coord. in units 2 pi/alat)
               b(1) = ( -0.704090  0.714928  0.701269 )  
               b(2) = (  0.691157 -0.779847  0.753255 )  
               b(3) = (  0.714268  0.790026 -0.766188 )  


     PseudoPot. # 1 for Ca read from file:
     /users/kfg/psuedo/gbrv_1.5/ca.pbesol.UPF
     MD5 check sum: 0533207b58cddeaa036efa5b63902087
     Pseudo is Ultrasoft + core correction, Zval = 10.0
     Generated by new atomic code, or converted to UPF format
     Using radial grid of  845 points,  6 beta functions with: 
                l(1) =   0
                l(2) =   0
                l(3) =   1
                l(4) =   1
                l(5) =   2
                l(6) =   2
     Q(r) pseudized with  8 coefficients,  rinner =    1.500   1.500   1.500
                                                       1.500   1.500

     PseudoPot. # 2 for Mg read from file:
     /users/kfg/psuedo/gbrv_1.5/mg.pbesol.UPF
     MD5 check sum: 4059f37963cf5867752dbf5ab2400678
     Pseudo is Ultrasoft, Zval = 10.0
     Generated by new atomic code, or converted to UPF format
     Using radial grid of  821 points,  7 beta functions with: 
                l(1) =   0
                l(2) =   0
                l(3) =   0
                l(4) =   1
                l(5) =   1
                l(6) =   2
                l(7) =   2
     Q(r) pseudized with  8 coefficients,  rinner =    1.200   1.200   1.200
                                                       1.200   1.200

     PseudoPot. # 3 for O  read from file:
     /users/kfg/psuedo/gbrv_1.5/o.pbesol.UPF
     MD5 check sum: 501638753501ef6325af9037351f7734
     Pseudo is Ultrasoft + core correction, Zval =  6.0
     Generated by new atomic code, or converted to UPF format
     Using radial grid of  737 points,  5 beta functions with: 
                l(1) =   0
                l(2) =   0
                l(3) =   1
                l(4) =   1
                l(5) =   2
     Q(r) pseudized with  8 coefficients,  rinner =    0.900   0.900   0.900
                                                       0.900   0.900

     atomic species   valence    mass     pseudopotential
        Ca            10.00    40.07800     Ca( 1.00)
        Mg            10.00    40.07800     Mg( 1.00)
        O              6.00    15.99940     O ( 1.00)

     No symmetry found


                                    s                        frac. trans.

      isym =  1     identity                                     

 cryst.   s( 1) = (     1          0          0      )
                  (     0          1          0      )
                  (     0          0          1      )

 cart.    s( 1) = (  1.0000000  0.0000000 -0.0000000 )
                  (  0.0000000  1.0000000  0.0000000 )
                  ( -0.0000000  0.0000000  1.0000000 )


     point group C_1 (1)    
     there are  1 classes
     the character table:

       E    
A      1.00

     the symmetry operations in each class:
     E        1

   Cartesian axes

     site n.     atom                  positions (alat units)
         1           Mg  tau(   1) = (   -0.01958246801   -0.03018420655   -0.00028217109  )
         2           O   tau(   2) = (    0.39981278880    0.33866707995    0.32685940643  )
         3           Mg  tau(   3) = (    0.34270908316    0.33390889695   -0.00221100981  )
         4           O   tau(   4) = (    0.72657172351    0.66221692317    0.36082635834  )
         5           Mg  tau(   5) = (    0.34409910066    0.00326853913    0.33500230522  )
         6           O   tau(   6) = (    0.73787382840    0.39196586726    0.73001516246  )
         7           Mg  tau(   7) = (    0.70986490605    0.34028852818    0.39151717302  )
         8           O   tau(   8) = (    1.07605991026    0.67795614771    0.70755104673  )
         9           Ca  tau(   9) = (    0.00035846258    0.33994481017    0.34046557414  )
        10           O   tau(  10) = (    0.33870126145    0.70656212022    0.73114223269  )
        11           Ca  tau(  11) = (    0.34899545460    0.67897079577    0.37880374690  )
        12           O   tau(  12) = (    0.73423606903    1.02458047218    0.73145723696  )
        13           Ca  tau(  13) = (    0.35320036173    0.38809079918    0.72202926989  )
        14           O   tau(  14) = (    0.69970855204    0.70766850437    1.08058382085  )
        15           Mg  tau(  15) = (    0.72041452414    0.69038465572    0.76208260363  )
        16           O   tau(  16) = (    1.04529463928    1.03662616098    1.10042337226  )

   Crystallographic axes

     site n.     atom                  positions (cryst. coord.)
         1           Mg  tau(   1) = (   -0.00798958723    0.00979195707   -0.03761724192  )
         2           O   tau(   2) = (    0.18983463638    0.25843331593    0.30269365426  )
         3           Mg  tau(   3) = (   -0.00412774955   -0.02519755965    0.51027695064  )
         4           O   tau(   4) = (    0.21490171811    0.25754140713    0.76567488256  )
         5           Mg  tau(   5) = (   -0.00501325907    0.48761960797   -0.00831332493  )
         6           O   tau(   6) = (    0.27263459890    0.75420066738    0.27737436554  )
         7           Mg  tau(   7) = (    0.01803181214    0.52016724015    0.47589510362  )
         8           O   tau(   8) = (    0.22323023637    0.74799043638    0.76208142585  )
         9           Ca  tau(   9) = (    0.48154138126   -0.00839977155    0.00796057171  )
        10           O   tau(  10) = (    0.77939183456    0.23382190449    0.23993354339  )
        11           Ca  tau(  11) = (    0.50533407004   -0.00294689037    0.49544598049  )
        12           O   tau(  12) = (    0.72848086040    0.25943012709    0.77345290508  )
        13           Ca  tau(  13) = (    0.53510858006    0.48533753886    0.00567151707  )
        14           O   tau(  14) = (    0.77105372476    0.74569033360    0.23092584452  )
        15           Mg  tau(  15) = (    0.52076324830    0.53356754718    0.47609255306  )
        16           O   tau(  16) = (    0.77682389455    0.74295213834    0.72245126905  )

     number of k points=    36
                       cart. coord. in units 2pi/alat
        k(    1) = (   0.0000000   0.0000000   0.0000000), wk =   0.0312500
        k(    2) = (   0.1785671   0.1975064  -0.1915470), wk =   0.0625000
        k(    3) = (  -0.3571342  -0.3950128   0.3830939), wk =   0.0312500
        k(    4) = (   0.1727892  -0.1949617   0.1883137), wk =   0.0625000
        k(    5) = (   0.3513563   0.0025447  -0.0032332), wk =   0.0625000
        k(    6) = (  -0.1843451  -0.5899746   0.5714077), wk =   0.0625000
        k(    7) = (  -0.0057779  -0.3924681   0.3798607), wk =   0.0625000
        k(    8) = (  -0.3455784   0.3899234  -0.3766275), wk =   0.0312500
        k(    9) = (  -0.1670113   0.5874299  -0.5681744), wk =   0.0625000
        k(   10) = (  -0.7027126  -0.0050894   0.0064665), wk =   0.0312500
        k(   11) = (  -0.1760224   0.1787319   0.1753172), wk =   0.0625000
        k(   12) = (   0.0025447   0.3762383  -0.0162298), wk =   0.0625000
        k(   13) = (  -0.5331567  -0.2162809   0.5584111), wk =   0.0625000
        k(   14) = (  -0.3545896  -0.0187745   0.3668641), wk =   0.0625000
        k(   15) = (  -0.0032332  -0.0162298   0.3636309), wk =   0.0625000
        k(   16) = (   0.1753339   0.1812766   0.1720839), wk =   0.0625000
        k(   17) = (  -0.3603675  -0.4112426   0.7467248), wk =   0.0625000
        k(   18) = (  -0.1818004  -0.2137362   0.5551779), wk =   0.0625000
        k(   19) = (  -0.5216008   0.5686554  -0.2013103), wk =   0.0625000
        k(   20) = (  -0.3430337   0.7661618  -0.3928573), wk =   0.0625000
        k(   21) = (  -0.8787351   0.1736425   0.1817836), wk =   0.0625000
        k(   22) = (  -0.7001679   0.3711489  -0.0097633), wk =   0.0625000
        k(   23) = (  -0.3488116   0.3736936  -0.0129966), wk =   0.0625000
        k(   24) = (  -0.1702445   0.5712000  -0.2045435), wk =   0.0625000
        k(   25) = (  -0.7059459  -0.0213192   0.3700974), wk =   0.0625000
        k(   26) = (  -0.5273787   0.1761872   0.1785504), wk =   0.0625000
        k(   27) = (   0.3520449  -0.3574638  -0.3506343), wk =   0.0312500
        k(   28) = (   0.5306120  -0.1599574  -0.5421813), wk =   0.0625000
        k(   29) = (  -0.0050894  -0.7524767   0.0324596), wk =   0.0312500
        k(   30) = (   0.5248341  -0.5524255  -0.1623206), wk =   0.0625000
        k(   31) = (   0.7034012  -0.3549191  -0.3538675), wk =   0.0625000
        k(   32) = (   0.1676998  -0.9474384   0.2207734), wk =   0.0625000
        k(   33) = (   0.3462669  -0.7499320   0.0292264), wk =   0.0625000
        k(   34) = (   0.0064665   0.0324596  -0.7272618), wk =   0.0312500
        k(   35) = (   0.1850336   0.2299660  -0.9188088), wk =   0.0625000
        k(   36) = (  -0.3506678  -0.3625532  -0.3441679), wk =   0.0312500

                       cryst. coord.
        k(    1) = (   0.0000000   0.0000000   0.0000000), wk =   0.0312500
        k(    2) = (  -0.0000000  -0.0000000   0.2500000), wk =   0.0625000
        k(    3) = (   0.0000000   0.0000000  -0.5000000), wk =   0.0312500
        k(    4) = (   0.0000000   0.2500000   0.0000000), wk =   0.0625000
        k(    5) = (  -0.0000000   0.2500000   0.2500000), wk =   0.0625000
        k(    6) = (   0.0000000   0.2500000  -0.5000000), wk =   0.0625000
        k(    7) = (   0.0000000   0.2500000  -0.2500000), wk =   0.0625000
        k(    8) = (   0.0000000  -0.5000000  -0.0000000), wk =   0.0312500
        k(    9) = (   0.0000000  -0.5000000   0.2500000), wk =   0.0625000
        k(   10) = (   0.0000000  -0.5000000  -0.5000000), wk =   0.0312500
        k(   11) = (   0.2500000   0.0000000   0.0000000), wk =   0.0625000
        k(   12) = (   0.2500000  -0.0000000   0.2500000), wk =   0.0625000
        k(   13) = (   0.2500000   0.0000000  -0.5000000), wk =   0.0625000
        k(   14) = (   0.2500000   0.0000000  -0.2500000), wk =   0.0625000
        k(   15) = (   0.2500000   0.2500000   0.0000000), wk =   0.0625000
        k(   16) = (   0.2500000   0.2500000   0.2500000), wk =   0.0625000
        k(   17) = (   0.2500000   0.2500000  -0.5000000), wk =   0.0625000
        k(   18) = (   0.2500000   0.2500000  -0.2500000), wk =   0.0625000
        k(   19) = (   0.2500000  -0.5000000   0.0000000), wk =   0.0625000
        k(   20) = (   0.2500000  -0.5000000   0.2500000), wk =   0.0625000
        k(   21) = (   0.2500000  -0.5000000  -0.5000000), wk =   0.0625000
        k(   22) = (   0.2500000  -0.5000000  -0.2500000), wk =   0.0625000
        k(   23) = (   0.2500000  -0.2500000  -0.0000000), wk =   0.0625000
        k(   24) = (   0.2500000  -0.2500000   0.2500000), wk =   0.0625000
        k(   25) = (   0.2500000  -0.2500000  -0.5000000), wk =   0.0625000
        k(   26) = (   0.2500000  -0.2500000  -0.2500000), wk =   0.0625000
        k(   27) = (  -0.5000000  -0.0000000  -0.0000000), wk =   0.0312500
        k(   28) = (  -0.5000000   0.0000000   0.2500000), wk =   0.0625000
        k(   29) = (  -0.5000000   0.0000000  -0.5000000), wk =   0.0312500
        k(   30) = (  -0.5000000   0.2500000   0.0000000), wk =   0.0625000
        k(   31) = (  -0.5000000   0.2500000   0.2500000), wk =   0.0625000
        k(   32) = (  -0.5000000   0.2500000  -0.5000000), wk =   0.0625000
        k(   33) = (  -0.5000000   0.2500000  -0.2500000), wk =   0.0625000
        k(   34) = (  -0.5000000  -0.5000000  -0.0000000), wk =   0.0312500
        k(   35) = (  -0.5000000  -0.5000000   0.2500000), wk =   0.0625000
        k(   36) = (  -0.5000000  -0.5000000  -0.5000000), wk =   0.0312500

     Dense  grid:    59255 G-vectors     FFT dimensions: (  60,  60,  60)

     Smooth grid:    42393 G-vectors     FFT dimensions: (  50,  50,  50)

     Largest allocated arrays     est. size (Mb)     dimensions
        Kohn-Sham Wavefunctions         0.33 Mb     (     338,   64)
        NL pseudopotentials             1.30 Mb     (     338,  253)
        Each V/rho on FFT grid          0.22 Mb     (   14400)
        Each G-vector array             0.03 Mb     (    3704)
        G-vector shells                 0.03 Mb     (    3654)
     Largest temporary arrays     est. size (Mb)     dimensions
        Auxiliary wavefunctions         1.32 Mb     (     338,  256)
        Each subspace H/S matrix        1.00 Mb     (     256,  256)
        Each <psi_i|beta_j> matrix      0.25 Mb     (     253,   64)
        Arrays for rho mixing           1.76 Mb     (   14400,    8)

     Check: negative/imaginary core charge=   -0.000003    0.000000

     Initial potential from superposition of free atoms

     starting charge  126.48332, renormalised to  128.00000
     Starting wfc are   87 randomized atomic wfcs

     total cpu time spent up to now is       16.9 secs

     Self-consistent Calculation

     iteration #  1     ecut=    40.00 Ry     beta=0.30
     Davidson diagonalization with overlap
     ethr =  1.00E-02,  avg # of iterations =  2.0

     total cpu time spent up to now is       53.3 secs

     total energy              =   -1110.17116424 Ry
     Harris-Foulkes estimate   =   -1110.77253525 Ry
     estimated scf accuracy    <       3.09106660 Ry

     iteration #  2     ecut=    40.00 Ry     beta=0.30
     Davidson diagonalization with overlap
     ethr =  2.41E-03,  avg # of iterations =  1.3

     total cpu time spent up to now is       82.5 secs

     total energy              =   -1109.68961172 Ry
     Harris-Foulkes estimate   =   -1110.26044415 Ry
     estimated scf accuracy    <       1.36106283 Ry

     iteration #  3     ecut=    40.00 Ry     beta=0.30
     Davidson diagonalization with overlap
     ethr =  1.06E-03,  avg # of iterations =  2.0

     total cpu time spent up to now is      119.7 secs

     total energy              =   -1109.89981676 Ry
     Harris-Foulkes estimate   =   -1109.94154305 Ry
     estimated scf accuracy    <       0.16432005 Ry

     iteration #  4     ecut=    40.00 Ry     beta=0.30
     Davidson diagonalization with overlap
     ethr =  1.28E-04,  avg # of iterations =  2.0

     total cpu time spent up to now is      154.3 secs

     total energy              =   -1109.85664950 Ry
     Harris-Foulkes estimate   =   -1109.91421254 Ry
     estimated scf accuracy    <       0.09775747 Ry

     iteration #  5     ecut=    40.00 Ry     beta=0.30
     Davidson diagonalization with overlap
     ethr =  7.64E-05,  avg # of iterations =  2.0

     total cpu time spent up to now is      192.2 secs

     total energy              =   -1109.86987226 Ry
     Harris-Foulkes estimate   =   -1109.87090717 Ry
     estimated scf accuracy    <       0.01070024 Ry

     iteration #  6     ecut=    40.00 Ry     beta=0.30
     Davidson diagonalization with overlap
     ethr =  8.36E-06,  avg # of iterations =  1.0

     total cpu time spent up to now is      219.5 secs

     total energy              =   -1109.86777957 Ry
     Harris-Foulkes estimate   =   -1109.87007606 Ry
     estimated scf accuracy    <       0.00669926 Ry

     iteration #  7     ecut=    40.00 Ry     beta=0.30
     Davidson diagonalization with overlap
     ethr =  5.23E-06,  avg # of iterations =  2.0

     total cpu time spent up to now is      256.3 secs

     total energy              =   -1109.86798130 Ry
     Harris-Foulkes estimate   =   -1109.86834015 Ry
     estimated scf accuracy    <       0.00101981 Ry

     iteration #  8     ecut=    40.00 Ry     beta=0.30
     Davidson diagonalization with overlap
     ethr =  7.97E-07,  avg # of iterations =  2.2

     total cpu time spent up to now is      294.5 secs

     total energy              =   -1109.86808645 Ry
     Harris-Foulkes estimate   =   -1109.86814073 Ry
     estimated scf accuracy    <       0.00014799 Ry

     iteration #  9     ecut=    40.00 Ry     beta=0.30
     Davidson diagonalization with overlap
     ethr =  1.16E-07,  avg # of iterations =  3.0

     total cpu time spent up to now is      337.9 secs

     total energy              =   -1109.86809562 Ry
     Harris-Foulkes estimate   =   -1109.86811372 Ry
     estimated scf accuracy    <       0.00010918 Ry

     iteration # 10     ecut=    40.00 Ry     beta=0.30
     Davidson diagonalization with overlap
     ethr =  8.53E-08,  avg # of iterations =  2.0

     total cpu time spent up to now is      371.8 secs

     total energy              =   -1109.86807868 Ry
     Harris-Foulkes estimate   =   -1109.86809854 Ry
     estimated scf accuracy    <       0.00005500 Ry

     iteration # 11     ecut=    40.00 Ry     beta=0.30
     Davidson diagonalization with overlap
     ethr =  4.30E-08,  avg # of iterations =  2.0

     total cpu time spent up to now is      407.8 secs

     total energy              =   -1109.86808494 Ry
     Harris-Foulkes estimate   =   -1109.86808661 Ry
     estimated scf accuracy    <       0.00000536 Ry

     iteration # 12     ecut=    40.00 Ry     beta=0.30
     Davidson diagonalization with overlap
     ethr =  4.19E-09,  avg # of iterations =  2.0

     total cpu time spent up to now is      442.3 secs

     total energy              =   -1109.86808426 Ry
     Harris-Foulkes estimate   =   -1109.86808540 Ry
     estimated scf accuracy    <       0.00000222 Ry

     iteration # 13     ecut=    40.00 Ry     beta=0.30
     Davidson diagonalization with overlap
     ethr =  1.74E-09,  avg # of iterations =  2.0

     total cpu time spent up to now is      485.2 secs

     total energy              =   -1109.86808454 Ry
     Harris-Foulkes estimate   =   -1109.86808456 Ry
     estimated scf accuracy    <       0.00000016 Ry

     iteration # 14     ecut=    40.00 Ry     beta=0.30
     Davidson diagonalization with overlap
     ethr =  1.26E-10,  avg # of iterations =  2.0

     total cpu time spent up to now is      526.6 secs

     total energy              =   -1109.86808453 Ry
     Harris-Foulkes estimate   =   -1109.86808455 Ry
     estimated scf accuracy    <       0.00000008 Ry

     iteration # 15     ecut=    40.00 Ry     beta=0.30
     Davidson diagonalization with overlap
     ethr =  5.99E-11,  avg # of iterations =  2.0

     total cpu time spent up to now is      562.8 secs

     total energy              =   -1109.86808453 Ry
     Harris-Foulkes estimate   =   -1109.86808454 Ry
     estimated scf accuracy    <       0.00000002 Ry

     iteration # 16     ecut=    40.00 Ry     beta=0.30
     Davidson diagonalization with overlap
     ethr =  1.35E-11,  avg # of iterations =  2.0

     total cpu time spent up to now is      600.3 secs

     total energy              =   -1109.86808453 Ry
     Harris-Foulkes estimate   =   -1109.86808453 Ry
     estimated scf accuracy    <          5.0E-09 Ry

     iteration # 17     ecut=    40.00 Ry     beta=0.30
     Davidson diagonalization with overlap
     ethr =  3.90E-12,  avg # of iterations =  2.0

     total cpu time spent up to now is      636.7 secs

     total energy              =   -1109.86808453 Ry
     Harris-Foulkes estimate   =   -1109.86808453 Ry
     estimated scf accuracy    <          1.6E-09 Ry

     iteration # 18     ecut=    40.00 Ry     beta=0.30
     Davidson diagonalization with overlap
     ethr =  1.21E-12,  avg # of iterations =  2.0

     total cpu time spent up to now is      669.8 secs

     total energy              =   -1109.86808453 Ry
     Harris-Foulkes estimate   =   -1109.86808453 Ry
     estimated scf accuracy    <          5.6E-10 Ry

     iteration # 19     ecut=    40.00 Ry     beta=0.30
     Davidson diagonalization with overlap
     ethr =  4.40E-13,  avg # of iterations =  2.0

     total cpu time spent up to now is      705.7 secs

     total energy              =   -1109.86808453 Ry
     Harris-Foulkes estimate   =   -1109.86808453 Ry
     estimated scf accuracy    <          2.0E-10 Ry

     iteration # 20     ecut=    40.00 Ry     beta=0.30
     Davidson diagonalization with overlap
     ethr =  1.58E-13,  avg # of iterations =  2.0

     total cpu time spent up to now is      741.6 secs

     End of self-consistent calculation

          k = 0.0000 0.0000 0.0000 (  5319 PWs)   bands (ev):

   -65.7827 -65.3912 -65.0815 -64.9272 -64.8477 -32.7911 -32.7675 -32.6972
   -32.3889 -32.3634 -32.3274 -32.0947 -32.0464 -32.0118 -31.9249 -31.8987
   -31.8735 -31.8605 -31.8059 -31.7925 -30.0060 -29.7399 -29.5403 -12.1355
   -11.7928 -11.7597 -11.6038 -11.0660 -11.0241 -10.9187 -10.7943 -10.6988
    -8.9360  -8.2521  -8.1268  -8.0332  -7.5950  -7.5342  -7.3706  -7.1860
     2.9356   3.5967   3.6951   3.7776   4.3896   4.5373   4.6029   5.6208
     5.8101   5.8311   5.8763   6.0366   6.2351   6.2684   6.3819   6.4547
     6.5010   6.5604   6.7087   6.7702   6.9850   7.1228   7.3475   7.7218

     occupation numbers 
     1.0000   1.0000   1.0000   1.0000   1.0000   1.0000   1.0000   1.0000
     1.0000   1.0000   1.0000   1.0000   1.0000   1.0000   1.0000   1.0000
     1.0000   1.0000   1.0000   1.0000   1.0000   1.0000   1.0000   1.0000
     1.0000   1.0000   1.0000   1.0000   1.0000   1.0000   1.0000   1.0000
     1.0000   1.0000   1.0000   1.0000   1.0000   1.0000   1.0000   1.0000
     1.0000   1.0000   1.0000   1.0000   1.0000   1.0000   1.0000   1.0000
     1.0000   1.0000   1.0000   1.0000   1.0000   1.0000   1.0000   1.0000
     1.0000   1.0000   1.0000   1.0000   1.0000   1.0000   1.0000   1.0000

          k = 0.1786 0.1975-0.1915 (  5305 PWs)   bands (ev):

   -65.7827 -65.3912 -65.0815 -64.9272 -64.8477 -32.7911 -32.7676 -32.6972
   -32.3885 -32.3634 -32.3273 -32.0950 -32.0465 -32.0114 -31.9249 -31.8967
   -31.8738 -31.8609 -31.8078 -31.7927 -29.9965 -29.7491 -29.5410 -11.9911
   -11.7952 -11.6882 -11.5277 -11.1429 -11.0635 -11.0106 -10.9936 -10.7315
    -8.7246  -8.2200  -8.1467  -7.9823  -7.6458  -7.6089  -7.3758  -7.2218
     3.2048   3.8673   3.9873   4.0345   4.4752   4.5360   4.7058   5.5266
     5.6100   5.7643   5.7975   5.8579   5.9664   6.1382   6.2043   6.3597
     6.4701   6.5418   6.5812   6.7340   6.8374   6.9644   7.1645   7.3246

     occupation numbers 
     1.0000   1.0000   1.0000   1.0000   1.0000   1.0000   1.0000   1.0000
     1.0000   1.0000   1.0000   1.0000   1.0000   1.0000   1.0000   1.0000
     1.0000   1.0000   1.0000   1.0000   1.0000   1.0000   1.0000   1.0000
     1.0000   1.0000   1.0000   1.0000   1.0000   1.0000   1.0000   1.0000
     1.0000   1.0000   1.0000   1.0000   1.0000   1.0000   1.0000   1.0000
     1.0000   1.0000   1.0000   1.0000   1.0000   1.0000   1.0000   1.0000
     1.0000   1.0000   1.0000   1.0000   1.0000   1.0000   1.0000   1.0000
     1.0000   1.0000   1.0000   1.0000   1.0000   1.0000   1.0000   1.0000

          k =-0.3571-0.3950 0.3831 (  5306 PWs)   bands (ev):

   -65.7827 -65.3912 -65.0815 -64.9272 -64.8477 -32.7912 -32.7676 -32.6972
   -32.3881 -32.3634 -32.3271 -32.0954 -32.0467 -32.0110 -31.9249 -31.8945
   -31.8741 -31.8613 -31.8097 -31.7928 -29.9861 -29.7591 -29.5417 -11.8178
   -11.6851 -11.6343 -11.3819 -11.3142 -11.2720 -11.1769 -11.0500 -10.7495
    -8.3774  -8.2858  -8.1885  -7.8872  -7.7952  -7.6928  -7.3497  -7.2537
     3.6220   4.2418   4.3129   4.4549   4.5202   4.5856   4.9800   5.2026
     5.2094   5.4167   5.5634   5.6307   5.9105   5.9516   6.0297   6.1812
     6.2620   6.4838   6.7058   6.7282   6.8005   6.8560   6.9249   7.1195

     occupation numbers 
     1.0000   1.0000   1.0000   1.0000   1.0000   1.0000   1.0000   1.0000
     1.0000   1.0000   1.0000   1.0000   1.0000   1.0000   1.0000   1.0000
     1.0000   1.0000   1.0000   1.0000   1.0000   1.0000   1.0000   1.0000
     1.0000   1.0000   1.0000   1.0000   1.0000   1.0000   1.0000   1.0000
     1.0000   1.0000   1.0000   1.0000   1.0000   1.0000   1.0000   1.0000
     1.0000   1.0000   1.0000   1.0000   1.0000   1.0000   1.0000   1.0000
     1.0000   1.0000   1.0000   1.0000   1.0000   1.0000   1.0000   1.0000
     1.0000   1.0000   1.0000   1.0000   1.0000   1.0000   1.0000   1.0000

          k = 0.1728-0.1950 0.1883 (  5288 PWs)   bands (ev):

   -65.7827 -65.3912 -65.0815 -64.9272 -64.8477 -32.7911 -32.7676 -32.6971
   -32.3885 -32.3634 -32.3272 -32.0950 -32.0465 -32.0117 -31.9249 -31.8966
   -31.8735 -31.8608 -31.8079 -31.7927 -29.9977 -29.7477 -29.5412 -12.0015
   -11.7284 -11.7018 -11.5920 -11.1686 -11.1154 -10.9894 -10.9202 -10.7262
    -8.7292  -8.2716  -8.0779  -7.9584  -7.6831  -7.5301  -7.4503  -7.2225
     3.2138   3.8344   3.9462   4.0601   4.3945   4.6134   4.7023   5.4473
     5.5318   5.6606   5.8403   5.9316   5.9858   6.1109   6.2520   6.3513
     6.4687   6.5736   6.6297   6.7243   6.8574   6.9688   7.2087   7.4559

     occupation numbers 
     1.0000   1.0000   1.0000   1.0000   1.0000   1.0000   1.0000   1.0000
     1.0000   1.0000   1.0000   1.0000   1.0000   1.0000   1.0000   1.0000
     1.0000   1.0000   1.0000   1.0000   1.0000   1.0000   1.0000   1.0000
     1.0000   1.0000   1.0000   1.0000   1.0000   1.0000   1.0000   1.0000
     1.0000   1.0000   1.0000   1.0000   1.0000   1.0000   1.0000   1.0000
     1.0000   1.0000   1.0000   1.0000   1.0000   1.0000   1.0000   1.0000
     1.0000   1.0000   1.0000   1.0000   1.0000   1.0000   1.0000   1.0000
     1.0000   1.0000   1.0000   1.0000   1.0000   1.0000   1.0000   1.0000

          k = 0.3514 0.0025-0.0032 (  5302 PWs)   bands (ev):

   -65.7827 -65.3912 -65.0815 -64.9272 -64.8477 -32.7911 -32.7675 -32.6971
   -32.3888 -32.3634 -32.3273 -32.0947 -32.0464 -32.0113 -31.9250 -31.8989
   -31.8739 -31.8606 -31.8059 -31.7926 -30.0039 -29.7392 -29.5429 -12.1086
   -11.7450 -11.7042 -11.5455 -11.1450 -11.0472 -11.0026 -10.8457 -10.7736
    -8.7263  -8.2723  -8.0992  -8.0079  -7.6176  -7.5547  -7.4409  -7.2203
     3.2603   3.8577   3.9186   4.0066   4.4070   4.6592   4.7615   5.4308
     5.5731   5.6554   5.7883   5.8520   6.0333   6.1171   6.2047   6.2796
     6.3258   6.4935   6.6030   6.7186   6.8168   7.0253   7.1295   7.6548

     occupation numbers 
     1.0000   1.0000   1.0000   1.0000   1.0000   1.0000   1.0000   1.0000
     1.0000   1.0000   1.0000   1.0000   1.0000   1.0000   1.0000   1.0000
     1.0000   1.0000   1.0000   1.0000   1.0000   1.0000   1.0000   1.0000
     1.0000   1.0000   1.0000   1.0000   1.0000   1.0000   1.0000   1.0000
     1.0000   1.0000   1.0000   1.0000   1.0000   1.0000   1.0000   1.0000
     1.0000   1.0000   1.0000   1.0000   1.0000   1.0000   1.0000   1.0000
     1.0000   1.0000   1.0000   1.0000   1.0000   1.0000   1.0000   1.0000
     1.0000   1.0000   1.0000   1.0000   1.0000   1.0000   1.0000   1.0000

          k =-0.1843-0.5900 0.5714 (  5302 PWs)   bands (ev):

   -65.7827 -65.3912 -65.0815 -64.9272 -64.8477 -32.7911 -32.7676 -32.6971
   -32.3884 -32.3634 -32.3272 -32.0950 -32.0465 -32.0109 -31.9250 -31.8968
   -31.8742 -31.8610 -31.8078 -31.7928 -29.9942 -29.7486 -29.5436 -11.9523
   -11.7313 -11.6476 -11.3929 -11.2242 -11.1650 -11.1120 -11.0418 -10.7920
    -8.4483  -8.2574  -8.1071  -7.9962  -7.7459  -7.6172  -7.4194  -7.2463
     3.6595   4.1438   4.2481   4.4025   4.5488   4.6551   4.9538   5.1253
     5.2495   5.4643   5.5236   5.7434   5.8750   5.9171   6.0356   6.1707
     6.2877   6.4401   6.5251   6.6062   6.7911   6.8957   7.0444   7.3096

     occupation numbers 
     1.0000   1.0000   1.0000   1.0000   1.0000   1.0000   1.0000   1.0000
     1.0000   1.0000   1.0000   1.0000   1.0000   1.0000   1.0000   1.0000
     1.0000   1.0000   1.0000   1.0000   1.0000   1.0000   1.0000   1.0000
     1.0000   1.0000   1.0000   1.0000   1.0000   1.0000   1.0000   1.0000
     1.0000   1.0000   1.0000   1.0000   1.0000   1.0000   1.0000   1.0000
     1.0000   1.0000   1.0000   1.0000   1.0000   1.0000   1.0000   1.0000
     1.0000   1.0000   1.0000   1.0000   1.0000   1.0000   1.0000   1.0000
     1.0000   1.0000   1.0000   1.0000   1.0000   1.0000   1.0000   1.0000

          k =-0.0058-0.3925 0.3799 (  5295 PWs)   bands (ev):

   -65.7827 -65.3912 -65.0815 -64.9272 -64.8477 -32.7912 -32.7676 -32.6972
   -32.3881 -32.3633 -32.3270 -32.0953 -32.0467 -32.0113 -31.9249 -31.8944
   -31.8738 -31.8613 -31.8098 -31.7928 -29.9874 -29.7576 -29.5418 -11.7406
   -11.7295 -11.6443 -11.5153 -11.2971 -11.2360 -11.1525 -11.0023 -10.7653
    -8.4577  -8.2663  -8.0879  -7.9334  -7.7389  -7.6703  -7.4122  -7.2575
     3.6022   4.1357   4.2441   4.4264   4.4750   4.6710   4.8954   5.1306
     5.3256   5.4902   5.6785   5.7384   5.8155   5.9156   6.0822   6.1801
     6.3747   6.5226   6.5942   6.6649   6.7608   6.9051   7.0166   7.1449

     occupation numbers 
     1.0000   1.0000   1.0000   1.0000   1.0000   1.0000   1.0000   1.0000
     1.0000   1.0000   1.0000   1.0000   1.0000   1.0000   1.0000   1.0000
     1.0000   1.0000   1.0000   1.0000   1.0000   1.0000   1.0000   1.0000
     1.0000   1.0000   1.0000   1.0000   1.0000   1.0000   1.0000   1.0000
     1.0000   1.0000   1.0000   1.0000   1.0000   1.0000   1.0000   1.0000
     1.0000   1.0000   1.0000   1.0000   1.0000   1.0000   1.0000   1.0000
     1.0000   1.0000   1.0000   1.0000   1.0000   1.0000   1.0000   1.0000
     1.0000   1.0000   1.0000   1.0000   1.0000   1.0000   1.0000   1.0000

          k =-0.3456 0.3899-0.3766 (  5296 PWs)   bands (ev):

   -65.7827 -65.3912 -65.0815 -64.9272 -64.8477 -32.7912 -32.7676 -32.6971
   -32.3882 -32.3634 -32.3270 -32.0953 -32.0467 -32.0116 -31.9249 -31.8943
   -31.8735 -31.8612 -31.8100 -31.7928 -29.9887 -29.7562 -29.5419 -11.7919
   -11.6492 -11.6341 -11.5277 -11.3344 -11.2704 -11.2026 -10.9309 -10.7397
    -8.4344  -8.3036  -8.0545  -7.9534  -7.7051  -7.6458  -7.4751  -7.2519
     3.7275   4.0981   4.1848   4.2249   4.5880   4.7358   4.9770   5.1445
     5.2320   5.4397   5.5020   5.7561   5.8104   5.8639   6.0234   6.1106
     6.3415   6.5154   6.6427   6.7667   6.8396   6.9457   7.1445   7.2784

     occupation numbers 
     1.0000   1.0000   1.0000   1.0000   1.0000   1.0000   1.0000   1.0000
     1.0000   1.0000   1.0000   1.0000   1.0000   1.0000   1.0000   1.0000
     1.0000   1.0000   1.0000   1.0000   1.0000   1.0000   1.0000   1.0000
     1.0000   1.0000   1.0000   1.0000   1.0000   1.0000   1.0000   1.0000
     1.0000   1.0000   1.0000   1.0000   1.0000   1.0000   1.0000   1.0000
     1.0000   1.0000   1.0000   1.0000   1.0000   1.0000   1.0000   1.0000
     1.0000   1.0000   1.0000   1.0000   1.0000   1.0000   1.0000   1.0000
     1.0000   1.0000   1.0000   1.0000   1.0000   1.0000   1.0000   1.0000

          k =-0.1670 0.5874-0.5682 (  5285 PWs)   bands (ev):

   -65.7827 -65.3912 -65.0815 -64.9272 -64.8477 -32.7911 -32.7676 -32.6971
   -32.3885 -32.3634 -32.3271 -32.0950 -32.0465 -32.0112 -31.9250 -31.8968
   -31.8739 -31.8610 -31.8079 -31.7928 -29.9954 -29.7471 -29.5437 -11.9629
   -11.6894 -11.5955 -11.5112 -11.3227 -11.1533 -11.0323 -10.9923 -10.7988
    -8.4504  -8.3114  -8.0738  -7.9264  -7.7486  -7.5673  -7.5120  -7.2451
     3.6974   4.1066   4.1837   4.3529   4.4746   4.8017   4.9171   5.1255
     5.2395   5.4174   5.5203   5.7117   5.8205   5.8978   6.0862   6.2090
     6.2497   6.4644   6.5912   6.6531   6.8258   6.8898   7.1156   7.3606

     occupation numbers 
     1.0000   1.0000   1.0000   1.0000   1.0000   1.0000   1.0000   1.0000
     1.0000   1.0000   1.0000   1.0000   1.0000   1.0000   1.0000   1.0000
     1.0000   1.0000   1.0000   1.0000   1.0000   1.0000   1.0000   1.0000
     1.0000   1.0000   1.0000   1.0000   1.0000   1.0000   1.0000   1.0000
     1.0000   1.0000   1.0000   1.0000   1.0000   1.0000   1.0000   1.0000
     1.0000   1.0000   1.0000   1.0000   1.0000   1.0000   1.0000   1.0000
     1.0000   1.0000   1.0000   1.0000   1.0000   1.0000   1.0000   1.0000
     1.0000   1.0000   1.0000   1.0000   1.0000   1.0000   1.0000   1.0000

          k =-0.7027-0.0051 0.0065 (  5308 PWs)   bands (ev):

   -65.7827 -65.3912 -65.0815 -64.9272 -64.8477 -32.7911 -32.7675 -32.6971
   -32.3888 -32.3634 -32.3273 -32.0947 -32.0464 -32.0108 -31.9251 -31.8991
   -31.8743 -31.8607 -31.8060 -31.7927 -30.0018 -29.7385 -29.5456 -12.0860
   -11.7092 -11.5712 -11.4487 -11.2658 -11.1761 -11.0513 -10.9404 -10.7824
    -8.4607  -8.3351  -8.1022  -7.9272  -7.6719  -7.5735  -7.5371  -7.2433
     3.7157   4.0411   4.0761   4.2656   4.8094   4.8917   5.0427   5.1406
     5.2087   5.3694   5.4577   5.6019   5.7795   5.9682   6.0313   6.0991
     6.2769   6.2878   6.4331   6.6185   6.8242   6.9423   7.0988   7.5947

     occupation numbers 
     1.0000   1.0000   1.0000   1.0000   1.0000   1.0000   1.0000   1.0000
     1.0000   1.0000   1.0000   1.0000   1.0000   1.0000   1.0000   1.0000
     1.0000   1.0000   1.0000   1.0000   1.0000   1.0000   1.0000   1.0000
     1.0000   1.0000   1.0000   1.0000   1.0000   1.0000   1.0000   1.0000
     1.0000   1.0000   1.0000   1.0000   1.0000   1.0000   1.0000   1.0000
     1.0000   1.0000   1.0000   1.0000   1.0000   1.0000   1.0000   1.0000
     1.0000   1.0000   1.0000   1.0000   1.0000   1.0000   1.0000   1.0000
     1.0000   1.0000   1.0000   1.0000   1.0000   1.0000   1.0000   1.0000

          k =-0.1760 0.1787 0.1753 (  5290 PWs)   bands (ev):

   -65.7827 -65.3912 -65.0815 -64.9272 -64.8477 -32.7911 -32.7675 -32.6971
   -32.3889 -32.3634 -32.3274 -32.0947 -32.0464 -32.0118 -31.9250 -31.8988
   -31.8736 -31.8605 -31.8059 -31.7926 -30.0057 -29.7398 -29.5402 -12.1355
   -11.7932 -11.7757 -11.6222 -11.0593 -11.0256 -10.9182 -10.7944 -10.6986
    -8.7414  -8.3128  -8.1684  -8.0690  -7.6472  -7.5277  -7.3407  -7.2153
     3.1995   3.7827   3.8981   4.0180   4.3796   4.4243   4.6193   5.2799
     5.6341   5.7025   5.7855   5.9246   6.1055   6.2022   6.2746   6.3861
     6.4489   6.6142   6.6971   6.8027   6.9319   7.0282   7.1220   7.6680

     occupation numbers 
     1.0000   1.0000   1.0000   1.0000   1.0000   1.0000   1.0000   1.0000
     1.0000   1.0000   1.0000   1.0000   1.0000   1.0000   1.0000   1.0000
     1.0000   1.0000   1.0000   1.0000   1.0000   1.0000   1.0000   1.0000
     1.0000   1.0000   1.0000   1.0000   1.0000   1.0000   1.0000   1.0000
     1.0000   1.0000   1.0000   1.0000   1.0000   1.0000   1.0000   1.0000
     1.0000   1.0000   1.0000   1.0000   1.0000   1.0000   1.0000   1.0000
     1.0000   1.0000   1.0000   1.0000   1.0000   1.0000   1.0000   1.0000
     1.0000   1.0000   1.0000   1.0000   1.0000   1.0000   1.0000   1.0000

          k = 0.0025 0.3762-0.0162 (  5296 PWs)   bands (ev):

   -65.7827 -65.3912 -65.0815 -64.9272 -64.8477 -32.7911 -32.7676 -32.6971
   -32.3885 -32.3634 -32.3273 -32.0950 -32.0466 -32.0114 -31.9249 -31.8967
   -31.8738 -31.8609 -31.8078 -31.7927 -29.9964 -29.7490 -29.5410 -11.9915
   -11.7904 -11.6956 -11.5390 -11.1493 -11.0600 -11.0074 -10.9918 -10.7312
    -8.6404  -8.2745  -8.1119  -8.0198  -7.6374  -7.5973  -7.4029  -7.2348
     3.3212   3.9152   4.0029   4.0940   4.4279   4.5707   4.7352   5.3202
     5.5238   5.6760   5.7743   5.8954   5.9612   6.0538   6.2562   6.3065
     6.4473   6.5344   6.5789   6.7253   6.8677   6.9509   7.1786   7.3933

     occupation numbers 
     1.0000   1.0000   1.0000   1.0000   1.0000   1.0000   1.0000   1.0000
     1.0000   1.0000   1.0000   1.0000   1.0000   1.0000   1.0000   1.0000
     1.0000   1.0000   1.0000   1.0000   1.0000   1.0000   1.0000   1.0000
     1.0000   1.0000   1.0000   1.0000   1.0000   1.0000   1.0000   1.0000
     1.0000   1.0000   1.0000   1.0000   1.0000   1.0000   1.0000   1.0000
     1.0000   1.0000   1.0000   1.0000   1.0000   1.0000   1.0000   1.0000
     1.0000   1.0000   1.0000   1.0000   1.0000   1.0000   1.0000   1.0000
     1.0000   1.0000   1.0000   1.0000   1.0000   1.0000   1.0000   1.0000

          k =-0.5332-0.2163 0.5584 (  5290 PWs)   bands (ev):

   -65.7827 -65.3912 -65.0815 -64.9272 -64.8477 -32.7911 -32.7677 -32.6971
   -32.3881 -32.3634 -32.3271 -32.0953 -32.0467 -32.0111 -31.9249 -31.8945
   -31.8741 -31.8613 -31.8098 -31.7929 -29.9860 -29.7590 -29.5416 -11.8212
   -11.6821 -11.6346 -11.3841 -11.3192 -11.2775 -11.1794 -11.0437 -10.7488
    -8.3759  -8.2762  -8.1275  -7.9455  -7.8084  -7.6243  -7.3992  -7.2637
     3.7293   4.1818   4.3044   4.4082   4.4494   4.7415   4.9832   5.0846
     5.3135   5.3656   5.5725   5.7008   5.8332   5.9312   6.0375   6.1645
     6.3671   6.5369   6.5822   6.6369   6.6949   6.8785   6.9738   7.1094

     occupation numbers 
     1.0000   1.0000   1.0000   1.0000   1.0000   1.0000   1.0000   1.0000
     1.0000   1.0000   1.0000   1.0000   1.0000   1.0000   1.0000   1.0000
     1.0000   1.0000   1.0000   1.0000   1.0000   1.0000   1.0000   1.0000
     1.0000   1.0000   1.0000   1.0000   1.0000   1.0000   1.0000   1.0000
     1.0000   1.0000   1.0000   1.0000   1.0000   1.0000   1.0000   1.0000
     1.0000   1.0000   1.0000   1.0000   1.0000   1.0000   1.0000   1.0000
     1.0000   1.0000   1.0000   1.0000   1.0000   1.0000   1.0000   1.0000
     1.0000   1.0000   1.0000   1.0000   1.0000   1.0000   1.0000   1.0000

          k =-0.3546-0.0188 0.3669 (  5298 PWs)   bands (ev):

   -65.7827 -65.3912 -65.0815 -64.9272 -64.8477 -32.7911 -32.7675 -32.6971
   -32.3885 -32.3634 -32.3273 -32.0951 -32.0466 -32.0114 -31.9250 -31.8967
   -31.8738 -31.8609 -31.8078 -31.7927 -29.9961 -29.7490 -29.5409 -11.9916
   -11.8005 -11.7015 -11.5425 -11.1406 -11.0602 -11.0125 -10.9871 -10.7310
    -8.5075  -8.2871  -8.1883  -8.0403  -7.7369  -7.5367  -7.3920  -7.2255
     3.5527   4.0291   4.1669   4.2503   4.3799   4.4733   4.9458   5.1432
     5.3828   5.4957   5.7244   5.7848   5.8642   6.0580   6.2402   6.2856
     6.4205   6.4527   6.5569   6.6420   6.8160   6.9404   7.0276   7.3279

     occupation numbers 
     1.0000   1.0000   1.0000   1.0000   1.0000   1.0000   1.0000   1.0000
     1.0000   1.0000   1.0000   1.0000   1.0000   1.0000   1.0000   1.0000
     1.0000   1.0000   1.0000   1.0000   1.0000   1.0000   1.0000   1.0000
     1.0000   1.0000   1.0000   1.0000   1.0000   1.0000   1.0000   1.0000
     1.0000   1.0000   1.0000   1.0000   1.0000   1.0000   1.0000   1.0000
     1.0000   1.0000   1.0000   1.0000   1.0000   1.0000   1.0000   1.0000
     1.0000   1.0000   1.0000   1.0000   1.0000   1.0000   1.0000   1.0000
     1.0000   1.0000   1.0000   1.0000   1.0000   1.0000   1.0000   1.0000

          k =-0.0032-0.0162 0.3636 (  5287 PWs)   bands (ev):

   -65.7827 -65.3912 -65.0815 -64.9272 -64.8477 -32.7911 -32.7675 -32.6971
   -32.3885 -32.3634 -32.3272 -32.0951 -32.0465 -32.0117 -31.9249 -31.8966
   -31.8736 -31.8608 -31.8079 -31.7927 -29.9976 -29.7477 -29.5411 -12.0008
   -11.7424 -11.6964 -11.5927 -11.1709 -11.1132 -10.9900 -10.9178 -10.7261
    -8.6955  -8.2283  -8.1512  -7.9636  -7.6334  -7.5730  -7.4373  -7.2356
     3.2987   3.8475   3.9577   4.0674   4.3850   4.6155   4.7644   5.3474
     5.5181   5.6558   5.8148   5.8462   6.0530   6.1808   6.2690   6.3652
     6.4210   6.5018   6.6179   6.6894   6.8123   6.9260   7.2108   7.3947

     occupation numbers 
     1.0000   1.0000   1.0000   1.0000   1.0000   1.0000   1.0000   1.0000
     1.0000   1.0000   1.0000   1.0000   1.0000   1.0000   1.0000   1.0000
     1.0000   1.0000   1.0000   1.0000   1.0000   1.0000   1.0000   1.0000
     1.0000   1.0000   1.0000   1.0000   1.0000   1.0000   1.0000   1.0000
     1.0000   1.0000   1.0000   1.0000   1.0000   1.0000   1.0000   1.0000
     1.0000   1.0000   1.0000   1.0000   1.0000   1.0000   1.0000   1.0000
     1.0000   1.0000   1.0000   1.0000   1.0000   1.0000   1.0000   1.0000
     1.0000   1.0000   1.0000   1.0000   1.0000   1.0000   1.0000   1.0000

          k = 0.1753 0.1813 0.1721 (  5316 PWs)   bands (ev):

   -65.7827 -65.3912 -65.0815 -64.9272 -64.8477 -32.7911 -32.7675 -32.6971
   -32.3888 -32.3634 -32.3274 -32.0947 -32.0463 -32.0113 -31.9250 -31.8989
   -31.8740 -31.8606 -31.8059 -31.7926 -30.0041 -29.7392 -29.5430 -12.1057
   -11.7537 -11.6988 -11.5388 -11.1460 -11.0479 -11.0042 -10.8465 -10.7725
    -8.7422  -8.2366  -8.0935  -8.0213  -7.6695  -7.5305  -7.4334  -7.2141
     3.2127   3.8596   3.9130   3.9719   4.3790   4.5657   4.6521   5.3304
     5.5265   5.6764   5.7304   5.9326   6.0240   6.1453   6.3342   6.3903
     6.4298   6.5559   6.6735   6.7533   6.8545   7.0411   7.2758   7.6796

     occupation numbers 
     1.0000   1.0000   1.0000   1.0000   1.0000   1.0000   1.0000   1.0000
     1.0000   1.0000   1.0000   1.0000   1.0000   1.0000   1.0000   1.0000
     1.0000   1.0000   1.0000   1.0000   1.0000   1.0000   1.0000   1.0000
     1.0000   1.0000   1.0000   1.0000   1.0000   1.0000   1.0000   1.0000
     1.0000   1.0000   1.0000   1.0000   1.0000   1.0000   1.0000   1.0000
     1.0000   1.0000   1.0000   1.0000   1.0000   1.0000   1.0000   1.0000
     1.0000   1.0000   1.0000   1.0000   1.0000   1.0000   1.0000   1.0000
     1.0000   1.0000   1.0000   1.0000   1.0000   1.0000   1.0000   1.0000

          k =-0.3604-0.4112 0.7467 (  5302 PWs)   bands (ev):

   -65.7827 -65.3912 -65.0815 -64.9272 -64.8477 -32.7912 -32.7676 -32.6971
   -32.3884 -32.3633 -32.3272 -32.0950 -32.0465 -32.0110 -31.9250 -31.8968
   -31.8742 -31.8610 -31.8078 -31.7928 -29.9944 -29.7486 -29.5437 -11.9493
   -11.7371 -11.6387 -11.3880 -11.2258 -11.1713 -11.1148 -11.0378 -10.7924
    -8.4917  -8.2564  -8.0642  -8.0015  -7.7043  -7.6429  -7.4244  -7.2540
     3.5914   4.0858   4.2154   4.3418   4.4248   4.6773   4.8317   5.0597
     5.2791   5.4921   5.6298   5.7374   5.8815   5.9707   6.1319   6.2544
     6.4036   6.4481   6.5763   6.7542   6.8018   6.8924   7.1235   7.3133

     occupation numbers 
     1.0000   1.0000   1.0000   1.0000   1.0000   1.0000   1.0000   1.0000
     1.0000   1.0000   1.0000   1.0000   1.0000   1.0000   1.0000   1.0000
     1.0000   1.0000   1.0000   1.0000   1.0000   1.0000   1.0000   1.0000
     1.0000   1.0000   1.0000   1.0000   1.0000   1.0000   1.0000   1.0000
     1.0000   1.0000   1.0000   1.0000   1.0000   1.0000   1.0000   1.0000
     1.0000   1.0000   1.0000   1.0000   1.0000   1.0000   1.0000   1.0000
     1.0000   1.0000   1.0000   1.0000   1.0000   1.0000   1.0000   1.0000
     1.0000   1.0000   1.0000   1.0000   1.0000   1.0000   1.0000   1.0000

          k =-0.1818-0.2137 0.5552 (  5284 PWs)   bands (ev):

   -65.7827 -65.3912 -65.0815 -64.9272 -64.8477 -32.7912 -32.7676 -32.6971
   -32.3881 -32.3634 -32.3271 -32.0954 -32.0467 -32.0114 -31.9249 -31.8944
   -31.8738 -31.8613 -31.8098 -31.7929 -29.9873 -29.7576 -29.5417 -11.7519
   -11.7274 -11.6442 -11.5103 -11.3011 -11.2352 -11.1517 -11.0017 -10.7653
    -8.4414  -8.2136  -8.1331  -7.9175  -7.7882  -7.6430  -7.4139  -7.2678
     3.7262   4.1263   4.2227   4.4117   4.5036   4.6595   5.0168   5.1787
     5.2287   5.4312   5.5254   5.7425   5.8258   6.0359   6.0718   6.1771
     6.3746   6.4342   6.6031   6.6373   6.7472   6.8117   6.9431   7.1758

     occupation numbers 
     1.0000   1.0000   1.0000   1.0000   1.0000   1.0000   1.0000   1.0000
     1.0000   1.0000   1.0000   1.0000   1.0000   1.0000   1.0000   1.0000
     1.0000   1.0000   1.0000   1.0000   1.0000   1.0000   1.0000   1.0000
     1.0000   1.0000   1.0000   1.0000   1.0000   1.0000   1.0000   1.0000
     1.0000   1.0000   1.0000   1.0000   1.0000   1.0000   1.0000   1.0000
     1.0000   1.0000   1.0000   1.0000   1.0000   1.0000   1.0000   1.0000
     1.0000   1.0000   1.0000   1.0000   1.0000   1.0000   1.0000   1.0000
     1.0000   1.0000   1.0000   1.0000   1.0000   1.0000   1.0000   1.0000

          k =-0.5216 0.5687-0.2013 (  5269 PWs)   bands (ev):

   -65.7827 -65.3912 -65.0815 -64.9272 -64.8477 -32.7912 -32.7676 -32.6971
   -32.3882 -32.3634 -32.3270 -32.0954 -32.0467 -32.0117 -31.9249 -31.8944
   -31.8735 -31.8613 -31.8099 -31.7929 -29.9886 -29.7561 -29.5419 -11.7993
   -11.6548 -11.6222 -11.5306 -11.3358 -11.2696 -11.2048 -10.9294 -10.7396
    -8.4791  -8.2448  -8.0217  -7.9383  -7.7601  -7.6231  -7.4814  -7.2691
     3.7755   4.0966   4.1339   4.3616   4.4535   4.8146   5.0134   5.1136
     5.2105   5.3870   5.4520   5.6919   5.8718   6.0360   6.1119   6.2763
     6.3331   6.4825   6.5559   6.6275   6.7459   6.8635   7.1186   7.1815

     occupation numbers 
     1.0000   1.0000   1.0000   1.0000   1.0000   1.0000   1.0000   1.0000
     1.0000   1.0000   1.0000   1.0000   1.0000   1.0000   1.0000   1.0000
     1.0000   1.0000   1.0000   1.0000   1.0000   1.0000   1.0000   1.0000
     1.0000   1.0000   1.0000   1.0000   1.0000   1.0000   1.0000   1.0000
     1.0000   1.0000   1.0000   1.0000   1.0000   1.0000   1.0000   1.0000
     1.0000   1.0000   1.0000   1.0000   1.0000   1.0000   1.0000   1.0000
     1.0000   1.0000   1.0000   1.0000   1.0000   1.0000   1.0000   1.0000
     1.0000   1.0000   1.0000   1.0000   1.0000   1.0000   1.0000   1.0000

          k =-0.3430 0.7662-0.3929 (  5298 PWs)   bands (ev):

   -65.7827 -65.3912 -65.0815 -64.9272 -64.8477 -32.7912 -32.7676 -32.6971
   -32.3885 -32.3634 -32.3272 -32.0950 -32.0465 -32.0112 -31.9249 -31.8968
   -31.8739 -31.8609 -31.8079 -31.7928 -29.9956 -29.7472 -29.5438 -11.9599
   -11.6974 -11.5827 -11.5050 -11.3239 -11.1620 -11.0317 -10.9913 -10.7988
    -8.5563  -8.2283  -8.0711  -7.9104  -7.7333  -7.5719  -7.5098  -7.2541
     3.5841   4.0706   4.1324   4.2414   4.3799   4.7915   4.8737   4.9498
     5.3302   5.4762   5.5880   5.8015   5.8895   5.9907   6.1912   6.2726
     6.3761   6.5074   6.5604   6.7324   6.8183   6.8806   7.2026   7.3943

     occupation numbers 
     1.0000   1.0000   1.0000   1.0000   1.0000   1.0000   1.0000   1.0000
     1.0000   1.0000   1.0000   1.0000   1.0000   1.0000   1.0000   1.0000
     1.0000   1.0000   1.0000   1.0000   1.0000   1.0000   1.0000   1.0000
     1.0000   1.0000   1.0000   1.0000   1.0000   1.0000   1.0000   1.0000
     1.0000   1.0000   1.0000   1.0000   1.0000   1.0000   1.0000   1.0000
     1.0000   1.0000   1.0000   1.0000   1.0000   1.0000   1.0000   1.0000
     1.0000   1.0000   1.0000   1.0000   1.0000   1.0000   1.0000   1.0000
     1.0000   1.0000   1.0000   1.0000   1.0000   1.0000   1.0000   1.0000

          k =-0.8787 0.1736 0.1818 (  5294 PWs)   bands (ev):

   -65.7827 -65.3912 -65.0815 -64.9272 -64.8477 -32.7911 -32.7675 -32.6971
   -32.3887 -32.3634 -32.3273 -32.0947 -32.0463 -32.0108 -31.9251 -31.8990
   -31.8743 -31.8607 -31.8060 -31.7927 -30.0019 -29.7385 -29.5457 -12.0830
   -11.7160 -11.5684 -11.4408 -11.2689 -11.1769 -11.0517 -10.9399 -10.7818
    -8.5070  -8.2239  -8.1129  -7.9668  -7.7594  -7.5433  -7.5056  -7.2356
     3.7118   4.0565   4.1353   4.2858   4.4713   4.7757   4.8754   5.1045
     5.2006   5.3426   5.4314   5.7720   5.7891   5.9296   6.1633   6.2634
     6.3126   6.4567   6.5519   6.6539   6.8254   6.9961   7.1237   7.6217

     occupation numbers 
     1.0000   1.0000   1.0000   1.0000   1.0000   1.0000   1.0000   1.0000
     1.0000   1.0000   1.0000   1.0000   1.0000   1.0000   1.0000   1.0000
     1.0000   1.0000   1.0000   1.0000   1.0000   1.0000   1.0000   1.0000
     1.0000   1.0000   1.0000   1.0000   1.0000   1.0000   1.0000   1.0000
     1.0000   1.0000   1.0000   1.0000   1.0000   1.0000   1.0000   1.0000
     1.0000   1.0000   1.0000   1.0000   1.0000   1.0000   1.0000   1.0000
     1.0000   1.0000   1.0000   1.0000   1.0000   1.0000   1.0000   1.0000
     1.0000   1.0000   1.0000   1.0000   1.0000   1.0000   1.0000   1.0000

          k =-0.7002 0.3711-0.0098 (  5293 PWs)   bands (ev):

   -65.7827 -65.3912 -65.0815 -64.9272 -64.8477 -32.7911 -32.7675 -32.6971
   -32.3885 -32.3634 -32.3272 -32.0950 -32.0465 -32.0113 -31.9250 -31.8968
   -31.8739 -31.8610 -31.8079 -31.7928 -29.9954 -29.7471 -29.5437 -11.9617
   -11.7049 -11.5861 -11.5223 -11.3192 -11.1498 -11.0301 -10.9934 -10.7982
    -8.3649  -8.2934  -8.0827  -7.9870  -7.7839  -7.5962  -7.4741  -7.2501
     3.9494   4.1677   4.2371   4.3481   4.4335   4.7453   4.9290   5.0778
     5.1894   5.2791   5.4103   5.6009   5.8362   6.0070   6.1297   6.2071
     6.3487   6.4002   6.5272   6.6537   6.8178   6.8783   7.0162   7.3103

     occupation numbers 
     1.0000   1.0000   1.0000   1.0000   1.0000   1.0000   1.0000   1.0000
     1.0000   1.0000   1.0000   1.0000   1.0000   1.0000   1.0000   1.0000
     1.0000   1.0000   1.0000   1.0000   1.0000   1.0000   1.0000   1.0000
     1.0000   1.0000   1.0000   1.0000   1.0000   1.0000   1.0000   1.0000
     1.0000   1.0000   1.0000   1.0000   1.0000   1.0000   1.0000   1.0000
     1.0000   1.0000   1.0000   1.0000   1.0000   1.0000   1.0000   1.0000
     1.0000   1.0000   1.0000   1.0000   1.0000   1.0000   1.0000   1.0000
     1.0000   1.0000   1.0000   1.0000   1.0000   1.0000   1.0000   1.0000

          k =-0.3488 0.3737-0.0130 (  5285 PWs)   bands (ev):

   -65.7827 -65.3912 -65.0815 -64.9272 -64.8477 -32.7911 -32.7675 -32.6971
   -32.3885 -32.3634 -32.3273 -32.0951 -32.0466 -32.0117 -31.9250 -31.8966
   -31.8736 -31.8609 -31.8079 -31.7927 -29.9973 -29.7476 -29.5410 -12.0023
   -11.7411 -11.6985 -11.6188 -11.1606 -11.1162 -10.9865 -10.9185 -10.7258
    -8.4825  -8.3340  -8.1484  -8.0104  -7.7336  -7.5627  -7.4081  -7.2331
     3.5939   4.0303   4.1398   4.2322   4.3596   4.5820   4.8881   5.0623
     5.3256   5.4472   5.6697   5.7710   5.9692   6.0204   6.1872   6.2358
     6.4059   6.4696   6.5556   6.7526   6.8303   7.0135   7.1098   7.3924

     occupation numbers 
     1.0000   1.0000   1.0000   1.0000   1.0000   1.0000   1.0000   1.0000
     1.0000   1.0000   1.0000   1.0000   1.0000   1.0000   1.0000   1.0000
     1.0000   1.0000   1.0000   1.0000   1.0000   1.0000   1.0000   1.0000
     1.0000   1.0000   1.0000   1.0000   1.0000   1.0000   1.0000   1.0000
     1.0000   1.0000   1.0000   1.0000   1.0000   1.0000   1.0000   1.0000
     1.0000   1.0000   1.0000   1.0000   1.0000   1.0000   1.0000   1.0000
     1.0000   1.0000   1.0000   1.0000   1.0000   1.0000   1.0000   1.0000
     1.0000   1.0000   1.0000   1.0000   1.0000   1.0000   1.0000   1.0000

          k =-0.1702 0.5712-0.2045 (  5290 PWs)   bands (ev):

   -65.7827 -65.3912 -65.0815 -64.9272 -64.8477 -32.7911 -32.7677 -32.6971
   -32.3881 -32.3634 -32.3271 -32.0953 -32.0467 -32.0114 -31.9249 -31.8944
   -31.8738 -31.8613 -31.8099 -31.7929 -29.9873 -29.7575 -29.5418 -11.7520
   -11.7198 -11.6447 -11.5195 -11.3056 -11.2330 -11.1546 -10.9981 -10.7649
    -8.3797  -8.2914  -8.0884  -7.9728  -7.7606  -7.5977  -7.4505  -7.2746
     3.7885   4.0977   4.2604   4.3319   4.4418   4.7231   5.0119   5.1888
     5.3164   5.3496   5.5098   5.6844   5.8467   5.9033   6.0183   6.2275
     6.3308   6.4820   6.5356   6.7099   6.7976   6.8430   7.0253   7.2548

     occupation numbers 
     1.0000   1.0000   1.0000   1.0000   1.0000   1.0000   1.0000   1.0000
     1.0000   1.0000   1.0000   1.0000   1.0000   1.0000   1.0000   1.0000
     1.0000   1.0000   1.0000   1.0000   1.0000   1.0000   1.0000   1.0000
     1.0000   1.0000   1.0000   1.0000   1.0000   1.0000   1.0000   1.0000
     1.0000   1.0000   1.0000   1.0000   1.0000   1.0000   1.0000   1.0000
     1.0000   1.0000   1.0000   1.0000   1.0000   1.0000   1.0000   1.0000
     1.0000   1.0000   1.0000   1.0000   1.0000   1.0000   1.0000   1.0000
     1.0000   1.0000   1.0000   1.0000   1.0000   1.0000   1.0000   1.0000

          k =-0.7059-0.0213 0.3701 (  5311 PWs)   bands (ev):

   -65.7827 -65.3912 -65.0815 -64.9272 -64.8477 -32.7911 -32.7676 -32.6971
   -32.3884 -32.3634 -32.3272 -32.0950 -32.0466 -32.0110 -31.9250 -31.8968
   -31.8742 -31.8610 -31.8078 -31.7928 -29.9941 -29.7485 -29.5435 -11.9516
   -11.7270 -11.6625 -11.3913 -11.2276 -11.1796 -11.1005 -11.0371 -10.7911
    -8.3587  -8.2523  -8.1396  -8.0096  -7.8100  -7.5495  -7.4576  -7.2529
     3.8988   4.1679   4.3034   4.3175   4.4413   4.8005   4.9313   5.0533
     5.1507   5.2894   5.5419   5.6006   5.8394   5.9236   6.1343   6.2108
     6.3087   6.4547   6.5161   6.6129   6.7241   6.8642   7.0911   7.3160

     occupation numbers 
     1.0000   1.0000   1.0000   1.0000   1.0000   1.0000   1.0000   1.0000
     1.0000   1.0000   1.0000   1.0000   1.0000   1.0000   1.0000   1.0000
     1.0000   1.0000   1.0000   1.0000   1.0000   1.0000   1.0000   1.0000
     1.0000   1.0000   1.0000   1.0000   1.0000   1.0000   1.0000   1.0000
     1.0000   1.0000   1.0000   1.0000   1.0000   1.0000   1.0000   1.0000
     1.0000   1.0000   1.0000   1.0000   1.0000   1.0000   1.0000   1.0000
     1.0000   1.0000   1.0000   1.0000   1.0000   1.0000   1.0000   1.0000
     1.0000   1.0000   1.0000   1.0000   1.0000   1.0000   1.0000   1.0000

          k =-0.5274 0.1762 0.1786 (  5311 PWs)   bands (ev):

   -65.7827 -65.3912 -65.0815 -64.9272 -64.8477 -32.7911 -32.7675 -32.6971
   -32.3888 -32.3635 -32.3274 -32.0947 -32.0464 -32.0113 -31.9251 -31.8989
   -31.8739 -31.8607 -31.8060 -31.7926 -30.0036 -29.7390 -29.5428 -12.1085
   -11.7589 -11.7138 -11.5578 -11.1402 -11.0502 -10.9978 -10.8431 -10.7723
    -8.4295  -8.3722  -8.1666  -8.0387  -7.7763  -7.5121  -7.4109  -7.2232
     3.6914   3.9703   4.1255   4.3365   4.4200   4.5536   4.8302   5.1145
     5.2991   5.5031   5.5895   5.6851   5.7976   5.9844   6.1422   6.2571
     6.3455   6.4179   6.5919   6.7455   6.8386   6.9047   7.1199   7.6074

     occupation numbers 
     1.0000   1.0000   1.0000   1.0000   1.0000   1.0000   1.0000   1.0000
     1.0000   1.0000   1.0000   1.0000   1.0000   1.0000   1.0000   1.0000
     1.0000   1.0000   1.0000   1.0000   1.0000   1.0000   1.0000   1.0000
     1.0000   1.0000   1.0000   1.0000   1.0000   1.0000   1.0000   1.0000
     1.0000   1.0000   1.0000   1.0000   1.0000   1.0000   1.0000   1.0000
     1.0000   1.0000   1.0000   1.0000   1.0000   1.0000   1.0000   1.0000
     1.0000   1.0000   1.0000   1.0000   1.0000   1.0000   1.0000   1.0000
     1.0000   1.0000   1.0000   1.0000   1.0000   1.0000   1.0000   1.0000

          k = 0.3520-0.3575-0.3506 (  5296 PWs)   bands (ev):

   -65.7827 -65.3912 -65.0815 -64.9272 -64.8477 -32.7910 -32.7674 -32.6970
   -32.3889 -32.3635 -32.3275 -32.0948 -32.0465 -32.0118 -31.9251 -31.8988
   -31.8736 -31.8606 -31.8059 -31.7926 -30.0054 -29.7396 -29.5400 -12.1355
   -11.8104 -11.7789 -11.6344 -11.0532 -11.0268 -10.9173 -10.7944 -10.6985
    -8.4638  -8.3545  -8.2309  -8.0845  -7.8716  -7.4813  -7.3223  -7.2041
     3.6801   3.8676   4.1355   4.1942   4.3922   4.4916   4.6840   5.0557
     5.3227   5.4381   5.6193   5.6908   5.8398   6.0383   6.1090   6.2515
     6.4555   6.7006   6.7404   6.8371   6.8798   7.0106   7.1538   7.6215

     occupation numbers 
     1.0000   1.0000   1.0000   1.0000   1.0000   1.0000   1.0000   1.0000
     1.0000   1.0000   1.0000   1.0000   1.0000   1.0000   1.0000   1.0000
     1.0000   1.0000   1.0000   1.0000   1.0000   1.0000   1.0000   1.0000
     1.0000   1.0000   1.0000   1.0000   1.0000   1.0000   1.0000   1.0000
     1.0000   1.0000   1.0000   1.0000   1.0000   1.0000   1.0000   1.0000
     1.0000   1.0000   1.0000   1.0000   1.0000   1.0000   1.0000   1.0000
     1.0000   1.0000   1.0000   1.0000   1.0000   1.0000   1.0000   1.0000
     1.0000   1.0000   1.0000   1.0000   1.0000   1.0000   1.0000   1.0000

          k = 0.5306-0.1600-0.5422 (  5303 PWs)   bands (ev):

   -65.7827 -65.3912 -65.0815 -64.9272 -64.8477 -32.7911 -32.7676 -32.6970
   -32.3885 -32.3634 -32.3273 -32.0951 -32.0467 -32.0115 -31.9250 -31.8967
   -31.8739 -31.8609 -31.8078 -31.7928 -29.9960 -29.7489 -29.5408 -11.9920
   -11.7956 -11.7112 -11.5511 -11.1470 -11.0565 -11.0090 -10.9853 -10.7307
    -8.3979  -8.3000  -8.1835  -8.0567  -7.8239  -7.5247  -7.3832  -7.2383
     3.7677   4.0415   4.1850   4.2671   4.3789   4.6488   4.7715   5.0413
     5.2973   5.4785   5.5775   5.7522   5.8075   6.0073   6.1373   6.2104
     6.4782   6.5328   6.6236   6.7145   6.8025   6.8819   7.0883   7.3343

     occupation numbers 
     1.0000   1.0000   1.0000   1.0000   1.0000   1.0000   1.0000   1.0000
     1.0000   1.0000   1.0000   1.0000   1.0000   1.0000   1.0000   1.0000
     1.0000   1.0000   1.0000   1.0000   1.0000   1.0000   1.0000   1.0000
     1.0000   1.0000   1.0000   1.0000   1.0000   1.0000   1.0000   1.0000
     1.0000   1.0000   1.0000   1.0000   1.0000   1.0000   1.0000   1.0000
     1.0000   1.0000   1.0000   1.0000   1.0000   1.0000   1.0000   1.0000
     1.0000   1.0000   1.0000   1.0000   1.0000   1.0000   1.0000   1.0000
     1.0000   1.0000   1.0000   1.0000   1.0000   1.0000   1.0000   1.0000

          k =-0.0051-0.7525 0.0325 (  5294 PWs)   bands (ev):

   -65.7827 -65.3912 -65.0815 -64.9272 -64.8477 -32.7911 -32.7677 -32.6971
   -32.3881 -32.3634 -32.3271 -32.0953 -32.0468 -32.0111 -31.9250 -31.8945
   -31.8741 -31.8613 -31.8098 -31.7929 -29.9859 -29.7590 -29.5416 -11.8234
   -11.6802 -11.6349 -11.3850 -11.3289 -11.2820 -11.1795 -11.0371 -10.7481
    -8.3826  -8.2370  -8.1045  -7.9479  -7.8426  -7.5751  -7.4320  -7.2897
     3.8946   4.0306   4.2564   4.2875   4.6231   4.8859   5.0202   5.0881
     5.3015   5.3373   5.4748   5.6550   5.7624   5.9826   6.0774   6.2311
     6.2637   6.3771   6.5331   6.6495   6.7716   6.7953   6.9650   7.2256

     occupation numbers 
     1.0000   1.0000   1.0000   1.0000   1.0000   1.0000   1.0000   1.0000
     1.0000   1.0000   1.0000   1.0000   1.0000   1.0000   1.0000   1.0000
     1.0000   1.0000   1.0000   1.0000   1.0000   1.0000   1.0000   1.0000
     1.0000   1.0000   1.0000   1.0000   1.0000   1.0000   1.0000   1.0000
     1.0000   1.0000   1.0000   1.0000   1.0000   1.0000   1.0000   1.0000
     1.0000   1.0000   1.0000   1.0000   1.0000   1.0000   1.0000   1.0000
     1.0000   1.0000   1.0000   1.0000   1.0000   1.0000   1.0000   1.0000
     1.0000   1.0000   1.0000   1.0000   1.0000   1.0000   1.0000   1.0000

          k = 0.5248-0.5524-0.1623 (  5287 PWs)   bands (ev):

   -65.7827 -65.3912 -65.0815 -64.9272 -64.8477 -32.7911 -32.7675 -32.6971
   -32.3886 -32.3634 -32.3273 -32.0951 -32.0466 -32.0118 -31.9250 -31.8967
   -31.8736 -31.8609 -31.8079 -31.7928 -29.9972 -29.7475 -29.5409 -12.0016
   -11.7566 -11.6935 -11.6167 -11.1631 -11.1139 -10.9872 -10.9163 -10.7257
    -8.4505  -8.2833  -8.1837  -8.0189  -7.7936  -7.5223  -7.4148  -7.2410
     3.7845   3.9744   4.0788   4.3252   4.4291   4.5306   4.8622   5.0490
     5.3531   5.4563   5.5783   5.6120   5.9803   6.0316   6.1206   6.2288
     6.4359   6.4993   6.6556   6.7229   6.8153   6.9718   7.0109   7.3512

     occupation numbers 
     1.0000   1.0000   1.0000   1.0000   1.0000   1.0000   1.0000   1.0000
     1.0000   1.0000   1.0000   1.0000   1.0000   1.0000   1.0000   1.0000
     1.0000   1.0000   1.0000   1.0000   1.0000   1.0000   1.0000   1.0000
     1.0000   1.0000   1.0000   1.0000   1.0000   1.0000   1.0000   1.0000
     1.0000   1.0000   1.0000   1.0000   1.0000   1.0000   1.0000   1.0000
     1.0000   1.0000   1.0000   1.0000   1.0000   1.0000   1.0000   1.0000
     1.0000   1.0000   1.0000   1.0000   1.0000   1.0000   1.0000   1.0000
     1.0000   1.0000   1.0000   1.0000   1.0000   1.0000   1.0000   1.0000

          k = 0.7034-0.3549-0.3539 (  5288 PWs)   bands (ev):

   -65.7827 -65.3912 -65.0815 -64.9272 -64.8477 -32.7911 -32.7675 -32.6971
   -32.3888 -32.3634 -32.3274 -32.0947 -32.0464 -32.0114 -31.9250 -31.8989
   -31.8740 -31.8606 -31.8059 -31.7927 -30.0037 -29.7391 -29.5429 -12.1057
   -11.7620 -11.7132 -11.5531 -11.1402 -11.0513 -10.9988 -10.8440 -10.7713
    -8.4669  -8.3247  -8.1673  -8.0573  -7.7604  -7.5367  -7.3980  -7.2202
     3.6167   4.0196   4.1350   4.2458   4.3099   4.4968   4.7924   4.9360
     5.3324   5.4293   5.5520   5.8193   5.9555   6.0532   6.2548   6.3389
     6.3972   6.4950   6.5509   6.7597   6.8902   7.0090   7.1569   7.6294

     occupation numbers 
     1.0000   1.0000   1.0000   1.0000   1.0000   1.0000   1.0000   1.0000
     1.0000   1.0000   1.0000   1.0000   1.0000   1.0000   1.0000   1.0000
     1.0000   1.0000   1.0000   1.0000   1.0000   1.0000   1.0000   1.0000
     1.0000   1.0000   1.0000   1.0000   1.0000   1.0000   1.0000   1.0000
     1.0000   1.0000   1.0000   1.0000   1.0000   1.0000   1.0000   1.0000
     1.0000   1.0000   1.0000   1.0000   1.0000   1.0000   1.0000   1.0000
     1.0000   1.0000   1.0000   1.0000   1.0000   1.0000   1.0000   1.0000
     1.0000   1.0000   1.0000   1.0000   1.0000   1.0000   1.0000   1.0000

          k = 0.1677-0.9474 0.2208 (  5300 PWs)   bands (ev):

   -65.7827 -65.3912 -65.0815 -64.9272 -64.8477 -32.7911 -32.7676 -32.6971
   -32.3884 -32.3634 -32.3272 -32.0950 -32.0465 -32.0110 -31.9250 -31.8968
   -31.8742 -31.8609 -31.8078 -31.7929 -29.9943 -29.7485 -29.5436 -11.9486
   -11.7315 -11.6550 -11.3865 -11.2301 -11.1849 -11.1040 -11.0328 -10.7915
    -8.3745  -8.2900  -8.0916  -8.0465  -7.7244  -7.5850  -7.4546  -7.2648
     3.8273   4.0298   4.2121   4.3340   4.4039   4.6500   4.9425   5.0980
     5.2249   5.3463   5.4884   5.7054   5.8471   5.8897   6.1015   6.2721
     6.4356   6.5140   6.6017   6.6984   6.7455   6.8817   7.1984   7.3571

     occupation numbers 
     1.0000   1.0000   1.0000   1.0000   1.0000   1.0000   1.0000   1.0000
     1.0000   1.0000   1.0000   1.0000   1.0000   1.0000   1.0000   1.0000
     1.0000   1.0000   1.0000   1.0000   1.0000   1.0000   1.0000   1.0000
     1.0000   1.0000   1.0000   1.0000   1.0000   1.0000   1.0000   1.0000
     1.0000   1.0000   1.0000   1.0000   1.0000   1.0000   1.0000   1.0000
     1.0000   1.0000   1.0000   1.0000   1.0000   1.0000   1.0000   1.0000
     1.0000   1.0000   1.0000   1.0000   1.0000   1.0000   1.0000   1.0000
     1.0000   1.0000   1.0000   1.0000   1.0000   1.0000   1.0000   1.0000

          k = 0.3463-0.7499 0.0292 (  5282 PWs)   bands (ev):

   -65.7827 -65.3912 -65.0815 -64.9272 -64.8477 -32.7911 -32.7676 -32.6971
   -32.3881 -32.3634 -32.3271 -32.0954 -32.0467 -32.0114 -31.9249 -31.8944
   -31.8738 -31.8613 -31.8099 -31.7929 -29.9872 -29.7575 -29.5417 -11.7596
   -11.7222 -11.6442 -11.5149 -11.3082 -11.2313 -11.1544 -10.9983 -10.7648
    -8.3853  -8.2398  -8.0805  -7.9650  -7.8319  -7.5638  -7.4591  -7.2848
     3.9702   4.1670   4.2233   4.2794   4.4382   4.8238   4.9529   5.0236
     5.1954   5.3036   5.5731   5.6638   5.8695   5.9854   6.1389   6.2759
     6.3580   6.4261   6.5449   6.6300   6.7056   6.7702   7.0486   7.1184

     occupation numbers 
     1.0000   1.0000   1.0000   1.0000   1.0000   1.0000   1.0000   1.0000
     1.0000   1.0000   1.0000   1.0000   1.0000   1.0000   1.0000   1.0000
     1.0000   1.0000   1.0000   1.0000   1.0000   1.0000   1.0000   1.0000
     1.0000   1.0000   1.0000   1.0000   1.0000   1.0000   1.0000   1.0000
     1.0000   1.0000   1.0000   1.0000   1.0000   1.0000   1.0000   1.0000
     1.0000   1.0000   1.0000   1.0000   1.0000   1.0000   1.0000   1.0000
     1.0000   1.0000   1.0000   1.0000   1.0000   1.0000   1.0000   1.0000
     1.0000   1.0000   1.0000   1.0000   1.0000   1.0000   1.0000   1.0000

          k = 0.0065 0.0325-0.7273 (  5276 PWs)   bands (ev):

   -65.7827 -65.3912 -65.0815 -64.9272 -64.8477 -32.7912 -32.7676 -32.6971
   -32.3882 -32.3634 -32.3271 -32.0954 -32.0466 -32.0117 -31.9249 -31.8944
   -31.8736 -31.8613 -31.8099 -31.7929 -29.9885 -29.7561 -29.5418 -11.8066
   -11.6612 -11.6069 -11.5345 -11.3370 -11.2707 -11.2069 -10.9285 -10.7395
    -8.4947  -8.1838  -8.0493  -7.9293  -7.7581  -7.6008  -7.5134  -7.2815
     3.8590   4.0344   4.0756   4.3231   4.6250   4.8006   5.0827   5.1303
     5.2723   5.3163   5.4808   5.6023   5.9067   6.0605   6.1418   6.2562
     6.3460   6.4073   6.4548   6.5816   6.7060   6.8179   7.0767   7.1958

     occupation numbers 
     1.0000   1.0000   1.0000   1.0000   1.0000   1.0000   1.0000   1.0000
     1.0000   1.0000   1.0000   1.0000   1.0000   1.0000   1.0000   1.0000
     1.0000   1.0000   1.0000   1.0000   1.0000   1.0000   1.0000   1.0000
     1.0000   1.0000   1.0000   1.0000   1.0000   1.0000   1.0000   1.0000
     1.0000   1.0000   1.0000   1.0000   1.0000   1.0000   1.0000   1.0000
     1.0000   1.0000   1.0000   1.0000   1.0000   1.0000   1.0000   1.0000
     1.0000   1.0000   1.0000   1.0000   1.0000   1.0000   1.0000   1.0000
     1.0000   1.0000   1.0000   1.0000   1.0000   1.0000   1.0000   1.0000

          k = 0.1850 0.2300-0.9188 (  5276 PWs)   bands (ev):

   -65.7827 -65.3912 -65.0815 -64.9272 -64.8477 -32.7912 -32.7676 -32.6971
   -32.3885 -32.3634 -32.3272 -32.0950 -32.0464 -32.0113 -31.9249 -31.8968
   -31.8740 -31.8609 -31.8079 -31.7928 -29.9955 -29.7471 -29.5438 -11.9588
   -11.7107 -11.5711 -11.5207 -11.3199 -11.1587 -11.0310 -10.9918 -10.7982
    -8.4529  -8.2410  -8.1153  -7.9711  -7.6770  -7.6079  -7.5073  -7.2591
     3.7932   4.0767   4.1416   4.2989   4.3807   4.7204   4.8872   5.0551
     5.1911   5.3792   5.5337   5.7129   5.8241   6.0613   6.1413   6.1845
     6.4028   6.5488   6.6473   6.6845   6.7804   6.8940   7.1345   7.3581

     occupation numbers 
     1.0000   1.0000   1.0000   1.0000   1.0000   1.0000   1.0000   1.0000
     1.0000   1.0000   1.0000   1.0000   1.0000   1.0000   1.0000   1.0000
     1.0000   1.0000   1.0000   1.0000   1.0000   1.0000   1.0000   1.0000
     1.0000   1.0000   1.0000   1.0000   1.0000   1.0000   1.0000   1.0000
     1.0000   1.0000   1.0000   1.0000   1.0000   1.0000   1.0000   1.0000
     1.0000   1.0000   1.0000   1.0000   1.0000   1.0000   1.0000   1.0000
     1.0000   1.0000   1.0000   1.0000   1.0000   1.0000   1.0000   1.0000
     1.0000   1.0000   1.0000   1.0000   1.0000   1.0000   1.0000   1.0000

          k =-0.3507-0.3626-0.3442 (  5298 PWs)   bands (ev):

   -65.7827 -65.3912 -65.0815 -64.9272 -64.8477 -32.7911 -32.7675 -32.6971
   -32.3887 -32.3633 -32.3273 -32.0946 -32.0463 -32.0109 -31.9250 -31.8990
   -31.8744 -31.8606 -31.8060 -31.7927 -30.0021 -29.7385 -29.5458 -12.0799
   -11.7216 -11.5657 -11.4321 -11.2728 -11.1801 -11.0518 -10.9397 -10.7811
    -8.4013  -8.3381  -8.1387  -7.9707  -7.7135  -7.5706  -7.4922  -7.2321
     3.7997   3.8648   4.1852   4.2654   4.5225   4.6344   4.8552   4.9783
     5.0548   5.3892   5.4701   5.5899   5.8394   5.9938   6.1060   6.3161
     6.4306   6.5718   6.7029   6.7885   6.8799   7.0733   7.2142   7.6346

     occupation numbers 
     1.0000   1.0000   1.0000   1.0000   1.0000   1.0000   1.0000   1.0000
     1.0000   1.0000   1.0000   1.0000   1.0000   1.0000   1.0000   1.0000
     1.0000   1.0000   1.0000   1.0000   1.0000   1.0000   1.0000   1.0000
     1.0000   1.0000   1.0000   1.0000   1.0000   1.0000   1.0000   1.0000
     1.0000   1.0000   1.0000   1.0000   1.0000   1.0000   1.0000   1.0000
     1.0000   1.0000   1.0000   1.0000   1.0000   1.0000   1.0000   1.0000
     1.0000   1.0000   1.0000   1.0000   1.0000   1.0000   1.0000   1.0000
     1.0000   1.0000   1.0000   1.0000   1.0000   1.0000   1.0000   1.0000

     highest occupied level (ev):     7.7218

!    total energy              =   -1109.86808453 Ry
     Harris-Foulkes estimate   =   -1109.86808453 Ry
     estimated scf accuracy    <          5.2E-11 Ry

     The total energy is the sum of the following terms:

     one-electron contribution =    -552.15961601 Ry
     hartree contribution      =     320.32235733 Ry
     xc contribution           =    -177.64668709 Ry
     ewald contribution        =    -700.38413877 Ry

     convergence has been achieved in  20 iterations

     Forces acting on atoms (Ry/au):

     atom    1 type  2   force =  -0.36450465E-02  0.80713627E-02  0.30571405E-02
     atom    2 type  3   force =  -0.34775240E-01 -0.11783157E-01  0.26600773E-01
     atom    3 type  2   force =   0.74024836E-02 -0.27479975E-02  0.49523649E-01
     atom    4 type  3   force =  -0.17626576E-01 -0.14042261E-01  0.18945745E-02
     atom    5 type  2   force =   0.43119534E-02  0.47214030E-01  0.26825275E-01
     atom    6 type  3   force =  -0.24470430E-01 -0.20754550E-01 -0.11101429E+00
     atom    7 type  2   force =  -0.13198373E-01  0.11622247E-01 -0.26162490E-01
     atom    8 type  3   force =  -0.10673007E-02  0.75877189E-02  0.69578420E-02
     atom    9 type  1   force =   0.20279037E-01 -0.32212124E-01  0.11455640E+00
     atom   10 type  3   force =   0.21466910E-01  0.41427748E-01  0.20302332E-02
     atom   11 type  1   force =   0.17600649E-01 -0.33423709E-01 -0.14493921E-01
     atom   12 type  3   force =  -0.39057567E-01 -0.32509160E-01  0.11722533E-01
     atom   13 type  1   force =   0.19343726E-01 -0.86112577E-01 -0.40760341E-01
     atom   14 type  3   force =   0.16677268E-01  0.20185813E-01 -0.12167417E-01
     atom   15 type  2   force =   0.12501066E-01  0.63818883E-01 -0.40434265E-01
     atom   16 type  3   force =   0.14257440E-01  0.33657732E-01  0.18643033E-02
     The non-local contrib.  to forces
     atom    1 type  2   force =   0.70236136E-01  0.31450936E+00 -0.29182428E-01
     atom    2 type  3   force =  -0.46224159E-01 -0.27874213E-01  0.83783764E-01
     atom    3 type  2   force =   0.12651866E+00 -0.44798667E-01 -0.15724733E-01
     atom    4 type  3   force =  -0.12137035E-01 -0.66502494E-01 -0.90029854E-01
     atom    5 type  2   force =   0.10972161E+00 -0.31432353E-01  0.25227631E-01
     atom    6 type  3   force =  -0.57163774E-01  0.13513434E+00 -0.13309869E+00
     atom    7 type  2   force =   0.14298252E+00 -0.90139742E-01  0.59758395E-01
     atom    8 type  3   force =   0.45431787E-01 -0.10069635E+00  0.32637130E-01
     atom    9 type  1   force =  -0.10012398E-01  0.68530643E-02  0.40787396E-01
     atom   10 type  3   force =   0.75164160E-01  0.15182917E-01  0.41661212E-01
     atom   11 type  1   force =   0.27259847E-02 -0.76583245E-02 -0.41062798E-02
     atom   12 type  3   force =  -0.26739334E-01  0.11448263E-01  0.34047458E-01
     atom   13 type  1   force =   0.59302204E-01 -0.37406188E-01 -0.29329548E-01
     atom   14 type  3   force =   0.10718555E+00  0.63795953E-01 -0.11644094E+00
     atom   15 type  2   force =  -0.97793020E-01  0.13970673E+00 -0.14096523E+00
     atom   16 type  3   force =   0.13315884E-01  0.12292136E+00  0.55584734E-01
     The ionic contribution  to forces
     atom    1 type  2   force =  -0.75686443E+00  0.31294561E+01 -0.12981480E-01
     atom    2 type  3   force =  -0.16339158E+01  0.49689178E+00  0.19242164E+01
     atom    3 type  2   force =   0.24456114E+01 -0.12907733E+01  0.12462742E+01
     atom    4 type  3   force =  -0.21733089E+01  0.18985520E+01  0.20668633E+01
     atom    5 type  2   force =   0.65030085E+00  0.27254077E+01  0.14572523E+01
     atom    6 type  3   force =  -0.21584125E+01 -0.25662379E+01 -0.13735666E+01
     atom    7 type  2   force =  -0.16673098E+01 -0.65879255E+00  0.66469739E+00
     atom    8 type  3   force =  -0.44240521E+00  0.33956854E+01  0.82122614E+00
     atom    9 type  1   force =   0.29950151E+00 -0.20747925E+01  0.32975757E+01
     atom   10 type  3   force =   0.10833864E+01  0.40979396E+00 -0.19057152E+01
     atom   11 type  1   force =   0.13791018E+01 -0.89050615E+00 -0.56972719E-01
     atom   12 type  3   force =  -0.54462148E+00 -0.24022390E+01 -0.11378083E+01
     atom   13 type  1   force =   0.22237491E+01 -0.34077838E+01 -0.30275151E+01
     atom   14 type  3   force =   0.37906122E+00 -0.26126265E+00  0.76508923E+00
     atom   15 type  2   force =  -0.84629317E+00  0.32811234E+01 -0.33283473E+01
     atom   16 type  3   force =   0.17624190E+01 -0.17845226E+01 -0.14002880E+01
     The local contribution  to forces
     atom    1 type  2   force =   0.68298284E+00 -0.34358824E+01  0.45216418E-01
     atom    2 type  3   force =   0.16446484E+01 -0.48137330E+00 -0.19806669E+01
     atom    3 type  2   force =  -0.25647324E+01  0.13328233E+01 -0.11810318E+01
     atom    4 type  3   force =   0.21675099E+01 -0.18467392E+01 -0.19751618E+01
     atom    5 type  2   force =  -0.75570543E+00 -0.26467661E+01 -0.14556537E+01
     atom    6 type  3   force =   0.21905377E+01  0.24104569E+01  0.13931309E+01
     atom    7 type  2   force =   0.15111343E+01  0.76054867E+00 -0.75060879E+00
     atom    8 type  3   force =   0.39603446E+00 -0.32876796E+01 -0.84674774E+00
     atom    9 type  1   force =  -0.26835375E+00  0.20354466E+01 -0.32237123E+01
     atom   10 type  3   force =  -0.11364523E+01 -0.38253088E+00  0.18664048E+01
     atom   11 type  1   force =  -0.13638423E+01  0.86422210E+00  0.46253955E-01
     atom   12 type  3   force =   0.53118983E+00  0.23577097E+01  0.11160081E+01
     atom   13 type  1   force =  -0.22649746E+01  0.33590054E+01  0.30157339E+01
     atom   14 type  3   force =  -0.46905834E+00  0.21842270E+00 -0.66137977E+00
     atom   15 type  2   force =   0.95658384E+00 -0.33570182E+01  0.34288782E+01
     atom   16 type  3   force =  -0.17613131E+01  0.16964555E+01  0.13470119E+01
     The core correction contribution to forces
     atom    1 type  2   force =   0.00000000E+00  0.00000000E+00  0.00000000E+00
     atom    2 type  3   force =   0.71408885E-03  0.57057743E-03 -0.73278213E-03
     atom    3 type  2   force =   0.00000000E+00  0.00000000E+00  0.00000000E+00
     atom    4 type  3   force =   0.30967058E-03  0.65039183E-03  0.22397561E-03
     atom    5 type  2   force =   0.00000000E+00  0.00000000E+00  0.00000000E+00
     atom    6 type  3   force =   0.56696797E-03 -0.10818443E-03  0.25191282E-02
     atom    7 type  2   force =   0.00000000E+00  0.00000000E+00  0.00000000E+00
     atom    8 type  3   force =  -0.12852489E-03  0.27949580E-03 -0.15840661E-03
     atom    9 type  1   force =  -0.86123552E-03  0.28305256E-03 -0.99723199E-04
     atom   10 type  3   force =  -0.62973525E-03 -0.10168188E-02 -0.32150916E-03
     atom   11 type  1   force =  -0.38635838E-03  0.52475014E-03  0.33209768E-03
     atom   12 type  3   force =   0.11118669E-02  0.57015193E-03 -0.52614595E-03
     atom   13 type  1   force =   0.12732940E-02  0.72258073E-04  0.35433844E-03
     atom   14 type  3   force =  -0.51150527E-03 -0.77167093E-03  0.56366971E-03
     atom   15 type  2   force =   0.00000000E+00  0.00000000E+00  0.00000000E+00
     atom   16 type  3   force =  -0.16097968E-03 -0.11966061E-02 -0.44377703E-03
     The Hubbard contrib.    to forces
     atom    1 type  2   force =   0.00000000E+00  0.00000000E+00  0.00000000E+00
     atom    2 type  3   force =   0.00000000E+00  0.00000000E+00  0.00000000E+00
     atom    3 type  2   force =   0.00000000E+00  0.00000000E+00  0.00000000E+00
     atom    4 type  3   force =   0.00000000E+00  0.00000000E+00  0.00000000E+00
     atom    5 type  2   force =   0.00000000E+00  0.00000000E+00  0.00000000E+00
     atom    6 type  3   force =   0.00000000E+00  0.00000000E+00  0.00000000E+00
     atom    7 type  2   force =   0.00000000E+00  0.00000000E+00  0.00000000E+00
     atom    8 type  3   force =   0.00000000E+00  0.00000000E+00  0.00000000E+00
     atom    9 type  1   force =   0.00000000E+00  0.00000000E+00  0.00000000E+00
     atom   10 type  3   force =   0.00000000E+00  0.00000000E+00  0.00000000E+00
     atom   11 type  1   force =   0.00000000E+00  0.00000000E+00  0.00000000E+00
     atom   12 type  3   force =   0.00000000E+00  0.00000000E+00  0.00000000E+00
     atom   13 type  1   force =   0.00000000E+00  0.00000000E+00  0.00000000E+00
     atom   14 type  3   force =   0.00000000E+00  0.00000000E+00  0.00000000E+00
     atom   15 type  2   force =   0.00000000E+00  0.00000000E+00  0.00000000E+00
     atom   16 type  3   force =   0.00000000E+00  0.00000000E+00  0.00000000E+00
     The SCF correction term to forces
     atom    1 type  2   force =   0.65028768E-06 -0.11646828E-04  0.45915823E-05
     atom    2 type  3   force =   0.24480235E-05  0.21255348E-05  0.26011893E-06
     atom    3 type  2   force =   0.51040228E-05  0.78932877E-06  0.59807278E-05
     atom    4 type  3   force =  -0.37145818E-07 -0.27855301E-05 -0.10570811E-05
     atom    5 type  2   force =  -0.48331318E-05  0.48996538E-05 -0.10025417E-05
     atom    6 type  3   force =   0.15093168E-05  0.38663011E-06  0.96797756E-06
     atom    7 type  2   force =  -0.51854646E-05  0.59904978E-05 -0.95215744E-05
     atom    8 type  3   force =   0.42716670E-06 -0.10918011E-05  0.67942082E-06
     atom    9 type  1   force =   0.51518041E-05 -0.22337560E-05  0.53238605E-05
     atom   10 type  3   force =  -0.13422653E-05 -0.13077959E-05  0.92567778E-06
     atom   11 type  1   force =   0.17051943E-05 -0.59617674E-05 -0.10133793E-05
     atom   12 type  3   force =   0.17973519E-05  0.18732797E-05  0.13264505E-05
     atom   13 type  1   force =  -0.60886069E-05 -0.12423215E-06 -0.39876681E-05
     atom   14 type  3   force =   0.57539124E-06  0.16065204E-05  0.35939407E-06
     atom   15 type  2   force =   0.36589683E-05  0.71027607E-05 -0.95290290E-08
     atom   16 type  3   force =  -0.30944358E-05  0.16185607E-06 -0.58895041E-06

     Total force =     0.247366     Total SCF correction =     0.000026


     entering subroutine stress ...

          total   stress  (Ry/bohr**3)                   (kbar)     P=   -5.40
  -0.0004586041   0.0000314162  -0.0000947700        -67.46      4.62    -13.94
   0.0000314162   0.0003027081  -0.0005997574          4.62     44.53    -88.23
  -0.0000947700  -0.0005997574   0.0000457272        -13.94    -88.23      6.73

     kinetic stress (kbar)  20638.21    -11.49    -31.43
                              -11.49  20798.10    -65.13
                              -31.43    -65.13  20737.88

     local   stress (kbar)   -634.14    -47.72   -923.42
                              -47.72  -7943.15   -323.08
                             -923.42   -323.08  -4690.09

     nonloc. stress (kbar)   5334.04     -0.86      2.98
                               -0.86   5353.47      5.96
                                2.98      5.96   5339.17

     hartree stress (kbar)  11288.42    103.53    434.92
                              103.53  13960.43     63.31
                              434.92     63.31  12764.28

     exc-cor stress (kbar)  -5757.83     -0.39      0.32
                               -0.39  -5752.18      1.03
                                0.32      1.03  -5754.71

     corecor stress (kbar)   -860.47      0.07      0.11
                                0.07   -861.15      0.15
                                0.11      0.15   -860.86

     ewald   stress (kbar) -30075.70    -38.52    502.58
                              -38.52 -25510.98    229.53
                              502.58    229.53 -27528.94

     hubbard stress (kbar)      0.00      0.00      0.00
                                0.00      0.00      0.00
                                0.00      0.00      0.00

     london  stress (kbar)      0.00      0.00      0.00
                                0.00      0.00      0.00
                                0.00      0.00      0.00

     XDM     stress (kbar)      0.00      0.00      0.00
                                0.00      0.00      0.00
                                0.00      0.00      0.00

     dft-nl  stress (kbar)      0.00      0.00      0.00
                                0.00      0.00      0.00
                                0.00      0.00      0.00



     Writing output data file mix.dummy4644.save

     init_run     :     13.84s CPU     15.23s WALL (       1 calls)
     electrons    :    663.17s CPU    724.75s WALL (       1 calls)
     forces       :      5.30s CPU      5.87s WALL (       1 calls)
     stress       :      9.85s CPU     10.05s WALL (       1 calls)

     Called by init_run:
     wfcinit      :     12.21s CPU     13.59s WALL (       1 calls)
     potinit      :      0.44s CPU      0.45s WALL (       1 calls)

     Called by electrons:
     c_bands      :    582.69s CPU    638.67s WALL (      20 calls)
     sum_band     :     74.17s CPU     79.65s WALL (      20 calls)
     v_of_rho     :      0.76s CPU      0.80s WALL (      21 calls)
     v_h          :      0.03s CPU      0.05s WALL (      21 calls)
     v_xc         :      0.80s CPU      0.83s WALL (      23 calls)
     newd         :      4.38s CPU      4.41s WALL (      21 calls)
     mix_rho      :      1.28s CPU      1.30s WALL (      20 calls)

     Called by c_bands:
     init_us_2    :      3.45s CPU      3.51s WALL (    1548 calls)
     cegterg      :    557.73s CPU    612.56s WALL (     720 calls)

     Called by sum_band:
     sum_band:bec :      0.90s CPU      0.85s WALL (     720 calls)
     addusdens    :      4.39s CPU      4.45s WALL (      20 calls)

     Called by *egterg:
     h_psi        :    283.21s CPU    301.06s WALL (    2179 calls)
     s_psi        :     28.32s CPU     30.12s WALL (    2179 calls)
     g_psi        :      0.33s CPU      0.31s WALL (    1423 calls)
     cdiaghg      :     74.46s CPU     85.97s WALL (    2143 calls)
     cegterg:over :     85.95s CPU     95.93s WALL (    1423 calls)
     cegterg:upda :      9.79s CPU     12.73s WALL (    1423 calls)
     cegterg:last :      6.04s CPU      7.51s WALL (     720 calls)

     Called by h_psi:
     h_psi:vloc   :    175.94s CPU    180.57s WALL (    2179 calls)
     h_psi:vnl    :    106.78s CPU    120.04s WALL (    2179 calls)
     add_vuspsi   :     28.74s CPU     32.50s WALL (    2179 calls)

     General routines
     calbec       :    110.79s CPU    125.15s WALL (    2971 calls)
     fft          :      1.52s CPU      1.58s WALL (     357 calls)
     ffts         :      0.71s CPU      0.79s WALL (     540 calls)
     fftw         :    199.58s CPU    204.51s WALL (  266438 calls)
     interpolate  :      0.15s CPU      0.16s WALL (      41 calls)

     Parallel routines
     fft_scatter  :     83.85s CPU     87.03s WALL (  267335 calls)

     PWSCF        : 11m35.72s CPU    12m40.09s WALL


   This run was terminated on:  21: 6:56   7Dec2017            

=------------------------------------------------------------------------------=
   JOB DONE.
=------------------------------------------------------------------------------=
