
     Program PWSCF v.5.1 starts on 16Nov2017 at 11:17:52 

     This program is part of the open-source Quantum ESPRESSO suite
     for quantum simulation of materials; please cite
         "P. Giannozzi et al., J. Phys.:Condens. Matter 21 395502 (2009);
          URL http://www.quantum-espresso.org", 
     in publications or presentations arising from this work. More details at
     http://www.quantum-espresso.org/quote

     Parallel version (MPI), running on    16 processors
     R & G space division:  proc/nbgrp/npool/nimage =      16
     Waiting for input...
     Reading input from standard input
Warning: card &IONS ignored
Warning: card   ION_DYNAMICS='BFGS', ignored
Warning: card / ignored
Warning: card &CELL ignored
Warning: card  CELL_DYNAMICS = 'BFGS' ignored
Warning: card / ignored

     Current dimensions of program PWSCF are:
     Max number of different atomic species (ntypx) = 10
     Max number of k-points (npk) =  40000
     Max angular momentum in pseudopotentials (lmaxx) =  3
 kfg - two_fermi_energies  F

     Subspace diagonalization in iterative solution of the eigenvalue problem:
     a serial algorithm will be used


     Parallelization info
     --------------------
     sticks:   dense  smooth     PW     G-vecs:    dense   smooth      PW
     Min         121      97     27                 3608     2575     400
     Max         122      98     28                 3610     2593     404
     Sum        1945    1553    445                57741    41325    6431



     bravais-lattice index     =            0
     lattice parameter (alat)  =    11.998762421  a.u.
     unit-cell volume          =    1209.2804 (a.u.)^3
     number of atoms/cell      =           16
     number of atomic types    =            3
     number of electrons       =       128.00
     number of Kohn-Sham states=           64
     kinetic-energy cutoff     =      40.0000  Ry
     charge density cutoff     =     200.0000  Ry
     convergence threshold     =      1.0E-10
     mixing beta               =       0.3000
     number of iterations used =            8  local-TF  mixing
     Exchange-correlation      = SLA  PW   PSX  PSC ( 1  4 10  8 0)
     A smooth kinetic-energy cutoff is imposed at      39.5000 Ry
     height of the smooth step-function =             800.0000 Ry
     width of the smooth step-function  =               1.0000 Ry


     celldm(1)=  11.998762  celldm(2)=   0.000000  celldm(3)=   0.000000
     celldm(4)=   0.000000  celldm(5)=   0.000000  celldm(6)=   0.000000

     crystal axes: (cart. coord. in units of alat)
               a(1) = (  -0.007816817785   0.709130978757   0.705033440573 )  
               a(2) = (   0.688365496157  -0.000021901040   0.697238523828 )  
               a(3) = (   0.698861258694   0.711831824550  -0.010517663577 )  

     reciprocal axes: (cart. coord. in units 2 pi/alat)
               b(1) = ( -0.708991  0.706415  0.699991 )  
               b(2) = (  0.727572 -0.703737  0.715894 )  
               b(3) = (  0.706324  0.701070 -0.697313 )  


     PseudoPot. # 1 for Ca read from file:
     /users/kfg/psuedo/gbrv_1.5/ca.pbesol.UPF
     MD5 check sum: 0533207b58cddeaa036efa5b63902087
     Pseudo is Ultrasoft + core correction, Zval = 10.0
     Generated by new atomic code, or converted to UPF format
     Using radial grid of  845 points,  6 beta functions with: 
                l(1) =   0
                l(2) =   0
                l(3) =   1
                l(4) =   1
                l(5) =   2
                l(6) =   2
     Q(r) pseudized with  8 coefficients,  rinner =    1.500   1.500   1.500
                                                       1.500   1.500

     PseudoPot. # 2 for Mg read from file:
     /users/kfg/psuedo/gbrv_1.5/mg.pbesol.UPF
     MD5 check sum: 4059f37963cf5867752dbf5ab2400678
     Pseudo is Ultrasoft, Zval = 10.0
     Generated by new atomic code, or converted to UPF format
     Using radial grid of  821 points,  7 beta functions with: 
                l(1) =   0
                l(2) =   0
                l(3) =   0
                l(4) =   1
                l(5) =   1
                l(6) =   2
                l(7) =   2
     Q(r) pseudized with  8 coefficients,  rinner =    1.200   1.200   1.200
                                                       1.200   1.200

     PseudoPot. # 3 for O  read from file:
     /users/kfg/psuedo/gbrv_1.5/o.pbesol.UPF
     MD5 check sum: 501638753501ef6325af9037351f7734
     Pseudo is Ultrasoft + core correction, Zval =  6.0
     Generated by new atomic code, or converted to UPF format
     Using radial grid of  737 points,  5 beta functions with: 
                l(1) =   0
                l(2) =   0
                l(3) =   1
                l(4) =   1
                l(5) =   2
     Q(r) pseudized with  8 coefficients,  rinner =    0.900   0.900   0.900
                                                       0.900   0.900

     atomic species   valence    mass     pseudopotential
        Ca            10.00    40.07800     Ca( 1.00)
        Mg            10.00    40.07800     Mg( 1.00)
        O              6.00    15.99940     O ( 1.00)

     No symmetry found


                                    s                        frac. trans.

      isym =  1     identity                                     

 cryst.   s( 1) = (     1          0          0      )
                  (     0          1          0      )
                  (     0          0          1      )

 cart.    s( 1) = (  1.0000000 -0.0000000  0.0000000 )
                  (  0.0000000  1.0000000 -0.0000000 )
                  (  0.0000000 -0.0000000  1.0000000 )


     point group C_1 (1)    
     there are  1 classes
     the character table:

       E    
A      1.00

     the symmetry operations in each class:
     E        1

   Cartesian axes

     site n.     atom                  positions (alat units)
         1           Mg  tau(   1) = (    0.02181425986   -0.03237306650   -0.00573724491  )
         2           O   tau(   2) = (    0.39095247190    0.35599220206    0.37307784989  )
         3           Ca  tau(   3) = (    0.29358328519    0.35181125702   -0.01583922051  )
         4           O   tau(   4) = (    0.69103003672    0.72541378318    0.33951787476  )
         5           Ca  tau(   5) = (    0.34812745438    0.00794159428    0.35182012115  )
         6           O   tau(   6) = (    0.65187971392    0.39443435050    0.71260077750  )
         7           Mg  tau(   7) = (    0.68445900789    0.34223536554    0.30503302314  )
         8           O   tau(   8) = (    1.07428417468    0.72517816990    0.68190890770  )
         9           Ca  tau(   9) = (    0.00129910020    0.35535604227    0.37540585577  )
        10           O   tau(  10) = (    0.32932162153    0.70536152454    0.71368055356  )
        11           Ca  tau(  11) = (    0.36085407005    0.69325367464    0.34343344311  )
        12           O   tau(  12) = (    0.70269994502    1.05689655299    0.72591133685  )
        13           Mg  tau(  13) = (    0.36281932749    0.32755060828    0.70941911678  )
        14           O   tau(  14) = (    0.68077804116    0.73223308165    1.02779105118  )
        15           Mg  tau(  15) = (    0.64827968331    0.70993703403    0.68517232987  )
        16           O   tau(  16) = (    1.03427742910    1.07442323900    1.02733002887  )

   Crystallographic axes

     site n.     atom                  positions (cryst. coord.)
         1           Mg  tau(   1) = (   -0.04235096812    0.03454632736   -0.00328718996  )
         2           O   tau(   2) = (    0.23544751221    0.30100542016    0.26556226218  )
         3           Ca  tau(   3) = (    0.02928951600   -0.04531882171    0.46505389324  )
         4           O   tau(   4) = (    0.26016847393    0.23533243294    0.75990619412  )
         5           Ca  tau(   5) = (    0.00506160867    0.49956503287    0.00612952612  )
         6           O   tau(   6) = (    0.31527144821    0.70685812445    0.24005822006  )
         7           Mg  tau(   7) = (   -0.02999487971    0.47552097742    0.51067691246  )
         8           O   tau(   8) = (    0.22794878800    0.75945904792    0.79168876169  )
         9           Ca  tau(   9) = (    0.51288856707    0.01961869305   -0.01172847199  )
        10           O   tau(  10) = (    0.76436186807    0.25413573070    0.22945646024  )
        11           Ca  tau(  11) = (    0.47428284551    0.02054092636    0.50141824761  )
        12           O   tau(  12) = (    0.75653100928    0.28716311292    0.73110424281  )
        13           Mg  tau(  13) = (    0.47073792969    0.54133662967   -0.00878351387  )
        14           O   tau(  14) = (    0.75403928885    0.71580501236    0.27750394515  )
        15           Mg  tau(  15) = (    0.52150007706    0.46257197624    0.47783098906  )
        16           O   tau(  16) = (    0.74481691497    0.73185937730    0.76740952108  )

     number of k points=    36
                       cart. coord. in units 2pi/alat
        k(    1) = (   0.0000000   0.0000000   0.0000000), wk =   0.0312500
        k(    2) = (   0.1765809   0.1752674  -0.1743282), wk =   0.0625000
        k(    3) = (  -0.3531618  -0.3505348   0.3486565), wk =   0.0312500
        k(    4) = (   0.1818931  -0.1759343   0.1789735), wk =   0.0625000
        k(    5) = (   0.3584740  -0.0006669   0.0046453), wk =   0.0625000
        k(    6) = (  -0.1712687  -0.5264691   0.5276300), wk =   0.0625000
        k(    7) = (   0.0053122  -0.3512017   0.3533017), wk =   0.0625000
        k(    8) = (  -0.3637862   0.3518686  -0.3579470), wk =   0.0312500
        k(    9) = (  -0.1872053   0.5271360  -0.5322753), wk =   0.0625000
        k(   10) = (  -0.7169480   0.0013338  -0.0092905), wk =   0.0312500
        k(   11) = (  -0.1772478   0.1766038   0.1749977), wk =   0.0625000
        k(   12) = (  -0.0006669   0.3518712   0.0006695), wk =   0.0625000
        k(   13) = (  -0.5304097  -0.1739310   0.5236542), wk =   0.0625000
        k(   14) = (  -0.3538287   0.0013364   0.3493260), wk =   0.0625000
        k(   15) = (   0.0046453   0.0006695   0.3539712), wk =   0.0625000
        k(   16) = (   0.1812262   0.1759369   0.1796430), wk =   0.0625000
        k(   17) = (  -0.3485166  -0.3498653   0.7026277), wk =   0.0625000
        k(   18) = (  -0.1719357  -0.1745979   0.5282995), wk =   0.0625000
        k(   19) = (  -0.5410340   0.5284725  -0.1829493), wk =   0.0625000
        k(   20) = (  -0.3644531   0.7037399  -0.3572775), wk =   0.0625000
        k(   21) = (  -0.8941958   0.1779377   0.1657072), wk =   0.0625000
        k(   22) = (  -0.7176149   0.3532051  -0.0086210), wk =   0.0625000
        k(   23) = (  -0.3591409   0.3525381  -0.0039758), wk =   0.0625000
        k(   24) = (  -0.1825600   0.5278055  -0.1783040), wk =   0.0625000
        k(   25) = (  -0.7123028   0.0020033   0.3446807), wk =   0.0625000
        k(   26) = (  -0.5357218   0.1772707   0.1703525), wk =   0.0625000
        k(   27) = (   0.3544957  -0.3532076  -0.3499955), wk =   0.0312500
        k(   28) = (   0.5310766  -0.1779402  -0.5243237), wk =   0.0625000
        k(   29) = (   0.0013338  -0.7037424  -0.0013390), wk =   0.0312500
        k(   30) = (   0.5363888  -0.5291419  -0.1710220), wk =   0.0625000
        k(   31) = (   0.7129697  -0.3538745  -0.3453502), wk =   0.0625000
        k(   32) = (   0.1832269  -0.8796767   0.1776345), wk =   0.0625000
        k(   33) = (   0.3598078  -0.7044093   0.0033063), wk =   0.0625000
        k(   34) = (  -0.0092905  -0.0013390  -0.7079425), wk =   0.0312500
        k(   35) = (   0.1672904   0.1739284  -0.8822707), wk =   0.0625000
        k(   36) = (  -0.3624523  -0.3518738  -0.3592860), wk =   0.0312500

                       cryst. coord.
        k(    1) = (   0.0000000   0.0000000   0.0000000), wk =   0.0312500
        k(    2) = (  -0.0000000   0.0000000   0.2500000), wk =   0.0625000
        k(    3) = (   0.0000000  -0.0000000  -0.5000000), wk =   0.0312500
        k(    4) = (   0.0000000   0.2500000  -0.0000000), wk =   0.0625000
        k(    5) = (   0.0000000   0.2500000   0.2500000), wk =   0.0625000
        k(    6) = (   0.0000000   0.2500000  -0.5000000), wk =   0.0625000
        k(    7) = (  -0.0000000   0.2500000  -0.2500000), wk =   0.0625000
        k(    8) = (   0.0000000  -0.5000000   0.0000000), wk =   0.0312500
        k(    9) = (   0.0000000  -0.5000000   0.2500000), wk =   0.0625000
        k(   10) = (  -0.0000000  -0.5000000  -0.5000000), wk =   0.0312500
        k(   11) = (   0.2500000  -0.0000000  -0.0000000), wk =   0.0625000
        k(   12) = (   0.2500000  -0.0000000   0.2500000), wk =   0.0625000
        k(   13) = (   0.2500000  -0.0000000  -0.5000000), wk =   0.0625000
        k(   14) = (   0.2500000  -0.0000000  -0.2500000), wk =   0.0625000
        k(   15) = (   0.2500000   0.2500000  -0.0000000), wk =   0.0625000
        k(   16) = (   0.2500000   0.2500000   0.2500000), wk =   0.0625000
        k(   17) = (   0.2500000   0.2500000  -0.5000000), wk =   0.0625000
        k(   18) = (   0.2500000   0.2500000  -0.2500000), wk =   0.0625000
        k(   19) = (   0.2500000  -0.5000000   0.0000000), wk =   0.0625000
        k(   20) = (   0.2500000  -0.5000000   0.2500000), wk =   0.0625000
        k(   21) = (   0.2500000  -0.5000000  -0.5000000), wk =   0.0625000
        k(   22) = (   0.2500000  -0.5000000  -0.2500000), wk =   0.0625000
        k(   23) = (   0.2500000  -0.2500000  -0.0000000), wk =   0.0625000
        k(   24) = (   0.2500000  -0.2500000   0.2500000), wk =   0.0625000
        k(   25) = (   0.2500000  -0.2500000  -0.5000000), wk =   0.0625000
        k(   26) = (   0.2500000  -0.2500000  -0.2500000), wk =   0.0625000
        k(   27) = (  -0.5000000   0.0000000   0.0000000), wk =   0.0312500
        k(   28) = (  -0.5000000   0.0000000   0.2500000), wk =   0.0625000
        k(   29) = (  -0.5000000   0.0000000  -0.5000000), wk =   0.0312500
        k(   30) = (  -0.5000000   0.2500000   0.0000000), wk =   0.0625000
        k(   31) = (  -0.5000000   0.2500000   0.2500000), wk =   0.0625000
        k(   32) = (  -0.5000000   0.2500000  -0.5000000), wk =   0.0625000
        k(   33) = (  -0.5000000   0.2500000  -0.2500000), wk =   0.0625000
        k(   34) = (  -0.5000000  -0.5000000   0.0000000), wk =   0.0312500
        k(   35) = (  -0.5000000  -0.5000000   0.2500000), wk =   0.0625000
        k(   36) = (  -0.5000000  -0.5000000  -0.5000000), wk =   0.0312500

     Dense  grid:    57741 G-vectors     FFT dimensions: (  60,  54,  54)

     Smooth grid:    41325 G-vectors     FFT dimensions: (  50,  48,  50)

     Largest allocated arrays     est. size (Mb)     dimensions
        Kohn-Sham Wavefunctions         0.32 Mb     (     328,   64)
        NL pseudopotentials             1.26 Mb     (     328,  252)
        Each V/rho on FFT grid          0.20 Mb     (   12960)
        Each G-vector array             0.03 Mb     (    3609)
        G-vector shells                 0.03 Mb     (    3522)
     Largest temporary arrays     est. size (Mb)     dimensions
        Auxiliary wavefunctions         1.28 Mb     (     328,  256)
        Each subspace H/S matrix        1.00 Mb     (     256,  256)
        Each <psi_i|beta_j> matrix      0.25 Mb     (     252,   64)
        Arrays for rho mixing           1.58 Mb     (   12960,    8)

     Check: negative/imaginary core charge=   -0.000003    0.000000

     Initial potential from superposition of free atoms

     starting charge  126.77837, renormalised to  128.00000
     Starting wfc are   92 randomized atomic wfcs

     total cpu time spent up to now is       16.2 secs

     per-process dynamical memory:    32.0 Mb

     Self-consistent Calculation

     iteration #  1     ecut=    40.00 Ry     beta=0.30
     Davidson diagonalization with overlap
     ethr =  1.00E-02,  avg # of iterations =  2.0

     total cpu time spent up to now is       54.3 secs

     total energy              =   -1059.89564248 Ry
     Harris-Foulkes estimate   =   -1060.53744215 Ry
     estimated scf accuracy    <       3.27020419 Ry

     iteration #  2     ecut=    40.00 Ry     beta=0.30
     Davidson diagonalization with overlap
     ethr =  2.55E-03,  avg # of iterations =  1.4

     total cpu time spent up to now is       87.2 secs

     total energy              =   -1059.41214363 Ry
     Harris-Foulkes estimate   =   -1059.99720169 Ry
     estimated scf accuracy    <       1.40803227 Ry

     iteration #  3     ecut=    40.00 Ry     beta=0.30
     Davidson diagonalization with overlap
     ethr =  1.10E-03,  avg # of iterations =  2.0

     total cpu time spent up to now is      130.4 secs

     total energy              =   -1059.64356397 Ry
     Harris-Foulkes estimate   =   -1059.68245492 Ry
     estimated scf accuracy    <       0.15349676 Ry

     iteration #  4     ecut=    40.00 Ry     beta=0.30
     Davidson diagonalization with overlap
     ethr =  1.20E-04,  avg # of iterations =  2.0

     total cpu time spent up to now is      168.0 secs

     total energy              =   -1059.60612758 Ry
     Harris-Foulkes estimate   =   -1059.66027684 Ry
     estimated scf accuracy    <       0.09567105 Ry

     iteration #  5     ecut=    40.00 Ry     beta=0.30
     Davidson diagonalization with overlap
     ethr =  7.47E-05,  avg # of iterations =  2.0

     total cpu time spent up to now is      210.0 secs

     total energy              =   -1059.61920814 Ry
     Harris-Foulkes estimate   =   -1059.62047135 Ry
     estimated scf accuracy    <       0.01341373 Ry

     iteration #  6     ecut=    40.00 Ry     beta=0.30
     Davidson diagonalization with overlap
     ethr =  1.05E-05,  avg # of iterations =  1.0

     total cpu time spent up to now is      239.3 secs

     total energy              =   -1059.61618376 Ry
     Harris-Foulkes estimate   =   -1059.61945652 Ry
     estimated scf accuracy    <       0.00811284 Ry

     iteration #  7     ecut=    40.00 Ry     beta=0.30
     Davidson diagonalization with overlap
     ethr =  6.34E-06,  avg # of iterations =  2.0

     total cpu time spent up to now is      277.5 secs

     total energy              =   -1059.61672434 Ry
     Harris-Foulkes estimate   =   -1059.61698214 Ry
     estimated scf accuracy    <       0.00108334 Ry

     iteration #  8     ecut=    40.00 Ry     beta=0.30
     Davidson diagonalization with overlap
     ethr =  8.46E-07,  avg # of iterations =  2.0

     total cpu time spent up to now is      315.0 secs

     total energy              =   -1059.61665119 Ry
     Harris-Foulkes estimate   =   -1059.61680960 Ry
     estimated scf accuracy    <       0.00030726 Ry

     iteration #  9     ecut=    40.00 Ry     beta=0.30
     Davidson diagonalization with overlap
     ethr =  2.40E-07,  avg # of iterations =  3.0

     total cpu time spent up to now is      362.0 secs

     total energy              =   -1059.61671824 Ry
     Harris-Foulkes estimate   =   -1059.61673807 Ry
     estimated scf accuracy    <       0.00015514 Ry

     iteration # 10     ecut=    40.00 Ry     beta=0.30
     Davidson diagonalization with overlap
     ethr =  1.21E-07,  avg # of iterations =  1.0

     total cpu time spent up to now is      391.0 secs

     total energy              =   -1059.61668948 Ry
     Harris-Foulkes estimate   =   -1059.61672081 Ry
     estimated scf accuracy    <       0.00009289 Ry

     iteration # 11     ecut=    40.00 Ry     beta=0.30
     Davidson diagonalization with overlap
     ethr =  7.26E-08,  avg # of iterations =  2.0

     total cpu time spent up to now is      430.3 secs

     total energy              =   -1059.61670024 Ry
     Harris-Foulkes estimate   =   -1059.61670211 Ry
     estimated scf accuracy    <       0.00000735 Ry

     iteration # 12     ecut=    40.00 Ry     beta=0.30
     Davidson diagonalization with overlap
     ethr =  5.75E-09,  avg # of iterations =  2.0

     total cpu time spent up to now is      468.4 secs

     total energy              =   -1059.61669987 Ry
     Harris-Foulkes estimate   =   -1059.61670095 Ry
     estimated scf accuracy    <       0.00000267 Ry

     iteration # 13     ecut=    40.00 Ry     beta=0.30
     Davidson diagonalization with overlap
     ethr =  2.09E-09,  avg # of iterations =  2.0

     total cpu time spent up to now is      510.3 secs

     total energy              =   -1059.61670009 Ry
     Harris-Foulkes estimate   =   -1059.61670017 Ry
     estimated scf accuracy    <       0.00000025 Ry

     iteration # 14     ecut=    40.00 Ry     beta=0.30
     Davidson diagonalization with overlap
     ethr =  1.97E-10,  avg # of iterations =  2.1

     total cpu time spent up to now is      550.5 secs

     total energy              =   -1059.61670011 Ry
     Harris-Foulkes estimate   =   -1059.61670013 Ry
     estimated scf accuracy    <       0.00000008 Ry

     iteration # 15     ecut=    40.00 Ry     beta=0.30
     Davidson diagonalization with overlap
     ethr =  6.28E-11,  avg # of iterations =  2.0

     total cpu time spent up to now is      589.5 secs

     total energy              =   -1059.61670011 Ry
     Harris-Foulkes estimate   =   -1059.61670012 Ry
     estimated scf accuracy    <       0.00000003 Ry

     iteration # 16     ecut=    40.00 Ry     beta=0.30
     Davidson diagonalization with overlap
     ethr =  2.34E-11,  avg # of iterations =  2.0

     total cpu time spent up to now is      635.4 secs

     total energy              =   -1059.61670011 Ry
     Harris-Foulkes estimate   =   -1059.61670011 Ry
     estimated scf accuracy    <          9.0E-09 Ry

     iteration # 17     ecut=    40.00 Ry     beta=0.30
     Davidson diagonalization with overlap
     ethr =  7.05E-12,  avg # of iterations =  2.0

     total cpu time spent up to now is      679.1 secs

     total energy              =   -1059.61670011 Ry
     Harris-Foulkes estimate   =   -1059.61670011 Ry
     estimated scf accuracy    <          2.8E-09 Ry

     iteration # 18     ecut=    40.00 Ry     beta=0.30
     Davidson diagonalization with overlap
     ethr =  2.16E-12,  avg # of iterations =  2.0

     total cpu time spent up to now is      718.3 secs

     total energy              =   -1059.61670011 Ry
     Harris-Foulkes estimate   =   -1059.61670011 Ry
     estimated scf accuracy    <          6.4E-10 Ry

     iteration # 19     ecut=    40.00 Ry     beta=0.30
     Davidson diagonalization with overlap
     ethr =  4.99E-13,  avg # of iterations =  2.0

     total cpu time spent up to now is      753.5 secs

     total energy              =   -1059.61670011 Ry
     Harris-Foulkes estimate   =   -1059.61670011 Ry
     estimated scf accuracy    <          1.8E-10 Ry

     iteration # 20     ecut=    40.00 Ry     beta=0.30
     Davidson diagonalization with overlap
     ethr =  1.43E-13,  avg # of iterations =  2.0

     total cpu time spent up to now is      792.9 secs

     End of self-consistent calculation

          k = 0.0000 0.0000 0.0000 (  5121 PWs)   bands (ev):

   -64.9371 -64.6233 -63.6697 -63.6129 -31.9516 -31.9129 -31.8574 -31.6317
   -31.5864 -31.5713 -30.7025 -30.6583 -30.6270 -30.6249 -30.5940 -30.5685
   -29.2369 -28.9467 -28.3375 -27.7910 -11.1733 -11.0013 -10.9623 -10.9034
   -10.3804 -10.1530  -9.9127  -9.7953  -9.6831  -9.5091  -9.4013  -9.2084
    -8.2038  -7.5216  -7.2920  -7.2137  -6.8295  -6.2185  -6.0532  -6.0359
     3.5810   4.2505   4.5214   5.3045   5.3272   5.4859   5.5521   6.5377
     6.6895   6.7433   6.7750   6.8091   6.9507   7.0777   7.1318   7.2325
     7.3639   7.4389   7.4971   7.6027   7.7031   8.1403   8.2161   8.2373

     occupation numbers 
     1.0000   1.0000   1.0000   1.0000   1.0000   1.0000   1.0000   1.0000
     1.0000   1.0000   1.0000   1.0000   1.0000   1.0000   1.0000   1.0000
     1.0000   1.0000   1.0000   1.0000   1.0000   1.0000   1.0000   1.0000
     1.0000   1.0000   1.0000   1.0000   1.0000   1.0000   1.0000   1.0000
     1.0000   1.0000   1.0000   1.0000   1.0000   1.0000   1.0000   1.0000
     1.0000   1.0000   1.0000   1.0000   1.0000   1.0000   1.0000   1.0000
     1.0000   1.0000   1.0000   1.0000   1.0000   1.0000   1.0000   1.0000
     1.0000   1.0000   1.0000   1.0000   1.0000   1.0000   1.0000   1.0000

          k = 0.1766 0.1753-0.1743 (  5162 PWs)   bands (ev):

   -64.9371 -64.6233 -63.6697 -63.6129 -31.9516 -31.9128 -31.8575 -31.6317
   -31.5865 -31.5713 -30.7025 -30.6583 -30.6270 -30.6239 -30.5941 -30.5697
   -29.2343 -28.9477 -28.3387 -27.7913 -11.0710 -10.9308 -10.8750 -10.8502
   -10.4449 -10.2662  -9.9706  -9.8653  -9.7771  -9.6273  -9.4967  -9.2440
    -7.9318  -7.4182  -7.1282  -7.0504  -6.8287  -6.3569  -6.1897  -6.1753
     3.8651   4.5484   4.7663   5.1689   5.4196   5.5728   5.7077   6.3379
     6.4148   6.6089   6.6669   6.7632   6.8977   6.9407   7.0924   7.2140
     7.3001   7.4255   7.4763   7.5632   7.6467   7.7621   8.0293   8.0770

     occupation numbers 
     1.0000   1.0000   1.0000   1.0000   1.0000   1.0000   1.0000   1.0000
     1.0000   1.0000   1.0000   1.0000   1.0000   1.0000   1.0000   1.0000
     1.0000   1.0000   1.0000   1.0000   1.0000   1.0000   1.0000   1.0000
     1.0000   1.0000   1.0000   1.0000   1.0000   1.0000   1.0000   1.0000
     1.0000   1.0000   1.0000   1.0000   1.0000   1.0000   1.0000   1.0000
     1.0000   1.0000   1.0000   1.0000   1.0000   1.0000   1.0000   1.0000
     1.0000   1.0000   1.0000   1.0000   1.0000   1.0000   1.0000   1.0000
     1.0000   1.0000   1.0000   1.0000   1.0000   1.0000   1.0000   1.0000

          k =-0.3532-0.3505 0.3487 (  5156 PWs)   bands (ev):

   -64.9371 -64.6233 -63.6697 -63.6129 -31.9516 -31.9128 -31.8575 -31.6317
   -31.5865 -31.5712 -30.7024 -30.6584 -30.6271 -30.6228 -30.5942 -30.5709
   -29.2318 -28.9488 -28.3399 -27.7917 -10.9261 -10.8287 -10.8072 -10.7092
   -10.5600 -10.4281 -10.1291  -9.9531  -9.8168  -9.7485  -9.5255  -9.2664
    -7.6793  -7.3163  -6.9485  -6.8248  -6.6739  -6.5765  -6.4295  -6.3966
     4.5027   4.6100   5.1012   5.2786   5.3658   5.6001   5.7531   5.9418
     6.2394   6.4479   6.5330   6.7368   6.8016   6.9018   6.9117   7.0804
     7.2669   7.4524   7.4901   7.5090   7.6187   7.6598   7.7554   7.9084

     occupation numbers 
     1.0000   1.0000   1.0000   1.0000   1.0000   1.0000   1.0000   1.0000
     1.0000   1.0000   1.0000   1.0000   1.0000   1.0000   1.0000   1.0000
     1.0000   1.0000   1.0000   1.0000   1.0000   1.0000   1.0000   1.0000
     1.0000   1.0000   1.0000   1.0000   1.0000   1.0000   1.0000   1.0000
     1.0000   1.0000   1.0000   1.0000   1.0000   1.0000   1.0000   1.0000
     1.0000   1.0000   1.0000   1.0000   1.0000   1.0000   1.0000   1.0000
     1.0000   1.0000   1.0000   1.0000   1.0000   1.0000   1.0000   1.0000
     1.0000   1.0000   1.0000   1.0000   1.0000   1.0000   1.0000   1.0000

          k = 0.1819-0.1759 0.1790 (  5142 PWs)   bands (ev):

   -64.9371 -64.6233 -63.6697 -63.6129 -31.9516 -31.9128 -31.8574 -31.6318
   -31.5865 -31.5713 -30.7026 -30.6584 -30.6270 -30.6251 -30.5941 -30.5685
   -29.2360 -28.9459 -28.3372 -27.7923 -11.1460 -10.9542 -10.9304 -10.8637
   -10.3717 -10.1532  -9.9233  -9.8033  -9.7087  -9.6269  -9.5307  -9.3996
    -7.9378  -7.4300  -7.1428  -7.0298  -6.7957  -6.3586  -6.2167  -6.1739
     3.8542   4.4619   4.8561   5.2216   5.3700   5.5014   5.7592   6.4190
     6.5011   6.6201   6.7145   6.7882   6.9211   6.9705   7.0381   7.1782
     7.2892   7.3449   7.4574   7.5312   7.6528   7.7061   7.9601   8.0751

     occupation numbers 
     1.0000   1.0000   1.0000   1.0000   1.0000   1.0000   1.0000   1.0000
     1.0000   1.0000   1.0000   1.0000   1.0000   1.0000   1.0000   1.0000
     1.0000   1.0000   1.0000   1.0000   1.0000   1.0000   1.0000   1.0000
     1.0000   1.0000   1.0000   1.0000   1.0000   1.0000   1.0000   1.0000
     1.0000   1.0000   1.0000   1.0000   1.0000   1.0000   1.0000   1.0000
     1.0000   1.0000   1.0000   1.0000   1.0000   1.0000   1.0000   1.0000
     1.0000   1.0000   1.0000   1.0000   1.0000   1.0000   1.0000   1.0000
     1.0000   1.0000   1.0000   1.0000   1.0000   1.0000   1.0000   1.0000

          k = 0.3585-0.0007 0.0046 (  5164 PWs)   bands (ev):

   -64.9371 -64.6233 -63.6697 -63.6129 -31.9516 -31.9129 -31.8575 -31.6318
   -31.5865 -31.5713 -30.7026 -30.6583 -30.6271 -30.6240 -30.5941 -30.5697
   -29.2343 -28.9469 -28.3386 -27.7916 -11.0759 -10.9766 -10.8831 -10.8073
   -10.4216 -10.2536 -10.0219  -9.8738  -9.7916  -9.5371  -9.4765  -9.2861
    -7.9320  -7.5594  -7.1535  -6.8698  -6.7459  -6.4853  -6.2343  -6.1142
     3.9789   4.5814   4.8465   5.3178   5.3660   5.4825   5.7036   6.2414
     6.4710   6.6207   6.6883   6.8004   6.8347   6.9147   7.0452   7.1393
     7.2507   7.3750   7.4061   7.4634   7.5549   7.6910   8.0870   8.1349

     occupation numbers 
     1.0000   1.0000   1.0000   1.0000   1.0000   1.0000   1.0000   1.0000
     1.0000   1.0000   1.0000   1.0000   1.0000   1.0000   1.0000   1.0000
     1.0000   1.0000   1.0000   1.0000   1.0000   1.0000   1.0000   1.0000
     1.0000   1.0000   1.0000   1.0000   1.0000   1.0000   1.0000   1.0000
     1.0000   1.0000   1.0000   1.0000   1.0000   1.0000   1.0000   1.0000
     1.0000   1.0000   1.0000   1.0000   1.0000   1.0000   1.0000   1.0000
     1.0000   1.0000   1.0000   1.0000   1.0000   1.0000   1.0000   1.0000
     1.0000   1.0000   1.0000   1.0000   1.0000   1.0000   1.0000   1.0000

          k =-0.1713-0.5265 0.5276 (  5165 PWs)   bands (ev):

   -64.9371 -64.6233 -63.6697 -63.6129 -31.9516 -31.9129 -31.8575 -31.6318
   -31.5865 -31.5712 -30.7025 -30.6584 -30.6272 -30.6229 -30.5942 -30.5709
   -29.2318 -28.9480 -28.3398 -27.7920 -10.9565 -10.8808 -10.7980 -10.7194
   -10.4980 -10.4221 -10.1772  -9.9514  -9.8093  -9.6171  -9.4656  -9.3293
    -7.6913  -7.4546  -7.0330  -6.9273  -6.8315  -6.3795  -6.3162  -6.2683
     4.5278   4.9080   5.0303   5.1442   5.4600   5.6278   5.7028   5.9232
     6.1345   6.3927   6.4651   6.6982   6.7450   6.8252   6.9209   7.1488
     7.2597   7.3274   7.4528   7.5025   7.6346   7.6914   7.7788   7.9622

     occupation numbers 
     1.0000   1.0000   1.0000   1.0000   1.0000   1.0000   1.0000   1.0000
     1.0000   1.0000   1.0000   1.0000   1.0000   1.0000   1.0000   1.0000
     1.0000   1.0000   1.0000   1.0000   1.0000   1.0000   1.0000   1.0000
     1.0000   1.0000   1.0000   1.0000   1.0000   1.0000   1.0000   1.0000
     1.0000   1.0000   1.0000   1.0000   1.0000   1.0000   1.0000   1.0000
     1.0000   1.0000   1.0000   1.0000   1.0000   1.0000   1.0000   1.0000
     1.0000   1.0000   1.0000   1.0000   1.0000   1.0000   1.0000   1.0000
     1.0000   1.0000   1.0000   1.0000   1.0000   1.0000   1.0000   1.0000

          k = 0.0053-0.3512 0.3533 (  5165 PWs)   bands (ev):

   -64.9371 -64.6233 -63.6697 -63.6129 -31.9516 -31.9128 -31.8575 -31.6318
   -31.5865 -31.5713 -30.7026 -30.6584 -30.6272 -30.6240 -30.5941 -30.5697
   -29.2335 -28.9469 -28.3384 -27.7927 -11.0499 -10.8798 -10.8394 -10.7999
   -10.4562 -10.2815  -9.9932  -9.8922  -9.8188  -9.7469  -9.4801  -9.3759
    -7.7533  -7.3085  -7.1167  -6.9571  -6.6691  -6.5540  -6.4206  -6.1308
     4.2482   4.7872   5.0209   5.1593   5.3825   5.7317   5.8796   6.0418
     6.1595   6.4337   6.5486   6.6096   6.8268   6.9925   7.0985   7.1521
     7.2441   7.2764   7.3295   7.4817   7.5301   7.6614   7.8786   7.9736

     occupation numbers 
     1.0000   1.0000   1.0000   1.0000   1.0000   1.0000   1.0000   1.0000
     1.0000   1.0000   1.0000   1.0000   1.0000   1.0000   1.0000   1.0000
     1.0000   1.0000   1.0000   1.0000   1.0000   1.0000   1.0000   1.0000
     1.0000   1.0000   1.0000   1.0000   1.0000   1.0000   1.0000   1.0000
     1.0000   1.0000   1.0000   1.0000   1.0000   1.0000   1.0000   1.0000
     1.0000   1.0000   1.0000   1.0000   1.0000   1.0000   1.0000   1.0000
     1.0000   1.0000   1.0000   1.0000   1.0000   1.0000   1.0000   1.0000
     1.0000   1.0000   1.0000   1.0000   1.0000   1.0000   1.0000   1.0000

          k =-0.3638 0.3519-0.3579 (  5170 PWs)   bands (ev):

   -64.9371 -64.6233 -63.6697 -63.6129 -31.9516 -31.9128 -31.8574 -31.6319
   -31.5865 -31.5714 -30.7028 -30.6584 -30.6271 -30.6253 -30.5941 -30.5685
   -29.2351 -28.9450 -28.3368 -27.7937 -11.1287 -10.9352 -10.8564 -10.8030
   -10.3536 -10.1529  -9.9323  -9.8409  -9.7543  -9.7419  -9.6727  -9.5068
    -7.7526  -7.2163  -6.9881  -6.7989  -6.6200  -6.5465  -6.5138  -6.4266
     4.3063   4.8530   4.8672   5.3358   5.4124   5.5344   5.9538   6.1818
     6.3706   6.3881   6.5863   6.7187   6.7454   6.8911   7.0082   7.0797
     7.1367   7.2873   7.3629   7.5136   7.5311   7.6829   7.7093   7.8754

     occupation numbers 
     1.0000   1.0000   1.0000   1.0000   1.0000   1.0000   1.0000   1.0000
     1.0000   1.0000   1.0000   1.0000   1.0000   1.0000   1.0000   1.0000
     1.0000   1.0000   1.0000   1.0000   1.0000   1.0000   1.0000   1.0000
     1.0000   1.0000   1.0000   1.0000   1.0000   1.0000   1.0000   1.0000
     1.0000   1.0000   1.0000   1.0000   1.0000   1.0000   1.0000   1.0000
     1.0000   1.0000   1.0000   1.0000   1.0000   1.0000   1.0000   1.0000
     1.0000   1.0000   1.0000   1.0000   1.0000   1.0000   1.0000   1.0000
     1.0000   1.0000   1.0000   1.0000   1.0000   1.0000   1.0000   1.0000

          k =-0.1872 0.5271-0.5323 (  5167 PWs)   bands (ev):

   -64.9371 -64.6233 -63.6697 -63.6129 -31.9516 -31.9128 -31.8574 -31.6319
   -31.5865 -31.5713 -30.7027 -30.6584 -30.6272 -30.6241 -30.5942 -30.5697
   -29.2335 -28.9461 -28.3383 -27.7930 -11.0563 -10.9046 -10.8713 -10.7704
   -10.4146 -10.2601 -10.0522  -9.9091  -9.8064  -9.6200  -9.5297  -9.4210
    -7.7134  -7.4484  -7.0248  -6.9181  -6.8146  -6.3689  -6.3446  -6.2766
     4.4476   4.8800   5.0499   5.2388   5.3873   5.5194   5.9186   6.0710
     6.2261   6.3314   6.4672   6.6287   6.7470   6.8508   6.9491   7.0734
     7.2151   7.2972   7.3727   7.5119   7.5640   7.7061   7.7955   7.9499

     occupation numbers 
     1.0000   1.0000   1.0000   1.0000   1.0000   1.0000   1.0000   1.0000
     1.0000   1.0000   1.0000   1.0000   1.0000   1.0000   1.0000   1.0000
     1.0000   1.0000   1.0000   1.0000   1.0000   1.0000   1.0000   1.0000
     1.0000   1.0000   1.0000   1.0000   1.0000   1.0000   1.0000   1.0000
     1.0000   1.0000   1.0000   1.0000   1.0000   1.0000   1.0000   1.0000
     1.0000   1.0000   1.0000   1.0000   1.0000   1.0000   1.0000   1.0000
     1.0000   1.0000   1.0000   1.0000   1.0000   1.0000   1.0000   1.0000
     1.0000   1.0000   1.0000   1.0000   1.0000   1.0000   1.0000   1.0000

          k =-0.7169 0.0013-0.0093 (  5182 PWs)   bands (ev):

   -64.9371 -64.6233 -63.6697 -63.6129 -31.9516 -31.9129 -31.8575 -31.6319
   -31.5865 -31.5712 -30.7027 -30.6584 -30.6273 -30.6229 -30.5942 -30.5708
   -29.2318 -28.9472 -28.3397 -27.7922 -10.9968 -10.9167 -10.8327 -10.6502
   -10.4526 -10.4098 -10.2295  -9.9478  -9.8241  -9.5039  -9.4547  -9.3175
    -7.6985  -7.6217  -7.0711  -6.9941  -6.9100  -6.2547  -6.2357  -6.1870
     4.6721   4.9178   5.0358   5.2501   5.4866   5.4989   5.8005   5.8447
     6.1769   6.3627   6.4592   6.5975   6.6724   6.7863   6.8158   6.8849
     7.1891   7.3234   7.3843   7.4674   7.6856   7.7545   7.9929   8.0335

     occupation numbers 
     1.0000   1.0000   1.0000   1.0000   1.0000   1.0000   1.0000   1.0000
     1.0000   1.0000   1.0000   1.0000   1.0000   1.0000   1.0000   1.0000
     1.0000   1.0000   1.0000   1.0000   1.0000   1.0000   1.0000   1.0000
     1.0000   1.0000   1.0000   1.0000   1.0000   1.0000   1.0000   1.0000
     1.0000   1.0000   1.0000   1.0000   1.0000   1.0000   1.0000   1.0000
     1.0000   1.0000   1.0000   1.0000   1.0000   1.0000   1.0000   1.0000
     1.0000   1.0000   1.0000   1.0000   1.0000   1.0000   1.0000   1.0000
     1.0000   1.0000   1.0000   1.0000   1.0000   1.0000   1.0000   1.0000

          k =-0.1772 0.1766 0.1750 (  5162 PWs)   bands (ev):

   -64.9371 -64.6233 -63.6697 -63.6129 -31.9516 -31.9129 -31.8574 -31.6318
   -31.5864 -31.5713 -30.7025 -30.6584 -30.6270 -30.6239 -30.5941 -30.5697
   -29.2341 -28.9483 -28.3380 -27.7917 -11.0710 -10.9508 -10.9278 -10.8147
   -10.4420 -10.2684  -9.9308  -9.8595  -9.7016  -9.5909  -9.5288  -9.3245
    -7.9405  -7.4321  -7.1264  -7.0435  -6.8365  -6.3274  -6.2125  -6.1717
     3.8452   4.5649   4.7748   5.2232   5.4257   5.5270   5.7155   6.3655
     6.4911   6.5488   6.7597   6.7821   6.8880   6.9615   7.0832   7.1626
     7.2209   7.3991   7.4577   7.5044   7.6786   7.7743   8.0001   8.0712

     occupation numbers 
     1.0000   1.0000   1.0000   1.0000   1.0000   1.0000   1.0000   1.0000
     1.0000   1.0000   1.0000   1.0000   1.0000   1.0000   1.0000   1.0000
     1.0000   1.0000   1.0000   1.0000   1.0000   1.0000   1.0000   1.0000
     1.0000   1.0000   1.0000   1.0000   1.0000   1.0000   1.0000   1.0000
     1.0000   1.0000   1.0000   1.0000   1.0000   1.0000   1.0000   1.0000
     1.0000   1.0000   1.0000   1.0000   1.0000   1.0000   1.0000   1.0000
     1.0000   1.0000   1.0000   1.0000   1.0000   1.0000   1.0000   1.0000
     1.0000   1.0000   1.0000   1.0000   1.0000   1.0000   1.0000   1.0000

          k =-0.0007 0.3519 0.0007 (  5178 PWs)   bands (ev):

   -64.9371 -64.6233 -63.6697 -63.6129 -31.9516 -31.9128 -31.8574 -31.6318
   -31.5864 -31.5712 -30.7025 -30.6584 -30.6271 -30.6250 -30.5941 -30.5685
   -29.2354 -28.9451 -28.3394 -27.7922 -11.1031 -10.9197 -10.8724 -10.8090
   -10.3592 -10.1536 -10.0667  -9.9466  -9.8892  -9.5095  -9.4472  -9.3739
    -7.9573  -7.4882  -7.1599  -6.9533  -6.7036  -6.3883  -6.2687  -6.1281
     3.9086   4.5555   4.8347   5.2112   5.4874   5.6377   5.7680   6.3276
     6.4226   6.5294   6.6427   6.7304   6.8145   6.8918   6.9699   7.1755
     7.2668   7.3703   7.4202   7.5147   7.6325   7.7550   8.0448   8.1275

     occupation numbers 
     1.0000   1.0000   1.0000   1.0000   1.0000   1.0000   1.0000   1.0000
     1.0000   1.0000   1.0000   1.0000   1.0000   1.0000   1.0000   1.0000
     1.0000   1.0000   1.0000   1.0000   1.0000   1.0000   1.0000   1.0000
     1.0000   1.0000   1.0000   1.0000   1.0000   1.0000   1.0000   1.0000
     1.0000   1.0000   1.0000   1.0000   1.0000   1.0000   1.0000   1.0000
     1.0000   1.0000   1.0000   1.0000   1.0000   1.0000   1.0000   1.0000
     1.0000   1.0000   1.0000   1.0000   1.0000   1.0000   1.0000   1.0000
     1.0000   1.0000   1.0000   1.0000   1.0000   1.0000   1.0000   1.0000

          k =-0.5304-0.1739 0.5237 (  5170 PWs)   bands (ev):

   -64.9371 -64.6233 -63.6697 -63.6129 -31.9516 -31.9128 -31.8574 -31.6318
   -31.5865 -31.5712 -30.7025 -30.6585 -30.6271 -30.6240 -30.5942 -30.5697
   -29.2329 -28.9461 -28.3406 -27.7926 -11.0040 -10.8175 -10.7595 -10.6978
   -10.4749 -10.3109 -10.1721 -10.0771  -9.9456  -9.6000  -9.4711  -9.3529
    -7.7462  -7.3463  -7.0168  -6.9170  -6.7445  -6.4326  -6.3381  -6.3052
     4.4062   4.9385   4.9980   5.1565   5.5637   5.6662   5.8447   5.9863
     6.0912   6.3231   6.4297   6.6507   6.7191   6.8167   6.9317   7.0742
     7.2459   7.3018   7.4277   7.5669   7.6273   7.7498   7.8433   7.9538

     occupation numbers 
     1.0000   1.0000   1.0000   1.0000   1.0000   1.0000   1.0000   1.0000
     1.0000   1.0000   1.0000   1.0000   1.0000   1.0000   1.0000   1.0000
     1.0000   1.0000   1.0000   1.0000   1.0000   1.0000   1.0000   1.0000
     1.0000   1.0000   1.0000   1.0000   1.0000   1.0000   1.0000   1.0000
     1.0000   1.0000   1.0000   1.0000   1.0000   1.0000   1.0000   1.0000
     1.0000   1.0000   1.0000   1.0000   1.0000   1.0000   1.0000   1.0000
     1.0000   1.0000   1.0000   1.0000   1.0000   1.0000   1.0000   1.0000
     1.0000   1.0000   1.0000   1.0000   1.0000   1.0000   1.0000   1.0000

          k =-0.3538 0.0013 0.3493 (  5169 PWs)   bands (ev):

   -64.9371 -64.6233 -63.6697 -63.6129 -31.9516 -31.9128 -31.8574 -31.6318
   -31.5865 -31.5712 -30.7024 -30.6584 -30.6271 -30.6228 -30.5941 -30.5709
   -29.2316 -28.9493 -28.3392 -27.7921 -10.9312 -10.8676 -10.8041 -10.7637
   -10.5540 -10.4203 -10.0388  -9.9327  -9.8070  -9.6723  -9.5350  -9.3184
    -7.7116  -7.3164  -7.0986  -6.8691  -6.7494  -6.5555  -6.4320  -6.1562
     4.3018   4.9447   4.9853   5.1116   5.4318   5.5367   5.8434   5.9411
     6.2545   6.4451   6.5978   6.6443   6.8321   6.9510   7.0680   7.1290
     7.2108   7.2675   7.4198   7.4598   7.5652   7.6515   7.8854   8.0055

     occupation numbers 
     1.0000   1.0000   1.0000   1.0000   1.0000   1.0000   1.0000   1.0000
     1.0000   1.0000   1.0000   1.0000   1.0000   1.0000   1.0000   1.0000
     1.0000   1.0000   1.0000   1.0000   1.0000   1.0000   1.0000   1.0000
     1.0000   1.0000   1.0000   1.0000   1.0000   1.0000   1.0000   1.0000
     1.0000   1.0000   1.0000   1.0000   1.0000   1.0000   1.0000   1.0000
     1.0000   1.0000   1.0000   1.0000   1.0000   1.0000   1.0000   1.0000
     1.0000   1.0000   1.0000   1.0000   1.0000   1.0000   1.0000   1.0000
     1.0000   1.0000   1.0000   1.0000   1.0000   1.0000   1.0000   1.0000

          k = 0.0046 0.0007 0.3540 (  5163 PWs)   bands (ev):

   -64.9371 -64.6233 -63.6697 -63.6129 -31.9516 -31.9128 -31.8575 -31.6318
   -31.5865 -31.5713 -30.7026 -30.6583 -30.6271 -30.6239 -30.5941 -30.5697
   -29.2336 -28.9486 -28.3379 -27.7912 -11.0779 -10.9969 -10.8742 -10.8175
   -10.4873 -10.2727  -9.9363  -9.8714  -9.7019  -9.6601  -9.4468  -9.2239
    -7.8757  -7.4171  -7.2142  -7.1553  -6.8248  -6.4917  -6.0958  -6.0513
     3.9666   4.5519   4.8353   5.3041   5.3258   5.5211   5.7379   6.3144
     6.4961   6.6212   6.6733   6.7518   6.8972   6.9404   7.0562   7.0690
     7.2035   7.3504   7.4235   7.4713   7.5181   7.6694   8.1051   8.1508

     occupation numbers 
     1.0000   1.0000   1.0000   1.0000   1.0000   1.0000   1.0000   1.0000
     1.0000   1.0000   1.0000   1.0000   1.0000   1.0000   1.0000   1.0000
     1.0000   1.0000   1.0000   1.0000   1.0000   1.0000   1.0000   1.0000
     1.0000   1.0000   1.0000   1.0000   1.0000   1.0000   1.0000   1.0000
     1.0000   1.0000   1.0000   1.0000   1.0000   1.0000   1.0000   1.0000
     1.0000   1.0000   1.0000   1.0000   1.0000   1.0000   1.0000   1.0000
     1.0000   1.0000   1.0000   1.0000   1.0000   1.0000   1.0000   1.0000
     1.0000   1.0000   1.0000   1.0000   1.0000   1.0000   1.0000   1.0000

          k = 0.1812 0.1759 0.1796 (  5155 PWs)   bands (ev):

   -64.9371 -64.6233 -63.6697 -63.6129 -31.9516 -31.9129 -31.8575 -31.6318
   -31.5864 -31.5712 -30.7027 -30.6584 -30.6270 -30.6251 -30.5942 -30.5685
   -29.2358 -28.9454 -28.3395 -27.7907 -11.1255 -10.9550 -10.9248 -10.8497
   -10.3793 -10.1565  -9.9849  -9.8738  -9.8523  -9.5890  -9.4437  -9.2226
    -7.9594  -7.4666  -7.1518  -7.0689  -6.8050  -6.3242  -6.1906  -6.1704
     3.8772   4.4643   4.8353   5.1804   5.4403   5.5210   5.7424   6.3457
     6.4466   6.6256   6.7218   6.7771   6.8758   7.0155   7.1180   7.1952
     7.2621   7.3605   7.4535   7.5276   7.6597   7.7339   7.9490   8.0442

     occupation numbers 
     1.0000   1.0000   1.0000   1.0000   1.0000   1.0000   1.0000   1.0000
     1.0000   1.0000   1.0000   1.0000   1.0000   1.0000   1.0000   1.0000
     1.0000   1.0000   1.0000   1.0000   1.0000   1.0000   1.0000   1.0000
     1.0000   1.0000   1.0000   1.0000   1.0000   1.0000   1.0000   1.0000
     1.0000   1.0000   1.0000   1.0000   1.0000   1.0000   1.0000   1.0000
     1.0000   1.0000   1.0000   1.0000   1.0000   1.0000   1.0000   1.0000
     1.0000   1.0000   1.0000   1.0000   1.0000   1.0000   1.0000   1.0000
     1.0000   1.0000   1.0000   1.0000   1.0000   1.0000   1.0000   1.0000

          k =-0.3485-0.3499 0.7026 (  5164 PWs)   bands (ev):

   -64.9371 -64.6233 -63.6697 -63.6129 -31.9517 -31.9128 -31.8575 -31.6318
   -31.5865 -31.5712 -30.7026 -30.6584 -30.6271 -30.6240 -30.5942 -30.5697
   -29.2333 -28.9464 -28.3408 -27.7910 -11.0181 -10.8980 -10.8218 -10.7601
   -10.4648 -10.2801 -10.1303 -10.0175  -9.9088  -9.5273  -9.4768  -9.2541
    -7.7906  -7.5220  -6.9870  -6.8439  -6.7205  -6.4497  -6.3886  -6.2646
     4.2817   4.8518   5.0199   5.1287   5.4734   5.6386   5.7567   5.9342
     6.2637   6.4523   6.5332   6.7029   6.8085   6.9444   7.0037   7.1364
     7.2688   7.3492   7.3812   7.4952   7.5499   7.6834   7.8285   7.9468

     occupation numbers 
     1.0000   1.0000   1.0000   1.0000   1.0000   1.0000   1.0000   1.0000
     1.0000   1.0000   1.0000   1.0000   1.0000   1.0000   1.0000   1.0000
     1.0000   1.0000   1.0000   1.0000   1.0000   1.0000   1.0000   1.0000
     1.0000   1.0000   1.0000   1.0000   1.0000   1.0000   1.0000   1.0000
     1.0000   1.0000   1.0000   1.0000   1.0000   1.0000   1.0000   1.0000
     1.0000   1.0000   1.0000   1.0000   1.0000   1.0000   1.0000   1.0000
     1.0000   1.0000   1.0000   1.0000   1.0000   1.0000   1.0000   1.0000
     1.0000   1.0000   1.0000   1.0000   1.0000   1.0000   1.0000   1.0000

          k =-0.1719-0.1746 0.5283 (  5165 PWs)   bands (ev):

   -64.9371 -64.6233 -63.6697 -63.6129 -31.9516 -31.9128 -31.8575 -31.6318
   -31.5865 -31.5712 -30.7026 -30.6584 -30.6272 -30.6228 -30.5942 -30.5709
   -29.2311 -28.9496 -28.3391 -27.7916 -10.9324 -10.9040 -10.7901 -10.7219
   -10.6227 -10.4398 -10.0504  -9.9588  -9.8096  -9.5936  -9.5048  -9.2501
    -7.6791  -7.3598  -7.1808  -7.0171  -6.8431  -6.4255  -6.2451  -6.1947
     4.4883   4.9312   5.0219   5.1144   5.3898   5.6876   5.8521   5.9695
     6.1121   6.3390   6.4381   6.5748   6.7551   6.8982   6.9706   7.0889
     7.1825   7.3692   7.4800   7.5073   7.6044   7.6484   7.8713   7.9365

     occupation numbers 
     1.0000   1.0000   1.0000   1.0000   1.0000   1.0000   1.0000   1.0000
     1.0000   1.0000   1.0000   1.0000   1.0000   1.0000   1.0000   1.0000
     1.0000   1.0000   1.0000   1.0000   1.0000   1.0000   1.0000   1.0000
     1.0000   1.0000   1.0000   1.0000   1.0000   1.0000   1.0000   1.0000
     1.0000   1.0000   1.0000   1.0000   1.0000   1.0000   1.0000   1.0000
     1.0000   1.0000   1.0000   1.0000   1.0000   1.0000   1.0000   1.0000
     1.0000   1.0000   1.0000   1.0000   1.0000   1.0000   1.0000   1.0000
     1.0000   1.0000   1.0000   1.0000   1.0000   1.0000   1.0000   1.0000

          k =-0.5410 0.5285-0.1829 (  5163 PWs)   bands (ev):

   -64.9371 -64.6233 -63.6697 -63.6129 -31.9516 -31.9128 -31.8575 -31.6319
   -31.5865 -31.5713 -30.7028 -30.6584 -30.6272 -30.6241 -30.5942 -30.5697
   -29.2328 -28.9478 -28.3375 -27.7926 -11.0575 -10.9386 -10.8428 -10.7670
   -10.5012 -10.2851 -10.0434  -9.8902  -9.7191  -9.5950  -9.5363  -9.3952
    -7.7150  -7.3128  -7.1826  -7.0105  -6.8493  -6.4229  -6.2489  -6.2087
     4.4020   4.8908   5.0530   5.2397   5.4071   5.5615   5.9876   6.0471
     6.0942   6.3405   6.4744   6.5912   6.8206   6.8651   6.9440   7.0580
     7.1934   7.3246   7.4095   7.5075   7.5394   7.6464   7.7969   7.9708

     occupation numbers 
     1.0000   1.0000   1.0000   1.0000   1.0000   1.0000   1.0000   1.0000
     1.0000   1.0000   1.0000   1.0000   1.0000   1.0000   1.0000   1.0000
     1.0000   1.0000   1.0000   1.0000   1.0000   1.0000   1.0000   1.0000
     1.0000   1.0000   1.0000   1.0000   1.0000   1.0000   1.0000   1.0000
     1.0000   1.0000   1.0000   1.0000   1.0000   1.0000   1.0000   1.0000
     1.0000   1.0000   1.0000   1.0000   1.0000   1.0000   1.0000   1.0000
     1.0000   1.0000   1.0000   1.0000   1.0000   1.0000   1.0000   1.0000
     1.0000   1.0000   1.0000   1.0000   1.0000   1.0000   1.0000   1.0000

          k =-0.3645 0.7037-0.3573 (  5175 PWs)   bands (ev):

   -64.9371 -64.6233 -63.6697 -63.6129 -31.9516 -31.9128 -31.8575 -31.6319
   -31.5865 -31.5712 -30.7028 -30.6584 -30.6271 -30.6253 -30.5942 -30.5685
   -29.2349 -28.9446 -28.3392 -27.7920 -11.1033 -10.9313 -10.8829 -10.7747
   -10.3839 -10.1644 -10.0334  -9.8962  -9.8804  -9.6777  -9.5265  -9.3336
    -7.7692  -7.3233  -7.0969  -6.8756  -6.7366  -6.5453  -6.4498  -6.1397
     4.3119   4.7411   5.0600   5.1729   5.4087   5.4379   5.9750   6.0723
     6.3270   6.5433   6.5934   6.7639   6.8271   6.9609   7.0110   7.0635
     7.1162   7.2276   7.3229   7.3866   7.5716   7.6800   7.7775   8.0147

     occupation numbers 
     1.0000   1.0000   1.0000   1.0000   1.0000   1.0000   1.0000   1.0000
     1.0000   1.0000   1.0000   1.0000   1.0000   1.0000   1.0000   1.0000
     1.0000   1.0000   1.0000   1.0000   1.0000   1.0000   1.0000   1.0000
     1.0000   1.0000   1.0000   1.0000   1.0000   1.0000   1.0000   1.0000
     1.0000   1.0000   1.0000   1.0000   1.0000   1.0000   1.0000   1.0000
     1.0000   1.0000   1.0000   1.0000   1.0000   1.0000   1.0000   1.0000
     1.0000   1.0000   1.0000   1.0000   1.0000   1.0000   1.0000   1.0000
     1.0000   1.0000   1.0000   1.0000   1.0000   1.0000   1.0000   1.0000

          k =-0.8942 0.1779 0.1657 (  5173 PWs)   bands (ev):

   -64.9371 -64.6233 -63.6697 -63.6129 -31.9516 -31.9129 -31.8575 -31.6318
   -31.5865 -31.5712 -30.7027 -30.6584 -30.6272 -30.6241 -30.5942 -30.5697
   -29.2332 -28.9457 -28.3406 -27.7913 -11.0221 -10.9412 -10.8517 -10.7122
   -10.4328 -10.2643 -10.1755  -9.9772  -9.8759  -9.5708  -9.4475  -9.2963
    -7.7196  -7.5060  -7.0295  -6.9378  -6.8442  -6.3421  -6.3289  -6.2465
     4.5371   4.8886   4.9555   5.2180   5.3994   5.5860   5.8308   5.9794
     6.2250   6.3917   6.4822   6.6582   6.7090   6.8690   6.9656   7.0393
     7.2522   7.3306   7.3990   7.4677   7.5991   7.7337   7.8009   7.8599

     occupation numbers 
     1.0000   1.0000   1.0000   1.0000   1.0000   1.0000   1.0000   1.0000
     1.0000   1.0000   1.0000   1.0000   1.0000   1.0000   1.0000   1.0000
     1.0000   1.0000   1.0000   1.0000   1.0000   1.0000   1.0000   1.0000
     1.0000   1.0000   1.0000   1.0000   1.0000   1.0000   1.0000   1.0000
     1.0000   1.0000   1.0000   1.0000   1.0000   1.0000   1.0000   1.0000
     1.0000   1.0000   1.0000   1.0000   1.0000   1.0000   1.0000   1.0000
     1.0000   1.0000   1.0000   1.0000   1.0000   1.0000   1.0000   1.0000
     1.0000   1.0000   1.0000   1.0000   1.0000   1.0000   1.0000   1.0000

          k =-0.7176 0.3532-0.0086 (  5167 PWs)   bands (ev):

   -64.9371 -64.6233 -63.6697 -63.6129 -31.9516 -31.9129 -31.8575 -31.6319
   -31.5865 -31.5712 -30.7027 -30.6584 -30.6273 -30.6229 -30.5942 -30.5709
   -29.2311 -28.9488 -28.3390 -27.7919 -10.9472 -10.8963 -10.8285 -10.7516
   -10.5852 -10.4315 -10.0058  -9.9708  -9.8260  -9.5032  -9.4575  -9.3462
    -7.6642  -7.5170  -7.1991  -7.0299  -6.6939  -6.4514  -6.2773  -6.1366
     4.7021   4.9680   5.1113   5.1939   5.4612   5.6221   5.7301   5.9206
     6.0432   6.0768   6.5117   6.5708   6.6871   6.9016   7.0278   7.1523
     7.2277   7.2590   7.3710   7.4709   7.5268   7.7176   7.8183   7.8967

     occupation numbers 
     1.0000   1.0000   1.0000   1.0000   1.0000   1.0000   1.0000   1.0000
     1.0000   1.0000   1.0000   1.0000   1.0000   1.0000   1.0000   1.0000
     1.0000   1.0000   1.0000   1.0000   1.0000   1.0000   1.0000   1.0000
     1.0000   1.0000   1.0000   1.0000   1.0000   1.0000   1.0000   1.0000
     1.0000   1.0000   1.0000   1.0000   1.0000   1.0000   1.0000   1.0000
     1.0000   1.0000   1.0000   1.0000   1.0000   1.0000   1.0000   1.0000
     1.0000   1.0000   1.0000   1.0000   1.0000   1.0000   1.0000   1.0000
     1.0000   1.0000   1.0000   1.0000   1.0000   1.0000   1.0000   1.0000

          k =-0.3591 0.3525-0.0040 (  5170 PWs)   bands (ev):

   -64.9371 -64.6233 -63.6697 -63.6129 -31.9516 -31.9128 -31.8574 -31.6319
   -31.5865 -31.5713 -30.7026 -30.6584 -30.6271 -30.6241 -30.5941 -30.5697
   -29.2332 -28.9474 -28.3376 -27.7931 -11.0505 -10.9039 -10.8720 -10.7837
   -10.4418 -10.2780 -10.0009  -9.8957  -9.7440  -9.6683  -9.5119  -9.4444
    -7.7870  -7.4919  -7.0200  -6.7217  -6.6366  -6.5628  -6.4438  -6.2717
     4.1943   4.8798   5.1002   5.1801   5.4301   5.5917   5.8562   6.0300
     6.2525   6.3779   6.5512   6.6992   6.8358   6.9505   7.0080   7.1109
     7.2061   7.2900   7.3905   7.4833   7.5717   7.6833   7.8003   7.9433

     occupation numbers 
     1.0000   1.0000   1.0000   1.0000   1.0000   1.0000   1.0000   1.0000
     1.0000   1.0000   1.0000   1.0000   1.0000   1.0000   1.0000   1.0000
     1.0000   1.0000   1.0000   1.0000   1.0000   1.0000   1.0000   1.0000
     1.0000   1.0000   1.0000   1.0000   1.0000   1.0000   1.0000   1.0000
     1.0000   1.0000   1.0000   1.0000   1.0000   1.0000   1.0000   1.0000
     1.0000   1.0000   1.0000   1.0000   1.0000   1.0000   1.0000   1.0000
     1.0000   1.0000   1.0000   1.0000   1.0000   1.0000   1.0000   1.0000
     1.0000   1.0000   1.0000   1.0000   1.0000   1.0000   1.0000   1.0000

          k =-0.1826 0.5278-0.1783 (  5169 PWs)   bands (ev):

   -64.9371 -64.6233 -63.6697 -63.6129 -31.9516 -31.9128 -31.8574 -31.6319
   -31.5865 -31.5713 -30.7027 -30.6585 -30.6271 -30.6252 -30.5942 -30.5685
   -29.2345 -28.9443 -28.3391 -27.7936 -11.0944 -10.8700 -10.8200 -10.7347
   -10.3542 -10.1623 -10.1016 -10.0106  -9.9406  -9.6087  -9.5301  -9.4459
    -7.7827  -7.3215  -6.9965  -6.8771  -6.7830  -6.4237  -6.3501  -6.3213
     4.3502   4.8078   5.1153   5.2683   5.4855   5.6824   5.8849   6.0726
     6.2111   6.2889   6.3698   6.6346   6.6999   6.8508   6.9133   7.0352
     7.2188   7.3705   7.4468   7.5227   7.6242   7.7207   7.7859   7.8839

     occupation numbers 
     1.0000   1.0000   1.0000   1.0000   1.0000   1.0000   1.0000   1.0000
     1.0000   1.0000   1.0000   1.0000   1.0000   1.0000   1.0000   1.0000
     1.0000   1.0000   1.0000   1.0000   1.0000   1.0000   1.0000   1.0000
     1.0000   1.0000   1.0000   1.0000   1.0000   1.0000   1.0000   1.0000
     1.0000   1.0000   1.0000   1.0000   1.0000   1.0000   1.0000   1.0000
     1.0000   1.0000   1.0000   1.0000   1.0000   1.0000   1.0000   1.0000
     1.0000   1.0000   1.0000   1.0000   1.0000   1.0000   1.0000   1.0000
     1.0000   1.0000   1.0000   1.0000   1.0000   1.0000   1.0000   1.0000

          k =-0.7123 0.0020 0.3447 (  5173 PWs)   bands (ev):

   -64.9371 -64.6233 -63.6697 -63.6129 -31.9516 -31.9128 -31.8574 -31.6319
   -31.5865 -31.5712 -30.7026 -30.6585 -30.6272 -30.6241 -30.5942 -30.5697
   -29.2329 -28.9453 -28.3405 -27.7929 -11.0106 -10.8608 -10.8044 -10.6532
   -10.4180 -10.2906 -10.2249 -10.0337  -9.8798  -9.6763  -9.4684  -9.3714
    -7.7154  -7.2487  -7.0427  -7.0009  -6.8733  -6.5030  -6.2409  -6.2112
     4.7083   4.9472   5.0394   5.2163   5.4741   5.6012   5.8067   5.9578
     6.0370   6.2861   6.3314   6.6010   6.7758   6.8882   6.9062   7.0944
     7.1717   7.2215   7.4333   7.4975   7.5870   7.7498   7.8019   7.9137

     occupation numbers 
     1.0000   1.0000   1.0000   1.0000   1.0000   1.0000   1.0000   1.0000
     1.0000   1.0000   1.0000   1.0000   1.0000   1.0000   1.0000   1.0000
     1.0000   1.0000   1.0000   1.0000   1.0000   1.0000   1.0000   1.0000
     1.0000   1.0000   1.0000   1.0000   1.0000   1.0000   1.0000   1.0000
     1.0000   1.0000   1.0000   1.0000   1.0000   1.0000   1.0000   1.0000
     1.0000   1.0000   1.0000   1.0000   1.0000   1.0000   1.0000   1.0000
     1.0000   1.0000   1.0000   1.0000   1.0000   1.0000   1.0000   1.0000
     1.0000   1.0000   1.0000   1.0000   1.0000   1.0000   1.0000   1.0000

          k =-0.5357 0.1773 0.1704 (  5172 PWs)   bands (ev):

   -64.9371 -64.6233 -63.6697 -63.6129 -31.9516 -31.9129 -31.8574 -31.6319
   -31.5865 -31.5712 -30.7026 -30.6584 -30.6272 -30.6229 -30.5942 -30.5708
   -29.2316 -28.9485 -28.3390 -27.7923 -10.9526 -10.9086 -10.8005 -10.7622
   -10.5053 -10.4112 -10.0644  -9.9037  -9.8382  -9.5889  -9.5294  -9.3493
    -7.7035  -7.4617  -7.0756  -6.8895  -6.8209  -6.3600  -6.3244  -6.2798
     4.4509   4.9867   5.0530   5.1576   5.4728   5.5812   5.7874   5.9904
     6.1351   6.3487   6.5432   6.5748   6.6905   6.8463   6.9417   7.1767
     7.2508   7.3243   7.3998   7.5042   7.6077   7.6710   7.8332   7.8985

     occupation numbers 
     1.0000   1.0000   1.0000   1.0000   1.0000   1.0000   1.0000   1.0000
     1.0000   1.0000   1.0000   1.0000   1.0000   1.0000   1.0000   1.0000
     1.0000   1.0000   1.0000   1.0000   1.0000   1.0000   1.0000   1.0000
     1.0000   1.0000   1.0000   1.0000   1.0000   1.0000   1.0000   1.0000
     1.0000   1.0000   1.0000   1.0000   1.0000   1.0000   1.0000   1.0000
     1.0000   1.0000   1.0000   1.0000   1.0000   1.0000   1.0000   1.0000
     1.0000   1.0000   1.0000   1.0000   1.0000   1.0000   1.0000   1.0000
     1.0000   1.0000   1.0000   1.0000   1.0000   1.0000   1.0000   1.0000

          k = 0.3545-0.3532-0.3500 (  5168 PWs)   bands (ev):

   -64.9371 -64.6233 -63.6697 -63.6129 -31.9516 -31.9129 -31.8574 -31.6318
   -31.5864 -31.5712 -30.7024 -30.6584 -30.6271 -30.6229 -30.5941 -30.5709
   -29.2313 -28.9499 -28.3384 -27.7924 -10.9222 -10.9076 -10.8523 -10.6849
   -10.5784 -10.4153  -9.9649  -9.9294  -9.7417  -9.6746  -9.6288  -9.3834
    -7.6961  -7.2808  -7.1187  -6.6952  -6.6310  -6.5660  -6.4593  -6.4194
     4.3094   4.8122   5.1893   5.3037   5.4217   5.4616   5.8351   6.0034
     6.2692   6.4523   6.6188   6.6881   6.7691   6.8265   6.9864   7.1138
     7.2232   7.3096   7.4081   7.4997   7.5571   7.6453   7.7784   7.9096

     occupation numbers 
     1.0000   1.0000   1.0000   1.0000   1.0000   1.0000   1.0000   1.0000
     1.0000   1.0000   1.0000   1.0000   1.0000   1.0000   1.0000   1.0000
     1.0000   1.0000   1.0000   1.0000   1.0000   1.0000   1.0000   1.0000
     1.0000   1.0000   1.0000   1.0000   1.0000   1.0000   1.0000   1.0000
     1.0000   1.0000   1.0000   1.0000   1.0000   1.0000   1.0000   1.0000
     1.0000   1.0000   1.0000   1.0000   1.0000   1.0000   1.0000   1.0000
     1.0000   1.0000   1.0000   1.0000   1.0000   1.0000   1.0000   1.0000
     1.0000   1.0000   1.0000   1.0000   1.0000   1.0000   1.0000   1.0000

          k = 0.5311-0.1779-0.5243 (  5164 PWs)   bands (ev):

   -64.9371 -64.6233 -63.6697 -63.6129 -31.9516 -31.9128 -31.8574 -31.6318
   -31.5864 -31.5712 -30.7025 -30.6585 -30.6271 -30.6240 -30.5942 -30.5697
   -29.2326 -28.9467 -28.3398 -27.7930 -11.0022 -10.8412 -10.8097 -10.6907
   -10.4778 -10.3113 -10.0979 -10.0482  -9.9019  -9.5564  -9.5327  -9.4054
    -7.7505  -7.3576  -7.0596  -6.8805  -6.7386  -6.3960  -6.3497  -6.3253
     4.3483   4.9847   5.0266   5.2129   5.5879   5.6320   5.8696   5.9489
     6.1707   6.2992   6.4212   6.6737   6.7093   6.8059   6.9008   7.0528
     7.2617   7.3083   7.3748   7.5281   7.6555   7.7369   7.8389   7.9282

     occupation numbers 
     1.0000   1.0000   1.0000   1.0000   1.0000   1.0000   1.0000   1.0000
     1.0000   1.0000   1.0000   1.0000   1.0000   1.0000   1.0000   1.0000
     1.0000   1.0000   1.0000   1.0000   1.0000   1.0000   1.0000   1.0000
     1.0000   1.0000   1.0000   1.0000   1.0000   1.0000   1.0000   1.0000
     1.0000   1.0000   1.0000   1.0000   1.0000   1.0000   1.0000   1.0000
     1.0000   1.0000   1.0000   1.0000   1.0000   1.0000   1.0000   1.0000
     1.0000   1.0000   1.0000   1.0000   1.0000   1.0000   1.0000   1.0000
     1.0000   1.0000   1.0000   1.0000   1.0000   1.0000   1.0000   1.0000

          k = 0.0013-0.7037-0.0013 (  5190 PWs)   bands (ev):

   -64.9371 -64.6233 -63.6697 -63.6129 -31.9517 -31.9128 -31.8574 -31.6318
   -31.5864 -31.5712 -30.7026 -30.6585 -30.6271 -30.6251 -30.5942 -30.5686
   -29.2339 -28.9435 -28.3413 -27.7935 -11.0723 -10.7932 -10.7333 -10.6382
   -10.3467 -10.2537 -10.2023 -10.1484 -10.0902  -9.5244  -9.4679  -9.3958
    -7.7833  -7.4430  -7.0374  -6.9534  -6.7919  -6.3369  -6.2759  -6.2280
     4.4317   4.8358   5.0535   5.4166   5.6388   5.7429   5.9320   6.0080
     6.0502   6.1817   6.2448   6.5326   6.5778   6.8002   6.8516   7.0025
     7.0236   7.3252   7.4686   7.6452   7.6671   7.7881   7.9267   8.0417

     occupation numbers 
     1.0000   1.0000   1.0000   1.0000   1.0000   1.0000   1.0000   1.0000
     1.0000   1.0000   1.0000   1.0000   1.0000   1.0000   1.0000   1.0000
     1.0000   1.0000   1.0000   1.0000   1.0000   1.0000   1.0000   1.0000
     1.0000   1.0000   1.0000   1.0000   1.0000   1.0000   1.0000   1.0000
     1.0000   1.0000   1.0000   1.0000   1.0000   1.0000   1.0000   1.0000
     1.0000   1.0000   1.0000   1.0000   1.0000   1.0000   1.0000   1.0000
     1.0000   1.0000   1.0000   1.0000   1.0000   1.0000   1.0000   1.0000
     1.0000   1.0000   1.0000   1.0000   1.0000   1.0000   1.0000   1.0000

          k = 0.5364-0.5291-0.1710 (  5174 PWs)   bands (ev):

   -64.9371 -64.6233 -63.6697 -63.6129 -31.9517 -31.9128 -31.8575 -31.6318
   -31.5865 -31.5713 -30.7026 -30.6584 -30.6272 -30.6228 -30.5942 -30.5709
   -29.2308 -28.9502 -28.3383 -27.7919 -10.9680 -10.9072 -10.8092 -10.6950
   -10.6297 -10.4362 -10.0643  -9.9122  -9.7120  -9.5475  -9.5396  -9.3521
    -7.6913  -7.3344  -7.2121  -7.0247  -6.8412  -6.3875  -6.2554  -6.2068
     4.4017   5.0283   5.0827   5.1513   5.4599   5.5335   5.8694   6.0027
     6.0952   6.3119   6.4256   6.6488   6.8010   6.8554   7.0182   7.0663
     7.2154   7.2972   7.4279   7.4785   7.6012   7.6482   7.8084   7.9663

     occupation numbers 
     1.0000   1.0000   1.0000   1.0000   1.0000   1.0000   1.0000   1.0000
     1.0000   1.0000   1.0000   1.0000   1.0000   1.0000   1.0000   1.0000
     1.0000   1.0000   1.0000   1.0000   1.0000   1.0000   1.0000   1.0000
     1.0000   1.0000   1.0000   1.0000   1.0000   1.0000   1.0000   1.0000
     1.0000   1.0000   1.0000   1.0000   1.0000   1.0000   1.0000   1.0000
     1.0000   1.0000   1.0000   1.0000   1.0000   1.0000   1.0000   1.0000
     1.0000   1.0000   1.0000   1.0000   1.0000   1.0000   1.0000   1.0000
     1.0000   1.0000   1.0000   1.0000   1.0000   1.0000   1.0000   1.0000

          k = 0.7130-0.3539-0.3454 (  5175 PWs)   bands (ev):

   -64.9371 -64.6233 -63.6697 -63.6129 -31.9517 -31.9129 -31.8575 -31.6318
   -31.5864 -31.5712 -30.7026 -30.6584 -30.6271 -30.6240 -30.5942 -30.5697
   -29.2330 -28.9470 -28.3400 -27.7914 -11.0169 -10.9047 -10.8848 -10.7512
   -10.4764 -10.2902 -10.0174  -9.9655  -9.8656  -9.6276  -9.4369  -9.3241
    -7.7760  -7.3199  -7.1668  -7.0227  -6.7021  -6.4553  -6.3909  -6.1292
     4.2492   4.8355   5.0603   5.1365   5.4152   5.6362   5.9248   5.9571
     6.2240   6.4665   6.5046   6.7277   6.8473   6.9283   7.0649   7.1240
     7.2175   7.2872   7.3839   7.4489   7.5889   7.6438   7.7273   7.9913

     occupation numbers 
     1.0000   1.0000   1.0000   1.0000   1.0000   1.0000   1.0000   1.0000
     1.0000   1.0000   1.0000   1.0000   1.0000   1.0000   1.0000   1.0000
     1.0000   1.0000   1.0000   1.0000   1.0000   1.0000   1.0000   1.0000
     1.0000   1.0000   1.0000   1.0000   1.0000   1.0000   1.0000   1.0000
     1.0000   1.0000   1.0000   1.0000   1.0000   1.0000   1.0000   1.0000
     1.0000   1.0000   1.0000   1.0000   1.0000   1.0000   1.0000   1.0000
     1.0000   1.0000   1.0000   1.0000   1.0000   1.0000   1.0000   1.0000
     1.0000   1.0000   1.0000   1.0000   1.0000   1.0000   1.0000   1.0000

          k = 0.1832-0.8797 0.1776 (  5174 PWs)   bands (ev):

   -64.9371 -64.6233 -63.6697 -63.6129 -31.9517 -31.9128 -31.8575 -31.6318
   -31.5864 -31.5712 -30.7027 -30.6585 -30.6271 -30.6251 -30.5942 -30.5685
   -29.2343 -28.9438 -28.3414 -27.7919 -11.0778 -10.8770 -10.7888 -10.6998
   -10.3693 -10.1816 -10.1558 -10.0878 -10.0414  -9.5572  -9.4536  -9.3389
    -7.7910  -7.3792  -6.9748  -6.9281  -6.8128  -6.3930  -6.3371  -6.2813
     4.4162   4.8224   5.0333   5.2425   5.5597   5.6839   5.8121   6.0171
     6.1431   6.2527   6.5221   6.6203   6.7225   6.8921   6.9405   7.0615
     7.2226   7.3258   7.3932   7.5210   7.6409   7.7078   7.7824   7.8891

     occupation numbers 
     1.0000   1.0000   1.0000   1.0000   1.0000   1.0000   1.0000   1.0000
     1.0000   1.0000   1.0000   1.0000   1.0000   1.0000   1.0000   1.0000
     1.0000   1.0000   1.0000   1.0000   1.0000   1.0000   1.0000   1.0000
     1.0000   1.0000   1.0000   1.0000   1.0000   1.0000   1.0000   1.0000
     1.0000   1.0000   1.0000   1.0000   1.0000   1.0000   1.0000   1.0000
     1.0000   1.0000   1.0000   1.0000   1.0000   1.0000   1.0000   1.0000
     1.0000   1.0000   1.0000   1.0000   1.0000   1.0000   1.0000   1.0000
     1.0000   1.0000   1.0000   1.0000   1.0000   1.0000   1.0000   1.0000

          k = 0.3598-0.7044 0.0033 (  5175 PWs)   bands (ev):

   -64.9371 -64.6233 -63.6697 -63.6129 -31.9517 -31.9128 -31.8575 -31.6318
   -31.5864 -31.5712 -30.7027 -30.6585 -30.6272 -30.6240 -30.5942 -30.5697
   -29.2322 -28.9470 -28.3398 -27.7925 -11.0041 -10.8557 -10.7864 -10.6889
   -10.5422 -10.3144 -10.1487 -10.0445  -9.8588  -9.5431  -9.5115  -9.3416
    -7.7180  -7.4105  -7.0482  -6.9417  -6.7544  -6.4998  -6.3246  -6.1911
     4.6209   5.0226   5.0870   5.2144   5.5120   5.6245   5.7706   5.9703
     6.0527   6.1376   6.3605   6.6545   6.7305   6.7905   6.9872   7.0734
     7.1699   7.2544   7.3918   7.4945   7.6551   7.7484   7.7991   7.8978

     occupation numbers 
     1.0000   1.0000   1.0000   1.0000   1.0000   1.0000   1.0000   1.0000
     1.0000   1.0000   1.0000   1.0000   1.0000   1.0000   1.0000   1.0000
     1.0000   1.0000   1.0000   1.0000   1.0000   1.0000   1.0000   1.0000
     1.0000   1.0000   1.0000   1.0000   1.0000   1.0000   1.0000   1.0000
     1.0000   1.0000   1.0000   1.0000   1.0000   1.0000   1.0000   1.0000
     1.0000   1.0000   1.0000   1.0000   1.0000   1.0000   1.0000   1.0000
     1.0000   1.0000   1.0000   1.0000   1.0000   1.0000   1.0000   1.0000
     1.0000   1.0000   1.0000   1.0000   1.0000   1.0000   1.0000   1.0000

          k =-0.0093-0.0013-0.7079 (  5162 PWs)   bands (ev):

   -64.9371 -64.6233 -63.6697 -63.6129 -31.9517 -31.9128 -31.8575 -31.6318
   -31.5865 -31.5713 -30.7027 -30.6584 -30.6272 -30.6228 -30.5942 -30.5709
   -29.2304 -28.9505 -28.3383 -27.7915 -11.0127 -10.9215 -10.7361 -10.7209
   -10.6493 -10.4593 -10.1471  -9.8976  -9.7032  -9.5168  -9.4468  -9.2319
    -7.6982  -7.4024  -7.3717  -7.1035  -6.9510  -6.3294  -6.1406  -6.0620
     4.5353   4.9404   5.0405   5.3366   5.4609   5.6745   5.7354   5.9540
     6.0201   6.2766   6.4769   6.5427   6.6409   6.8054   6.9070   6.9560
     7.1341   7.2795   7.4579   7.4683   7.6115   7.6660   8.0348   8.0737

     occupation numbers 
     1.0000   1.0000   1.0000   1.0000   1.0000   1.0000   1.0000   1.0000
     1.0000   1.0000   1.0000   1.0000   1.0000   1.0000   1.0000   1.0000
     1.0000   1.0000   1.0000   1.0000   1.0000   1.0000   1.0000   1.0000
     1.0000   1.0000   1.0000   1.0000   1.0000   1.0000   1.0000   1.0000
     1.0000   1.0000   1.0000   1.0000   1.0000   1.0000   1.0000   1.0000
     1.0000   1.0000   1.0000   1.0000   1.0000   1.0000   1.0000   1.0000
     1.0000   1.0000   1.0000   1.0000   1.0000   1.0000   1.0000   1.0000
     1.0000   1.0000   1.0000   1.0000   1.0000   1.0000   1.0000   1.0000

          k = 0.1673 0.1739-0.8823 (  5161 PWs)   bands (ev):

   -64.9371 -64.6233 -63.6697 -63.6129 -31.9517 -31.9129 -31.8575 -31.6318
   -31.5864 -31.5712 -30.7028 -30.6584 -30.6272 -30.6240 -30.5942 -30.5697
   -29.2325 -28.9473 -28.3399 -27.7909 -11.0225 -10.9209 -10.8553 -10.7624
   -10.5223 -10.2901 -10.0639  -9.9755  -9.8406  -9.5534  -9.4803  -9.2365
    -7.7243  -7.3687  -7.2041  -7.0138  -6.8719  -6.3909  -6.2268  -6.1947
     4.4884   4.8905   4.9931   5.1533   5.4117   5.6456   5.8559   6.1299
     6.1549   6.2798   6.4577   6.6232   6.7952   6.8858   6.9492   7.0660
     7.1944   7.2559   7.3898   7.4895   7.6205   7.6842   7.7993   7.9326

     occupation numbers 
     1.0000   1.0000   1.0000   1.0000   1.0000   1.0000   1.0000   1.0000
     1.0000   1.0000   1.0000   1.0000   1.0000   1.0000   1.0000   1.0000
     1.0000   1.0000   1.0000   1.0000   1.0000   1.0000   1.0000   1.0000
     1.0000   1.0000   1.0000   1.0000   1.0000   1.0000   1.0000   1.0000
     1.0000   1.0000   1.0000   1.0000   1.0000   1.0000   1.0000   1.0000
     1.0000   1.0000   1.0000   1.0000   1.0000   1.0000   1.0000   1.0000
     1.0000   1.0000   1.0000   1.0000   1.0000   1.0000   1.0000   1.0000
     1.0000   1.0000   1.0000   1.0000   1.0000   1.0000   1.0000   1.0000

          k =-0.3625-0.3519-0.3593 (  5176 PWs)   bands (ev):

   -64.9371 -64.6233 -63.6697 -63.6129 -31.9517 -31.9129 -31.8575 -31.6318
   -31.5864 -31.5711 -30.7028 -30.6584 -30.6271 -30.6252 -30.5943 -30.5685
   -29.2347 -28.9442 -28.3416 -27.7903 -11.0931 -10.9310 -10.8354 -10.7525
   -10.3746 -10.1583 -10.1272 -10.0190  -9.9682  -9.6295  -9.4664  -9.2333
    -7.7748  -7.3286  -7.0065  -6.8550  -6.7630  -6.4652  -6.4230  -6.3309
     4.4965   4.6864   4.8666   5.3081   5.3908   5.6301   5.8294   6.1249
     6.2677   6.5116   6.6511   6.7265   6.7511   6.8483   6.9715   7.1039
     7.1321   7.3081   7.4625   7.5372   7.5842   7.6265   7.6614   7.8160

     occupation numbers 
     1.0000   1.0000   1.0000   1.0000   1.0000   1.0000   1.0000   1.0000
     1.0000   1.0000   1.0000   1.0000   1.0000   1.0000   1.0000   1.0000
     1.0000   1.0000   1.0000   1.0000   1.0000   1.0000   1.0000   1.0000
     1.0000   1.0000   1.0000   1.0000   1.0000   1.0000   1.0000   1.0000
     1.0000   1.0000   1.0000   1.0000   1.0000   1.0000   1.0000   1.0000
     1.0000   1.0000   1.0000   1.0000   1.0000   1.0000   1.0000   1.0000
     1.0000   1.0000   1.0000   1.0000   1.0000   1.0000   1.0000   1.0000
     1.0000   1.0000   1.0000   1.0000   1.0000   1.0000   1.0000   1.0000

     highest occupied level (ev):     8.2373

!    total energy              =   -1059.61670011 Ry
     Harris-Foulkes estimate   =   -1059.61670011 Ry
     estimated scf accuracy    <          6.0E-11 Ry

     The total energy is the sum of the following terms:

     one-electron contribution =    -466.81712570 Ry
     hartree contribution      =     285.76622379 Ry
     xc contribution           =    -173.39706507 Ry
     ewald contribution        =    -705.16873312 Ry

     convergence has been achieved in  20 iterations

     Forces acting on atoms (Ry/au):

     atom    1 type  2   force =  -0.49428761E-01  0.10983232E-01  0.22101395E-01
     atom    2 type  3   force =  -0.83404111E-01  0.13105786E-02 -0.18498047E-01
     atom    3 type  1   force =   0.71962042E-01  0.30886909E-01 -0.77270985E-02
     atom    4 type  3   force =   0.35207651E-01 -0.29294294E-01  0.14708389E-01
     atom    5 type  1   force =  -0.10890844E-01 -0.25433408E-01  0.10986414E-01
     atom    6 type  3   force =   0.69567930E-01 -0.82096987E-02 -0.15044553E-01
     atom    7 type  2   force =   0.42446907E-01  0.68653869E-03  0.86141779E-01
     atom    8 type  3   force =  -0.44130737E-02 -0.34302205E-01  0.31608489E-01
     atom    9 type  1   force =  -0.15768797E-01  0.22216860E-01 -0.24002650E-01
     atom   10 type  3   force =  -0.19448053E-01  0.12126198E-01 -0.61328460E-01
     atom   11 type  1   force =  -0.58447273E-01  0.43834236E-01 -0.27902448E-01
     atom   12 type  3   force =   0.17445063E-02  0.12680505E-01 -0.12035990E+00
     atom   13 type  2   force =  -0.38188926E-01  0.14209850E-01  0.99014465E-02
     atom   14 type  3   force =   0.52994751E-01 -0.25319758E-01  0.31383597E-01
     atom   15 type  2   force =   0.32251321E-01  0.46706486E-02  0.34984842E-01
     atom   16 type  3   force =  -0.26185271E-01 -0.31046192E-01  0.33046803E-01
     The non-local contrib.  to forces
     atom    1 type  2   force =  -0.25631625E-01  0.14336856E+00 -0.81445290E-01
     atom    2 type  3   force =  -0.90373684E-01  0.21945743E-01 -0.76869105E-01
     atom    3 type  1   force =   0.38116370E-01  0.49629166E-02  0.20995601E-01
     atom    4 type  3   force =   0.15910009E-01 -0.31947903E-01  0.96256221E-01
     atom    5 type  1   force =  -0.23258024E-01  0.46743962E-03 -0.40278867E-02
     atom    6 type  3   force =   0.92313335E-01  0.73731589E-01 -0.54850413E-02
     atom    7 type  2   force =   0.21823142E+00  0.22371688E+00  0.41361785E+00
     atom    8 type  3   force =   0.68166229E-01  0.25510334E-01  0.49131929E-01
     atom    9 type  1   force =   0.39585385E-01  0.31168490E-01  0.11150832E-01
     atom   10 type  3   force =  -0.90866864E-01  0.10981724E+00 -0.18005806E+00
     atom   11 type  1   force =  -0.39229383E-01  0.21859416E-01  0.15958660E-01
     atom   12 type  3   force =  -0.82569891E-02  0.97559439E-01 -0.82518171E-01
     atom   13 type  2   force =  -0.36931065E+00  0.14140552E+00 -0.68386197E-01
     atom   14 type  3   force =   0.79714926E-01  0.20550793E-01  0.86703280E-01
     atom   15 type  2   force =   0.19512387E+00  0.20960793E+00 -0.12689342E+00
     atom   16 type  3   force =  -0.68581486E-01 -0.81581477E-01  0.63141743E-01
     The ionic contribution  to forces
     atom    1 type  2   force =  -0.11342153E+01  0.19057831E+01 -0.13622114E+01
     atom    2 type  3   force =  -0.35229631E+01  0.40105234E+00 -0.12492673E+01
     atom    3 type  1   force =   0.10217941E+01  0.13217044E+01 -0.14477082E+00
     atom    4 type  3   force =   0.13396933E+01  0.57149384E-01 -0.19135091E+00
     atom    5 type  1   force =  -0.19549678E+01 -0.10803742E+01  0.13651430E+01
     atom    6 type  3   force =   0.35122892E+01 -0.16564673E+01 -0.14081376E-01
     atom    7 type  2   force =   0.27896524E+01  0.16547564E+01  0.41939072E+01
     atom    8 type  3   force =  -0.18495283E+01 -0.30233893E+01  0.53653637E+00
     atom    9 type  1   force =   0.11592296E+01  0.78782970E+00  0.20013062E+00
     atom   10 type  3   force =  -0.72317486E+00  0.92801615E+00 -0.77291630E+00
     atom   11 type  1   force =  -0.29049868E+01  0.86656716E+00 -0.92602991E+00
     atom   12 type  3   force =  -0.10276390E+01 -0.44430545E+00 -0.39852547E+01
     atom   13 type  2   force =  -0.29186906E+01 -0.42871230E+00 -0.17938402E+00
     atom   14 type  3   force =   0.20952776E+01 -0.22170752E+01  0.12455434E+01
     atom   15 type  2   force =   0.40855287E+01  0.12859199E+01 -0.12167908E+01
     atom   16 type  3   force =   0.32700953E-01 -0.35845468E+00  0.25007970E+01
     The local contribution  to forces
     atom    1 type  2   force =   0.11104167E+01 -0.20381697E+01  0.14657542E+01
     atom    2 type  3   force =   0.35285269E+01 -0.42169558E+00  0.13071816E+01
     atom    3 type  1   force =  -0.98787012E+00 -0.12953222E+01  0.11553135E+00
     atom    4 type  3   force =  -0.13196947E+01 -0.55463856E-01  0.11031595E+00
     atom    5 type  1   force =   0.19681116E+01  0.10541974E+01 -0.13498237E+01
     atom    6 type  3   force =  -0.35341576E+01  0.15746180E+01  0.41076406E-02
     atom    7 type  2   force =  -0.29654370E+01 -0.18777891E+01 -0.45213845E+01
     atom    8 type  3   force =   0.17770964E+01  0.29632308E+01 -0.55336238E+00
     atom    9 type  1   force =  -0.12159830E+01 -0.79712456E+00 -0.23624611E+00
     atom   10 type  3   force =   0.79398497E+00 -0.10253768E+01  0.89001078E+00
     atom   11 type  1   force =   0.28861320E+01 -0.84395726E+00  0.88141727E+00
     atom   12 type  3   force =   0.10375840E+01  0.35989942E+00  0.39456226E+01
     atom   13 type  2   force =   0.32498098E+01  0.30151604E+00  0.25767237E+00
     atom   14 type  3   force =  -0.21208424E+01  0.21710299E+01 -0.12999612E+01
     atom   15 type  2   force =  -0.42483961E+01 -0.14908559E+01  0.13786702E+01
     atom   16 type  3   force =   0.87553632E-02  0.40814346E+00 -0.25304513E+01
     The core correction contribution to forces
     atom    1 type  2   force =   0.00000000E+00  0.00000000E+00  0.00000000E+00
     atom    2 type  3   force =   0.14009177E-02  0.67364113E-05  0.45467995E-03
     atom    3 type  1   force =  -0.74587754E-04 -0.45639737E-03  0.51534383E-03
     atom    4 type  3   force =  -0.69798462E-03  0.96947905E-03 -0.51236927E-03
     atom    5 type  1   force =  -0.77415056E-03  0.27474743E-03 -0.30385889E-03
     atom    6 type  3   force =  -0.87308275E-03 -0.93543445E-04  0.41574387E-03
     atom    7 type  2   force =   0.00000000E+00  0.00000000E+00  0.00000000E+00
     atom    8 type  3   force =  -0.14906838E-03  0.34311590E-03 -0.69841901E-03
     atom    9 type  1   force =   0.13985257E-02  0.34449713E-03  0.96249283E-03
     atom   10 type  3   force =   0.60987166E-03 -0.32900633E-03  0.16347984E-02
     atom   11 type  1   force =  -0.36459694E-03 -0.63509063E-03  0.74900910E-03
     atom   12 type  3   force =   0.55700132E-04 -0.47431961E-03  0.17840804E-02
     atom   13 type  2   force =   0.00000000E+00  0.00000000E+00  0.00000000E+00
     atom   14 type  3   force =  -0.11539496E-02  0.17159842E-03 -0.90177089E-03
     atom   15 type  2   force =   0.00000000E+00  0.00000000E+00  0.00000000E+00
     atom   16 type  3   force =   0.94189128E-03  0.84647523E-03 -0.43866937E-03
     The Hubbard contrib.    to forces
     atom    1 type  2   force =   0.00000000E+00  0.00000000E+00  0.00000000E+00
     atom    2 type  3   force =   0.00000000E+00  0.00000000E+00  0.00000000E+00
     atom    3 type  1   force =   0.00000000E+00  0.00000000E+00  0.00000000E+00
     atom    4 type  3   force =   0.00000000E+00  0.00000000E+00  0.00000000E+00
     atom    5 type  1   force =   0.00000000E+00  0.00000000E+00  0.00000000E+00
     atom    6 type  3   force =   0.00000000E+00  0.00000000E+00  0.00000000E+00
     atom    7 type  2   force =   0.00000000E+00  0.00000000E+00  0.00000000E+00
     atom    8 type  3   force =   0.00000000E+00  0.00000000E+00  0.00000000E+00
     atom    9 type  1   force =   0.00000000E+00  0.00000000E+00  0.00000000E+00
     atom   10 type  3   force =   0.00000000E+00  0.00000000E+00  0.00000000E+00
     atom   11 type  1   force =   0.00000000E+00  0.00000000E+00  0.00000000E+00
     atom   12 type  3   force =   0.00000000E+00  0.00000000E+00  0.00000000E+00
     atom   13 type  2   force =   0.00000000E+00  0.00000000E+00  0.00000000E+00
     atom   14 type  3   force =   0.00000000E+00  0.00000000E+00  0.00000000E+00
     atom   15 type  2   force =   0.00000000E+00  0.00000000E+00  0.00000000E+00
     atom   16 type  3   force =   0.00000000E+00  0.00000000E+00  0.00000000E+00
     The SCF correction term to forces
     atom    1 type  2   force =   0.21311804E-05  0.10430277E-05  0.35330047E-05
     atom    2 type  3   force =   0.54856523E-05  0.12045102E-05  0.16612604E-05
     atom    3 type  1   force =  -0.30930130E-05 -0.18553729E-05  0.10350510E-05
     atom    4 type  3   force =  -0.23775212E-05 -0.15360924E-05 -0.89952171E-06
     atom    5 type  1   force =  -0.18416636E-05  0.11129873E-05 -0.14895585E-05
     atom    6 type  3   force =  -0.32930691E-05  0.14458013E-05 -0.19179284E-05
     atom    7 type  2   force =   0.66258381E-06  0.21756805E-05  0.80286250E-06
     atom    8 type  3   force =   0.22856179E-05  0.27321190E-05  0.59417870E-06
     atom    9 type  1   force =   0.13891821E-05 -0.14094658E-05 -0.88343152E-06
     atom   10 type  3   force =  -0.56009546E-06 -0.15784653E-05 -0.78754571E-07
     atom   11 type  1   force =   0.22001439E-05 -0.12060068E-06  0.21327719E-05
     atom   12 type  3   force =   0.14062728E-05  0.12739624E-05  0.58025430E-05
     atom   13 type  2   force =   0.31145205E-05  0.44645343E-06 -0.10988303E-05
     atom   14 type  3   force =  -0.78918936E-06  0.30423280E-05 -0.46591325E-06
     atom   15 type  2   force =  -0.45327229E-05 -0.13409172E-05 -0.15267022E-05
     atom   16 type  3   force =  -0.13811085E-05 -0.11065947E-06 -0.23533885E-05

     Total force =     0.271823     Total SCF correction =     0.000015


     entering subroutine stress ...

          total   stress  (Ry/bohr**3)                   (kbar)     P=  105.28
   0.0008396107   0.0000084687   0.0001519393        123.51      1.25     22.35
   0.0000084687   0.0006132762   0.0000326479          1.25     90.22      4.80
   0.0001519393   0.0000326479   0.0006941047         22.35      4.80    102.11

     kinetic stress (kbar)  21770.49    -10.41     30.15
                              -10.41  21749.89     -8.05
                               30.15     -8.05  21735.57

     local   stress (kbar)  -4451.12   -752.59   1514.58
                             -752.59  -2957.61     28.83
                             1514.58     28.83  -3134.14

     nonloc. stress (kbar)   5477.08      2.28     -5.51
                                2.28   5465.11     -1.65
                               -5.51     -1.65   5469.07

     hartree stress (kbar)  11875.59    318.60   -675.96
                              318.60  11422.63     17.85
                             -675.96     17.85  11464.32

     exc-cor stress (kbar)  -5505.94      0.24     -0.73
                                0.24  -5507.79     -0.31
                               -0.73     -0.31  -5507.71

     corecor stress (kbar)  -1089.44      0.02     -0.08
                                0.02  -1089.35      0.03
                               -0.08      0.03  -1089.30

     ewald   stress (kbar) -27953.14    443.11   -840.09
                              443.11 -28992.65    -31.90
                             -840.09    -31.90 -28835.71

     hubbard stress (kbar)      0.00      0.00      0.00
                                0.00      0.00      0.00
                                0.00      0.00      0.00

     london  stress (kbar)      0.00      0.00      0.00
                                0.00      0.00      0.00
                                0.00      0.00      0.00

     XDM     stress (kbar)      0.00      0.00      0.00
                                0.00      0.00      0.00
                                0.00      0.00      0.00

     dft-nl  stress (kbar)      0.00      0.00      0.00
                                0.00      0.00      0.00
                                0.00      0.00      0.00



     Writing output data file mix.dummy27029.save

     init_run     :     14.46s CPU     15.23s WALL (       1 calls)
     electrons    :    733.96s CPU    776.70s WALL (       1 calls)
     forces       :      6.08s CPU      6.17s WALL (       1 calls)
     stress       :     11.71s CPU     11.91s WALL (       1 calls)

     Called by init_run:
     wfcinit      :     12.08s CPU     12.52s WALL (       1 calls)
     potinit      :      0.42s CPU      0.46s WALL (       1 calls)

     Called by electrons:
     c_bands      :    645.76s CPU    683.45s WALL (      20 calls)
     sum_band     :     80.40s CPU     85.41s WALL (      20 calls)
     v_of_rho     :      0.80s CPU      0.80s WALL (      21 calls)
     v_h          :      0.04s CPU      0.05s WALL (      21 calls)
     v_xc         :      0.82s CPU      0.83s WALL (      23 calls)
     newd         :      5.76s CPU      5.76s WALL (      21 calls)
     mix_rho      :      1.40s CPU      1.40s WALL (      20 calls)

     Called by c_bands:
     init_us_2    :      3.39s CPU      3.37s WALL (    1548 calls)
     cegterg      :    616.13s CPU    652.17s WALL (     720 calls)

     Called by sum_band:
     sum_band:bec :      1.06s CPU      1.03s WALL (     720 calls)
     addusdens    :      5.18s CPU      5.18s WALL (      20 calls)

     Called by *egterg:
     h_psi        :    310.33s CPU    320.56s WALL (    2144 calls)
     s_psi        :     32.19s CPU     31.32s WALL (    2144 calls)
     g_psi        :      0.30s CPU      0.35s WALL (    1388 calls)
     cdiaghg      :     85.89s CPU     95.21s WALL (    2108 calls)
     cegterg:over :     94.88s CPU    104.44s WALL (    1388 calls)
     cegterg:upda :     11.73s CPU     13.54s WALL (    1388 calls)
     cegterg:last :      7.46s CPU      7.23s WALL (     720 calls)

     Called by h_psi:
     h_psi:vloc   :    191.32s CPU    193.10s WALL (    2144 calls)
     h_psi:vnl    :    118.45s CPU    126.93s WALL (    2144 calls)
     add_vuspsi   :     32.44s CPU     33.55s WALL (    2144 calls)

     General routines
     calbec       :    121.67s CPU    133.14s WALL (    2936 calls)
     fft          :      2.37s CPU      2.43s WALL (     357 calls)
     ffts         :      0.81s CPU      0.82s WALL (     544 calls)
     fftw         :    217.05s CPU    219.71s WALL (  269416 calls)
     interpolate  :      0.18s CPU      0.18s WALL (      41 calls)

     Parallel routines
     fft_scatter  :    116.52s CPU    118.59s WALL (  270317 calls)

     PWSCF        : 12m49.18s CPU    13m33.85s WALL


   This run was terminated on:  11:31:26  16Nov2017            

=------------------------------------------------------------------------------=
   JOB DONE.
=------------------------------------------------------------------------------=
