
     Program PWSCF v.5.1 starts on  8Dec2017 at  4:53:27 

     This program is part of the open-source Quantum ESPRESSO suite
     for quantum simulation of materials; please cite
         "P. Giannozzi et al., J. Phys.:Condens. Matter 21 395502 (2009);
          URL http://www.quantum-espresso.org", 
     in publications or presentations arising from this work. More details at
     http://www.quantum-espresso.org/quote

     Parallel version (MPI), running on    16 processors
     R & G space division:  proc/nbgrp/npool/nimage =      16
     Waiting for input...
     Reading input from standard input
Warning: card &IONS ignored
Warning: card   ION_DYNAMICS='BFGS', ignored
Warning: card / ignored
Warning: card &CELL ignored
Warning: card  CELL_DYNAMICS = 'BFGS' ignored
Warning: card / ignored

     Current dimensions of program PWSCF are:
     Max number of different atomic species (ntypx) = 10
     Max number of k-points (npk) =  40000
     Max angular momentum in pseudopotentials (lmaxx) =  3
 kfg - two_fermi_energies  F

     Subspace diagonalization in iterative solution of the eigenvalue problem:
     a serial algorithm will be used


     Parallelization info
     --------------------
     sticks:   dense  smooth     PW     G-vecs:    dense   smooth      PW
     Min         127     101     29                 3843     2743     426
     Max         128     102     30                 3846     2759     427
     Sum        2043    1631    479                61515    44019    6823



     bravais-lattice index     =            0
     lattice parameter (alat)  =    12.071459855  a.u.
     unit-cell volume          =    1288.4586 (a.u.)^3
     number of atoms/cell      =           16
     number of atomic types    =            3
     number of electrons       =       128.00
     number of Kohn-Sham states=           64
     kinetic-energy cutoff     =      40.0000  Ry
     charge density cutoff     =     200.0000  Ry
     convergence threshold     =      1.0E-10
     mixing beta               =       0.3000
     number of iterations used =            8  local-TF  mixing
     Exchange-correlation      = SLA  PW   PSX  PSC ( 1  4 10  8 0)
     A smooth kinetic-energy cutoff is imposed at      39.5000 Ry
     height of the smooth step-function =             800.0000 Ry
     width of the smooth step-function  =               1.0000 Ry


     celldm(1)=  12.071460  celldm(2)=   0.000000  celldm(3)=   0.000000
     celldm(4)=   0.000000  celldm(5)=   0.000000  celldm(6)=   0.000000

     crystal axes: (cart. coord. in units of alat)
               a(1) = (   0.010714014311   0.699301484496   0.714746559054 )  
               a(2) = (   0.725165699621  -0.003358480555   0.728819053919 )  
               a(3) = (   0.722066351152   0.710274630892  -0.000259132086 )  

     reciprocal axes: (cart. coord. in units 2 pi/alat)
               b(1) = ( -0.706731  0.718722  0.706500 )  
               b(2) = (  0.693334 -0.704596  0.678978 )  
               b(3) = (  0.699091  0.696956 -0.692375 )  


     PseudoPot. # 1 for Ca read from file:
     /users/kfg/psuedo/gbrv_1.5/ca.pbesol.UPF
     MD5 check sum: 0533207b58cddeaa036efa5b63902087
     Pseudo is Ultrasoft + core correction, Zval = 10.0
     Generated by new atomic code, or converted to UPF format
     Using radial grid of  845 points,  6 beta functions with: 
                l(1) =   0
                l(2) =   0
                l(3) =   1
                l(4) =   1
                l(5) =   2
                l(6) =   2
     Q(r) pseudized with  8 coefficients,  rinner =    1.500   1.500   1.500
                                                       1.500   1.500

     PseudoPot. # 2 for Mg read from file:
     /users/kfg/psuedo/gbrv_1.5/mg.pbesol.UPF
     MD5 check sum: 4059f37963cf5867752dbf5ab2400678
     Pseudo is Ultrasoft, Zval = 10.0
     Generated by new atomic code, or converted to UPF format
     Using radial grid of  821 points,  7 beta functions with: 
                l(1) =   0
                l(2) =   0
                l(3) =   0
                l(4) =   1
                l(5) =   1
                l(6) =   2
                l(7) =   2
     Q(r) pseudized with  8 coefficients,  rinner =    1.200   1.200   1.200
                                                       1.200   1.200

     PseudoPot. # 3 for O  read from file:
     /users/kfg/psuedo/gbrv_1.5/o.pbesol.UPF
     MD5 check sum: 501638753501ef6325af9037351f7734
     Pseudo is Ultrasoft + core correction, Zval =  6.0
     Generated by new atomic code, or converted to UPF format
     Using radial grid of  737 points,  5 beta functions with: 
                l(1) =   0
                l(2) =   0
                l(3) =   1
                l(4) =   1
                l(5) =   2
     Q(r) pseudized with  8 coefficients,  rinner =    0.900   0.900   0.900
                                                       0.900   0.900

     atomic species   valence    mass     pseudopotential
        Ca            10.00    40.07800     Ca( 1.00)
        Mg            10.00    40.07800     Mg( 1.00)
        O              6.00    15.99940     O ( 1.00)

     No symmetry found


                                    s                        frac. trans.

      isym =  1     identity                                     

 cryst.   s( 1) = (     1          0          0      )
                  (     0          1          0      )
                  (     0          0          1      )

 cart.    s( 1) = (  1.0000000  0.0000000 -0.0000000 )
                  (  0.0000000  1.0000000  0.0000000 )
                  (  0.0000000 -0.0000000  1.0000000 )


     point group C_1 (1)    
     there are  1 classes
     the character table:

       E    
A      1.00

     the symmetry operations in each class:
     E        1

   Cartesian axes

     site n.     atom                  positions (alat units)
         1           Mg  tau(   1) = (   -0.04507525343    0.00518471867    0.04764680671  )
         2           O   tau(   2) = (    0.34822809757    0.37217482932    0.34955855495  )
         3           Ca  tau(   3) = (    0.38386816281    0.34004816543   -0.00028477585  )
         4           O   tau(   4) = (    0.68898897872    0.72360471861    0.36486677471  )
         5           Ca  tau(   5) = (    0.38116927259    0.00571743811    0.38051461551  )
         6           O   tau(   6) = (    0.69310360173    0.32917906780    0.71822834463  )
         7           Mg  tau(   7) = (    0.72892465455    0.35753463061    0.38125370724  )
         8           O   tau(   8) = (    1.08044396352    0.69286775844    0.70414932024  )
         9           Mg  tau(   9) = (    0.04436142333    0.35559630558    0.34129581510  )
        10           O   tau(  10) = (    0.37958371180    0.68914742424    0.71020608335  )
        11           Mg  tau(  11) = (    0.38257012704    0.67583913994    0.34863952198  )
        12           O   tau(  12) = (    0.74560493475    1.08789167578    0.74892646560  )
        13           Ca  tau(  13) = (    0.35560793301    0.37447529880    0.72939577278  )
        14           O   tau(  14) = (    0.76958246902    0.73100038281    1.05656409726  )
        15           Mg  tau(  15) = (    0.71881010813    0.66447162018    0.69213775765  )
        16           O   tau(  16) = (    1.09190420536    1.03257263468    1.08674002345  )

   Crystallographic axes

     site n.     atom                  positions (cryst. coord.)
         1           Mg  tau(   1) = (    0.06924494235   -0.00255420806   -0.06088764638  )
         2           O   tau(   2) = (    0.26834978206    0.21654765234    0.26080714612  )
         3           Ca  tau(   3) = (   -0.02709275171    0.02635864218    0.50555471966  )
         4           O   tau(   4) = (    0.29091903731    0.21558633887    0.73336231343  )
         5           Ca  tau(   5) = (    0.00355880238    0.51860991440    0.00699800249  )
         6           O   tau(   6) = (    0.25417890898    0.73627464949    0.21668258561  )
         7           Mg  tau(   7) = (    0.01117009457    0.51233311914    0.49480019759  )
         8           O   tau(   8) = (    0.23187756350    0.73901766848    0.75069189767  )
         9           Mg  tau(   9) = (    0.46534883638    0.01193761300    0.04254307336  )
        10           O   tau(  10) = (    0.72880252092    0.25982140883    0.25394028839  )
        11           Mg  tau(  11) = (    0.46168004852    0.02577334994    0.49709244930  )
        12           O   tau(  12) = (    0.78406607069    0.25893274535    0.76092078427  )
        13           Ca  tau(  13) = (    0.53314277322    0.47794441576    0.00457982438  )
        14           O   tau(  14) = (    0.72796098303    0.73590057519    0.31594496655  )
        15           Mg  tau(  15) = (    0.45856035992    0.50013698025    0.48640253368  )
        16           O   tau(  16) = (    0.73823202790    0.76737913483    0.73056686386  )

     number of k points=    36
                       cart. coord. in units 2pi/alat
        k(    1) = (   0.0000000   0.0000000   0.0000000), wk =   0.0312500
        k(    2) = (   0.1747728   0.1742391  -0.1730938), wk =   0.0625000
        k(    3) = (  -0.3495455  -0.3484782   0.3461875), wk =   0.0312500
        k(    4) = (   0.1733334  -0.1761491   0.1697444), wk =   0.0625000
        k(    5) = (   0.3481062  -0.0019100  -0.0033494), wk =   0.0625000
        k(    6) = (  -0.1762121  -0.5246273   0.5159320), wk =   0.0625000
        k(    7) = (  -0.0014394  -0.3503882   0.3428382), wk =   0.0625000
        k(    8) = (  -0.3466668   0.3522982  -0.3394888), wk =   0.0312500
        k(    9) = (  -0.1718941   0.5265373  -0.5125826), wk =   0.0625000
        k(   10) = (  -0.6962124   0.0038200   0.0066987), wk =   0.0312500
        k(   11) = (  -0.1766828   0.1796804   0.1766251), wk =   0.0625000
        k(   12) = (  -0.0019100   0.3539195   0.0035313), wk =   0.0625000
        k(   13) = (  -0.5262283  -0.1687978   0.5228126), wk =   0.0625000
        k(   14) = (  -0.3514555   0.0054413   0.3497189), wk =   0.0625000
        k(   15) = (  -0.0033494   0.0035313   0.3463695), wk =   0.0625000
        k(   16) = (   0.1714234   0.1777704   0.1732757), wk =   0.0625000
        k(   17) = (  -0.3528949  -0.3449469   0.6925571), wk =   0.0625000
        k(   18) = (  -0.1781221  -0.1707078   0.5194633), wk =   0.0625000
        k(   19) = (  -0.5233496   0.5319786  -0.1628637), wk =   0.0625000
        k(   20) = (  -0.3485768   0.7062177  -0.3359575), wk =   0.0625000
        k(   21) = (  -0.8728951   0.1835004   0.1833238), wk =   0.0625000
        k(   22) = (  -0.6981224   0.3577395   0.0102301), wk =   0.0625000
        k(   23) = (  -0.3500162   0.3558295   0.0068807), wk =   0.0625000
        k(   24) = (  -0.1752434   0.5300686  -0.1662131), wk =   0.0625000
        k(   25) = (  -0.6995617   0.0073513   0.3530682), wk =   0.0625000
        k(   26) = (  -0.5247890   0.1815904   0.1799745), wk =   0.0625000
        k(   27) = (   0.3533656  -0.3593609  -0.3532502), wk =   0.0312500
        k(   28) = (   0.5281383  -0.1851218  -0.5263440), wk =   0.0625000
        k(   29) = (   0.0038200  -0.7078391  -0.0070627), wk =   0.0312500
        k(   30) = (   0.5266990  -0.5355100  -0.1835058), wk =   0.0625000
        k(   31) = (   0.7014717  -0.3612709  -0.3565996), wk =   0.0625000
        k(   32) = (   0.1771534  -0.8839882   0.1626817), wk =   0.0625000
        k(   33) = (   0.3519262  -0.7097491  -0.0104120), wk =   0.0625000
        k(   34) = (   0.0066987  -0.0070627  -0.6927390), wk =   0.0312500
        k(   35) = (   0.1814715   0.1671764  -0.8658328), wk =   0.0625000
        k(   36) = (  -0.3428468  -0.3555409  -0.3465515), wk =   0.0312500

                       cryst. coord.
        k(    1) = (   0.0000000   0.0000000   0.0000000), wk =   0.0312500
        k(    2) = (   0.0000000   0.0000000   0.2500000), wk =   0.0625000
        k(    3) = (   0.0000000   0.0000000  -0.5000000), wk =   0.0312500
        k(    4) = (  -0.0000000   0.2500000   0.0000000), wk =   0.0625000
        k(    5) = (  -0.0000000   0.2500000   0.2500000), wk =   0.0625000
        k(    6) = (  -0.0000000   0.2500000  -0.5000000), wk =   0.0625000
        k(    7) = (   0.0000000   0.2500000  -0.2500000), wk =   0.0625000
        k(    8) = (   0.0000000  -0.5000000  -0.0000000), wk =   0.0312500
        k(    9) = (   0.0000000  -0.5000000   0.2500000), wk =   0.0625000
        k(   10) = (   0.0000000  -0.5000000  -0.5000000), wk =   0.0312500
        k(   11) = (   0.2500000   0.0000000   0.0000000), wk =   0.0625000
        k(   12) = (   0.2500000   0.0000000   0.2500000), wk =   0.0625000
        k(   13) = (   0.2500000   0.0000000  -0.5000000), wk =   0.0625000
        k(   14) = (   0.2500000   0.0000000  -0.2500000), wk =   0.0625000
        k(   15) = (   0.2500000   0.2500000   0.0000000), wk =   0.0625000
        k(   16) = (   0.2500000   0.2500000   0.2500000), wk =   0.0625000
        k(   17) = (   0.2500000   0.2500000  -0.5000000), wk =   0.0625000
        k(   18) = (   0.2500000   0.2500000  -0.2500000), wk =   0.0625000
        k(   19) = (   0.2500000  -0.5000000   0.0000000), wk =   0.0625000
        k(   20) = (   0.2500000  -0.5000000   0.2500000), wk =   0.0625000
        k(   21) = (   0.2500000  -0.5000000  -0.5000000), wk =   0.0625000
        k(   22) = (   0.2500000  -0.5000000  -0.2500000), wk =   0.0625000
        k(   23) = (   0.2500000  -0.2500000   0.0000000), wk =   0.0625000
        k(   24) = (   0.2500000  -0.2500000   0.2500000), wk =   0.0625000
        k(   25) = (   0.2500000  -0.2500000  -0.5000000), wk =   0.0625000
        k(   26) = (   0.2500000  -0.2500000  -0.2500000), wk =   0.0625000
        k(   27) = (  -0.5000000  -0.0000000  -0.0000000), wk =   0.0312500
        k(   28) = (  -0.5000000   0.0000000   0.2500000), wk =   0.0625000
        k(   29) = (  -0.5000000  -0.0000000  -0.5000000), wk =   0.0312500
        k(   30) = (  -0.5000000   0.2500000  -0.0000000), wk =   0.0625000
        k(   31) = (  -0.5000000   0.2500000   0.2500000), wk =   0.0625000
        k(   32) = (  -0.5000000   0.2500000  -0.5000000), wk =   0.0625000
        k(   33) = (  -0.5000000   0.2500000  -0.2500000), wk =   0.0625000
        k(   34) = (  -0.5000000  -0.5000000  -0.0000000), wk =   0.0312500
        k(   35) = (  -0.5000000  -0.5000000   0.2500000), wk =   0.0625000
        k(   36) = (  -0.5000000  -0.5000000  -0.5000000), wk =   0.0312500

     Dense  grid:    61515 G-vectors     FFT dimensions: (  60,  60,  60)

     Smooth grid:    44019 G-vectors     FFT dimensions: (  50,  50,  50)

     Largest allocated arrays     est. size (Mb)     dimensions
        Kohn-Sham Wavefunctions         0.35 Mb     (     356,   64)
        NL pseudopotentials             1.37 Mb     (     356,  253)
        Each V/rho on FFT grid          0.22 Mb     (   14400)
        Each G-vector array             0.03 Mb     (    3843)
        G-vector shells                 0.03 Mb     (    3825)
     Largest temporary arrays     est. size (Mb)     dimensions
        Auxiliary wavefunctions         1.39 Mb     (     356,  256)
        Each subspace H/S matrix        1.00 Mb     (     256,  256)
        Each <psi_i|beta_j> matrix      0.25 Mb     (     253,   64)
        Arrays for rho mixing           1.76 Mb     (   14400,    8)

     Check: negative/imaginary core charge=   -0.000003    0.000000

     Initial potential from superposition of free atoms

     starting charge  126.48332, renormalised to  128.00000
     Starting wfc are   87 randomized atomic wfcs

     total cpu time spent up to now is       15.9 secs

     Self-consistent Calculation

     iteration #  1     ecut=    40.00 Ry     beta=0.30
     Davidson diagonalization with overlap
     ethr =  1.00E-02,  avg # of iterations =  2.0

     total cpu time spent up to now is       52.1 secs

     total energy              =   -1110.11115239 Ry
     Harris-Foulkes estimate   =   -1110.73460796 Ry
     estimated scf accuracy    <       3.26078719 Ry

     iteration #  2     ecut=    40.00 Ry     beta=0.30
     Davidson diagonalization with overlap
     ethr =  2.55E-03,  avg # of iterations =  1.3

     total cpu time spent up to now is       79.7 secs

     total energy              =   -1109.62156084 Ry
     Harris-Foulkes estimate   =   -1110.20816447 Ry
     estimated scf accuracy    <       1.44497682 Ry

     iteration #  3     ecut=    40.00 Ry     beta=0.30
     Davidson diagonalization with overlap
     ethr =  1.13E-03,  avg # of iterations =  2.0

     total cpu time spent up to now is      117.8 secs

     total energy              =   -1109.82498496 Ry
     Harris-Foulkes estimate   =   -1109.87860147 Ry
     estimated scf accuracy    <       0.19800277 Ry

     iteration #  4     ecut=    40.00 Ry     beta=0.30
     Davidson diagonalization with overlap
     ethr =  1.55E-04,  avg # of iterations =  2.0

     total cpu time spent up to now is      154.8 secs

     total energy              =   -1109.77232192 Ry
     Harris-Foulkes estimate   =   -1109.84353716 Ry
     estimated scf accuracy    <       0.12508574 Ry

     iteration #  5     ecut=    40.00 Ry     beta=0.30
     Davidson diagonalization with overlap
     ethr =  9.77E-05,  avg # of iterations =  2.0

     total cpu time spent up to now is      191.4 secs

     total energy              =   -1109.78516145 Ry
     Harris-Foulkes estimate   =   -1109.78838557 Ry
     estimated scf accuracy    <       0.01606187 Ry

     iteration #  6     ecut=    40.00 Ry     beta=0.30
     Davidson diagonalization with overlap
     ethr =  1.25E-05,  avg # of iterations =  2.0

     total cpu time spent up to now is      227.0 secs

     total energy              =   -1109.78264578 Ry
     Harris-Foulkes estimate   =   -1109.78608561 Ry
     estimated scf accuracy    <       0.01146778 Ry

     iteration #  7     ecut=    40.00 Ry     beta=0.30
     Davidson diagonalization with overlap
     ethr =  8.96E-06,  avg # of iterations =  2.0

     total cpu time spent up to now is      262.1 secs

     total energy              =   -1109.78201074 Ry
     Harris-Foulkes estimate   =   -1109.78325099 Ry
     estimated scf accuracy    <       0.00306405 Ry

     iteration #  8     ecut=    40.00 Ry     beta=0.30
     Davidson diagonalization with overlap
     ethr =  2.39E-06,  avg # of iterations =  2.6

     total cpu time spent up to now is      303.0 secs

     total energy              =   -1109.78249077 Ry
     Harris-Foulkes estimate   =   -1109.78254969 Ry
     estimated scf accuracy    <       0.00023536 Ry

     iteration #  9     ecut=    40.00 Ry     beta=0.30
     Davidson diagonalization with overlap
     ethr =  1.84E-07,  avg # of iterations =  2.0

     total cpu time spent up to now is      338.3 secs

     total energy              =   -1109.78246633 Ry
     Harris-Foulkes estimate   =   -1109.78252864 Ry
     estimated scf accuracy    <       0.00012196 Ry

     iteration # 10     ecut=    40.00 Ry     beta=0.30
     Davidson diagonalization with overlap
     ethr =  9.53E-08,  avg # of iterations =  2.0

     total cpu time spent up to now is      376.2 secs

     total energy              =   -1109.78248329 Ry
     Harris-Foulkes estimate   =   -1109.78248853 Ry
     estimated scf accuracy    <       0.00001788 Ry

     iteration # 11     ecut=    40.00 Ry     beta=0.30
     Davidson diagonalization with overlap
     ethr =  1.40E-08,  avg # of iterations =  2.0

     total cpu time spent up to now is      410.4 secs

     total energy              =   -1109.78248412 Ry
     Harris-Foulkes estimate   =   -1109.78248601 Ry
     estimated scf accuracy    <       0.00000434 Ry

     iteration # 12     ecut=    40.00 Ry     beta=0.30
     Davidson diagonalization with overlap
     ethr =  3.39E-09,  avg # of iterations =  2.0

     total cpu time spent up to now is      449.3 secs

     total energy              =   -1109.78248456 Ry
     Harris-Foulkes estimate   =   -1109.78248476 Ry
     estimated scf accuracy    <       0.00000070 Ry

     iteration # 13     ecut=    40.00 Ry     beta=0.30
     Davidson diagonalization with overlap
     ethr =  5.46E-10,  avg # of iterations =  2.0

     total cpu time spent up to now is      485.9 secs

     total energy              =   -1109.78248461 Ry
     Harris-Foulkes estimate   =   -1109.78248465 Ry
     estimated scf accuracy    <       0.00000024 Ry

     iteration # 14     ecut=    40.00 Ry     beta=0.30
     Davidson diagonalization with overlap
     ethr =  1.85E-10,  avg # of iterations =  2.0

     total cpu time spent up to now is      519.5 secs

     total energy              =   -1109.78248457 Ry
     Harris-Foulkes estimate   =   -1109.78248462 Ry
     estimated scf accuracy    <       0.00000010 Ry

     iteration # 15     ecut=    40.00 Ry     beta=0.30
     Davidson diagonalization with overlap
     ethr =  7.72E-11,  avg # of iterations =  3.0

     total cpu time spent up to now is      564.6 secs

     total energy              =   -1109.78248459 Ry
     Harris-Foulkes estimate   =   -1109.78248460 Ry
     estimated scf accuracy    <       0.00000004 Ry

     iteration # 16     ecut=    40.00 Ry     beta=0.30
     Davidson diagonalization with overlap
     ethr =  2.96E-11,  avg # of iterations =  2.0

     total cpu time spent up to now is      600.6 secs

     total energy              =   -1109.78248459 Ry
     Harris-Foulkes estimate   =   -1109.78248459 Ry
     estimated scf accuracy    <          3.9E-09 Ry

     iteration # 17     ecut=    40.00 Ry     beta=0.30
     Davidson diagonalization with overlap
     ethr =  3.08E-12,  avg # of iterations =  2.0

     total cpu time spent up to now is      637.6 secs

     total energy              =   -1109.78248459 Ry
     Harris-Foulkes estimate   =   -1109.78248459 Ry
     estimated scf accuracy    <          9.7E-10 Ry

     iteration # 18     ecut=    40.00 Ry     beta=0.30
     Davidson diagonalization with overlap
     ethr =  7.61E-13,  avg # of iterations =  2.2

     total cpu time spent up to now is      680.8 secs

     total energy              =   -1109.78248459 Ry
     Harris-Foulkes estimate   =   -1109.78248459 Ry
     estimated scf accuracy    <          2.5E-10 Ry

     iteration # 19     ecut=    40.00 Ry     beta=0.30
     Davidson diagonalization with overlap
     ethr =  1.98E-13,  avg # of iterations =  2.5

     total cpu time spent up to now is      724.6 secs

     End of self-consistent calculation

          k = 0.0000 0.0000 0.0000 (  5517 PWs)   bands (ev):

   -66.6402 -66.4587 -66.1387 -66.1075 -65.4083 -33.6317 -33.6122 -33.5675
   -33.4519 -33.4212 -33.3931 -33.1451 -33.1176 -33.1000 -33.0680 -33.0622
   -33.0439 -32.4234 -32.3684 -32.3628 -30.4394 -29.7544 -29.0787 -12.3340
   -12.0643 -11.7715 -11.4068 -11.2768 -11.1140 -10.9080 -10.8423 -10.5081
    -9.7926  -9.1019  -8.8872  -8.4345  -7.7593  -7.4645  -7.2920  -7.1495
     2.2703   2.5402   3.1093   3.7966   4.0074   4.2652   4.3822   4.9189
     5.0391   5.1622   5.3723   5.4609   5.5036   5.8302   5.9659   6.1579
     6.3775   6.4206   6.4739   6.6779   6.8709   6.9517   7.0659   7.1902

     occupation numbers 
     1.0000   1.0000   1.0000   1.0000   1.0000   1.0000   1.0000   1.0000
     1.0000   1.0000   1.0000   1.0000   1.0000   1.0000   1.0000   1.0000
     1.0000   1.0000   1.0000   1.0000   1.0000   1.0000   1.0000   1.0000
     1.0000   1.0000   1.0000   1.0000   1.0000   1.0000   1.0000   1.0000
     1.0000   1.0000   1.0000   1.0000   1.0000   1.0000   1.0000   1.0000
     1.0000   1.0000   1.0000   1.0000   1.0000   1.0000   1.0000   1.0000
     1.0000   1.0000   1.0000   1.0000   1.0000   1.0000   1.0000   1.0000
     1.0000   1.0000   1.0000   1.0000   1.0000   1.0000   1.0000   1.0000

          k = 0.1748 0.1742-0.1731 (  5493 PWs)   bands (ev):

   -66.6402 -66.4587 -66.1387 -66.1075 -65.4083 -33.6317 -33.6121 -33.5674
   -33.4519 -33.4213 -33.3932 -33.1450 -33.1175 -33.1001 -33.0672 -33.0622
   -33.0449 -32.4235 -32.3684 -32.3629 -30.4387 -29.7550 -29.0786 -12.2704
   -12.0145 -11.7752 -11.3662 -11.3489 -11.2273 -10.9936 -10.8581 -10.5340
    -9.7243  -9.0154  -8.8156  -8.3030  -7.7872  -7.5106  -7.3448  -7.2518
     2.5739   2.7583   3.3170   3.7847   4.0418   4.3734   4.4686   4.6638
     4.7523   5.1380   5.3000   5.4372   5.5101   5.7019   5.9350   6.1085
     6.2088   6.3884   6.4278   6.4997   6.6667   6.8012   6.8465   7.0140

     occupation numbers 
     1.0000   1.0000   1.0000   1.0000   1.0000   1.0000   1.0000   1.0000
     1.0000   1.0000   1.0000   1.0000   1.0000   1.0000   1.0000   1.0000
     1.0000   1.0000   1.0000   1.0000   1.0000   1.0000   1.0000   1.0000
     1.0000   1.0000   1.0000   1.0000   1.0000   1.0000   1.0000   1.0000
     1.0000   1.0000   1.0000   1.0000   1.0000   1.0000   1.0000   1.0000
     1.0000   1.0000   1.0000   1.0000   1.0000   1.0000   1.0000   1.0000
     1.0000   1.0000   1.0000   1.0000   1.0000   1.0000   1.0000   1.0000
     1.0000   1.0000   1.0000   1.0000   1.0000   1.0000   1.0000   1.0000

          k =-0.3495-0.3485 0.3462 (  5510 PWs)   bands (ev):

   -66.6402 -66.4587 -66.1387 -66.1075 -65.4083 -33.6317 -33.6120 -33.5674
   -33.4519 -33.4214 -33.3932 -33.1449 -33.1175 -33.1001 -33.0663 -33.0622
   -33.0459 -32.4235 -32.3684 -32.3629 -30.4380 -29.7557 -29.0785 -12.1963
   -11.9434 -11.7796 -11.4365 -11.3823 -11.2710 -11.1095 -10.8599 -10.5531
    -9.6800  -8.9108  -8.7421  -8.1293  -7.8388  -7.5586  -7.4457  -7.3377
     3.0721   3.2660   3.4264   3.6506   3.8213   4.1313   4.4746   4.6114
     4.8401   5.0639   5.2470   5.4025   5.5434   5.5932   5.6790   6.0376
     6.1013   6.2303   6.3281   6.3598   6.5521   6.6743   6.7454   6.9278

     occupation numbers 
     1.0000   1.0000   1.0000   1.0000   1.0000   1.0000   1.0000   1.0000
     1.0000   1.0000   1.0000   1.0000   1.0000   1.0000   1.0000   1.0000
     1.0000   1.0000   1.0000   1.0000   1.0000   1.0000   1.0000   1.0000
     1.0000   1.0000   1.0000   1.0000   1.0000   1.0000   1.0000   1.0000
     1.0000   1.0000   1.0000   1.0000   1.0000   1.0000   1.0000   1.0000
     1.0000   1.0000   1.0000   1.0000   1.0000   1.0000   1.0000   1.0000
     1.0000   1.0000   1.0000   1.0000   1.0000   1.0000   1.0000   1.0000
     1.0000   1.0000   1.0000   1.0000   1.0000   1.0000   1.0000   1.0000

          k = 0.1733-0.1761 0.1697 (  5513 PWs)   bands (ev):

   -66.6402 -66.4587 -66.1387 -66.1075 -65.4083 -33.6317 -33.6121 -33.5675
   -33.4519 -33.4212 -33.3932 -33.1450 -33.1175 -33.1000 -33.0672 -33.0621
   -33.0449 -32.4234 -32.3685 -32.3629 -30.4387 -29.7550 -29.0786 -12.2698
   -12.0151 -11.7744 -11.3781 -11.3388 -11.2246 -10.9941 -10.8586 -10.5346
    -9.7263  -9.0007  -8.8289  -8.3092  -7.7737  -7.5300  -7.3429  -7.2403
     2.5296   2.7519   3.3134   3.7691   4.1107   4.3782   4.5081   4.6700
     4.9507   5.0038   5.1788   5.3452   5.6330   5.8195   5.9050   6.0882
     6.1463   6.3025   6.3976   6.4924   6.6351   6.7603   6.9258   7.1420

     occupation numbers 
     1.0000   1.0000   1.0000   1.0000   1.0000   1.0000   1.0000   1.0000
     1.0000   1.0000   1.0000   1.0000   1.0000   1.0000   1.0000   1.0000
     1.0000   1.0000   1.0000   1.0000   1.0000   1.0000   1.0000   1.0000
     1.0000   1.0000   1.0000   1.0000   1.0000   1.0000   1.0000   1.0000
     1.0000   1.0000   1.0000   1.0000   1.0000   1.0000   1.0000   1.0000
     1.0000   1.0000   1.0000   1.0000   1.0000   1.0000   1.0000   1.0000
     1.0000   1.0000   1.0000   1.0000   1.0000   1.0000   1.0000   1.0000
     1.0000   1.0000   1.0000   1.0000   1.0000   1.0000   1.0000   1.0000

          k = 0.3481-0.0019-0.0033 (  5495 PWs)   bands (ev):

   -66.6402 -66.4587 -66.1387 -66.1075 -65.4083 -33.6317 -33.6122 -33.5674
   -33.4519 -33.4212 -33.3931 -33.1451 -33.1176 -33.1000 -33.0681 -33.0621
   -33.0439 -32.4235 -32.3685 -32.3629 -30.4392 -29.7542 -29.0785 -12.3387
   -12.0690 -11.7822 -11.2834 -11.2681 -11.1291 -11.0984 -10.8392 -10.5078
    -9.7193  -9.0815  -8.7628  -8.4400  -7.8055  -7.5462  -7.3068  -7.1581
     2.5682   2.8505   3.3840   3.8665   4.0698   4.3802   4.4264   4.6930
     4.9437   5.0254   5.2134   5.3719   5.5004   5.6468   5.7988   5.9889
     6.0946   6.2146   6.3692   6.4305   6.6845   6.8426   6.9787   7.0584

     occupation numbers 
     1.0000   1.0000   1.0000   1.0000   1.0000   1.0000   1.0000   1.0000
     1.0000   1.0000   1.0000   1.0000   1.0000   1.0000   1.0000   1.0000
     1.0000   1.0000   1.0000   1.0000   1.0000   1.0000   1.0000   1.0000
     1.0000   1.0000   1.0000   1.0000   1.0000   1.0000   1.0000   1.0000
     1.0000   1.0000   1.0000   1.0000   1.0000   1.0000   1.0000   1.0000
     1.0000   1.0000   1.0000   1.0000   1.0000   1.0000   1.0000   1.0000
     1.0000   1.0000   1.0000   1.0000   1.0000   1.0000   1.0000   1.0000
     1.0000   1.0000   1.0000   1.0000   1.0000   1.0000   1.0000   1.0000

          k =-0.1762-0.5246 0.5159 (  5507 PWs)   bands (ev):

   -66.6402 -66.4587 -66.1387 -66.1075 -65.4083 -33.6317 -33.6121 -33.5674
   -33.4519 -33.4213 -33.3932 -33.1449 -33.1176 -33.1001 -33.0672 -33.0621
   -33.0449 -32.4235 -32.3685 -32.3629 -30.4385 -29.7549 -29.0784 -12.2759
   -12.0199 -11.7877 -11.3708 -11.3529 -11.2287 -10.9879 -10.8545 -10.5332
    -9.6823  -8.9834  -8.8233  -8.2966  -7.8357  -7.5076  -7.3688  -7.2515
     3.0470   3.2241   3.6102   3.7276   3.9965   4.1883   4.4671   4.6153
     4.8142   4.9183   5.0606   5.2816   5.4291   5.4690   5.6559   5.9434
     6.0687   6.2471   6.3066   6.4687   6.5362   6.7085   6.8328   6.9039

     occupation numbers 
     1.0000   1.0000   1.0000   1.0000   1.0000   1.0000   1.0000   1.0000
     1.0000   1.0000   1.0000   1.0000   1.0000   1.0000   1.0000   1.0000
     1.0000   1.0000   1.0000   1.0000   1.0000   1.0000   1.0000   1.0000
     1.0000   1.0000   1.0000   1.0000   1.0000   1.0000   1.0000   1.0000
     1.0000   1.0000   1.0000   1.0000   1.0000   1.0000   1.0000   1.0000
     1.0000   1.0000   1.0000   1.0000   1.0000   1.0000   1.0000   1.0000
     1.0000   1.0000   1.0000   1.0000   1.0000   1.0000   1.0000   1.0000
     1.0000   1.0000   1.0000   1.0000   1.0000   1.0000   1.0000   1.0000

          k =-0.0014-0.3504 0.3428 (  5497 PWs)   bands (ev):

   -66.6402 -66.4587 -66.1387 -66.1075 -65.4083 -33.6317 -33.6120 -33.5674
   -33.4519 -33.4213 -33.3932 -33.1449 -33.1175 -33.1001 -33.0663 -33.0622
   -33.0459 -32.4235 -32.3685 -32.3629 -30.4380 -29.7557 -29.0785 -12.1953
   -11.9440 -11.7795 -11.4504 -11.4020 -11.3781 -10.9102 -10.8582 -10.5539
    -9.6895  -8.9641  -8.8314  -8.1376  -7.8039  -7.5058  -7.4319  -7.3293
     2.9171   3.1290   3.5280   3.7456   3.8804   4.2718   4.5253   4.6472
     4.8186   4.9290   5.1271   5.3215   5.4676   5.6563   5.7589   6.0286
     6.1170   6.1804   6.3190   6.4565   6.5586   6.7035   6.8005   6.9579

     occupation numbers 
     1.0000   1.0000   1.0000   1.0000   1.0000   1.0000   1.0000   1.0000
     1.0000   1.0000   1.0000   1.0000   1.0000   1.0000   1.0000   1.0000
     1.0000   1.0000   1.0000   1.0000   1.0000   1.0000   1.0000   1.0000
     1.0000   1.0000   1.0000   1.0000   1.0000   1.0000   1.0000   1.0000
     1.0000   1.0000   1.0000   1.0000   1.0000   1.0000   1.0000   1.0000
     1.0000   1.0000   1.0000   1.0000   1.0000   1.0000   1.0000   1.0000
     1.0000   1.0000   1.0000   1.0000   1.0000   1.0000   1.0000   1.0000
     1.0000   1.0000   1.0000   1.0000   1.0000   1.0000   1.0000   1.0000

          k =-0.3467 0.3523-0.3395 (  5484 PWs)   bands (ev):

   -66.6402 -66.4587 -66.1387 -66.1075 -65.4083 -33.6316 -33.6120 -33.5675
   -33.4519 -33.4213 -33.3932 -33.1449 -33.1175 -33.1001 -33.0663 -33.0621
   -33.0459 -32.4235 -32.3686 -32.3629 -30.4380 -29.7557 -29.0785 -12.1947
   -11.9455 -11.7771 -11.4415 -11.3792 -11.2675 -11.1118 -10.8604 -10.5539
    -9.6822  -8.8672  -8.7842  -8.1539  -7.7899  -7.6219  -7.4189  -7.3234
     2.8543   3.2190   3.4825   3.7299   3.9177   4.2850   4.5825   4.7146
     4.9227   4.9283   5.0671   5.2210   5.4534   5.7464   5.8392   5.9376
     6.1294   6.1928   6.2569   6.2886   6.4991   6.6757   6.7886   7.1142

     occupation numbers 
     1.0000   1.0000   1.0000   1.0000   1.0000   1.0000   1.0000   1.0000
     1.0000   1.0000   1.0000   1.0000   1.0000   1.0000   1.0000   1.0000
     1.0000   1.0000   1.0000   1.0000   1.0000   1.0000   1.0000   1.0000
     1.0000   1.0000   1.0000   1.0000   1.0000   1.0000   1.0000   1.0000
     1.0000   1.0000   1.0000   1.0000   1.0000   1.0000   1.0000   1.0000
     1.0000   1.0000   1.0000   1.0000   1.0000   1.0000   1.0000   1.0000
     1.0000   1.0000   1.0000   1.0000   1.0000   1.0000   1.0000   1.0000
     1.0000   1.0000   1.0000   1.0000   1.0000   1.0000   1.0000   1.0000

          k =-0.1719 0.5265-0.5126 (  5496 PWs)   bands (ev):

   -66.6402 -66.4587 -66.1387 -66.1075 -65.4083 -33.6317 -33.6121 -33.5674
   -33.4519 -33.4213 -33.3931 -33.1450 -33.1176 -33.1001 -33.0672 -33.0621
   -33.0448 -32.4235 -32.3686 -32.3629 -30.4385 -29.7549 -29.0784 -12.2753
   -12.0204 -11.7866 -11.3751 -11.3503 -11.2269 -10.9894 -10.8538 -10.5336
    -9.6832  -8.9656  -8.8390  -8.3091  -7.8179  -7.5254  -7.3672  -7.2411
     2.9592   3.1575   3.6848   3.7560   4.0426   4.3155   4.5322   4.5581
     4.7982   4.9169   5.0692   5.1975   5.3933   5.4671   5.7157   5.8655
     6.0676   6.1979   6.3038   6.4528   6.5225   6.7566   6.8515   6.9713

     occupation numbers 
     1.0000   1.0000   1.0000   1.0000   1.0000   1.0000   1.0000   1.0000
     1.0000   1.0000   1.0000   1.0000   1.0000   1.0000   1.0000   1.0000
     1.0000   1.0000   1.0000   1.0000   1.0000   1.0000   1.0000   1.0000
     1.0000   1.0000   1.0000   1.0000   1.0000   1.0000   1.0000   1.0000
     1.0000   1.0000   1.0000   1.0000   1.0000   1.0000   1.0000   1.0000
     1.0000   1.0000   1.0000   1.0000   1.0000   1.0000   1.0000   1.0000
     1.0000   1.0000   1.0000   1.0000   1.0000   1.0000   1.0000   1.0000
     1.0000   1.0000   1.0000   1.0000   1.0000   1.0000   1.0000   1.0000

          k =-0.6962 0.0038 0.0067 (  5500 PWs)   bands (ev):

   -66.6402 -66.4587 -66.1387 -66.1075 -65.4083 -33.6317 -33.6122 -33.5674
   -33.4519 -33.4212 -33.3931 -33.1450 -33.1176 -33.1001 -33.0681 -33.0621
   -33.0439 -32.4235 -32.3686 -32.3630 -30.4389 -29.7541 -29.0784 -12.3434
   -12.0737 -11.7973 -11.4184 -11.2760 -11.1211 -10.9078 -10.8350 -10.5075
    -9.6876  -9.0682  -8.8911  -8.4320  -7.8405  -7.4558  -7.3254  -7.1662
     2.9632   3.3158   3.7399   3.9277   4.1213   4.2828   4.4329   4.4582
     4.7287   4.9356   5.0184   5.2113   5.2310   5.3428   5.6585   5.6786
     5.9716   6.1620   6.2786   6.5154   6.6046   6.8564   6.8807   6.9785

     occupation numbers 
     1.0000   1.0000   1.0000   1.0000   1.0000   1.0000   1.0000   1.0000
     1.0000   1.0000   1.0000   1.0000   1.0000   1.0000   1.0000   1.0000
     1.0000   1.0000   1.0000   1.0000   1.0000   1.0000   1.0000   1.0000
     1.0000   1.0000   1.0000   1.0000   1.0000   1.0000   1.0000   1.0000
     1.0000   1.0000   1.0000   1.0000   1.0000   1.0000   1.0000   1.0000
     1.0000   1.0000   1.0000   1.0000   1.0000   1.0000   1.0000   1.0000
     1.0000   1.0000   1.0000   1.0000   1.0000   1.0000   1.0000   1.0000
     1.0000   1.0000   1.0000   1.0000   1.0000   1.0000   1.0000   1.0000

          k =-0.1767 0.1797 0.1766 (  5512 PWs)   bands (ev):

   -66.6402 -66.4587 -66.1387 -66.1075 -65.4083 -33.6316 -33.6122 -33.5675
   -33.4518 -33.4212 -33.3931 -33.1451 -33.1176 -33.1000 -33.0681 -33.0622
   -33.0439 -32.4235 -32.3685 -32.3629 -30.4389 -29.7542 -29.0792 -12.2967
   -12.0273 -11.7733 -11.3616 -11.2987 -11.1279 -10.9972 -10.9024 -10.6139
    -9.7230  -9.0042  -8.8137  -8.3015  -7.8134  -7.5196  -7.3357  -7.2334
     2.4270   2.7496   3.3848   3.8774   4.0767   4.4413   4.5417   4.9059
     4.9753   5.1073   5.2405   5.3371   5.4823   5.6068   5.6647   5.9500
     6.2463   6.2660   6.3900   6.5185   6.5883   6.7731   6.9770   7.1532

     occupation numbers 
     1.0000   1.0000   1.0000   1.0000   1.0000   1.0000   1.0000   1.0000
     1.0000   1.0000   1.0000   1.0000   1.0000   1.0000   1.0000   1.0000
     1.0000   1.0000   1.0000   1.0000   1.0000   1.0000   1.0000   1.0000
     1.0000   1.0000   1.0000   1.0000   1.0000   1.0000   1.0000   1.0000
     1.0000   1.0000   1.0000   1.0000   1.0000   1.0000   1.0000   1.0000
     1.0000   1.0000   1.0000   1.0000   1.0000   1.0000   1.0000   1.0000
     1.0000   1.0000   1.0000   1.0000   1.0000   1.0000   1.0000   1.0000
     1.0000   1.0000   1.0000   1.0000   1.0000   1.0000   1.0000   1.0000

          k =-0.0019 0.3539 0.0035 (  5532 PWs)   bands (ev):

   -66.6402 -66.4587 -66.1387 -66.1075 -65.4083 -33.6316 -33.6121 -33.5674
   -33.4518 -33.4212 -33.3932 -33.1450 -33.1175 -33.1001 -33.0672 -33.0622
   -33.0449 -32.4234 -32.3685 -32.3629 -30.4383 -29.7550 -29.0792 -12.2154
   -11.9877 -11.7725 -11.4301 -11.4001 -11.2424 -10.9144 -10.8942 -10.5550
    -9.7206  -9.0506  -8.8586  -8.1503  -7.7721  -7.4954  -7.4103  -7.2806
     2.5986   2.8468   3.3796   3.8842   4.1211   4.4180   4.5124   4.6585
     4.7251   5.1205   5.2264   5.3665   5.5252   5.7090   5.8350   5.9745
     6.1055   6.2071   6.2872   6.3929   6.6972   6.8265   6.9780   7.0165

     occupation numbers 
     1.0000   1.0000   1.0000   1.0000   1.0000   1.0000   1.0000   1.0000
     1.0000   1.0000   1.0000   1.0000   1.0000   1.0000   1.0000   1.0000
     1.0000   1.0000   1.0000   1.0000   1.0000   1.0000   1.0000   1.0000
     1.0000   1.0000   1.0000   1.0000   1.0000   1.0000   1.0000   1.0000
     1.0000   1.0000   1.0000   1.0000   1.0000   1.0000   1.0000   1.0000
     1.0000   1.0000   1.0000   1.0000   1.0000   1.0000   1.0000   1.0000
     1.0000   1.0000   1.0000   1.0000   1.0000   1.0000   1.0000   1.0000
     1.0000   1.0000   1.0000   1.0000   1.0000   1.0000   1.0000   1.0000

          k =-0.5262-0.1688 0.5228 (  5493 PWs)   bands (ev):

   -66.6402 -66.4587 -66.1387 -66.1075 -65.4083 -33.6316 -33.6120 -33.5674
   -33.4518 -33.4213 -33.3932 -33.1449 -33.1175 -33.1002 -33.0663 -33.0622
   -33.0459 -32.4235 -32.3685 -32.3629 -30.4376 -29.7556 -29.0790 -12.1508
   -11.9152 -11.7768 -11.4867 -11.4090 -11.3613 -10.9918 -10.8484 -10.5773
    -9.6787  -8.9541  -8.7903  -8.1569  -7.8280  -7.5245  -7.4048  -7.3166
     3.1277   3.2414   3.5369   3.8061   3.9219   4.1879   4.4073   4.5721
     4.7721   5.0463   5.2101   5.3269   5.4666   5.4920   5.5873   5.9286
     6.0310   6.1942   6.2865   6.4048   6.5491   6.6961   6.8142   6.9264

     occupation numbers 
     1.0000   1.0000   1.0000   1.0000   1.0000   1.0000   1.0000   1.0000
     1.0000   1.0000   1.0000   1.0000   1.0000   1.0000   1.0000   1.0000
     1.0000   1.0000   1.0000   1.0000   1.0000   1.0000   1.0000   1.0000
     1.0000   1.0000   1.0000   1.0000   1.0000   1.0000   1.0000   1.0000
     1.0000   1.0000   1.0000   1.0000   1.0000   1.0000   1.0000   1.0000
     1.0000   1.0000   1.0000   1.0000   1.0000   1.0000   1.0000   1.0000
     1.0000   1.0000   1.0000   1.0000   1.0000   1.0000   1.0000   1.0000
     1.0000   1.0000   1.0000   1.0000   1.0000   1.0000   1.0000   1.0000

          k =-0.3515 0.0054 0.3497 (  5512 PWs)   bands (ev):

   -66.6402 -66.4587 -66.1387 -66.1075 -65.4083 -33.6316 -33.6121 -33.5674
   -33.4518 -33.4213 -33.3932 -33.1449 -33.1176 -33.1001 -33.0672 -33.0622
   -33.0449 -32.4235 -32.3685 -32.3629 -30.4382 -29.7549 -29.0791 -12.2449
   -11.9737 -11.7773 -11.3863 -11.2802 -11.2479 -11.1125 -10.8530 -10.6265
    -9.6833  -8.8978  -8.7434  -8.3141  -7.8663  -7.5560  -7.3666  -7.2346
     2.7896   3.0146   3.6496   3.8630   4.0769   4.4172   4.5422   4.6163
     4.8100   4.9995   5.1309   5.2753   5.3845   5.5191   5.6114   5.9386
     6.0873   6.2246   6.3141   6.4465   6.5570   6.6745   6.8484   6.9829

     occupation numbers 
     1.0000   1.0000   1.0000   1.0000   1.0000   1.0000   1.0000   1.0000
     1.0000   1.0000   1.0000   1.0000   1.0000   1.0000   1.0000   1.0000
     1.0000   1.0000   1.0000   1.0000   1.0000   1.0000   1.0000   1.0000
     1.0000   1.0000   1.0000   1.0000   1.0000   1.0000   1.0000   1.0000
     1.0000   1.0000   1.0000   1.0000   1.0000   1.0000   1.0000   1.0000
     1.0000   1.0000   1.0000   1.0000   1.0000   1.0000   1.0000   1.0000
     1.0000   1.0000   1.0000   1.0000   1.0000   1.0000   1.0000   1.0000
     1.0000   1.0000   1.0000   1.0000   1.0000   1.0000   1.0000   1.0000

          k =-0.0033 0.0035 0.3464 (  5504 PWs)   bands (ev):

   -66.6402 -66.4587 -66.1387 -66.1075 -65.4083 -33.6316 -33.6121 -33.5674
   -33.4518 -33.4213 -33.3931 -33.1450 -33.1176 -33.1001 -33.0672 -33.0623
   -33.0449 -32.4235 -32.3684 -32.3629 -30.4383 -29.7550 -29.0792 -12.2413
   -11.9686 -11.7721 -11.4192 -11.3816 -11.2517 -10.9089 -10.8550 -10.6300
    -9.7152  -8.9752  -8.8349  -8.3149  -7.8013  -7.4822  -7.3653  -7.2259
     2.5524   2.8441   3.3661   3.8440   4.0548   4.4726   4.5606   4.6355
     4.8934   5.0020   5.2040   5.3819   5.4821   5.5253   5.7794   6.0072
     6.1943   6.4144   6.4588   6.5424   6.6405   6.6916   6.8301   7.1375

     occupation numbers 
     1.0000   1.0000   1.0000   1.0000   1.0000   1.0000   1.0000   1.0000
     1.0000   1.0000   1.0000   1.0000   1.0000   1.0000   1.0000   1.0000
     1.0000   1.0000   1.0000   1.0000   1.0000   1.0000   1.0000   1.0000
     1.0000   1.0000   1.0000   1.0000   1.0000   1.0000   1.0000   1.0000
     1.0000   1.0000   1.0000   1.0000   1.0000   1.0000   1.0000   1.0000
     1.0000   1.0000   1.0000   1.0000   1.0000   1.0000   1.0000   1.0000
     1.0000   1.0000   1.0000   1.0000   1.0000   1.0000   1.0000   1.0000
     1.0000   1.0000   1.0000   1.0000   1.0000   1.0000   1.0000   1.0000

          k = 0.1714 0.1778 0.1733 (  5494 PWs)   bands (ev):

   -66.6402 -66.4587 -66.1387 -66.1075 -65.4083 -33.6316 -33.6122 -33.5674
   -33.4518 -33.4212 -33.3931 -33.1451 -33.1176 -33.1001 -33.0681 -33.0622
   -33.0439 -32.4234 -32.3684 -32.3629 -30.4389 -29.7542 -29.0792 -12.2955
   -12.0243 -11.7752 -11.3583 -11.3003 -11.1291 -10.9929 -10.9032 -10.6157
    -9.7283  -9.0071  -8.8232  -8.3094  -7.7772  -7.5107  -7.3590  -7.2325
     2.4542   2.8543   3.3160   3.8972   3.9621   4.3986   4.4509   4.6453
     4.9822   5.0349   5.2242   5.4835   5.5525   5.6593   5.9174   6.0227
     6.1270   6.3747   6.4179   6.5241   6.6955   6.7818   6.8694   7.0769

     occupation numbers 
     1.0000   1.0000   1.0000   1.0000   1.0000   1.0000   1.0000   1.0000
     1.0000   1.0000   1.0000   1.0000   1.0000   1.0000   1.0000   1.0000
     1.0000   1.0000   1.0000   1.0000   1.0000   1.0000   1.0000   1.0000
     1.0000   1.0000   1.0000   1.0000   1.0000   1.0000   1.0000   1.0000
     1.0000   1.0000   1.0000   1.0000   1.0000   1.0000   1.0000   1.0000
     1.0000   1.0000   1.0000   1.0000   1.0000   1.0000   1.0000   1.0000
     1.0000   1.0000   1.0000   1.0000   1.0000   1.0000   1.0000   1.0000
     1.0000   1.0000   1.0000   1.0000   1.0000   1.0000   1.0000   1.0000

          k =-0.3529-0.3449 0.6926 (  5509 PWs)   bands (ev):

   -66.6402 -66.4587 -66.1387 -66.1075 -65.4083 -33.6316 -33.6121 -33.5674
   -33.4518 -33.4213 -33.3931 -33.1450 -33.1176 -33.1001 -33.0672 -33.0623
   -33.0449 -32.4235 -32.3684 -32.3629 -30.4382 -29.7549 -29.0791 -12.2189
   -11.9888 -11.7792 -11.4133 -11.2763 -11.2444 -11.1082 -10.8977 -10.5555
    -9.6899  -9.0073  -8.7596  -8.1466  -7.7983  -7.5619  -7.4449  -7.2766
     2.8771   3.1990   3.5126   3.7538   4.0511   4.1599   4.3639   4.5200
     4.8153   5.0494   5.2496   5.4222   5.5544   5.6776   5.8236   5.8613
     6.0018   6.1611   6.2996   6.3689   6.6551   6.7072   6.8219   6.9000

     occupation numbers 
     1.0000   1.0000   1.0000   1.0000   1.0000   1.0000   1.0000   1.0000
     1.0000   1.0000   1.0000   1.0000   1.0000   1.0000   1.0000   1.0000
     1.0000   1.0000   1.0000   1.0000   1.0000   1.0000   1.0000   1.0000
     1.0000   1.0000   1.0000   1.0000   1.0000   1.0000   1.0000   1.0000
     1.0000   1.0000   1.0000   1.0000   1.0000   1.0000   1.0000   1.0000
     1.0000   1.0000   1.0000   1.0000   1.0000   1.0000   1.0000   1.0000
     1.0000   1.0000   1.0000   1.0000   1.0000   1.0000   1.0000   1.0000
     1.0000   1.0000   1.0000   1.0000   1.0000   1.0000   1.0000   1.0000

          k =-0.1781-0.1707 0.5195 (  5505 PWs)   bands (ev):

   -66.6402 -66.4587 -66.1387 -66.1075 -65.4083 -33.6316 -33.6120 -33.5674
   -33.4518 -33.4214 -33.3932 -33.1449 -33.1175 -33.1001 -33.0663 -33.0623
   -33.0459 -32.4235 -32.3685 -32.3629 -30.4376 -29.7556 -29.0790 -12.1527
   -11.9138 -11.7765 -11.4828 -11.4138 -11.3579 -10.9914 -10.8502 -10.5788
    -9.6781  -8.9192  -8.8309  -8.1507  -7.8335  -7.5309  -7.3991  -7.3085
     3.0352   3.2579   3.5809   3.7020   3.8205   4.2939   4.5433   4.6182
     4.8199   4.9191   5.1858   5.3175   5.3960   5.5381   5.6307   5.8649
     6.0202   6.2461   6.4399   6.4925   6.5800   6.6529   6.7041   6.9622

     occupation numbers 
     1.0000   1.0000   1.0000   1.0000   1.0000   1.0000   1.0000   1.0000
     1.0000   1.0000   1.0000   1.0000   1.0000   1.0000   1.0000   1.0000
     1.0000   1.0000   1.0000   1.0000   1.0000   1.0000   1.0000   1.0000
     1.0000   1.0000   1.0000   1.0000   1.0000   1.0000   1.0000   1.0000
     1.0000   1.0000   1.0000   1.0000   1.0000   1.0000   1.0000   1.0000
     1.0000   1.0000   1.0000   1.0000   1.0000   1.0000   1.0000   1.0000
     1.0000   1.0000   1.0000   1.0000   1.0000   1.0000   1.0000   1.0000
     1.0000   1.0000   1.0000   1.0000   1.0000   1.0000   1.0000   1.0000

          k =-0.5233 0.5320-0.1629 (  5489 PWs)   bands (ev):

   -66.6402 -66.4587 -66.1387 -66.1075 -65.4083 -33.6316 -33.6120 -33.5674
   -33.4518 -33.4213 -33.3931 -33.1449 -33.1175 -33.1001 -33.0663 -33.0622
   -33.0459 -32.4235 -32.3685 -32.3629 -30.4376 -29.7556 -29.0790 -12.1518
   -11.9149 -11.7752 -11.4852 -11.4115 -11.3579 -10.9920 -10.8499 -10.5793
    -9.6794  -8.8952  -8.8520  -8.1614  -7.8228  -7.5507  -7.3847  -7.3040
     2.9116   3.2760   3.5661   3.6996   4.0407   4.2230   4.6259   4.6778
     4.7837   4.9668   5.0280   5.2092   5.4375   5.5413   5.7076   5.9030
     6.0430   6.2436   6.3247   6.4196   6.6069   6.6452   6.6664   7.1060

     occupation numbers 
     1.0000   1.0000   1.0000   1.0000   1.0000   1.0000   1.0000   1.0000
     1.0000   1.0000   1.0000   1.0000   1.0000   1.0000   1.0000   1.0000
     1.0000   1.0000   1.0000   1.0000   1.0000   1.0000   1.0000   1.0000
     1.0000   1.0000   1.0000   1.0000   1.0000   1.0000   1.0000   1.0000
     1.0000   1.0000   1.0000   1.0000   1.0000   1.0000   1.0000   1.0000
     1.0000   1.0000   1.0000   1.0000   1.0000   1.0000   1.0000   1.0000
     1.0000   1.0000   1.0000   1.0000   1.0000   1.0000   1.0000   1.0000
     1.0000   1.0000   1.0000   1.0000   1.0000   1.0000   1.0000   1.0000

          k =-0.3486 0.7062-0.3360 (  5490 PWs)   bands (ev):

   -66.6402 -66.4587 -66.1387 -66.1075 -65.4083 -33.6316 -33.6121 -33.5674
   -33.4518 -33.4212 -33.3931 -33.1450 -33.1176 -33.1001 -33.0672 -33.0622
   -33.0449 -32.4235 -32.3685 -32.3629 -30.4382 -29.7549 -29.0791 -12.2428
   -11.9707 -11.7787 -11.3898 -11.2826 -11.2405 -11.1106 -10.8544 -10.6281
    -9.6873  -8.8823  -8.7787  -8.3299  -7.7964  -7.5790  -7.3886  -7.2220
     2.8126   3.1097   3.5684   3.8246   3.9777   4.3187   4.5058   4.5622
     4.7541   4.9532   5.1628   5.3790   5.5311   5.6147   5.7840   5.8333
     6.0350   6.2168   6.3463   6.4869   6.5808   6.6783   6.7805   7.0277

     occupation numbers 
     1.0000   1.0000   1.0000   1.0000   1.0000   1.0000   1.0000   1.0000
     1.0000   1.0000   1.0000   1.0000   1.0000   1.0000   1.0000   1.0000
     1.0000   1.0000   1.0000   1.0000   1.0000   1.0000   1.0000   1.0000
     1.0000   1.0000   1.0000   1.0000   1.0000   1.0000   1.0000   1.0000
     1.0000   1.0000   1.0000   1.0000   1.0000   1.0000   1.0000   1.0000
     1.0000   1.0000   1.0000   1.0000   1.0000   1.0000   1.0000   1.0000
     1.0000   1.0000   1.0000   1.0000   1.0000   1.0000   1.0000   1.0000
     1.0000   1.0000   1.0000   1.0000   1.0000   1.0000   1.0000   1.0000

          k =-0.8729 0.1835 0.1833 (  5501 PWs)   bands (ev):

   -66.6402 -66.4587 -66.1387 -66.1075 -65.4083 -33.6316 -33.6122 -33.5674
   -33.4518 -33.4212 -33.3931 -33.1451 -33.1177 -33.1001 -33.0681 -33.0622
   -33.0439 -32.4235 -32.3685 -32.3630 -30.4387 -29.7541 -29.0791 -12.3006
   -12.0297 -11.7874 -11.3679 -11.2985 -11.1352 -10.9862 -10.8994 -10.6123
    -9.6862  -8.9754  -8.8317  -8.3033  -7.8269  -7.5096  -7.3699  -7.2415
     2.8301   3.3797   3.7001   3.8219   4.0641   4.1769   4.3292   4.5048
     4.8839   4.9714   5.0431   5.3677   5.4315   5.5145   5.6342   5.7916
     6.0775   6.2075   6.3101   6.4615   6.5262   6.7157   6.7914   6.9821

     occupation numbers 
     1.0000   1.0000   1.0000   1.0000   1.0000   1.0000   1.0000   1.0000
     1.0000   1.0000   1.0000   1.0000   1.0000   1.0000   1.0000   1.0000
     1.0000   1.0000   1.0000   1.0000   1.0000   1.0000   1.0000   1.0000
     1.0000   1.0000   1.0000   1.0000   1.0000   1.0000   1.0000   1.0000
     1.0000   1.0000   1.0000   1.0000   1.0000   1.0000   1.0000   1.0000
     1.0000   1.0000   1.0000   1.0000   1.0000   1.0000   1.0000   1.0000
     1.0000   1.0000   1.0000   1.0000   1.0000   1.0000   1.0000   1.0000
     1.0000   1.0000   1.0000   1.0000   1.0000   1.0000   1.0000   1.0000

          k =-0.6981 0.3577 0.0102 (  5499 PWs)   bands (ev):

   -66.6402 -66.4587 -66.1387 -66.1075 -65.4083 -33.6316 -33.6121 -33.5674
   -33.4518 -33.4213 -33.3931 -33.1449 -33.1176 -33.1001 -33.0672 -33.0622
   -33.0449 -32.4235 -32.3685 -32.3629 -30.4381 -29.7548 -29.0790 -12.2231
   -11.9931 -11.7844 -11.4225 -11.4086 -11.2439 -10.9186 -10.8862 -10.5556
    -9.6779  -8.9809  -8.9116  -8.1184  -7.8476  -7.4995  -7.4214  -7.2743
     3.0322   3.3278   3.7227   3.8726   3.9652   4.2470   4.5286   4.6047
     4.7392   4.8512   5.0088   5.1796   5.2670   5.5948   5.6629   5.8523
     5.9983   6.1399   6.2932   6.4057   6.5724   6.7074   6.7890   6.9572

     occupation numbers 
     1.0000   1.0000   1.0000   1.0000   1.0000   1.0000   1.0000   1.0000
     1.0000   1.0000   1.0000   1.0000   1.0000   1.0000   1.0000   1.0000
     1.0000   1.0000   1.0000   1.0000   1.0000   1.0000   1.0000   1.0000
     1.0000   1.0000   1.0000   1.0000   1.0000   1.0000   1.0000   1.0000
     1.0000   1.0000   1.0000   1.0000   1.0000   1.0000   1.0000   1.0000
     1.0000   1.0000   1.0000   1.0000   1.0000   1.0000   1.0000   1.0000
     1.0000   1.0000   1.0000   1.0000   1.0000   1.0000   1.0000   1.0000
     1.0000   1.0000   1.0000   1.0000   1.0000   1.0000   1.0000   1.0000

          k =-0.3500 0.3558 0.0069 (  5511 PWs)   bands (ev):

   -66.6402 -66.4587 -66.1387 -66.1075 -65.4083 -33.6316 -33.6121 -33.5675
   -33.4518 -33.4213 -33.3931 -33.1450 -33.1176 -33.1001 -33.0672 -33.0622
   -33.0448 -32.4235 -32.3686 -32.3629 -30.4382 -29.7549 -29.0791 -12.2198
   -11.9925 -11.7763 -11.4166 -11.2808 -11.2321 -11.1158 -10.8977 -10.5551
    -9.6870  -8.9907  -8.7586  -8.1410  -7.8382  -7.5933  -7.3990  -7.2736
     2.7309   3.0166   3.6571   3.7941   4.2826   4.4033   4.5406   4.7149
     4.8110   4.9758   5.0256   5.2607   5.3242   5.6888   5.8067   5.9012
     5.9731   6.1137   6.2600   6.3115   6.4861   6.7467   6.8496   7.1285

     occupation numbers 
     1.0000   1.0000   1.0000   1.0000   1.0000   1.0000   1.0000   1.0000
     1.0000   1.0000   1.0000   1.0000   1.0000   1.0000   1.0000   1.0000
     1.0000   1.0000   1.0000   1.0000   1.0000   1.0000   1.0000   1.0000
     1.0000   1.0000   1.0000   1.0000   1.0000   1.0000   1.0000   1.0000
     1.0000   1.0000   1.0000   1.0000   1.0000   1.0000   1.0000   1.0000
     1.0000   1.0000   1.0000   1.0000   1.0000   1.0000   1.0000   1.0000
     1.0000   1.0000   1.0000   1.0000   1.0000   1.0000   1.0000   1.0000
     1.0000   1.0000   1.0000   1.0000   1.0000   1.0000   1.0000   1.0000

          k =-0.1752 0.5301-0.1662 (  5509 PWs)   bands (ev):

   -66.6402 -66.4587 -66.1387 -66.1075 -65.4083 -33.6316 -33.6120 -33.5674
   -33.4518 -33.4213 -33.3932 -33.1450 -33.1175 -33.1001 -33.0663 -33.0622
   -33.0459 -32.4235 -32.3686 -32.3629 -30.4376 -29.7556 -29.0790 -12.1499
   -11.9160 -11.7761 -11.4906 -11.4055 -11.3596 -10.9931 -10.8491 -10.5777
    -9.6786  -8.9391  -8.8050  -8.1728  -7.7992  -7.5540  -7.4010  -7.3030
     2.9997   3.2233   3.5954   3.7764   3.9592   4.3319   4.5341   4.6283
     4.7802   4.9909   5.1205   5.1863   5.4351   5.5483   5.6499   5.8258
     5.9722   6.1906   6.2848   6.3989   6.5946   6.7428   6.8232   6.9748

     occupation numbers 
     1.0000   1.0000   1.0000   1.0000   1.0000   1.0000   1.0000   1.0000
     1.0000   1.0000   1.0000   1.0000   1.0000   1.0000   1.0000   1.0000
     1.0000   1.0000   1.0000   1.0000   1.0000   1.0000   1.0000   1.0000
     1.0000   1.0000   1.0000   1.0000   1.0000   1.0000   1.0000   1.0000
     1.0000   1.0000   1.0000   1.0000   1.0000   1.0000   1.0000   1.0000
     1.0000   1.0000   1.0000   1.0000   1.0000   1.0000   1.0000   1.0000
     1.0000   1.0000   1.0000   1.0000   1.0000   1.0000   1.0000   1.0000
     1.0000   1.0000   1.0000   1.0000   1.0000   1.0000   1.0000   1.0000

          k =-0.6996 0.0074 0.3531 (  5511 PWs)   bands (ev):

   -66.6402 -66.4587 -66.1387 -66.1075 -65.4083 -33.6316 -33.6121 -33.5674
   -33.4518 -33.4213 -33.3931 -33.1450 -33.1176 -33.1001 -33.0673 -33.0622
   -33.0448 -32.4235 -32.3686 -32.3630 -30.4381 -29.7548 -29.0790 -12.2461
   -11.9757 -11.7849 -11.4204 -11.3866 -11.2517 -10.9109 -10.8493 -10.6256
    -9.6753  -8.9399  -8.8401  -8.3141  -7.8393  -7.4802  -7.3921  -7.2333
     3.0658   3.3904   3.6757   3.9082   4.0547   4.2289   4.4615   4.5933
     4.6996   4.8714   5.0315   5.1968   5.2685   5.4351   5.5413   5.8265
     6.0349   6.1919   6.3029   6.4917   6.5896   6.6784   6.7599   6.9455

     occupation numbers 
     1.0000   1.0000   1.0000   1.0000   1.0000   1.0000   1.0000   1.0000
     1.0000   1.0000   1.0000   1.0000   1.0000   1.0000   1.0000   1.0000
     1.0000   1.0000   1.0000   1.0000   1.0000   1.0000   1.0000   1.0000
     1.0000   1.0000   1.0000   1.0000   1.0000   1.0000   1.0000   1.0000
     1.0000   1.0000   1.0000   1.0000   1.0000   1.0000   1.0000   1.0000
     1.0000   1.0000   1.0000   1.0000   1.0000   1.0000   1.0000   1.0000
     1.0000   1.0000   1.0000   1.0000   1.0000   1.0000   1.0000   1.0000
     1.0000   1.0000   1.0000   1.0000   1.0000   1.0000   1.0000   1.0000

          k =-0.5248 0.1816 0.1800 (  5512 PWs)   bands (ev):

   -66.6402 -66.4587 -66.1387 -66.1075 -65.4083 -33.6317 -33.6122 -33.5674
   -33.4518 -33.4212 -33.3931 -33.1450 -33.1176 -33.1001 -33.0681 -33.0622
   -33.0439 -32.4235 -32.3686 -32.3629 -30.4387 -29.7540 -29.0790 -12.3018
   -12.0329 -11.7851 -11.3695 -11.2986 -11.1350 -10.9916 -10.8958 -10.6112
    -9.6830  -8.9708  -8.8180  -8.2930  -7.8777  -7.5039  -7.3528  -7.2424
     2.7736   3.1188   3.8022   3.9866   4.2503   4.3885   4.4937   4.6453
     4.7785   4.9484   4.9998   5.1805   5.2271   5.3840   5.5852   5.8629
     6.0957   6.1593   6.2212   6.4129   6.5360   6.7411   6.8901   6.9994

     occupation numbers 
     1.0000   1.0000   1.0000   1.0000   1.0000   1.0000   1.0000   1.0000
     1.0000   1.0000   1.0000   1.0000   1.0000   1.0000   1.0000   1.0000
     1.0000   1.0000   1.0000   1.0000   1.0000   1.0000   1.0000   1.0000
     1.0000   1.0000   1.0000   1.0000   1.0000   1.0000   1.0000   1.0000
     1.0000   1.0000   1.0000   1.0000   1.0000   1.0000   1.0000   1.0000
     1.0000   1.0000   1.0000   1.0000   1.0000   1.0000   1.0000   1.0000
     1.0000   1.0000   1.0000   1.0000   1.0000   1.0000   1.0000   1.0000
     1.0000   1.0000   1.0000   1.0000   1.0000   1.0000   1.0000   1.0000

          k = 0.3534-0.3594-0.3533 (  5514 PWs)   bands (ev):

   -66.6402 -66.4587 -66.1387 -66.1075 -65.4083 -33.6316 -33.6122 -33.5674
   -33.4517 -33.4212 -33.3931 -33.1450 -33.1176 -33.1001 -33.0681 -33.0622
   -33.0439 -32.4235 -32.3686 -32.3629 -30.4384 -29.7540 -29.0796 -12.2583
   -11.9824 -11.7735 -11.3332 -11.2726 -11.1673 -11.1081 -10.9508 -10.7036
    -9.6802  -8.8786  -8.7383  -8.1093  -7.9453  -7.5614  -7.4036  -7.3133
     2.6260   2.9936   3.7751   4.0963   4.2637   4.4464   4.6033   4.8392
     4.8822   4.9544   4.9894   5.1709   5.2364   5.5672   5.6654   5.8024
     5.9860   6.0743   6.1726   6.4099   6.4495   6.6399   6.9277   7.1295

     occupation numbers 
     1.0000   1.0000   1.0000   1.0000   1.0000   1.0000   1.0000   1.0000
     1.0000   1.0000   1.0000   1.0000   1.0000   1.0000   1.0000   1.0000
     1.0000   1.0000   1.0000   1.0000   1.0000   1.0000   1.0000   1.0000
     1.0000   1.0000   1.0000   1.0000   1.0000   1.0000   1.0000   1.0000
     1.0000   1.0000   1.0000   1.0000   1.0000   1.0000   1.0000   1.0000
     1.0000   1.0000   1.0000   1.0000   1.0000   1.0000   1.0000   1.0000
     1.0000   1.0000   1.0000   1.0000   1.0000   1.0000   1.0000   1.0000
     1.0000   1.0000   1.0000   1.0000   1.0000   1.0000   1.0000   1.0000

          k = 0.5281-0.1851-0.5263 (  5513 PWs)   bands (ev):

   -66.6402 -66.4587 -66.1387 -66.1075 -65.4083 -33.6316 -33.6121 -33.5674
   -33.4517 -33.4213 -33.3931 -33.1450 -33.1176 -33.1001 -33.0673 -33.0623
   -33.0448 -32.4235 -32.3686 -32.3629 -30.4378 -29.7548 -29.0796 -12.1890
   -11.9380 -11.7738 -11.4509 -11.3660 -11.2758 -10.9981 -10.8960 -10.6390
    -9.6783  -8.9386  -8.7907  -8.1474  -7.8764  -7.5266  -7.3832  -7.3055
     2.8200   3.1196   3.7522   4.0140   4.2551   4.3665   4.5352   4.6656
     4.7605   4.9404   5.0474   5.1769   5.3089   5.4026   5.5656   5.7883
     6.0583   6.1952   6.2132   6.3448   6.5800   6.7060   6.8878   6.9917

     occupation numbers 
     1.0000   1.0000   1.0000   1.0000   1.0000   1.0000   1.0000   1.0000
     1.0000   1.0000   1.0000   1.0000   1.0000   1.0000   1.0000   1.0000
     1.0000   1.0000   1.0000   1.0000   1.0000   1.0000   1.0000   1.0000
     1.0000   1.0000   1.0000   1.0000   1.0000   1.0000   1.0000   1.0000
     1.0000   1.0000   1.0000   1.0000   1.0000   1.0000   1.0000   1.0000
     1.0000   1.0000   1.0000   1.0000   1.0000   1.0000   1.0000   1.0000
     1.0000   1.0000   1.0000   1.0000   1.0000   1.0000   1.0000   1.0000
     1.0000   1.0000   1.0000   1.0000   1.0000   1.0000   1.0000   1.0000

          k = 0.0038-0.7078-0.0071 (  5514 PWs)   bands (ev):

   -66.6402 -66.4587 -66.1387 -66.1075 -65.4083 -33.6316 -33.6120 -33.5673
   -33.4517 -33.4213 -33.3932 -33.1450 -33.1175 -33.1002 -33.0663 -33.0623
   -33.0459 -32.4235 -32.3686 -32.3629 -30.4372 -29.7555 -29.0796 -12.1020
   -11.8752 -11.7737 -11.5453 -11.4377 -11.4152 -10.9100 -10.8530 -10.5895
    -9.6721  -9.0113  -8.8283  -8.1851  -7.8103  -7.4952  -7.3672  -7.2964
     3.1895   3.2608   3.5361   4.0405   4.1133   4.2533   4.2892   4.5448
     4.8838   5.0372   5.1122   5.1701   5.2910   5.3677   5.4699   5.7647
     5.9423   6.0521   6.2638   6.4477   6.6996   6.7608   6.9132   6.9175

     occupation numbers 
     1.0000   1.0000   1.0000   1.0000   1.0000   1.0000   1.0000   1.0000
     1.0000   1.0000   1.0000   1.0000   1.0000   1.0000   1.0000   1.0000
     1.0000   1.0000   1.0000   1.0000   1.0000   1.0000   1.0000   1.0000
     1.0000   1.0000   1.0000   1.0000   1.0000   1.0000   1.0000   1.0000
     1.0000   1.0000   1.0000   1.0000   1.0000   1.0000   1.0000   1.0000
     1.0000   1.0000   1.0000   1.0000   1.0000   1.0000   1.0000   1.0000
     1.0000   1.0000   1.0000   1.0000   1.0000   1.0000   1.0000   1.0000
     1.0000   1.0000   1.0000   1.0000   1.0000   1.0000   1.0000   1.0000

          k = 0.5267-0.5355-0.1835 (  5510 PWs)   bands (ev):

   -66.6402 -66.4587 -66.1387 -66.1075 -65.4083 -33.6316 -33.6121 -33.5674
   -33.4517 -33.4213 -33.3931 -33.1449 -33.1176 -33.1001 -33.0673 -33.0623
   -33.0449 -32.4236 -32.3685 -32.3629 -30.4378 -29.7548 -29.0796 -12.1906
   -11.9374 -11.7727 -11.4471 -11.3658 -11.2792 -10.9949 -10.8996 -10.6397
    -9.6785  -8.8997  -8.8333  -8.1432  -7.8813  -7.5335  -7.3780  -7.2966
     2.7743   3.1072   3.7299   3.9584   4.1960   4.4328   4.5737   4.7602
     4.8621   4.9174   4.9866   5.0615   5.1740   5.4682   5.6486   5.8334
     6.1329   6.2065   6.3335   6.4017   6.5579   6.6287   6.7202   7.1184

     occupation numbers 
     1.0000   1.0000   1.0000   1.0000   1.0000   1.0000   1.0000   1.0000
     1.0000   1.0000   1.0000   1.0000   1.0000   1.0000   1.0000   1.0000
     1.0000   1.0000   1.0000   1.0000   1.0000   1.0000   1.0000   1.0000
     1.0000   1.0000   1.0000   1.0000   1.0000   1.0000   1.0000   1.0000
     1.0000   1.0000   1.0000   1.0000   1.0000   1.0000   1.0000   1.0000
     1.0000   1.0000   1.0000   1.0000   1.0000   1.0000   1.0000   1.0000
     1.0000   1.0000   1.0000   1.0000   1.0000   1.0000   1.0000   1.0000
     1.0000   1.0000   1.0000   1.0000   1.0000   1.0000   1.0000   1.0000

          k = 0.7015-0.3613-0.3566 (  5512 PWs)   bands (ev):

   -66.6402 -66.4587 -66.1387 -66.1075 -65.4083 -33.6316 -33.6122 -33.5674
   -33.4517 -33.4212 -33.3931 -33.1451 -33.1177 -33.1001 -33.0681 -33.0623
   -33.0439 -32.4235 -32.3685 -32.3629 -30.4384 -29.7541 -29.0797 -12.2571
   -11.9773 -11.7780 -11.4160 -11.3309 -11.1605 -10.9549 -10.9055 -10.7049
    -9.6931  -8.9460  -8.8388  -8.1299  -7.8480  -7.4945  -7.4213  -7.3125
     2.6314   3.1452   3.6544   3.9835   4.0621   4.4603   4.5349   4.6709
     4.9025   4.9609   5.0385   5.1765   5.3965   5.4981   5.6952   5.8590
     6.0782   6.1687   6.2756   6.4027   6.5920   6.7120   6.8514   7.0228

     occupation numbers 
     1.0000   1.0000   1.0000   1.0000   1.0000   1.0000   1.0000   1.0000
     1.0000   1.0000   1.0000   1.0000   1.0000   1.0000   1.0000   1.0000
     1.0000   1.0000   1.0000   1.0000   1.0000   1.0000   1.0000   1.0000
     1.0000   1.0000   1.0000   1.0000   1.0000   1.0000   1.0000   1.0000
     1.0000   1.0000   1.0000   1.0000   1.0000   1.0000   1.0000   1.0000
     1.0000   1.0000   1.0000   1.0000   1.0000   1.0000   1.0000   1.0000
     1.0000   1.0000   1.0000   1.0000   1.0000   1.0000   1.0000   1.0000
     1.0000   1.0000   1.0000   1.0000   1.0000   1.0000   1.0000   1.0000

          k = 0.1772-0.8840 0.1627 (  5514 PWs)   bands (ev):

   -66.6402 -66.4587 -66.1387 -66.1075 -65.4083 -33.6316 -33.6121 -33.5674
   -33.4517 -33.4212 -33.3931 -33.1450 -33.1176 -33.1002 -33.0672 -33.0623
   -33.0449 -32.4235 -32.3685 -32.3630 -30.4378 -29.7548 -29.0797 -12.1876
   -11.9326 -11.7774 -11.4505 -11.3666 -11.2773 -10.9910 -10.8992 -10.6401
    -9.6815  -8.9441  -8.8023  -8.1725  -7.8049  -7.5272  -7.4201  -7.2971
     2.8950   3.3751   3.5714   3.8481   4.1112   4.2158   4.3362   4.5999
     4.7528   5.0817   5.2008   5.2734   5.3750   5.4926   5.6364   5.8200
     5.9279   6.2221   6.3154   6.4066   6.6601   6.6913   6.7640   6.9607

     occupation numbers 
     1.0000   1.0000   1.0000   1.0000   1.0000   1.0000   1.0000   1.0000
     1.0000   1.0000   1.0000   1.0000   1.0000   1.0000   1.0000   1.0000
     1.0000   1.0000   1.0000   1.0000   1.0000   1.0000   1.0000   1.0000
     1.0000   1.0000   1.0000   1.0000   1.0000   1.0000   1.0000   1.0000
     1.0000   1.0000   1.0000   1.0000   1.0000   1.0000   1.0000   1.0000
     1.0000   1.0000   1.0000   1.0000   1.0000   1.0000   1.0000   1.0000
     1.0000   1.0000   1.0000   1.0000   1.0000   1.0000   1.0000   1.0000
     1.0000   1.0000   1.0000   1.0000   1.0000   1.0000   1.0000   1.0000

          k = 0.3519-0.7097-0.0104 (  5499 PWs)   bands (ev):

   -66.6402 -66.4587 -66.1387 -66.1075 -65.4083 -33.6316 -33.6120 -33.5674
   -33.4517 -33.4213 -33.3931 -33.1449 -33.1175 -33.1002 -33.0663 -33.0623
   -33.0459 -32.4235 -32.3685 -32.3629 -30.4372 -29.7555 -29.0796 -12.1048
   -11.8742 -11.7745 -11.5379 -11.4400 -11.2699 -11.1147 -10.8549 -10.5903
    -9.6702  -8.9280  -8.7619  -8.1828  -7.8412  -7.5821  -7.3640  -7.2827
     3.1305   3.3802   3.5667   3.8367   3.9045   4.3542   4.4375   4.6102
     4.8745   4.9370   5.0625   5.2241   5.2670   5.5212   5.6027   5.8002
     5.9188   6.1239   6.3065   6.4929   6.6259   6.6564   6.7313   6.9734

     occupation numbers 
     1.0000   1.0000   1.0000   1.0000   1.0000   1.0000   1.0000   1.0000
     1.0000   1.0000   1.0000   1.0000   1.0000   1.0000   1.0000   1.0000
     1.0000   1.0000   1.0000   1.0000   1.0000   1.0000   1.0000   1.0000
     1.0000   1.0000   1.0000   1.0000   1.0000   1.0000   1.0000   1.0000
     1.0000   1.0000   1.0000   1.0000   1.0000   1.0000   1.0000   1.0000
     1.0000   1.0000   1.0000   1.0000   1.0000   1.0000   1.0000   1.0000
     1.0000   1.0000   1.0000   1.0000   1.0000   1.0000   1.0000   1.0000
     1.0000   1.0000   1.0000   1.0000   1.0000   1.0000   1.0000   1.0000

          k = 0.0067-0.0071-0.6927 (  5494 PWs)   bands (ev):

   -66.6402 -66.4587 -66.1387 -66.1075 -65.4083 -33.6316 -33.6120 -33.5674
   -33.4517 -33.4213 -33.3931 -33.1449 -33.1175 -33.1002 -33.0663 -33.0624
   -33.0459 -32.4236 -32.3685 -32.3629 -30.4373 -29.7555 -29.0796 -12.1071
   -11.8724 -11.7713 -11.5353 -11.4476 -11.4120 -10.9105 -10.8542 -10.5913
    -9.6741  -8.9410  -8.9036  -8.1703  -7.8368  -7.4992  -7.3497  -7.2862
     2.9760   3.3590   3.5177   3.7871   4.1454   4.2516   4.5703   4.6792
     4.7646   4.9967   5.0462   5.1544   5.2117   5.4764   5.5359   5.7039
     6.0928   6.1761   6.4258   6.4807   6.6160   6.7043   6.7230   7.0997

     occupation numbers 
     1.0000   1.0000   1.0000   1.0000   1.0000   1.0000   1.0000   1.0000
     1.0000   1.0000   1.0000   1.0000   1.0000   1.0000   1.0000   1.0000
     1.0000   1.0000   1.0000   1.0000   1.0000   1.0000   1.0000   1.0000
     1.0000   1.0000   1.0000   1.0000   1.0000   1.0000   1.0000   1.0000
     1.0000   1.0000   1.0000   1.0000   1.0000   1.0000   1.0000   1.0000
     1.0000   1.0000   1.0000   1.0000   1.0000   1.0000   1.0000   1.0000
     1.0000   1.0000   1.0000   1.0000   1.0000   1.0000   1.0000   1.0000
     1.0000   1.0000   1.0000   1.0000   1.0000   1.0000   1.0000   1.0000

          k = 0.1815 0.1672-0.8658 (  5497 PWs)   bands (ev):

   -66.6402 -66.4587 -66.1387 -66.1075 -65.4083 -33.6316 -33.6121 -33.5674
   -33.4517 -33.4213 -33.3931 -33.1450 -33.1176 -33.1002 -33.0672 -33.0624
   -33.0449 -32.4235 -32.3685 -32.3629 -30.4379 -29.7548 -29.0797 -12.1891
   -11.9321 -11.7769 -11.4479 -11.3646 -11.2791 -10.9903 -10.9018 -10.6405
    -9.6825  -8.9001  -8.8501  -8.1658  -7.8129  -7.5321  -7.4172  -7.2867
     2.8591   3.3012   3.6189   3.8295   3.9397   4.2549   4.5622   4.6651
     4.7385   4.9204   5.1622   5.2998   5.3637   5.5730   5.6004   5.8093
     6.0172   6.2782   6.3981   6.4496   6.5854   6.6690   6.7186   7.0067

     occupation numbers 
     1.0000   1.0000   1.0000   1.0000   1.0000   1.0000   1.0000   1.0000
     1.0000   1.0000   1.0000   1.0000   1.0000   1.0000   1.0000   1.0000
     1.0000   1.0000   1.0000   1.0000   1.0000   1.0000   1.0000   1.0000
     1.0000   1.0000   1.0000   1.0000   1.0000   1.0000   1.0000   1.0000
     1.0000   1.0000   1.0000   1.0000   1.0000   1.0000   1.0000   1.0000
     1.0000   1.0000   1.0000   1.0000   1.0000   1.0000   1.0000   1.0000
     1.0000   1.0000   1.0000   1.0000   1.0000   1.0000   1.0000   1.0000
     1.0000   1.0000   1.0000   1.0000   1.0000   1.0000   1.0000   1.0000

          k =-0.3428-0.3555-0.3466 (  5486 PWs)   bands (ev):

   -66.6402 -66.4587 -66.1387 -66.1075 -65.4083 -33.6316 -33.6122 -33.5674
   -33.4517 -33.4212 -33.3931 -33.1451 -33.1177 -33.1002 -33.0681 -33.0623
   -33.0439 -32.4235 -32.3684 -32.3630 -30.4384 -29.7541 -29.0798 -12.2560
   -11.9736 -11.7798 -11.3315 -11.2705 -11.1688 -11.1029 -10.9522 -10.7061
    -9.6867  -8.8903  -8.7657  -8.1584  -7.7994  -7.5723  -7.4516  -7.3108
     2.7176   3.4488   3.6675   3.6910   3.9814   4.0336   4.4071   4.6277
     5.0112   5.0135   5.1003   5.4762   5.5322   5.6329   5.7439   5.7808
     5.9723   6.1627   6.3129   6.3994   6.6418   6.6540   6.7812   6.9894

     occupation numbers 
     1.0000   1.0000   1.0000   1.0000   1.0000   1.0000   1.0000   1.0000
     1.0000   1.0000   1.0000   1.0000   1.0000   1.0000   1.0000   1.0000
     1.0000   1.0000   1.0000   1.0000   1.0000   1.0000   1.0000   1.0000
     1.0000   1.0000   1.0000   1.0000   1.0000   1.0000   1.0000   1.0000
     1.0000   1.0000   1.0000   1.0000   1.0000   1.0000   1.0000   1.0000
     1.0000   1.0000   1.0000   1.0000   1.0000   1.0000   1.0000   1.0000
     1.0000   1.0000   1.0000   1.0000   1.0000   1.0000   1.0000   1.0000
     1.0000   1.0000   1.0000   1.0000   1.0000   1.0000   1.0000   1.0000

     highest occupied level (ev):     7.1902

!    total energy              =   -1109.78248459 Ry
     Harris-Foulkes estimate   =   -1109.78248459 Ry
     estimated scf accuracy    <          6.5E-11 Ry

     The total energy is the sum of the following terms:

     one-electron contribution =    -571.05983794 Ry
     hartree contribution      =     327.25109174 Ry
     xc contribution           =    -177.42322407 Ry
     ewald contribution        =    -688.55051432 Ry

     convergence has been achieved in  19 iterations

     Forces acting on atoms (Ry/au):

     atom    1 type  2   force =   0.38228486E-01 -0.69492761E-02 -0.56025735E-01
     atom    2 type  3   force =   0.22079516E-01 -0.30975634E-01  0.17249850E-01
     atom    3 type  1   force =  -0.52628284E-02 -0.13427980E-01 -0.49032186E-01
     atom    4 type  3   force =   0.55044533E-01 -0.20683281E-01  0.12353791E-01
     atom    5 type  1   force =   0.23563209E-01 -0.24885771E-01 -0.62080944E-01
     atom    6 type  3   force =   0.79262780E-01  0.21969175E-01  0.40648812E-02
     atom    7 type  2   force =   0.41091325E-01 -0.59750926E-01 -0.42266504E-01
     atom    8 type  3   force =   0.23491843E-02  0.56165667E-03  0.62831482E-01
     atom    9 type  2   force =  -0.76229045E-01  0.23881772E-01  0.13321718E-01
     atom   10 type  3   force =   0.32043846E-01  0.74824328E-01  0.11042225E-02
     atom   11 type  2   force =  -0.90216005E-01  0.94450805E-01  0.25948095E-01
     atom   12 type  3   force =  -0.68415998E-01  0.16079328E-01 -0.10266370E-01
     atom   13 type  1   force =  -0.27006454E-01 -0.10368359E+00  0.23154875E-01
     atom   14 type  3   force =  -0.45127170E-01 -0.55860448E-01 -0.34740675E-02
     atom   15 type  2   force =   0.11471172E-01  0.44575332E-01  0.58031805E-01
     atom   16 type  3   force =   0.71234499E-02  0.39874505E-01  0.50850870E-02
     The non-local contrib.  to forces
     atom    1 type  2   force =   0.13631328E+00  0.92978811E-01 -0.12911069E+00
     atom    2 type  3   force =  -0.12348432E+00  0.66105829E-01  0.75362096E-03
     atom    3 type  1   force =  -0.35523639E-01  0.55286171E-02  0.85846060E-02
     atom    4 type  3   force =   0.36677362E-01 -0.14970162E+00 -0.55709962E-01
     atom    5 type  1   force =  -0.28348221E-01  0.70465485E-02 -0.42082717E-01
     atom    6 type  3   force =   0.18300288E+00  0.13208866E+00 -0.13501371E-01
     atom    7 type  2   force =  -0.19810907E+00  0.29559957E+00  0.85732772E-01
     atom    8 type  3   force =   0.12246996E+00 -0.61369065E-01  0.78847292E-01
     atom    9 type  2   force =  -0.25508502E+00 -0.35422840E-01  0.52043699E-01
     atom   10 type  3   force =   0.22571019E+00  0.41701040E-01  0.99407267E-02
     atom   11 type  2   force =   0.28066888E-01  0.63275538E-01 -0.80180297E-01
     atom   12 type  3   force =  -0.18969636E+00  0.19528302E+00  0.55665313E-02
     atom   13 type  1   force =   0.10213824E-01 -0.62838057E-01 -0.27740620E-01
     atom   14 type  3   force =  -0.19471508E+00 -0.16369127E+00 -0.23277000E-01
     atom   15 type  2   force =   0.13708853E+00  0.84549590E-01 -0.31165058E-01
     atom   16 type  3   force =  -0.27594062E-01  0.18997936E+00  0.32267689E-01
     The ionic contribution  to forces
     atom    1 type  2   force =   0.39591559E+01  0.22808064E+00 -0.50043519E+01
     atom    2 type  3   force =   0.12480749E+01 -0.34286476E+01  0.52822518E+00
     atom    3 type  1   force =  -0.47530886E+00 -0.16202534E+01 -0.18993726E+01
     atom    4 type  3   force =   0.37416962E+01  0.16782408E+01  0.13824933E+01
     atom    5 type  1   force =   0.71831286E+00 -0.10050004E+01 -0.18410390E+01
     atom    6 type  3   force =   0.17627906E+01 -0.94944738E+00  0.47576397E+00
     atom    7 type  2   force =   0.12764992E+01 -0.16666043E+01 -0.44863718E+00
     atom    8 type  3   force =  -0.20440417E+01  0.87785132E+00 -0.36186629E+00
     atom    9 type  2   force =  -0.39691488E+01  0.13917860E+01  0.24064741E+01
     atom   10 type  3   force =  -0.23863439E+01  0.25043093E+01  0.14683132E+01
     atom   11 type  2   force =  -0.38959524E+01  0.34094251E+01  0.58913898E+00
     atom   12 type  3   force =  -0.13951907E+00 -0.24001503E+01 -0.21831369E+01
     atom   13 type  1   force =  -0.17089067E+01 -0.25952108E+01  0.95223117E+00
     atom   14 type  3   force =  -0.14596324E+01 -0.10072366E+01  0.70153626E+00
     atom   15 type  2   force =   0.22849912E+01  0.35248646E+01  0.28807437E+01
     atom   16 type  3   force =   0.10873331E+01  0.10579929E+01  0.35348396E+00
     The local contribution  to forces
     atom    1 type  2   force =  -0.40572392E+01 -0.32800904E+00  0.50774343E+01
     atom    2 type  3   force =  -0.11025501E+01  0.33314841E+01 -0.51131908E+00
     atom    3 type  1   force =   0.50586412E+00  0.16011804E+01  0.18404561E+01
     atom    4 type  3   force =  -0.37221466E+01 -0.15501480E+01 -0.13144345E+01
     atom    5 type  1   force =  -0.66572742E+00  0.97213322E+00  0.18217687E+01
     atom    6 type  3   force =  -0.18643295E+01  0.84016624E+00 -0.45817606E+00
     atom    7 type  2   force =  -0.10373038E+01  0.13112508E+01  0.32063654E+00
     atom    8 type  3   force =   0.19241755E+01 -0.81603941E+00  0.34760210E+00
     atom    9 type  2   force =   0.41480137E+01 -0.13324805E+01 -0.24451918E+01
     atom   10 type  3   force =   0.21938286E+01 -0.24698942E+01 -0.14772453E+01
     atom   11 type  2   force =   0.37776661E+01 -0.33782547E+01 -0.48301130E+00
     atom   12 type  3   force =   0.25898775E+00  0.22218505E+01  0.21669729E+01
     atom   13 type  1   force =   0.16709573E+01  0.25546119E+01 -0.90044482E+00
     atom   14 type  3   force =   0.16076732E+01  0.11133598E+01 -0.68181124E+00
     atom   15 type  2   force =  -0.24106056E+01 -0.35648325E+01 -0.27915448E+01
     atom   16 type  3   force =  -0.10525620E+01 -0.12067965E+01 -0.38052582E+00
     The core correction contribution to forces
     atom    1 type  2   force =   0.00000000E+00  0.00000000E+00  0.00000000E+00
     atom    2 type  3   force =   0.38133008E-04  0.79041294E-04 -0.40794134E-03
     atom    3 type  1   force =  -0.29493157E-03  0.11689826E-03  0.13067810E-02
     atom    4 type  3   force =  -0.11793757E-02  0.92667447E-03  0.60727041E-05
     atom    5 type  1   force =  -0.67551587E-03  0.94173514E-03 -0.72765284E-03
     atom    6 type  3   force =  -0.21997009E-02 -0.83923844E-03 -0.21550008E-04
     atom    7 type  2   force =   0.00000000E+00  0.00000000E+00  0.00000000E+00
     atom    8 type  3   force =  -0.25599622E-03  0.12178130E-03 -0.17535146E-02
     atom    9 type  2   force =   0.00000000E+00  0.00000000E+00  0.00000000E+00
     atom   10 type  3   force =  -0.11529111E-02 -0.12890801E-02  0.98197667E-04
     atom   11 type  2   force =   0.00000000E+00  0.00000000E+00  0.00000000E+00
     atom   12 type  3   force =   0.18116570E-02 -0.90506573E-03  0.32909494E-03
     atom   13 type  1   force =   0.72850418E-03 -0.24759168E-03 -0.89676738E-03
     atom   14 type  3   force =   0.15452167E-02  0.17057981E-02  0.79009752E-04
     atom   15 type  2   force =   0.00000000E+00  0.00000000E+00  0.00000000E+00
     atom   16 type  3   force =  -0.53251076E-04 -0.12997557E-02 -0.14095831E-03
     The Hubbard contrib.    to forces
     atom    1 type  2   force =   0.00000000E+00  0.00000000E+00  0.00000000E+00
     atom    2 type  3   force =   0.00000000E+00  0.00000000E+00  0.00000000E+00
     atom    3 type  1   force =   0.00000000E+00  0.00000000E+00  0.00000000E+00
     atom    4 type  3   force =   0.00000000E+00  0.00000000E+00  0.00000000E+00
     atom    5 type  1   force =   0.00000000E+00  0.00000000E+00  0.00000000E+00
     atom    6 type  3   force =   0.00000000E+00  0.00000000E+00  0.00000000E+00
     atom    7 type  2   force =   0.00000000E+00  0.00000000E+00  0.00000000E+00
     atom    8 type  3   force =   0.00000000E+00  0.00000000E+00  0.00000000E+00
     atom    9 type  2   force =   0.00000000E+00  0.00000000E+00  0.00000000E+00
     atom   10 type  3   force =   0.00000000E+00  0.00000000E+00  0.00000000E+00
     atom   11 type  2   force =   0.00000000E+00  0.00000000E+00  0.00000000E+00
     atom   12 type  3   force =   0.00000000E+00  0.00000000E+00  0.00000000E+00
     atom   13 type  1   force =   0.00000000E+00  0.00000000E+00  0.00000000E+00
     atom   14 type  3   force =   0.00000000E+00  0.00000000E+00  0.00000000E+00
     atom   15 type  2   force =   0.00000000E+00  0.00000000E+00  0.00000000E+00
     atom   16 type  3   force =   0.00000000E+00  0.00000000E+00  0.00000000E+00
     The SCF correction term to forces
     atom    1 type  2   force =  -0.15193726E-05  0.67537106E-06  0.28717778E-05
     atom    2 type  3   force =   0.77752496E-06  0.33298589E-05 -0.16455858E-05
     atom    3 type  1   force =   0.41882115E-06 -0.20910527E-06 -0.68203783E-05
     atom    4 type  3   force =  -0.31541986E-05 -0.78715992E-06 -0.85180549E-06
     atom    5 type  1   force =   0.14368395E-05 -0.64820814E-05 -0.23468257E-07
     atom    6 type  3   force =  -0.15353641E-05  0.12509718E-05  0.18207199E-06
     atom    7 type  2   force =   0.48945446E-05  0.33636515E-05  0.16615718E-05
     atom    8 type  3   force =   0.13617320E-05 -0.26048355E-05  0.21890413E-05
     atom    9 type  2   force =  -0.89541272E-05 -0.50302405E-06 -0.39820255E-05
     atom   10 type  3   force =   0.18026631E-05 -0.23740399E-05 -0.22954147E-05
     atom   11 type  2   force =   0.33206403E-05  0.52229861E-05  0.10052478E-05
     atom   12 type  3   force =  -0.34221375E-07  0.15105527E-05  0.22957508E-05
     atom   13 type  1   force =   0.59330661E-06  0.12503649E-05  0.61997186E-05
     atom   14 type  3   force =   0.18604863E-05  0.22411310E-05 -0.80443796E-06
     atom   15 type  2   force =  -0.30543420E-05 -0.60023971E-05 -0.17502546E-05
     atom   16 type  3   force =  -0.34549090E-06 -0.11717000E-05  0.50857432E-06

     Total force =     0.309395     Total SCF correction =     0.000021


     entering subroutine stress ...

          total   stress  (Ry/bohr**3)                   (kbar)     P=  -20.44
  -0.0001552829  -0.0000098551  -0.0002085329        -22.84     -1.45    -30.68
  -0.0000098551  -0.0000697419   0.0000997759         -1.45    -10.26     14.68
  -0.0002085329   0.0000997759  -0.0001917421        -30.68     14.68    -28.21

     kinetic stress (kbar)  19882.33    -12.45    -35.40
                              -12.45  19923.50      6.92
                              -35.40      6.92  19910.73

     local   stress (kbar)  -4879.96   -872.92   -711.10
                             -872.92  -6226.58    983.00
                             -711.10    983.00  -3786.72

     nonloc. stress (kbar)   5151.60      0.23      4.66
                                0.23   5148.74     -1.23
                                4.66     -1.23   5136.46

     hartree stress (kbar)  12452.56    326.01    314.54
                              326.01  12929.02   -413.07
                              314.54   -413.07  11981.12

     exc-cor stress (kbar)  -5529.32      0.43      0.28
                                0.43  -5528.08     -0.55
                                0.28     -0.55  -5529.64

     corecor stress (kbar)   -828.02      0.05      0.10
                                0.05   -828.18     -0.01
                                0.10     -0.01   -828.11

     ewald   stress (kbar) -26272.01    557.22    396.24
                              557.22 -25428.68   -560.38
                              396.24   -560.38 -26912.05

     hubbard stress (kbar)      0.00      0.00      0.00
                                0.00      0.00      0.00
                                0.00      0.00      0.00

     london  stress (kbar)      0.00      0.00      0.00
                                0.00      0.00      0.00
                                0.00      0.00      0.00

     XDM     stress (kbar)      0.00      0.00      0.00
                                0.00      0.00      0.00
                                0.00      0.00      0.00

     dft-nl  stress (kbar)      0.00      0.00      0.00
                                0.00      0.00      0.00
                                0.00      0.00      0.00



     Writing output data file mix.dummy46881.save

     init_run     :     14.05s CPU     15.32s WALL (       1 calls)
     electrons    :    645.84s CPU    708.84s WALL (       1 calls)
     forces       :      6.15s CPU      6.59s WALL (       1 calls)
     stress       :     10.74s CPU     11.09s WALL (       1 calls)

     Called by init_run:
     wfcinit      :     12.43s CPU     13.67s WALL (       1 calls)
     potinit      :      0.45s CPU      0.45s WALL (       1 calls)

     Called by electrons:
     c_bands      :    569.73s CPU    627.19s WALL (      19 calls)
     sum_band     :     70.19s CPU     75.52s WALL (      19 calls)
     v_of_rho     :      0.75s CPU      0.79s WALL (      20 calls)
     v_h          :      0.04s CPU      0.05s WALL (      20 calls)
     v_xc         :      0.80s CPU      0.84s WALL (      22 calls)
     newd         :      4.13s CPU      4.18s WALL (      20 calls)
     mix_rho      :      1.16s CPU      1.25s WALL (      19 calls)

     Called by c_bands:
     init_us_2    :      3.02s CPU      3.21s WALL (    1476 calls)
     cegterg      :    546.13s CPU    602.29s WALL (     684 calls)

     Called by sum_band:
     sum_band:bec :      0.85s CPU      0.81s WALL (     684 calls)
     addusdens    :      4.01s CPU      4.06s WALL (      19 calls)

     Called by *egterg:
     h_psi        :    273.88s CPU    292.38s WALL (    2146 calls)
     s_psi        :     28.12s CPU     30.66s WALL (    2146 calls)
     g_psi        :      0.29s CPU      0.32s WALL (    1426 calls)
     cdiaghg      :     76.15s CPU     87.48s WALL (    2110 calls)
     cegterg:over :     86.38s CPU     96.48s WALL (    1426 calls)
     cegterg:upda :     10.14s CPU     13.57s WALL (    1426 calls)
     cegterg:last :      6.36s CPU      7.52s WALL (     684 calls)

     Called by h_psi:
     h_psi:vloc   :    169.35s CPU    174.23s WALL (    2146 calls)
     h_psi:vnl    :    104.13s CPU    117.69s WALL (    2146 calls)
     add_vuspsi   :     29.06s CPU     32.77s WALL (    2146 calls)

     General routines
     calbec       :    107.58s CPU    122.31s WALL (    2902 calls)
     fft          :      1.34s CPU      1.37s WALL (     341 calls)
     ffts         :      0.68s CPU      0.76s WALL (     515 calls)
     fftw         :    191.89s CPU    197.12s WALL (  258566 calls)
     interpolate  :      0.13s CPU      0.15s WALL (      39 calls)

     Parallel routines
     fft_scatter  :     80.54s CPU     82.86s WALL (  259422 calls)

     PWSCF        : 11m19.59s CPU    12m25.18s WALL


   This run was terminated on:   5: 5:52   8Dec2017            

=------------------------------------------------------------------------------=
   JOB DONE.
=------------------------------------------------------------------------------=
