
     Program PWSCF v.5.1 starts on 16Nov2017 at  2:31:41 

     This program is part of the open-source Quantum ESPRESSO suite
     for quantum simulation of materials; please cite
         "P. Giannozzi et al., J. Phys.:Condens. Matter 21 395502 (2009);
          URL http://www.quantum-espresso.org", 
     in publications or presentations arising from this work. More details at
     http://www.quantum-espresso.org/quote

     Parallel version (MPI), running on    16 processors
     R & G space division:  proc/nbgrp/npool/nimage =      16
     Waiting for input...
     Reading input from standard input
Warning: card &IONS ignored
Warning: card   ION_DYNAMICS='BFGS', ignored
Warning: card / ignored
Warning: card &CELL ignored
Warning: card  CELL_DYNAMICS = 'BFGS' ignored
Warning: card / ignored

     Current dimensions of program PWSCF are:
     Max number of different atomic species (ntypx) = 10
     Max number of k-points (npk) =  40000
     Max angular momentum in pseudopotentials (lmaxx) =  3
 kfg - two_fermi_energies  F

     Subspace diagonalization in iterative solution of the eigenvalue problem:
     a serial algorithm will be used


     Parallelization info
     --------------------
     sticks:   dense  smooth     PW     G-vecs:    dense   smooth      PW
     Min         132     106     30                 3813     2725     424
     Max         133     107     31                 3815     2735     426
     Sum        2125    1705    487                61017    43685    6799



     bravais-lattice index     =            0
     lattice parameter (alat)  =    12.711364961  a.u.
     unit-cell volume          =    1277.1237 (a.u.)^3
     number of atoms/cell      =           16
     number of atomic types    =            3
     number of electrons       =       128.00
     number of Kohn-Sham states=           64
     kinetic-energy cutoff     =      40.0000  Ry
     charge density cutoff     =     200.0000  Ry
     convergence threshold     =      1.0E-10
     mixing beta               =       0.3000
     number of iterations used =            8  local-TF  mixing
     Exchange-correlation      = SLA  PW   PSX  PSC ( 1  4 10  8 0)
     A smooth kinetic-energy cutoff is imposed at      39.5000 Ry
     height of the smooth step-function =             800.0000 Ry
     width of the smooth step-function  =               1.0000 Ry


     celldm(1)=  12.711365  celldm(2)=   0.000000  celldm(3)=   0.000000
     celldm(4)=   0.000000  celldm(5)=   0.000000  celldm(6)=   0.000000

     crystal axes: (cart. coord. in units of alat)
               a(1) = (   0.028058152232   0.702622013019   0.711009878212 )  
               a(2) = (   0.690715624997   0.031342196832   0.707725833612 )  
               a(3) = (   0.676284575378   0.684906918799   0.045773246451 )  

     reciprocal axes: (cart. coord. in units 2 pi/alat)
               b(1) = ( -0.777236  0.718884  0.726719 )  
               b(2) = (  0.731438 -0.771236  0.733273 )  
               b(3) = (  0.763868  0.757867 -0.779071 )  


     PseudoPot. # 1 for Ca read from file:
     /users/kfg/psuedo/gbrv_1.5/ca.pbesol.UPF
     MD5 check sum: 0533207b58cddeaa036efa5b63902087
     Pseudo is Ultrasoft + core correction, Zval = 10.0
     Generated by new atomic code, or converted to UPF format
     Using radial grid of  845 points,  6 beta functions with: 
                l(1) =   0
                l(2) =   0
                l(3) =   1
                l(4) =   1
                l(5) =   2
                l(6) =   2
     Q(r) pseudized with  8 coefficients,  rinner =    1.500   1.500   1.500
                                                       1.500   1.500

     PseudoPot. # 2 for Mg read from file:
     /users/kfg/psuedo/gbrv_1.5/mg.pbesol.UPF
     MD5 check sum: 4059f37963cf5867752dbf5ab2400678
     Pseudo is Ultrasoft, Zval = 10.0
     Generated by new atomic code, or converted to UPF format
     Using radial grid of  821 points,  7 beta functions with: 
                l(1) =   0
                l(2) =   0
                l(3) =   0
                l(4) =   1
                l(5) =   1
                l(6) =   2
                l(7) =   2
     Q(r) pseudized with  8 coefficients,  rinner =    1.200   1.200   1.200
                                                       1.200   1.200

     PseudoPot. # 3 for O  read from file:
     /users/kfg/psuedo/gbrv_1.5/o.pbesol.UPF
     MD5 check sum: 501638753501ef6325af9037351f7734
     Pseudo is Ultrasoft + core correction, Zval =  6.0
     Generated by new atomic code, or converted to UPF format
     Using radial grid of  737 points,  5 beta functions with: 
                l(1) =   0
                l(2) =   0
                l(3) =   1
                l(4) =   1
                l(5) =   2
     Q(r) pseudized with  8 coefficients,  rinner =    0.900   0.900   0.900
                                                       0.900   0.900

     atomic species   valence    mass     pseudopotential
        Ca            10.00    40.07800     Ca( 1.00)
        Mg            10.00    40.07800     Mg( 1.00)
        O              6.00    15.99940     O ( 1.00)

     No symmetry found


                                    s                        frac. trans.

      isym =  1     identity                                     

 cryst.   s( 1) = (     1          0          0      )
                  (     0          1          0      )
                  (     0          0          1      )

 cart.    s( 1) = (  1.0000000  0.0000000  0.0000000 )
                  ( -0.0000000  1.0000000  0.0000000 )
                  (  0.0000000  0.0000000  1.0000000 )


     point group C_1 (1)    
     there are  1 classes
     the character table:

       E    
A      1.00

     the symmetry operations in each class:
     E        1

   Cartesian axes

     site n.     atom                  positions (alat units)
         1           Mg  tau(   1) = (   -0.00920286735   -0.00579728747   -0.03693852173  )
         2           O   tau(   2) = (    0.39332128351    0.38208249013    0.38937446151  )
         3           Ca  tau(   3) = (    0.32938443410    0.35283843284    0.04739805285  )
         4           O   tau(   4) = (    0.67605238958    0.69711135455    0.39147655923  )
         5           Ca  tau(   5) = (    0.31908822191    0.01387271057    0.34171267457  )
         6           O   tau(   6) = (    0.67979653520    0.36475358612    0.72735354298  )
         7           Mg  tau(   7) = (    0.69304308604    0.34467860849    0.37336205915  )
         8           O   tau(   8) = (    1.01957055862    0.74272728210    0.75026513532  )
         9           Ca  tau(   9) = (    0.02457337042    0.32903758871    0.36154287035  )
        10           O   tau(  10) = (    0.37558996556    0.71793418318    0.72833652125  )
        11           Ca  tau(  11) = (    0.35675660144    0.69562638869    0.41266410953  )
        12           O   tau(  12) = (    0.72151460899    1.04493603254    0.72498845273  )
        13           Mg  tau(  13) = (    0.34507434706    0.36079235559    0.71203054419  )
        14           O   tau(  14) = (    0.71034107548    0.74069983578    1.07948074671  )
        15           Mg  tau(  15) = (    0.72097891845    0.67639843348    0.74083844623  )
        16           O   tau(  16) = (    1.01446758665    1.05553477656    1.04316809475  )

   Crystallographic axes

     site n.     atom                  positions (cryst. coord.)
         1           Mg  tau(   1) = (   -0.02385869426   -0.02934628022    0.01735437748  )
         2           O   tau(   2) = (    0.25193516850    0.27853239510    0.28666300828  )
         3           Ca  tau(   3) = (    0.03208542510    0.00355848003    0.48208445152  )
         4           O   tau(   4) = (    0.26018313386    0.24391262902    0.73974460725  )
         5           Ca  tau(   5) = (    0.01029503096    0.47326294959   -0.01196353125  )
         6           O   tau(   6) = (    0.26243456871    0.74926702766    0.22904952805  )
         7           Mg  tau(   7) = (   -0.01954497315    0.51486615441    0.49973841863  )
         8           O   tau(   8) = (    0.28671939165    0.72308437234    0.75719613718  )
         9           Ca  tau(   9) = (    0.48018047441    0.02931801122   -0.01352982932  )
        10           O   tau(  10) = (    0.75348502019    0.25509395285    0.26357423423  )
        11           Ca  tau(  11) = (    0.52268119886    0.02704897555    0.47821286262  )
        12           O   tau(  12) = (    0.71726313740    0.25346590607    0.77824733571  )
        13           Mg  tau(  13) = (    0.50860953840    0.49625749287   -0.01769832047  )
        14           O   tau(  14) = (    0.76485336725    0.73987068655    0.26296690190  )
        15           Mg  tau(  15) = (    0.46426228897    0.54892585098    0.48618721497  )
        16           O   tau(  16) = (    0.72841592312    0.69288139597    0.76217260320  )

     number of k points=    36
                       cart. coord. in units 2pi/alat
        k(    1) = (   0.0000000   0.0000000   0.0000000), wk =   0.0312500
        k(    2) = (   0.1909669   0.1894669  -0.1947677), wk =   0.0625000
        k(    3) = (  -0.3819338  -0.3789337   0.3895354), wk =   0.0312500
        k(    4) = (   0.1828596  -0.1928090   0.1833183), wk =   0.0625000
        k(    5) = (   0.3738265  -0.0033421  -0.0114494), wk =   0.0625000
        k(    6) = (  -0.1990743  -0.5717427   0.5728537), wk =   0.0625000
        k(    7) = (  -0.0081073  -0.3822758   0.3780860), wk =   0.0625000
        k(    8) = (  -0.3657192   0.3856179  -0.3666366), wk =   0.0312500
        k(    9) = (  -0.1747522   0.5750848  -0.5614043), wk =   0.0625000
        k(   10) = (  -0.7476530   0.0066842   0.0228989), wk =   0.0312500
        k(   11) = (  -0.1943090   0.1797209   0.1816797), wk =   0.0625000
        k(   12) = (  -0.0033421   0.3691878  -0.0130880), wk =   0.0625000
        k(   13) = (  -0.5762429  -0.1992128   0.5712151), wk =   0.0625000
        k(   14) = (  -0.3852759  -0.0097459   0.3764474), wk =   0.0625000
        k(   15) = (  -0.0114494  -0.0130880   0.3649980), wk =   0.0625000
        k(   16) = (   0.1795175   0.1763789   0.1702303), wk =   0.0625000
        k(   17) = (  -0.3933833  -0.3920217   0.7545334), wk =   0.0625000
        k(   18) = (  -0.2024163  -0.2025549   0.5597657), wk =   0.0625000
        k(   19) = (  -0.5600282   0.5653388  -0.1849569), wk =   0.0625000
        k(   20) = (  -0.3690612   0.7548057  -0.3797246), wk =   0.0625000
        k(   21) = (  -0.9419620   0.1864051   0.2045786), wk =   0.0625000
        k(   22) = (  -0.7509951   0.3758720   0.0098108), wk =   0.0625000
        k(   23) = (  -0.3771686   0.3725299  -0.0016386), wk =   0.0625000
        k(   24) = (  -0.1862017   0.5619968  -0.1964063), wk =   0.0625000
        k(   25) = (  -0.7591024  -0.0064038   0.3878968), wk =   0.0625000
        k(   26) = (  -0.5681355   0.1830630   0.1931291), wk =   0.0625000
        k(   27) = (   0.3886180  -0.3594419  -0.3633594), wk =   0.0312500
        k(   28) = (   0.5795849  -0.1699750  -0.5581271), wk =   0.0625000
        k(   29) = (   0.0066842  -0.7383756   0.0261760), wk =   0.0312500
        k(   30) = (   0.5714776  -0.5522508  -0.1800411), wk =   0.0625000
        k(   31) = (   0.7624445  -0.3627840  -0.3748088), wk =   0.0625000
        k(   32) = (   0.1895438  -0.9311846   0.2094943), wk =   0.0625000
        k(   33) = (   0.3805107  -0.7417177   0.0147266), wk =   0.0625000
        k(   34) = (   0.0228989   0.0261760  -0.7299960), wk =   0.0312500
        k(   35) = (   0.2138658   0.2156429  -0.9247637), wk =   0.0625000
        k(   36) = (  -0.3590350  -0.3527577  -0.3404605), wk =   0.0312500

                       cryst. coord.
        k(    1) = (   0.0000000   0.0000000   0.0000000), wk =   0.0312500
        k(    2) = (   0.0000000  -0.0000000   0.2500000), wk =   0.0625000
        k(    3) = (   0.0000000   0.0000000  -0.5000000), wk =   0.0312500
        k(    4) = (   0.0000000   0.2500000   0.0000000), wk =   0.0625000
        k(    5) = (  -0.0000000   0.2500000   0.2500000), wk =   0.0625000
        k(    6) = (   0.0000000   0.2500000  -0.5000000), wk =   0.0625000
        k(    7) = (   0.0000000   0.2500000  -0.2500000), wk =   0.0625000
        k(    8) = (   0.0000000  -0.5000000   0.0000000), wk =   0.0312500
        k(    9) = (  -0.0000000  -0.5000000   0.2500000), wk =   0.0625000
        k(   10) = (   0.0000000  -0.5000000  -0.5000000), wk =   0.0312500
        k(   11) = (   0.2500000   0.0000000  -0.0000000), wk =   0.0625000
        k(   12) = (   0.2500000  -0.0000000   0.2500000), wk =   0.0625000
        k(   13) = (   0.2500000   0.0000000  -0.5000000), wk =   0.0625000
        k(   14) = (   0.2500000   0.0000000  -0.2500000), wk =   0.0625000
        k(   15) = (   0.2500000   0.2500000   0.0000000), wk =   0.0625000
        k(   16) = (   0.2500000   0.2500000   0.2500000), wk =   0.0625000
        k(   17) = (   0.2500000   0.2500000  -0.5000000), wk =   0.0625000
        k(   18) = (   0.2500000   0.2500000  -0.2500000), wk =   0.0625000
        k(   19) = (   0.2500000  -0.5000000  -0.0000000), wk =   0.0625000
        k(   20) = (   0.2500000  -0.5000000   0.2500000), wk =   0.0625000
        k(   21) = (   0.2500000  -0.5000000  -0.5000000), wk =   0.0625000
        k(   22) = (   0.2500000  -0.5000000  -0.2500000), wk =   0.0625000
        k(   23) = (   0.2500000  -0.2500000   0.0000000), wk =   0.0625000
        k(   24) = (   0.2500000  -0.2500000   0.2500000), wk =   0.0625000
        k(   25) = (   0.2500000  -0.2500000  -0.5000000), wk =   0.0625000
        k(   26) = (   0.2500000  -0.2500000  -0.2500000), wk =   0.0625000
        k(   27) = (  -0.5000000   0.0000000   0.0000000), wk =   0.0312500
        k(   28) = (  -0.5000000   0.0000000   0.2500000), wk =   0.0625000
        k(   29) = (  -0.5000000   0.0000000  -0.5000000), wk =   0.0312500
        k(   30) = (  -0.5000000   0.2500000   0.0000000), wk =   0.0625000
        k(   31) = (  -0.5000000   0.2500000   0.2500000), wk =   0.0625000
        k(   32) = (  -0.5000000   0.2500000  -0.5000000), wk =   0.0625000
        k(   33) = (  -0.5000000   0.2500000  -0.2500000), wk =   0.0625000
        k(   34) = (  -0.5000000  -0.5000000  -0.0000000), wk =   0.0312500
        k(   35) = (  -0.5000000  -0.5000000   0.2500000), wk =   0.0625000
        k(   36) = (  -0.5000000  -0.5000000  -0.5000000), wk =   0.0312500

     Dense  grid:    61017 G-vectors     FFT dimensions: (  60,  60,  60)

     Smooth grid:    43685 G-vectors     FFT dimensions: (  54,  54,  50)

     Largest allocated arrays     est. size (Mb)     dimensions
        Kohn-Sham Wavefunctions         0.34 Mb     (     347,   64)
        NL pseudopotentials             1.33 Mb     (     347,  252)
        Each V/rho on FFT grid          0.22 Mb     (   14400)
        Each G-vector array             0.03 Mb     (    3815)
        G-vector shells                 0.03 Mb     (    3681)
     Largest temporary arrays     est. size (Mb)     dimensions
        Auxiliary wavefunctions         1.36 Mb     (     347,  256)
        Each subspace H/S matrix        1.00 Mb     (     256,  256)
        Each <psi_i|beta_j> matrix      0.25 Mb     (     252,   64)
        Arrays for rho mixing           1.76 Mb     (   14400,    8)

     Check: negative/imaginary core charge=   -0.000003    0.000000

     Initial potential from superposition of free atoms

     starting charge  126.77837, renormalised to  128.00000
     Starting wfc are   92 randomized atomic wfcs

     total cpu time spent up to now is       23.5 secs

     per-process dynamical memory:    33.5 Mb

     Self-consistent Calculation

     iteration #  1     ecut=    40.00 Ry     beta=0.30
     Davidson diagonalization with overlap
     ethr =  1.00E-02,  avg # of iterations =  2.0

     total cpu time spent up to now is       66.6 secs

     total energy              =   -1059.84966133 Ry
     Harris-Foulkes estimate   =   -1060.48433469 Ry
     estimated scf accuracy    <       3.29108592 Ry

     iteration #  2     ecut=    40.00 Ry     beta=0.30
     Davidson diagonalization with overlap
     ethr =  2.57E-03,  avg # of iterations =  1.5

     total cpu time spent up to now is      101.4 secs

     total energy              =   -1059.36639047 Ry
     Harris-Foulkes estimate   =   -1059.94910648 Ry
     estimated scf accuracy    <       1.43241475 Ry

     iteration #  3     ecut=    40.00 Ry     beta=0.30
     Davidson diagonalization with overlap
     ethr =  1.12E-03,  avg # of iterations =  2.0

     total cpu time spent up to now is      148.8 secs

     total energy              =   -1059.59646594 Ry
     Harris-Foulkes estimate   =   -1059.63914577 Ry
     estimated scf accuracy    <       0.16432806 Ry

     iteration #  4     ecut=    40.00 Ry     beta=0.30
     Davidson diagonalization with overlap
     ethr =  1.28E-04,  avg # of iterations =  2.0

     total cpu time spent up to now is      192.1 secs

     total energy              =   -1059.55625917 Ry
     Harris-Foulkes estimate   =   -1059.61644089 Ry
     estimated scf accuracy    <       0.10608914 Ry

     iteration #  5     ecut=    40.00 Ry     beta=0.30
     Davidson diagonalization with overlap
     ethr =  8.29E-05,  avg # of iterations =  2.0

     total cpu time spent up to now is      238.1 secs

     total energy              =   -1059.57168436 Ry
     Harris-Foulkes estimate   =   -1059.57300270 Ry
     estimated scf accuracy    <       0.01408917 Ry

     iteration #  6     ecut=    40.00 Ry     beta=0.30
     Davidson diagonalization with overlap
     ethr =  1.10E-05,  avg # of iterations =  1.0

     total cpu time spent up to now is      272.7 secs

     total energy              =   -1059.56874771 Ry
     Harris-Foulkes estimate   =   -1059.57197397 Ry
     estimated scf accuracy    <       0.00838271 Ry

     iteration #  7     ecut=    40.00 Ry     beta=0.30
     Davidson diagonalization with overlap
     ethr =  6.55E-06,  avg # of iterations =  2.0

     total cpu time spent up to now is      316.0 secs

     total energy              =   -1059.56896008 Ry
     Harris-Foulkes estimate   =   -1059.56947080 Ry
     estimated scf accuracy    <       0.00123356 Ry

     iteration #  8     ecut=    40.00 Ry     beta=0.30
     Davidson diagonalization with overlap
     ethr =  9.64E-07,  avg # of iterations =  3.0

     total cpu time spent up to now is      370.0 secs

     total energy              =   -1059.56914626 Ry
     Harris-Foulkes estimate   =   -1059.56924789 Ry
     estimated scf accuracy    <       0.00030357 Ry

     iteration #  9     ecut=    40.00 Ry     beta=0.30
     Davidson diagonalization with overlap
     ethr =  2.37E-07,  avg # of iterations =  2.0

     total cpu time spent up to now is      414.5 secs

     total energy              =   -1059.56915300 Ry
     Harris-Foulkes estimate   =   -1059.56917227 Ry
     estimated scf accuracy    <       0.00009869 Ry

     iteration # 10     ecut=    40.00 Ry     beta=0.30
     Davidson diagonalization with overlap
     ethr =  7.71E-08,  avg # of iterations =  1.1

     total cpu time spent up to now is      449.6 secs

     total energy              =   -1059.56914069 Ry
     Harris-Foulkes estimate   =   -1059.56915624 Ry
     estimated scf accuracy    <       0.00004790 Ry

     iteration # 11     ecut=    40.00 Ry     beta=0.30
     Davidson diagonalization with overlap
     ethr =  3.74E-08,  avg # of iterations =  2.0

     total cpu time spent up to now is      495.9 secs

     total energy              =   -1059.56914450 Ry
     Harris-Foulkes estimate   =   -1059.56914654 Ry
     estimated scf accuracy    <       0.00000667 Ry

     iteration # 12     ecut=    40.00 Ry     beta=0.30
     Davidson diagonalization with overlap
     ethr =  5.21E-09,  avg # of iterations =  2.3

     total cpu time spent up to now is      541.1 secs

     total energy              =   -1059.56914456 Ry
     Harris-Foulkes estimate   =   -1059.56914534 Ry
     estimated scf accuracy    <       0.00000177 Ry

     iteration # 13     ecut=    40.00 Ry     beta=0.30
     Davidson diagonalization with overlap
     ethr =  1.38E-09,  avg # of iterations =  2.0

     total cpu time spent up to now is      586.8 secs

     total energy              =   -1059.56914475 Ry
     Harris-Foulkes estimate   =   -1059.56914478 Ry
     estimated scf accuracy    <       0.00000019 Ry

     iteration # 14     ecut=    40.00 Ry     beta=0.30
     Davidson diagonalization with overlap
     ethr =  1.49E-10,  avg # of iterations =  2.0

     total cpu time spent up to now is      635.9 secs

     total energy              =   -1059.56914473 Ry
     Harris-Foulkes estimate   =   -1059.56914476 Ry
     estimated scf accuracy    <       0.00000010 Ry

     iteration # 15     ecut=    40.00 Ry     beta=0.30
     Davidson diagonalization with overlap
     ethr =  7.61E-11,  avg # of iterations =  2.2

     total cpu time spent up to now is      686.8 secs

     total energy              =   -1059.56914473 Ry
     Harris-Foulkes estimate   =   -1059.56914474 Ry
     estimated scf accuracy    <       0.00000003 Ry

     iteration # 16     ecut=    40.00 Ry     beta=0.30
     Davidson diagonalization with overlap
     ethr =  2.57E-11,  avg # of iterations =  2.0

     total cpu time spent up to now is      733.9 secs

     total energy              =   -1059.56914473 Ry
     Harris-Foulkes estimate   =   -1059.56914474 Ry
     estimated scf accuracy    <          9.5E-09 Ry

     iteration # 17     ecut=    40.00 Ry     beta=0.30
     Davidson diagonalization with overlap
     ethr =  7.43E-12,  avg # of iterations =  2.0

     total cpu time spent up to now is      778.1 secs

     total energy              =   -1059.56914473 Ry
     Harris-Foulkes estimate   =   -1059.56914473 Ry
     estimated scf accuracy    <          1.9E-09 Ry

     iteration # 18     ecut=    40.00 Ry     beta=0.30
     Davidson diagonalization with overlap
     ethr =  1.50E-12,  avg # of iterations =  2.0

     total cpu time spent up to now is      820.1 secs

     total energy              =   -1059.56914473 Ry
     Harris-Foulkes estimate   =   -1059.56914473 Ry
     estimated scf accuracy    <          9.3E-10 Ry

     iteration # 19     ecut=    40.00 Ry     beta=0.30
     Davidson diagonalization with overlap
     ethr =  7.23E-13,  avg # of iterations =  2.0

     total cpu time spent up to now is      862.9 secs

     total energy              =   -1059.56914473 Ry
     Harris-Foulkes estimate   =   -1059.56914473 Ry
     estimated scf accuracy    <          2.2E-10 Ry

     iteration # 20     ecut=    40.00 Ry     beta=0.30
     Davidson diagonalization with overlap
     ethr =  1.69E-13,  avg # of iterations =  2.0

     total cpu time spent up to now is      904.4 secs

     total energy              =   -1059.56914473 Ry
     Harris-Foulkes estimate   =   -1059.56914473 Ry
     estimated scf accuracy    <          1.0E-10 Ry

     iteration # 21     ecut=    40.00 Ry     beta=0.30
     Davidson diagonalization with overlap
     ethr =  1.00E-13,  avg # of iterations =  1.0

     total cpu time spent up to now is      937.7 secs

     End of self-consistent calculation

          k = 0.0000 0.0000 0.0000 (  5455 PWs)   bands (ev):

   -65.8285 -65.6670 -64.6323 -64.1519 -32.8181 -32.7816 -32.7704 -32.6693
   -32.6537 -32.5746 -31.6514 -31.6060 -31.5622 -31.1542 -31.1272 -31.1153
   -30.3787 -29.8365 -29.5343 -28.4947 -12.1627 -11.9680 -11.8049 -11.7920
   -11.2366 -11.0772 -10.8760 -10.8140 -10.6447 -10.2660 -10.1460 -10.0343
    -8.5994  -7.9087  -7.8377  -7.6970  -7.3595  -6.9179  -6.8731  -6.7329
     3.2073   3.9307   4.0335   4.7457   4.9130   4.9679   5.0532   6.0318
     6.0936   6.1649   6.3656   6.3819   6.4327   6.5688   6.6682   6.7050
     6.8447   6.9049   6.9507   7.0061   7.1240   7.3923   7.5830   7.6527

     occupation numbers 
     1.0000   1.0000   1.0000   1.0000   1.0000   1.0000   1.0000   1.0000
     1.0000   1.0000   1.0000   1.0000   1.0000   1.0000   1.0000   1.0000
     1.0000   1.0000   1.0000   1.0000   1.0000   1.0000   1.0000   1.0000
     1.0000   1.0000   1.0000   1.0000   1.0000   1.0000   1.0000   1.0000
     1.0000   1.0000   1.0000   1.0000   1.0000   1.0000   1.0000   1.0000
     1.0000   1.0000   1.0000   1.0000   1.0000   1.0000   1.0000   1.0000
     1.0000   1.0000   1.0000   1.0000   1.0000   1.0000   1.0000   1.0000
     1.0000   1.0000   1.0000   1.0000   1.0000   1.0000   1.0000   1.0000

          k = 0.1910 0.1895-0.1948 (  5449 PWs)   bands (ev):

   -65.8285 -65.6670 -64.6323 -64.1519 -32.8181 -32.7815 -32.7704 -32.6693
   -32.6538 -32.5746 -31.6514 -31.6060 -31.5621 -31.1543 -31.1274 -31.1154
   -30.3762 -29.8383 -29.5349 -28.4950 -12.0612 -11.9009 -11.7800 -11.7554
   -11.2620 -11.2056 -10.9647 -10.8224 -10.6458 -10.3057 -10.2024 -10.1230
    -8.3624  -7.8241  -7.7629  -7.6134  -7.4124  -7.0011  -6.9472  -6.8411
     3.5105   4.2297   4.2896   4.8635   4.9457   5.0505   5.2375   5.9022
     5.9949   6.0689   6.1878   6.2462   6.3786   6.4566   6.5127   6.5984
     6.7006   6.7765   6.8683   7.0018   7.0734   7.0962   7.2300   7.4316

     occupation numbers 
     1.0000   1.0000   1.0000   1.0000   1.0000   1.0000   1.0000   1.0000
     1.0000   1.0000   1.0000   1.0000   1.0000   1.0000   1.0000   1.0000
     1.0000   1.0000   1.0000   1.0000   1.0000   1.0000   1.0000   1.0000
     1.0000   1.0000   1.0000   1.0000   1.0000   1.0000   1.0000   1.0000
     1.0000   1.0000   1.0000   1.0000   1.0000   1.0000   1.0000   1.0000
     1.0000   1.0000   1.0000   1.0000   1.0000   1.0000   1.0000   1.0000
     1.0000   1.0000   1.0000   1.0000   1.0000   1.0000   1.0000   1.0000
     1.0000   1.0000   1.0000   1.0000   1.0000   1.0000   1.0000   1.0000

          k =-0.3819-0.3789 0.3895 (  5480 PWs)   bands (ev):

   -65.8285 -65.6670 -64.6323 -64.1519 -32.8181 -32.7815 -32.7704 -32.6694
   -32.6538 -32.5745 -31.6514 -31.6061 -31.5619 -31.1544 -31.1275 -31.1155
   -30.3736 -29.8403 -29.5355 -28.4952 -11.9043 -11.8281 -11.7661 -11.7049
   -11.3933 -11.2766 -11.0645 -10.8284 -10.6464 -10.3426 -10.3058 -10.1551
    -7.9914  -7.8967  -7.6501  -7.5432  -7.4061  -7.1313  -7.0250  -6.9786
     4.1485   4.3565   4.7116   4.7716   5.0979   5.3075   5.3783   5.6122
     5.8096   5.9183   6.0135   6.0492   6.1474   6.2691   6.3406   6.4628
     6.6357   6.7382   6.7693   6.8816   6.9627   7.0554   7.0940   7.1885

     occupation numbers 
     1.0000   1.0000   1.0000   1.0000   1.0000   1.0000   1.0000   1.0000
     1.0000   1.0000   1.0000   1.0000   1.0000   1.0000   1.0000   1.0000
     1.0000   1.0000   1.0000   1.0000   1.0000   1.0000   1.0000   1.0000
     1.0000   1.0000   1.0000   1.0000   1.0000   1.0000   1.0000   1.0000
     1.0000   1.0000   1.0000   1.0000   1.0000   1.0000   1.0000   1.0000
     1.0000   1.0000   1.0000   1.0000   1.0000   1.0000   1.0000   1.0000
     1.0000   1.0000   1.0000   1.0000   1.0000   1.0000   1.0000   1.0000
     1.0000   1.0000   1.0000   1.0000   1.0000   1.0000   1.0000   1.0000

          k = 0.1829-0.1928 0.1833 (  5462 PWs)   bands (ev):

   -65.8285 -65.6670 -64.6323 -64.1519 -32.8180 -32.7815 -32.7704 -32.6694
   -32.6537 -32.5746 -31.6515 -31.6060 -31.5623 -31.1543 -31.1272 -31.1154
   -30.3775 -29.8347 -29.5373 -28.4945 -12.1273 -11.9274 -11.7835 -11.7426
   -11.2254 -11.0797 -10.9655 -10.8607 -10.7618 -10.2908 -10.1604 -10.0485
    -8.3661  -7.8905  -7.7883  -7.6517  -7.3390  -7.0139  -6.9453  -6.8185
     3.4827   4.1637   4.3336   4.7341   4.8815   4.9790   5.2327   5.8537
     6.0555   6.0990   6.2317   6.2936   6.3796   6.4886   6.5995   6.6795
     6.7238   6.7874   6.8966   6.9513   6.9933   7.1367   7.3110   7.4866

     occupation numbers 
     1.0000   1.0000   1.0000   1.0000   1.0000   1.0000   1.0000   1.0000
     1.0000   1.0000   1.0000   1.0000   1.0000   1.0000   1.0000   1.0000
     1.0000   1.0000   1.0000   1.0000   1.0000   1.0000   1.0000   1.0000
     1.0000   1.0000   1.0000   1.0000   1.0000   1.0000   1.0000   1.0000
     1.0000   1.0000   1.0000   1.0000   1.0000   1.0000   1.0000   1.0000
     1.0000   1.0000   1.0000   1.0000   1.0000   1.0000   1.0000   1.0000
     1.0000   1.0000   1.0000   1.0000   1.0000   1.0000   1.0000   1.0000
     1.0000   1.0000   1.0000   1.0000   1.0000   1.0000   1.0000   1.0000

          k = 0.3738-0.0033-0.0114 (  5457 PWs)   bands (ev):

   -65.8285 -65.6670 -64.6323 -64.1519 -32.8181 -32.7816 -32.7704 -32.6693
   -32.6538 -32.5746 -31.6514 -31.6060 -31.5621 -31.1543 -31.1274 -31.1155
   -30.3769 -29.8361 -29.5362 -28.4950 -12.0866 -11.9454 -11.7695 -11.7128
   -11.2454 -11.1760 -10.8787 -10.8651 -10.7558 -10.3013 -10.1809 -10.1133
    -8.3349  -7.8820  -7.6896  -7.6494  -7.3977  -6.9779  -6.9221  -6.9097
     3.6017   4.2282   4.3370   4.8161   4.9580   5.0466   5.2167   5.8659
     5.9621   6.0994   6.1931   6.2640   6.3682   6.4376   6.4839   6.5342
     6.6680   6.6996   6.7822   6.9065   6.9879   7.1273   7.3586   7.5630

     occupation numbers 
     1.0000   1.0000   1.0000   1.0000   1.0000   1.0000   1.0000   1.0000
     1.0000   1.0000   1.0000   1.0000   1.0000   1.0000   1.0000   1.0000
     1.0000   1.0000   1.0000   1.0000   1.0000   1.0000   1.0000   1.0000
     1.0000   1.0000   1.0000   1.0000   1.0000   1.0000   1.0000   1.0000
     1.0000   1.0000   1.0000   1.0000   1.0000   1.0000   1.0000   1.0000
     1.0000   1.0000   1.0000   1.0000   1.0000   1.0000   1.0000   1.0000
     1.0000   1.0000   1.0000   1.0000   1.0000   1.0000   1.0000   1.0000
     1.0000   1.0000   1.0000   1.0000   1.0000   1.0000   1.0000   1.0000

          k =-0.1991-0.5717 0.5729 (  5470 PWs)   bands (ev):

   -65.8285 -65.6670 -64.6323 -64.1519 -32.8181 -32.7815 -32.7704 -32.6693
   -32.6538 -32.5745 -31.6514 -31.6061 -31.5619 -31.1543 -31.1276 -31.1156
   -30.3743 -29.8380 -29.5368 -28.4952 -11.9662 -11.8588 -11.7247 -11.7037
   -11.3849 -11.2346 -10.9685 -10.8756 -10.7527 -10.2931 -10.2679 -10.1411
    -8.0820  -7.8541  -7.7267  -7.5691  -7.5000  -7.0265  -6.9838  -6.9110
     4.1575   4.4722   4.6818   4.7571   5.1314   5.2796   5.3521   5.5952
     5.7007   5.7183   5.8485   6.0407   6.2010   6.3018   6.4164   6.4909
     6.6028   6.7058   6.8568   6.8850   6.9682   7.0580   7.1389   7.2809

     occupation numbers 
     1.0000   1.0000   1.0000   1.0000   1.0000   1.0000   1.0000   1.0000
     1.0000   1.0000   1.0000   1.0000   1.0000   1.0000   1.0000   1.0000
     1.0000   1.0000   1.0000   1.0000   1.0000   1.0000   1.0000   1.0000
     1.0000   1.0000   1.0000   1.0000   1.0000   1.0000   1.0000   1.0000
     1.0000   1.0000   1.0000   1.0000   1.0000   1.0000   1.0000   1.0000
     1.0000   1.0000   1.0000   1.0000   1.0000   1.0000   1.0000   1.0000
     1.0000   1.0000   1.0000   1.0000   1.0000   1.0000   1.0000   1.0000
     1.0000   1.0000   1.0000   1.0000   1.0000   1.0000   1.0000   1.0000

          k =-0.0081-0.3823 0.3781 (  5447 PWs)   bands (ev):

   -65.8285 -65.6670 -64.6323 -64.1519 -32.8181 -32.7815 -32.7704 -32.6694
   -32.6538 -32.5746 -31.6515 -31.6061 -31.5621 -31.1544 -31.1274 -31.1155
   -30.3750 -29.8366 -29.5379 -28.4947 -12.0162 -11.8486 -11.7492 -11.7313
   -11.2562 -11.2216 -11.0621 -10.8760 -10.7555 -10.2930 -10.1864 -10.1200
    -8.1317  -7.9273  -7.7421  -7.5665  -7.4046  -7.1186  -7.0171  -6.7938
     3.8915   4.5076   4.6378   4.7432   4.9340   5.1582   5.4214   5.5595
     5.7076   5.9782   6.0221   6.1439   6.2989   6.3609   6.4839   6.5412
     6.6426   6.7108   6.7585   6.9298   6.9783   7.0429   7.1174   7.3194

     occupation numbers 
     1.0000   1.0000   1.0000   1.0000   1.0000   1.0000   1.0000   1.0000
     1.0000   1.0000   1.0000   1.0000   1.0000   1.0000   1.0000   1.0000
     1.0000   1.0000   1.0000   1.0000   1.0000   1.0000   1.0000   1.0000
     1.0000   1.0000   1.0000   1.0000   1.0000   1.0000   1.0000   1.0000
     1.0000   1.0000   1.0000   1.0000   1.0000   1.0000   1.0000   1.0000
     1.0000   1.0000   1.0000   1.0000   1.0000   1.0000   1.0000   1.0000
     1.0000   1.0000   1.0000   1.0000   1.0000   1.0000   1.0000   1.0000
     1.0000   1.0000   1.0000   1.0000   1.0000   1.0000   1.0000   1.0000

          k =-0.3657 0.3856-0.3666 (  5472 PWs)   bands (ev):

   -65.8285 -65.6670 -64.6323 -64.1519 -32.8180 -32.7815 -32.7704 -32.6694
   -32.6538 -32.5746 -31.6516 -31.6061 -31.5623 -31.1544 -31.1272 -31.1155
   -30.3763 -29.8329 -29.5404 -28.4942 -12.1032 -11.8568 -11.7715 -11.6726
   -11.2037 -11.1044 -11.0518 -10.9113 -10.8972 -10.3051 -10.1718 -10.0611
    -8.0919  -7.8789  -7.6954  -7.5684  -7.4583  -7.0886  -7.0169  -6.9160
     3.9822   4.3381   4.6338   4.7626   4.8828   5.0093   5.5049   5.6851
     5.7542   5.9443   6.0728   6.1400   6.2212   6.2459   6.4580   6.5944
     6.6592   6.8230   6.8652   6.9085   6.9351   7.0697   7.1508   7.3113

     occupation numbers 
     1.0000   1.0000   1.0000   1.0000   1.0000   1.0000   1.0000   1.0000
     1.0000   1.0000   1.0000   1.0000   1.0000   1.0000   1.0000   1.0000
     1.0000   1.0000   1.0000   1.0000   1.0000   1.0000   1.0000   1.0000
     1.0000   1.0000   1.0000   1.0000   1.0000   1.0000   1.0000   1.0000
     1.0000   1.0000   1.0000   1.0000   1.0000   1.0000   1.0000   1.0000
     1.0000   1.0000   1.0000   1.0000   1.0000   1.0000   1.0000   1.0000
     1.0000   1.0000   1.0000   1.0000   1.0000   1.0000   1.0000   1.0000
     1.0000   1.0000   1.0000   1.0000   1.0000   1.0000   1.0000   1.0000

          k =-0.1748 0.5751-0.5614 (  5461 PWs)   bands (ev):

   -65.8285 -65.6670 -64.6323 -64.1519 -32.8181 -32.7815 -32.7704 -32.6694
   -32.6538 -32.5746 -31.6515 -31.6061 -31.5622 -31.1544 -31.1274 -31.1155
   -30.3757 -29.8344 -29.5392 -28.4947 -12.0320 -11.9198 -11.7557 -11.6613
   -11.2397 -11.1671 -10.9710 -10.9162 -10.8816 -10.2833 -10.1754 -10.1176
    -8.0380  -7.9653  -7.7641  -7.5915  -7.4469  -7.0281  -6.9838  -6.8799
     4.0853   4.4131   4.7096   4.7436   4.9741   5.0458   5.4952   5.6398
     5.7191   5.8170   5.8966   5.9601   6.1992   6.3322   6.4618   6.5307
     6.6452   6.7664   6.8449   6.9307   7.0125   7.0793   7.1650   7.2879

     occupation numbers 
     1.0000   1.0000   1.0000   1.0000   1.0000   1.0000   1.0000   1.0000
     1.0000   1.0000   1.0000   1.0000   1.0000   1.0000   1.0000   1.0000
     1.0000   1.0000   1.0000   1.0000   1.0000   1.0000   1.0000   1.0000
     1.0000   1.0000   1.0000   1.0000   1.0000   1.0000   1.0000   1.0000
     1.0000   1.0000   1.0000   1.0000   1.0000   1.0000   1.0000   1.0000
     1.0000   1.0000   1.0000   1.0000   1.0000   1.0000   1.0000   1.0000
     1.0000   1.0000   1.0000   1.0000   1.0000   1.0000   1.0000   1.0000
     1.0000   1.0000   1.0000   1.0000   1.0000   1.0000   1.0000   1.0000

          k =-0.7477 0.0067 0.0229 (  5448 PWs)   bands (ev):

   -65.8285 -65.6670 -64.6323 -64.1519 -32.8181 -32.7816 -32.7704 -32.6693
   -32.6538 -32.5745 -31.6514 -31.6061 -31.5620 -31.1543 -31.1276 -31.1156
   -30.3750 -29.8358 -29.5381 -28.4952 -12.0285 -11.8727 -11.7341 -11.6413
   -11.3824 -11.1818 -10.9329 -10.8879 -10.8486 -10.2629 -10.2266 -10.1262
    -8.1090  -7.9210  -7.7830  -7.6245  -7.4836  -6.9721  -6.9396  -6.8527
     4.2425   4.3868   4.6233   4.9630   5.1346   5.2630   5.4254   5.4670
     5.5126   5.7702   5.9057   5.9966   6.0965   6.1695   6.3136   6.3860
     6.5813   6.7175   6.8295   6.8902   7.0395   7.1481   7.2482   7.4822

     occupation numbers 
     1.0000   1.0000   1.0000   1.0000   1.0000   1.0000   1.0000   1.0000
     1.0000   1.0000   1.0000   1.0000   1.0000   1.0000   1.0000   1.0000
     1.0000   1.0000   1.0000   1.0000   1.0000   1.0000   1.0000   1.0000
     1.0000   1.0000   1.0000   1.0000   1.0000   1.0000   1.0000   1.0000
     1.0000   1.0000   1.0000   1.0000   1.0000   1.0000   1.0000   1.0000
     1.0000   1.0000   1.0000   1.0000   1.0000   1.0000   1.0000   1.0000
     1.0000   1.0000   1.0000   1.0000   1.0000   1.0000   1.0000   1.0000
     1.0000   1.0000   1.0000   1.0000   1.0000   1.0000   1.0000   1.0000

          k =-0.1943 0.1797 0.1817 (  5456 PWs)   bands (ev):

   -65.8285 -65.6670 -64.6323 -64.1519 -32.8181 -32.7816 -32.7704 -32.6693
   -32.6538 -32.5746 -31.6514 -31.6060 -31.5621 -31.1543 -31.1273 -31.1154
   -30.3769 -29.8365 -29.5363 -28.4947 -12.0862 -11.9305 -11.7608 -11.7322
   -11.2582 -11.1910 -10.8802 -10.8501 -10.7538 -10.3074 -10.2077 -10.0557
    -8.3732  -7.8312  -7.7616  -7.6083  -7.4183  -7.0045  -6.9525  -6.8252
     3.5017   4.2235   4.2616   4.7973   4.9364   5.0260   5.2063   5.9006
     5.9752   6.0595   6.1938   6.2455   6.3780   6.4575   6.5380   6.6664
     6.7464   6.8454   6.8942   6.9696   7.0345   7.0822   7.2652   7.5487

     occupation numbers 
     1.0000   1.0000   1.0000   1.0000   1.0000   1.0000   1.0000   1.0000
     1.0000   1.0000   1.0000   1.0000   1.0000   1.0000   1.0000   1.0000
     1.0000   1.0000   1.0000   1.0000   1.0000   1.0000   1.0000   1.0000
     1.0000   1.0000   1.0000   1.0000   1.0000   1.0000   1.0000   1.0000
     1.0000   1.0000   1.0000   1.0000   1.0000   1.0000   1.0000   1.0000
     1.0000   1.0000   1.0000   1.0000   1.0000   1.0000   1.0000   1.0000
     1.0000   1.0000   1.0000   1.0000   1.0000   1.0000   1.0000   1.0000
     1.0000   1.0000   1.0000   1.0000   1.0000   1.0000   1.0000   1.0000

          k =-0.0033 0.3692-0.0131 (  5456 PWs)   bands (ev):

   -65.8285 -65.6670 -64.6323 -64.1519 -32.8181 -32.7815 -32.7704 -32.6693
   -32.6537 -32.5745 -31.6515 -31.6061 -31.5623 -31.1543 -31.1272 -31.1154
   -30.3774 -29.8345 -29.5372 -28.4951 -12.1220 -11.9136 -11.7542 -11.7260
   -11.2018 -11.0772 -10.9789 -10.8836 -10.7606 -10.3110 -10.1720 -10.1396
    -8.3635  -7.8914  -7.7845  -7.5236  -7.3629  -7.0606  -6.9664  -6.7944
     3.5612   4.2221   4.3711   4.7880   4.9586   5.0988   5.2578   5.7824
     5.8769   5.9378   6.0846   6.2550   6.3530   6.3992   6.5532   6.5876
     6.6671   6.8499   6.9412   7.0351   7.0429   7.1495   7.3062   7.5129

     occupation numbers 
     1.0000   1.0000   1.0000   1.0000   1.0000   1.0000   1.0000   1.0000
     1.0000   1.0000   1.0000   1.0000   1.0000   1.0000   1.0000   1.0000
     1.0000   1.0000   1.0000   1.0000   1.0000   1.0000   1.0000   1.0000
     1.0000   1.0000   1.0000   1.0000   1.0000   1.0000   1.0000   1.0000
     1.0000   1.0000   1.0000   1.0000   1.0000   1.0000   1.0000   1.0000
     1.0000   1.0000   1.0000   1.0000   1.0000   1.0000   1.0000   1.0000
     1.0000   1.0000   1.0000   1.0000   1.0000   1.0000   1.0000   1.0000
     1.0000   1.0000   1.0000   1.0000   1.0000   1.0000   1.0000   1.0000

          k =-0.5762-0.1992 0.5712 (  5462 PWs)   bands (ev):

   -65.8285 -65.6670 -64.6323 -64.1519 -32.8181 -32.7815 -32.7704 -32.6694
   -32.6538 -32.5745 -31.6515 -31.6061 -31.5621 -31.1544 -31.1274 -31.1155
   -30.3748 -29.8364 -29.5378 -28.4953 -12.0099 -11.8328 -11.7179 -11.6996
   -11.2448 -11.2166 -11.0753 -10.8976 -10.7610 -10.3092 -10.2659 -10.1735
    -8.0951  -7.8488  -7.7160  -7.5642  -7.3861  -7.0871  -7.0079  -6.9157
     4.0819   4.5727   4.6409   4.7487   5.1823   5.2441   5.4859   5.5065
     5.6289   5.6946   5.8038   5.9892   6.2616   6.3552   6.4482   6.4986
     6.6512   6.7074   6.7872   6.9150   7.0102   7.1095   7.1440   7.2307

     occupation numbers 
     1.0000   1.0000   1.0000   1.0000   1.0000   1.0000   1.0000   1.0000
     1.0000   1.0000   1.0000   1.0000   1.0000   1.0000   1.0000   1.0000
     1.0000   1.0000   1.0000   1.0000   1.0000   1.0000   1.0000   1.0000
     1.0000   1.0000   1.0000   1.0000   1.0000   1.0000   1.0000   1.0000
     1.0000   1.0000   1.0000   1.0000   1.0000   1.0000   1.0000   1.0000
     1.0000   1.0000   1.0000   1.0000   1.0000   1.0000   1.0000   1.0000
     1.0000   1.0000   1.0000   1.0000   1.0000   1.0000   1.0000   1.0000
     1.0000   1.0000   1.0000   1.0000   1.0000   1.0000   1.0000   1.0000

          k =-0.3853-0.0097 0.3764 (  5460 PWs)   bands (ev):

   -65.8285 -65.6670 -64.6323 -64.1519 -32.8181 -32.7815 -32.7704 -32.6693
   -32.6538 -32.5745 -31.6514 -31.6061 -31.5619 -31.1543 -31.1275 -31.1155
   -30.3743 -29.8384 -29.5368 -28.4949 -11.9660 -11.8395 -11.7261 -11.6954
   -11.3858 -11.2737 -10.9755 -10.8739 -10.7510 -10.3186 -10.2249 -10.1488
    -8.1067  -7.8025  -7.6843  -7.6052  -7.4474  -7.1058  -6.9629  -6.9317
     3.9833   4.4638   4.5916   4.7591   5.0890   5.1111   5.3719   5.5922
     5.8471   5.9820   6.0597   6.1592   6.1995   6.3875   6.4688   6.5698
     6.6038   6.6785   6.7483   6.8039   6.8913   6.9794   7.0625   7.4376

     occupation numbers 
     1.0000   1.0000   1.0000   1.0000   1.0000   1.0000   1.0000   1.0000
     1.0000   1.0000   1.0000   1.0000   1.0000   1.0000   1.0000   1.0000
     1.0000   1.0000   1.0000   1.0000   1.0000   1.0000   1.0000   1.0000
     1.0000   1.0000   1.0000   1.0000   1.0000   1.0000   1.0000   1.0000
     1.0000   1.0000   1.0000   1.0000   1.0000   1.0000   1.0000   1.0000
     1.0000   1.0000   1.0000   1.0000   1.0000   1.0000   1.0000   1.0000
     1.0000   1.0000   1.0000   1.0000   1.0000   1.0000   1.0000   1.0000
     1.0000   1.0000   1.0000   1.0000   1.0000   1.0000   1.0000   1.0000

          k =-0.0114-0.0131 0.3650 (  5443 PWs)   bands (ev):

   -65.8285 -65.6670 -64.6323 -64.1519 -32.8181 -32.7816 -32.7704 -32.6693
   -32.6538 -32.5746 -31.6515 -31.6060 -31.5621 -31.1543 -31.1274 -31.1155
   -30.3761 -29.8385 -29.5349 -28.4947 -12.0625 -11.8876 -11.8101 -11.7405
   -11.2963 -11.2120 -10.9715 -10.8178 -10.6464 -10.2850 -10.2184 -10.0440
    -8.3277  -7.9429  -7.7312  -7.6748  -7.3708  -7.0963  -6.9094  -6.7416
     3.5817   4.2167   4.3083   4.7862   4.8882   5.0407   5.2085   5.8122
     6.0609   6.1185   6.2035   6.3010   6.3816   6.4316   6.5127   6.6168
     6.6651   6.7366   6.8033   6.8900   7.0122   7.0313   7.4237   7.5465

     occupation numbers 
     1.0000   1.0000   1.0000   1.0000   1.0000   1.0000   1.0000   1.0000
     1.0000   1.0000   1.0000   1.0000   1.0000   1.0000   1.0000   1.0000
     1.0000   1.0000   1.0000   1.0000   1.0000   1.0000   1.0000   1.0000
     1.0000   1.0000   1.0000   1.0000   1.0000   1.0000   1.0000   1.0000
     1.0000   1.0000   1.0000   1.0000   1.0000   1.0000   1.0000   1.0000
     1.0000   1.0000   1.0000   1.0000   1.0000   1.0000   1.0000   1.0000
     1.0000   1.0000   1.0000   1.0000   1.0000   1.0000   1.0000   1.0000
     1.0000   1.0000   1.0000   1.0000   1.0000   1.0000   1.0000   1.0000

          k = 0.1795 0.1764 0.1702 (  5451 PWs)   bands (ev):

   -65.8285 -65.6670 -64.6323 -64.1519 -32.8181 -32.7816 -32.7704 -32.6693
   -32.6537 -32.5745 -31.6515 -31.6060 -31.5623 -31.1543 -31.1272 -31.1154
   -30.3785 -29.8361 -29.5342 -28.4953 -12.1575 -11.9534 -11.7803 -11.7673
   -11.2224 -11.0756 -10.8772 -10.8143 -10.6449 -10.3194 -10.2087 -10.1799
    -8.3718  -7.8577  -7.7696  -7.6313  -7.3323  -7.0198  -6.9609  -6.8330
     3.4737   4.1428   4.2807   4.6527   4.9084   4.9700   5.1669   5.7602
     5.9373   6.0700   6.1330   6.3424   6.4443   6.5383   6.6096   6.7401
     6.7988   6.8620   6.9072   7.0179   7.0676   7.1416   7.4449   7.5371

     occupation numbers 
     1.0000   1.0000   1.0000   1.0000   1.0000   1.0000   1.0000   1.0000
     1.0000   1.0000   1.0000   1.0000   1.0000   1.0000   1.0000   1.0000
     1.0000   1.0000   1.0000   1.0000   1.0000   1.0000   1.0000   1.0000
     1.0000   1.0000   1.0000   1.0000   1.0000   1.0000   1.0000   1.0000
     1.0000   1.0000   1.0000   1.0000   1.0000   1.0000   1.0000   1.0000
     1.0000   1.0000   1.0000   1.0000   1.0000   1.0000   1.0000   1.0000
     1.0000   1.0000   1.0000   1.0000   1.0000   1.0000   1.0000   1.0000
     1.0000   1.0000   1.0000   1.0000   1.0000   1.0000   1.0000   1.0000

          k =-0.3934-0.3920 0.7545 (  5441 PWs)   bands (ev):

   -65.8285 -65.6670 -64.6323 -64.1519 -32.8181 -32.7816 -32.7705 -32.6693
   -32.6538 -32.5745 -31.6515 -31.6061 -31.5621 -31.1543 -31.1274 -31.1155
   -30.3759 -29.8380 -29.5348 -28.4956 -12.0541 -11.8863 -11.7518 -11.7369
   -11.2531 -11.1987 -10.9782 -10.8238 -10.6462 -10.3510 -10.3092 -10.1640
    -8.1684  -7.8617  -7.6650  -7.5147  -7.4181  -7.0971  -6.9983  -6.9377
     3.9036   4.4851   4.5823   4.6434   5.0031   5.1688   5.3566   5.4404
     5.6383   5.8869   5.9524   6.1901   6.3481   6.4583   6.5074   6.5956
     6.6271   6.7943   6.8232   6.9225   7.0227   7.1512   7.2511   7.2824

     occupation numbers 
     1.0000   1.0000   1.0000   1.0000   1.0000   1.0000   1.0000   1.0000
     1.0000   1.0000   1.0000   1.0000   1.0000   1.0000   1.0000   1.0000
     1.0000   1.0000   1.0000   1.0000   1.0000   1.0000   1.0000   1.0000
     1.0000   1.0000   1.0000   1.0000   1.0000   1.0000   1.0000   1.0000
     1.0000   1.0000   1.0000   1.0000   1.0000   1.0000   1.0000   1.0000
     1.0000   1.0000   1.0000   1.0000   1.0000   1.0000   1.0000   1.0000
     1.0000   1.0000   1.0000   1.0000   1.0000   1.0000   1.0000   1.0000
     1.0000   1.0000   1.0000   1.0000   1.0000   1.0000   1.0000   1.0000

          k =-0.2024-0.2026 0.5598 (  5455 PWs)   bands (ev):

   -65.8285 -65.6670 -64.6323 -64.1519 -32.8181 -32.7815 -32.7705 -32.6694
   -32.6538 -32.5746 -31.6515 -31.6061 -31.5619 -31.1544 -31.1275 -31.1156
   -30.3735 -29.8404 -29.5355 -28.4949 -11.9059 -11.8215 -11.7840 -11.6936
   -11.3978 -11.3242 -11.0813 -10.8278 -10.6473 -10.3211 -10.2021 -10.1455
    -8.0112  -7.9239  -7.7752  -7.6085  -7.4557  -7.0737  -6.9765  -6.8464
     4.1368   4.4883   4.6552   4.7014   5.0661   5.2120   5.4565   5.5860
     5.6784   5.7941   5.8555   6.1224   6.2317   6.3127   6.3783   6.5391
     6.6206   6.7103   6.7555   6.8988   6.9765   7.0523   7.1144   7.3550

     occupation numbers 
     1.0000   1.0000   1.0000   1.0000   1.0000   1.0000   1.0000   1.0000
     1.0000   1.0000   1.0000   1.0000   1.0000   1.0000   1.0000   1.0000
     1.0000   1.0000   1.0000   1.0000   1.0000   1.0000   1.0000   1.0000
     1.0000   1.0000   1.0000   1.0000   1.0000   1.0000   1.0000   1.0000
     1.0000   1.0000   1.0000   1.0000   1.0000   1.0000   1.0000   1.0000
     1.0000   1.0000   1.0000   1.0000   1.0000   1.0000   1.0000   1.0000
     1.0000   1.0000   1.0000   1.0000   1.0000   1.0000   1.0000   1.0000
     1.0000   1.0000   1.0000   1.0000   1.0000   1.0000   1.0000   1.0000

          k =-0.5600 0.5653-0.1850 (  5470 PWs)   bands (ev):

   -65.8285 -65.6670 -64.6323 -64.1519 -32.8180 -32.7815 -32.7704 -32.6694
   -32.6538 -32.5746 -31.6515 -31.6061 -31.5621 -31.1544 -31.1274 -31.1156
   -30.3749 -29.8368 -29.5379 -28.4944 -12.0162 -11.8425 -11.7536 -11.7250
   -11.2948 -11.2285 -11.0770 -10.8647 -10.7558 -10.3039 -10.1794 -10.0569
    -8.0385  -7.9496  -7.7943  -7.6236  -7.4552  -7.0569  -6.9745  -6.8254
     4.0605   4.4411   4.6127   4.7629   4.9241   5.0474   5.4908   5.6250
     5.6645   5.8162   5.9610   6.1030   6.2585   6.3816   6.4435   6.5469
     6.6644   6.7410   6.8250   6.8576   6.9629   7.0633   7.2198   7.3362

     occupation numbers 
     1.0000   1.0000   1.0000   1.0000   1.0000   1.0000   1.0000   1.0000
     1.0000   1.0000   1.0000   1.0000   1.0000   1.0000   1.0000   1.0000
     1.0000   1.0000   1.0000   1.0000   1.0000   1.0000   1.0000   1.0000
     1.0000   1.0000   1.0000   1.0000   1.0000   1.0000   1.0000   1.0000
     1.0000   1.0000   1.0000   1.0000   1.0000   1.0000   1.0000   1.0000
     1.0000   1.0000   1.0000   1.0000   1.0000   1.0000   1.0000   1.0000
     1.0000   1.0000   1.0000   1.0000   1.0000   1.0000   1.0000   1.0000
     1.0000   1.0000   1.0000   1.0000   1.0000   1.0000   1.0000   1.0000

          k =-0.3691 0.7548-0.3797 (  5453 PWs)   bands (ev):

   -65.8285 -65.6670 -64.6323 -64.1519 -32.8181 -32.7815 -32.7704 -32.6694
   -32.6537 -32.5746 -31.6515 -31.6061 -31.5623 -31.1543 -31.1272 -31.1155
   -30.3773 -29.8343 -29.5372 -28.4951 -12.1228 -11.9143 -11.7617 -11.7086
   -11.2185 -11.0788 -10.9717 -10.8745 -10.7648 -10.3132 -10.2173 -10.1661
    -8.1051  -7.9384  -7.6681  -7.6334  -7.3501  -7.1218  -6.9586  -6.9202
     3.8989   4.3783   4.4993   4.6208   4.8231   5.0113   5.4341   5.5234
     5.8978   5.9419   6.1401   6.2126   6.3532   6.4005   6.4935   6.5832
     6.6205   6.7103   6.8395   6.9261   6.9725   7.1552   7.3016   7.4062

     occupation numbers 
     1.0000   1.0000   1.0000   1.0000   1.0000   1.0000   1.0000   1.0000
     1.0000   1.0000   1.0000   1.0000   1.0000   1.0000   1.0000   1.0000
     1.0000   1.0000   1.0000   1.0000   1.0000   1.0000   1.0000   1.0000
     1.0000   1.0000   1.0000   1.0000   1.0000   1.0000   1.0000   1.0000
     1.0000   1.0000   1.0000   1.0000   1.0000   1.0000   1.0000   1.0000
     1.0000   1.0000   1.0000   1.0000   1.0000   1.0000   1.0000   1.0000
     1.0000   1.0000   1.0000   1.0000   1.0000   1.0000   1.0000   1.0000
     1.0000   1.0000   1.0000   1.0000   1.0000   1.0000   1.0000   1.0000

          k =-0.9420 0.1864 0.2046 (  5445 PWs)   bands (ev):

   -65.8285 -65.6670 -64.6323 -64.1519 -32.8181 -32.7816 -32.7705 -32.6693
   -32.6538 -32.5745 -31.6514 -31.6061 -31.5621 -31.1543 -31.1274 -31.1155
   -30.3766 -29.8358 -29.5361 -28.4956 -12.0816 -11.9269 -11.7513 -11.6978
   -11.2405 -11.1611 -10.8801 -10.8727 -10.7576 -10.3047 -10.2681 -10.2022
    -8.0355  -7.9696  -7.7431  -7.5847  -7.3817  -7.0379  -7.0105  -6.9013
     4.1022   4.3731   4.5733   4.6889   4.9330   5.1535   5.3953   5.4552
     5.6373   5.7114   6.0315   6.1692   6.2070   6.3472   6.4197   6.5364
     6.7104   6.7938   6.9168   6.9625   7.0564   7.1124   7.2191   7.4119

     occupation numbers 
     1.0000   1.0000   1.0000   1.0000   1.0000   1.0000   1.0000   1.0000
     1.0000   1.0000   1.0000   1.0000   1.0000   1.0000   1.0000   1.0000
     1.0000   1.0000   1.0000   1.0000   1.0000   1.0000   1.0000   1.0000
     1.0000   1.0000   1.0000   1.0000   1.0000   1.0000   1.0000   1.0000
     1.0000   1.0000   1.0000   1.0000   1.0000   1.0000   1.0000   1.0000
     1.0000   1.0000   1.0000   1.0000   1.0000   1.0000   1.0000   1.0000
     1.0000   1.0000   1.0000   1.0000   1.0000   1.0000   1.0000   1.0000
     1.0000   1.0000   1.0000   1.0000   1.0000   1.0000   1.0000   1.0000

          k =-0.7510 0.3759 0.0098 (  5471 PWs)   bands (ev):

   -65.8285 -65.6670 -64.6323 -64.1519 -32.8181 -32.7815 -32.7705 -32.6694
   -32.6538 -32.5746 -31.6514 -31.6061 -31.5619 -31.1544 -31.1276 -31.1156
   -30.3742 -29.8382 -29.5368 -28.4949 -11.9638 -11.8456 -11.7500 -11.6997
   -11.3870 -11.2808 -10.9819 -10.8613 -10.7497 -10.3052 -10.1806 -10.1261
    -7.9834  -7.9452  -7.8662  -7.5636  -7.4806  -7.0852  -6.9637  -6.7978
     4.3748   4.5727   4.5842   4.7170   5.1306   5.2388   5.3097   5.3863
     5.4612   5.5516   6.0105   6.0786   6.2053   6.3400   6.4104   6.5274
     6.6363   6.7313   6.8175   6.9082   7.0448   7.1335   7.1885   7.2172

     occupation numbers 
     1.0000   1.0000   1.0000   1.0000   1.0000   1.0000   1.0000   1.0000
     1.0000   1.0000   1.0000   1.0000   1.0000   1.0000   1.0000   1.0000
     1.0000   1.0000   1.0000   1.0000   1.0000   1.0000   1.0000   1.0000
     1.0000   1.0000   1.0000   1.0000   1.0000   1.0000   1.0000   1.0000
     1.0000   1.0000   1.0000   1.0000   1.0000   1.0000   1.0000   1.0000
     1.0000   1.0000   1.0000   1.0000   1.0000   1.0000   1.0000   1.0000
     1.0000   1.0000   1.0000   1.0000   1.0000   1.0000   1.0000   1.0000
     1.0000   1.0000   1.0000   1.0000   1.0000   1.0000   1.0000   1.0000

          k =-0.3772 0.3725-0.0016 (  5467 PWs)   bands (ev):

   -65.8285 -65.6670 -64.6323 -64.1519 -32.8181 -32.7815 -32.7704 -32.6694
   -32.6538 -32.5746 -31.6515 -31.6060 -31.5621 -31.1544 -31.1274 -31.1155
   -30.3757 -29.8347 -29.5393 -28.4944 -12.0320 -11.9081 -11.7309 -11.6789
   -11.2479 -11.1905 -10.9824 -10.9097 -10.8813 -10.3209 -10.1672 -10.0668
    -8.1529  -7.8703  -7.7355  -7.5680  -7.4020  -7.0897  -6.9708  -6.9128
     3.8998   4.4918   4.6190   4.6853   4.9470   5.1063   5.4943   5.5247
     5.6933   5.9371   6.0246   6.1412   6.2716   6.3121   6.4887   6.5857
     6.6748   6.7755   6.8255   6.9236   6.9540   7.0911   7.1814   7.3215

     occupation numbers 
     1.0000   1.0000   1.0000   1.0000   1.0000   1.0000   1.0000   1.0000
     1.0000   1.0000   1.0000   1.0000   1.0000   1.0000   1.0000   1.0000
     1.0000   1.0000   1.0000   1.0000   1.0000   1.0000   1.0000   1.0000
     1.0000   1.0000   1.0000   1.0000   1.0000   1.0000   1.0000   1.0000
     1.0000   1.0000   1.0000   1.0000   1.0000   1.0000   1.0000   1.0000
     1.0000   1.0000   1.0000   1.0000   1.0000   1.0000   1.0000   1.0000
     1.0000   1.0000   1.0000   1.0000   1.0000   1.0000   1.0000   1.0000
     1.0000   1.0000   1.0000   1.0000   1.0000   1.0000   1.0000   1.0000

          k =-0.1862 0.5620-0.1964 (  5455 PWs)   bands (ev):

   -65.8285 -65.6670 -64.6323 -64.1519 -32.8180 -32.7815 -32.7704 -32.6694
   -32.6538 -32.5745 -31.6516 -31.6061 -31.5623 -31.1544 -31.1272 -31.1154
   -30.3762 -29.8327 -29.5403 -28.4948 -12.0978 -11.8452 -11.7393 -11.6538
   -11.1864 -11.1115 -11.0546 -10.9472 -10.8925 -10.2980 -10.1809 -10.1442
    -8.1265  -7.8871  -7.6922  -7.5868  -7.4142  -7.0705  -7.0025  -6.8867
     4.0223   4.5028   4.5694   4.8373   5.0206   5.0536   5.4810   5.5874
     5.6889   5.8023   5.9104   5.9810   6.2283   6.2944   6.4356   6.5610
     6.7178   6.7483   6.8230   6.9055   6.9974   7.1428   7.1826   7.3253

     occupation numbers 
     1.0000   1.0000   1.0000   1.0000   1.0000   1.0000   1.0000   1.0000
     1.0000   1.0000   1.0000   1.0000   1.0000   1.0000   1.0000   1.0000
     1.0000   1.0000   1.0000   1.0000   1.0000   1.0000   1.0000   1.0000
     1.0000   1.0000   1.0000   1.0000   1.0000   1.0000   1.0000   1.0000
     1.0000   1.0000   1.0000   1.0000   1.0000   1.0000   1.0000   1.0000
     1.0000   1.0000   1.0000   1.0000   1.0000   1.0000   1.0000   1.0000
     1.0000   1.0000   1.0000   1.0000   1.0000   1.0000   1.0000   1.0000
     1.0000   1.0000   1.0000   1.0000   1.0000   1.0000   1.0000   1.0000

          k =-0.7591-0.0064 0.3879 (  5466 PWs)   bands (ev):

   -65.8285 -65.6670 -64.6323 -64.1519 -32.8181 -32.7815 -32.7704 -32.6694
   -32.6538 -32.5745 -31.6515 -31.6061 -31.5622 -31.1544 -31.1274 -31.1155
   -30.3756 -29.8342 -29.5391 -28.4953 -12.0283 -11.9006 -11.7271 -11.6406
   -11.2330 -11.1529 -10.9765 -10.9375 -10.8817 -10.2822 -10.2317 -10.2024
    -8.0502  -7.8550  -7.7520  -7.5901  -7.4482  -7.0993  -6.9776  -6.8526
     4.3280   4.5295   4.6300   4.7298   5.1541   5.2093   5.3634   5.4681
     5.5349   5.6878   5.7770   6.0741   6.1301   6.3336   6.5041   6.5563
     6.5869   6.7123   6.8001   6.8971   6.9852   7.0947   7.1376   7.3520

     occupation numbers 
     1.0000   1.0000   1.0000   1.0000   1.0000   1.0000   1.0000   1.0000
     1.0000   1.0000   1.0000   1.0000   1.0000   1.0000   1.0000   1.0000
     1.0000   1.0000   1.0000   1.0000   1.0000   1.0000   1.0000   1.0000
     1.0000   1.0000   1.0000   1.0000   1.0000   1.0000   1.0000   1.0000
     1.0000   1.0000   1.0000   1.0000   1.0000   1.0000   1.0000   1.0000
     1.0000   1.0000   1.0000   1.0000   1.0000   1.0000   1.0000   1.0000
     1.0000   1.0000   1.0000   1.0000   1.0000   1.0000   1.0000   1.0000
     1.0000   1.0000   1.0000   1.0000   1.0000   1.0000   1.0000   1.0000

          k =-0.5681 0.1831 0.1931 (  5462 PWs)   bands (ev):

   -65.8285 -65.6670 -64.6323 -64.1519 -32.8181 -32.7815 -32.7704 -32.6693
   -32.6538 -32.5746 -31.6514 -31.6061 -31.5620 -31.1543 -31.1275 -31.1156
   -30.3751 -29.8361 -29.5381 -28.4950 -12.0241 -11.8567 -11.7106 -11.6621
   -11.3817 -11.2163 -10.9239 -10.8891 -10.8503 -10.2984 -10.2125 -10.1338
    -8.0869  -7.8219  -7.7801  -7.5829  -7.4723  -7.0277  -7.0035  -6.8854
     4.1452   4.4661   4.5848   4.7496   5.0763   5.2716   5.4100   5.5150
     5.6401   5.8064   5.9128   6.0215   6.1507   6.3145   6.3911   6.5432
     6.6131   6.7625   6.8293   6.8725   6.9907   7.1019   7.1516   7.4204

     occupation numbers 
     1.0000   1.0000   1.0000   1.0000   1.0000   1.0000   1.0000   1.0000
     1.0000   1.0000   1.0000   1.0000   1.0000   1.0000   1.0000   1.0000
     1.0000   1.0000   1.0000   1.0000   1.0000   1.0000   1.0000   1.0000
     1.0000   1.0000   1.0000   1.0000   1.0000   1.0000   1.0000   1.0000
     1.0000   1.0000   1.0000   1.0000   1.0000   1.0000   1.0000   1.0000
     1.0000   1.0000   1.0000   1.0000   1.0000   1.0000   1.0000   1.0000
     1.0000   1.0000   1.0000   1.0000   1.0000   1.0000   1.0000   1.0000
     1.0000   1.0000   1.0000   1.0000   1.0000   1.0000   1.0000   1.0000

          k = 0.3886-0.3594-0.3634 (  5468 PWs)   bands (ev):

   -65.8285 -65.6670 -64.6323 -64.1519 -32.8181 -32.7815 -32.7704 -32.6693
   -32.6538 -32.5746 -31.6514 -31.6060 -31.5619 -31.1543 -31.1275 -31.1156
   -30.3751 -29.8365 -29.5382 -28.4947 -12.0196 -11.8426 -11.6923 -11.6725
   -11.3822 -11.2470 -10.9109 -10.8886 -10.8547 -10.3518 -10.2550 -10.0715
    -8.0683  -7.8065  -7.6709  -7.5440  -7.4452  -7.1196  -7.0628  -6.9227
     4.1204   4.3061   4.6068   4.7866   5.0255   5.1762   5.4343   5.4909
     5.7906   5.9228   6.0031   6.0464   6.1596   6.2854   6.3860   6.6045
     6.6716   6.7687   6.8654   6.8784   7.0413   7.0933   7.1644   7.2807

     occupation numbers 
     1.0000   1.0000   1.0000   1.0000   1.0000   1.0000   1.0000   1.0000
     1.0000   1.0000   1.0000   1.0000   1.0000   1.0000   1.0000   1.0000
     1.0000   1.0000   1.0000   1.0000   1.0000   1.0000   1.0000   1.0000
     1.0000   1.0000   1.0000   1.0000   1.0000   1.0000   1.0000   1.0000
     1.0000   1.0000   1.0000   1.0000   1.0000   1.0000   1.0000   1.0000
     1.0000   1.0000   1.0000   1.0000   1.0000   1.0000   1.0000   1.0000
     1.0000   1.0000   1.0000   1.0000   1.0000   1.0000   1.0000   1.0000
     1.0000   1.0000   1.0000   1.0000   1.0000   1.0000   1.0000   1.0000

          k = 0.5796-0.1700-0.5581 (  5468 PWs)   bands (ev):

   -65.8285 -65.6670 -64.6323 -64.1519 -32.8181 -32.7815 -32.7704 -32.6694
   -32.6538 -32.5745 -31.6514 -31.6061 -31.5621 -31.1544 -31.1274 -31.1155
   -30.3756 -29.8345 -29.5392 -28.4951 -12.0281 -11.8900 -11.6990 -11.6567
   -11.2387 -11.1844 -10.9910 -10.9376 -10.8768 -10.3283 -10.2128 -10.1473
    -8.1190  -7.8295  -7.7033  -7.5849  -7.3930  -7.0801  -7.0286  -6.8911
     4.0683   4.5369   4.6386   4.7162   5.1076   5.1885   5.4196   5.5035
     5.6018   5.7060   5.8423   6.0998   6.3085   6.3742   6.4547   6.5573
     6.6152   6.6992   6.8346   6.9017   6.9768   7.1378   7.2218   7.2789

     occupation numbers 
     1.0000   1.0000   1.0000   1.0000   1.0000   1.0000   1.0000   1.0000
     1.0000   1.0000   1.0000   1.0000   1.0000   1.0000   1.0000   1.0000
     1.0000   1.0000   1.0000   1.0000   1.0000   1.0000   1.0000   1.0000
     1.0000   1.0000   1.0000   1.0000   1.0000   1.0000   1.0000   1.0000
     1.0000   1.0000   1.0000   1.0000   1.0000   1.0000   1.0000   1.0000
     1.0000   1.0000   1.0000   1.0000   1.0000   1.0000   1.0000   1.0000
     1.0000   1.0000   1.0000   1.0000   1.0000   1.0000   1.0000   1.0000
     1.0000   1.0000   1.0000   1.0000   1.0000   1.0000   1.0000   1.0000

          k = 0.0067-0.7384 0.0262 (  5450 PWs)   bands (ev):

   -65.8284 -65.6670 -64.6323 -64.1519 -32.8181 -32.7815 -32.7704 -32.6694
   -32.6538 -32.5745 -31.6515 -31.6061 -31.5623 -31.1544 -31.1272 -31.1154
   -30.3761 -29.8325 -29.5402 -28.4955 -12.0935 -11.8328 -11.7025 -11.6354
   -11.1659 -11.1233 -11.0535 -10.9726 -10.8979 -10.3129 -10.2254 -10.1749
    -8.1426  -7.9209  -7.6898  -7.6045  -7.3590  -7.0566  -6.9879  -6.8593
     4.1073   4.4557   4.5886   5.0410   5.2030   5.2894   5.3749   5.4997
     5.5403   5.7075   5.7394   5.9190   6.1240   6.2203   6.2680   6.4425
     6.6480   6.8277   6.8715   6.9101   7.0786   7.1944   7.2818   7.3779

     occupation numbers 
     1.0000   1.0000   1.0000   1.0000   1.0000   1.0000   1.0000   1.0000
     1.0000   1.0000   1.0000   1.0000   1.0000   1.0000   1.0000   1.0000
     1.0000   1.0000   1.0000   1.0000   1.0000   1.0000   1.0000   1.0000
     1.0000   1.0000   1.0000   1.0000   1.0000   1.0000   1.0000   1.0000
     1.0000   1.0000   1.0000   1.0000   1.0000   1.0000   1.0000   1.0000
     1.0000   1.0000   1.0000   1.0000   1.0000   1.0000   1.0000   1.0000
     1.0000   1.0000   1.0000   1.0000   1.0000   1.0000   1.0000   1.0000
     1.0000   1.0000   1.0000   1.0000   1.0000   1.0000   1.0000   1.0000

          k = 0.5715-0.5523-0.1800 (  5462 PWs)   bands (ev):

   -65.8285 -65.6670 -64.6323 -64.1519 -32.8181 -32.7815 -32.7705 -32.6693
   -32.6538 -32.5746 -31.6514 -31.6060 -31.5619 -31.1543 -31.1275 -31.1156
   -30.3742 -29.8385 -29.5369 -28.4946 -11.9628 -11.8295 -11.7620 -11.6755
   -11.3884 -11.3149 -10.9902 -10.8558 -10.7508 -10.3313 -10.2154 -10.0601
    -8.0397  -7.9263  -7.7449  -7.6256  -7.4550  -7.0731  -6.9860  -6.8309
     4.1160   4.4905   4.6178   4.6647   5.0669   5.1575   5.3681   5.5285
     5.6371   5.8169   5.9645   6.1058   6.2641   6.3199   6.4492   6.5581
     6.6793   6.7081   6.7876   6.9436   6.9678   7.0519   7.1275   7.3965

     occupation numbers 
     1.0000   1.0000   1.0000   1.0000   1.0000   1.0000   1.0000   1.0000
     1.0000   1.0000   1.0000   1.0000   1.0000   1.0000   1.0000   1.0000
     1.0000   1.0000   1.0000   1.0000   1.0000   1.0000   1.0000   1.0000
     1.0000   1.0000   1.0000   1.0000   1.0000   1.0000   1.0000   1.0000
     1.0000   1.0000   1.0000   1.0000   1.0000   1.0000   1.0000   1.0000
     1.0000   1.0000   1.0000   1.0000   1.0000   1.0000   1.0000   1.0000
     1.0000   1.0000   1.0000   1.0000   1.0000   1.0000   1.0000   1.0000
     1.0000   1.0000   1.0000   1.0000   1.0000   1.0000   1.0000   1.0000

          k = 0.7624-0.3628-0.3748 (  5447 PWs)   bands (ev):

   -65.8285 -65.6670 -64.6323 -64.1519 -32.8181 -32.7816 -32.7705 -32.6693
   -32.6538 -32.5745 -31.6514 -31.6061 -31.5621 -31.1543 -31.1274 -31.1155
   -30.3767 -29.8361 -29.5361 -28.4953 -12.0808 -11.9143 -11.7434 -11.7111
   -11.2525 -11.1839 -10.8813 -10.8627 -10.7520 -10.3399 -10.2598 -10.1443
    -8.1704  -7.8953  -7.7047  -7.5491  -7.3827  -7.1240  -7.0564  -6.7950
     3.8729   4.4552   4.5455   4.6381   4.9060   5.1105   5.3176   5.4135
     5.7008   5.8705   6.0456   6.2023   6.3946   6.4350   6.4558   6.5961
     6.7039   6.7817   6.9022   6.9763   7.0781   7.1366   7.2530   7.3505

     occupation numbers 
     1.0000   1.0000   1.0000   1.0000   1.0000   1.0000   1.0000   1.0000
     1.0000   1.0000   1.0000   1.0000   1.0000   1.0000   1.0000   1.0000
     1.0000   1.0000   1.0000   1.0000   1.0000   1.0000   1.0000   1.0000
     1.0000   1.0000   1.0000   1.0000   1.0000   1.0000   1.0000   1.0000
     1.0000   1.0000   1.0000   1.0000   1.0000   1.0000   1.0000   1.0000
     1.0000   1.0000   1.0000   1.0000   1.0000   1.0000   1.0000   1.0000
     1.0000   1.0000   1.0000   1.0000   1.0000   1.0000   1.0000   1.0000
     1.0000   1.0000   1.0000   1.0000   1.0000   1.0000   1.0000   1.0000

          k = 0.1895-0.9312 0.2095 (  5456 PWs)   bands (ev):

   -65.8285 -65.6670 -64.6323 -64.1519 -32.8181 -32.7815 -32.7705 -32.6693
   -32.6537 -32.5745 -31.6515 -31.6061 -31.5623 -31.1544 -31.1272 -31.1155
   -30.3772 -29.8341 -29.5371 -28.4957 -12.1185 -11.9010 -11.7251 -11.6944
   -11.1926 -11.0749 -10.9858 -10.8927 -10.7689 -10.3347 -10.2677 -10.2178
    -8.1550  -7.8453  -7.6720  -7.5615  -7.3874  -7.0740  -7.0326  -6.9069
     4.0177   4.4778   4.5547   4.6804   4.9964   5.0968   5.3295   5.4889
     5.6678   5.7189   5.9447   6.0164   6.3423   6.3900   6.5034   6.5820
     6.6310   6.7646   6.9465   6.9962   7.0522   7.2137   7.2338   7.3311

     occupation numbers 
     1.0000   1.0000   1.0000   1.0000   1.0000   1.0000   1.0000   1.0000
     1.0000   1.0000   1.0000   1.0000   1.0000   1.0000   1.0000   1.0000
     1.0000   1.0000   1.0000   1.0000   1.0000   1.0000   1.0000   1.0000
     1.0000   1.0000   1.0000   1.0000   1.0000   1.0000   1.0000   1.0000
     1.0000   1.0000   1.0000   1.0000   1.0000   1.0000   1.0000   1.0000
     1.0000   1.0000   1.0000   1.0000   1.0000   1.0000   1.0000   1.0000
     1.0000   1.0000   1.0000   1.0000   1.0000   1.0000   1.0000   1.0000
     1.0000   1.0000   1.0000   1.0000   1.0000   1.0000   1.0000   1.0000

          k = 0.3805-0.7417 0.0147 (  5467 PWs)   bands (ev):

   -65.8285 -65.6670 -64.6323 -64.1519 -32.8181 -32.7815 -32.7705 -32.6694
   -32.6538 -32.5745 -31.6515 -31.6061 -31.5621 -31.1544 -31.1274 -31.1155
   -30.3747 -29.8366 -29.5379 -28.4950 -12.0101 -11.8267 -11.7222 -11.6897
   -11.2853 -11.2289 -11.0921 -10.8890 -10.7576 -10.3377 -10.1861 -10.1624
    -8.0204  -7.8547  -7.7638  -7.6016  -7.4412  -7.0483  -6.9725  -6.9331
     4.3892   4.5056   4.5765   4.7475   5.0410   5.1698   5.3376   5.5047
     5.5841   5.6604   5.9303   6.0117   6.2703   6.3498   6.4761   6.5557
     6.6278   6.7063   6.7777   6.8869   6.9862   7.0672   7.0913   7.3554

     occupation numbers 
     1.0000   1.0000   1.0000   1.0000   1.0000   1.0000   1.0000   1.0000
     1.0000   1.0000   1.0000   1.0000   1.0000   1.0000   1.0000   1.0000
     1.0000   1.0000   1.0000   1.0000   1.0000   1.0000   1.0000   1.0000
     1.0000   1.0000   1.0000   1.0000   1.0000   1.0000   1.0000   1.0000
     1.0000   1.0000   1.0000   1.0000   1.0000   1.0000   1.0000   1.0000
     1.0000   1.0000   1.0000   1.0000   1.0000   1.0000   1.0000   1.0000
     1.0000   1.0000   1.0000   1.0000   1.0000   1.0000   1.0000   1.0000
     1.0000   1.0000   1.0000   1.0000   1.0000   1.0000   1.0000   1.0000

          k = 0.0229 0.0262-0.7300 (  5474 PWs)   bands (ev):

   -65.8285 -65.6670 -64.6323 -64.1519 -32.8181 -32.7815 -32.7705 -32.6694
   -32.6538 -32.5746 -31.6515 -31.6061 -31.5619 -31.1544 -31.1275 -31.1157
   -30.3734 -29.8406 -29.5355 -28.4946 -11.9065 -11.8379 -11.7826 -11.6762
   -11.4025 -11.3659 -11.0975 -10.8270 -10.6479 -10.3090 -10.1796 -10.0476
    -8.1187  -7.8919  -7.8296  -7.6778  -7.5014  -7.0255  -6.9339  -6.7488
     4.1868   4.3716   4.6032   4.9172   5.0829   5.1803   5.3347   5.4011
     5.5511   5.8435   6.0253   6.1145   6.2049   6.2852   6.3152   6.4910
     6.5669   6.6883   6.8234   6.8559   6.9469   7.0685   7.3431   7.4976

     occupation numbers 
     1.0000   1.0000   1.0000   1.0000   1.0000   1.0000   1.0000   1.0000
     1.0000   1.0000   1.0000   1.0000   1.0000   1.0000   1.0000   1.0000
     1.0000   1.0000   1.0000   1.0000   1.0000   1.0000   1.0000   1.0000
     1.0000   1.0000   1.0000   1.0000   1.0000   1.0000   1.0000   1.0000
     1.0000   1.0000   1.0000   1.0000   1.0000   1.0000   1.0000   1.0000
     1.0000   1.0000   1.0000   1.0000   1.0000   1.0000   1.0000   1.0000
     1.0000   1.0000   1.0000   1.0000   1.0000   1.0000   1.0000   1.0000
     1.0000   1.0000   1.0000   1.0000   1.0000   1.0000   1.0000   1.0000

          k = 0.2139 0.2156-0.9248 (  5444 PWs)   bands (ev):

   -65.8285 -65.6670 -64.6323 -64.1519 -32.8181 -32.7816 -32.7705 -32.6693
   -32.6538 -32.5745 -31.6515 -31.6061 -31.5621 -31.1543 -31.1274 -31.1156
   -30.3758 -29.8381 -29.5348 -28.4953 -12.0552 -11.8748 -11.7833 -11.7172
   -11.2901 -11.2100 -10.9866 -10.8197 -10.6469 -10.3426 -10.2262 -10.1716
    -8.0196  -7.9658  -7.7788  -7.6128  -7.3944  -7.0766  -6.9924  -6.8428
     4.0800   4.4300   4.5218   4.6390   4.8823   5.1017   5.4254   5.4512
     5.5986   5.8212   5.9683   6.1970   6.2803   6.4175   6.4951   6.6019
     6.6754   6.7957   6.8931   6.9568   7.0384   7.0972   7.1993   7.3989

     occupation numbers 
     1.0000   1.0000   1.0000   1.0000   1.0000   1.0000   1.0000   1.0000
     1.0000   1.0000   1.0000   1.0000   1.0000   1.0000   1.0000   1.0000
     1.0000   1.0000   1.0000   1.0000   1.0000   1.0000   1.0000   1.0000
     1.0000   1.0000   1.0000   1.0000   1.0000   1.0000   1.0000   1.0000
     1.0000   1.0000   1.0000   1.0000   1.0000   1.0000   1.0000   1.0000
     1.0000   1.0000   1.0000   1.0000   1.0000   1.0000   1.0000   1.0000
     1.0000   1.0000   1.0000   1.0000   1.0000   1.0000   1.0000   1.0000
     1.0000   1.0000   1.0000   1.0000   1.0000   1.0000   1.0000   1.0000

          k =-0.3590-0.3528-0.3405 (  5438 PWs)   bands (ev):

   -65.8285 -65.6670 -64.6323 -64.1519 -32.8181 -32.7816 -32.7705 -32.6693
   -32.6537 -32.5745 -31.6515 -31.6061 -31.5623 -31.1543 -31.1272 -31.1155
   -30.3782 -29.8357 -29.5341 -28.4959 -12.1530 -11.9411 -11.7478 -11.7434
   -11.2042 -11.0724 -10.8787 -10.8139 -10.6450 -10.3682 -10.3302 -10.2604
    -8.0853  -7.8978  -7.6433  -7.5460  -7.2838  -7.1573  -7.0752  -6.9597
     4.0176   4.2088   4.5697   4.6528   4.7440   5.0463   5.2438   5.5681
     5.7789   5.8508   5.9851   6.0660   6.2156   6.4815   6.5711   6.6718
     6.7755   6.8558   6.9512   7.1059   7.1203   7.2243   7.2803   7.2944

     occupation numbers 
     1.0000   1.0000   1.0000   1.0000   1.0000   1.0000   1.0000   1.0000
     1.0000   1.0000   1.0000   1.0000   1.0000   1.0000   1.0000   1.0000
     1.0000   1.0000   1.0000   1.0000   1.0000   1.0000   1.0000   1.0000
     1.0000   1.0000   1.0000   1.0000   1.0000   1.0000   1.0000   1.0000
     1.0000   1.0000   1.0000   1.0000   1.0000   1.0000   1.0000   1.0000
     1.0000   1.0000   1.0000   1.0000   1.0000   1.0000   1.0000   1.0000
     1.0000   1.0000   1.0000   1.0000   1.0000   1.0000   1.0000   1.0000
     1.0000   1.0000   1.0000   1.0000   1.0000   1.0000   1.0000   1.0000

     highest occupied level (ev):     7.6527

!    total energy              =   -1059.56914473 Ry
     Harris-Foulkes estimate   =   -1059.56914473 Ry
     estimated scf accuracy    <          3.5E-11 Ry

     The total energy is the sum of the following terms:

     one-electron contribution =    -484.43223962 Ry
     hartree contribution      =     290.89247193 Ry
     xc contribution           =    -172.86793535 Ry
     ewald contribution        =    -693.16144170 Ry

     convergence has been achieved in  21 iterations

     Forces acting on atoms (Ry/au):

     atom    1 type  2   force =  -0.24258871E-01  0.89869285E-02  0.42505011E-01
     atom    2 type  3   force =  -0.49524856E-01 -0.75199505E-01 -0.28823873E-01
     atom    3 type  1   force =   0.62641133E-01 -0.79848391E-02 -0.24323055E-01
     atom    4 type  3   force =   0.42530996E-01 -0.31447373E-01  0.80423533E-02
     atom    5 type  1   force =   0.76912381E-01 -0.31347041E-01  0.15214095E-01
     atom    6 type  3   force =   0.35800625E-01  0.12327018E-01 -0.26781550E-01
     atom    7 type  2   force =  -0.24739829E-01  0.17035190E-01 -0.11530802E-01
     atom    8 type  3   force =   0.12323904E-01 -0.73060723E-01 -0.31025787E-01
     atom    9 type  1   force =  -0.47863940E-01  0.51907166E-01 -0.53546561E-02
     atom   10 type  3   force =  -0.14351644E-01  0.25425976E-03  0.15813358E-01
     atom   11 type  1   force =  -0.32314966E-02  0.28377964E-01 -0.71226559E-01
     atom   12 type  3   force =  -0.39826797E-01  0.39932210E-01  0.38408977E-01
     atom   13 type  2   force =   0.33835552E-01 -0.62044944E-02 -0.20875563E-01
     atom   14 type  3   force =  -0.22926887E-01 -0.30205277E-01  0.28580391E-02
     atom   15 type  2   force =  -0.58254266E-01  0.56101094E-01  0.60270694E-02
     atom   16 type  3   force =   0.20933996E-01  0.40527422E-01  0.91072941E-01
     The non-local contrib.  to forces
     atom    1 type  2   force =   0.83249705E-01  0.15819378E-01  0.26759191E+00
     atom    2 type  3   force =  -0.89752441E-01 -0.14746826E+00 -0.69588585E-01
     atom    3 type  1   force =  -0.28874751E-02  0.17191064E-01 -0.22973669E-01
     atom    4 type  3   force =   0.18018082E+00  0.14029374E-01  0.89756560E-01
     atom    5 type  1   force =   0.27452207E-01  0.28848095E-01  0.41148687E-01
     atom    6 type  3   force =   0.21975859E+00  0.13370320E+00 -0.55370045E-01
     atom    7 type  2   force =  -0.41093468E-01  0.13934911E+00  0.42745638E-01
     atom    8 type  3   force =  -0.67032457E-01 -0.21548043E+00 -0.15325633E+00
     atom    9 type  1   force =   0.15449977E-01  0.40778000E-01 -0.26800954E-01
     atom   10 type  3   force =  -0.86557355E-01  0.22652363E-01  0.13167248E-01
     atom   11 type  1   force =  -0.35466453E-01  0.15521240E-01 -0.24705355E-01
     atom   12 type  3   force =  -0.61956327E-02  0.20128638E+00  0.18977478E-01
     atom   13 type  2   force =   0.13868304E+00  0.21390434E+00 -0.23638267E+00
     atom   14 type  3   force =  -0.10400483E-01 -0.31875344E-02  0.17980307E+00
     atom   15 type  2   force =  -0.12797956E+00  0.54671023E-01 -0.43010087E-02
     atom   16 type  3   force =  -0.12968415E+00  0.10811898E+00  0.11238976E+00
     The ionic contribution  to forces
     atom    1 type  2   force =  -0.88703648E+00 -0.96696119E+00  0.30712401E+01
     atom    2 type  3   force =  -0.14902903E+01 -0.11361857E+01 -0.17869037E+01
     atom    3 type  1   force =   0.20106604E+01  0.61818039E-01 -0.20732251E+01
     atom    4 type  3   force =  -0.30673504E+00 -0.50166030E+00 -0.11987676E+01
     atom    5 type  1   force =   0.24488741E+01 -0.66515460E+00  0.94627439E+00
     atom    6 type  3   force =   0.50072429E+00 -0.96604368E+00  0.45310656E+00
     atom    7 type  2   force =  -0.84790789E+00  0.18331388E+01 -0.70941462E-01
     atom    8 type  3   force =   0.19557076E+01 -0.24995873E+01 -0.16735854E+00
     atom    9 type  1   force =  -0.19431372E+01  0.19987696E+01 -0.32124083E+00
     atom   10 type  3   force =   0.54337979E+00  0.11133922E+01  0.86996202E+00
     atom   11 type  1   force =   0.41078366E+00  0.88297377E+00 -0.11551628E+01
     atom   12 type  3   force =  -0.38458834E+01 -0.23876508E+00  0.12775974E+00
     atom   13 type  2   force =   0.18666581E+01  0.16758686E+01 -0.14868116E+01
     atom   14 type  3   force =  -0.18688122E+01 -0.26953298E+01 -0.19308831E+01
     atom   15 type  2   force =  -0.21868988E+01  0.72608081E+00  0.47136633E+00
     atom   16 type  3   force =   0.36399135E+01  0.13776458E+01  0.42515856E+01
     The local contribution  to forces
     atom    1 type  2   force =   0.77952466E+00  0.96012997E+00 -0.32963312E+01
     atom    2 type  3   force =   0.15295936E+01  0.12066051E+01  0.18272529E+01
     atom    3 type  1   force =  -0.19444095E+01 -0.87619045E-01  0.20719097E+01
     atom    4 type  3   force =   0.17014852E+00  0.45522628E+00  0.11174150E+01
     atom    5 type  1   force =  -0.23990045E+01  0.60426441E+00 -0.97287220E+00
     atom    6 type  3   force =  -0.68353517E+00  0.84526143E+00 -0.42543841E+00
     atom    7 type  2   force =   0.86426115E+00 -0.19554557E+01  0.16666598E-01
     atom    8 type  3   force =  -0.18762748E+01  0.26401733E+01  0.28855630E+00
     atom    9 type  1   force =   0.18788658E+01 -0.19878959E+01  0.34353635E+00
     atom   10 type  3   force =  -0.47169100E+00 -0.11360902E+01 -0.86705068E+00
     atom   11 type  1   force =  -0.37793795E+00 -0.87005520E+00  0.11075402E+01
     atom   12 type  3   force =   0.38116620E+01  0.78827590E-01 -0.10726567E+00
     atom   13 type  2   force =  -0.19715051E+01 -0.18959811E+01  0.17023202E+01
     atom   14 type  3   force =   0.18558025E+01  0.26678023E+01  0.17545128E+01
     atom   15 type  2   force =   0.22566268E+01 -0.72465304E+00 -0.46103428E+00
     atom   16 type  3   force =  -0.34894397E+01 -0.14441534E+01 -0.42710524E+01
     The core correction contribution to forces
     atom    1 type  2   force =   0.00000000E+00  0.00000000E+00  0.00000000E+00
     atom    2 type  3   force =   0.92318676E-03  0.18487614E-02  0.41581382E-03
     atom    3 type  1   force =  -0.72209033E-03  0.62721835E-03 -0.32473792E-04
     atom    4 type  3   force =  -0.10640790E-02  0.95787968E-03 -0.36182156E-03
     atom    5 type  1   force =  -0.40686848E-03  0.69428583E-03  0.66473234E-03
     atom    6 type  3   force =  -0.11472633E-02 -0.59368400E-03  0.92135650E-03
     atom    7 type  2   force =   0.00000000E+00  0.00000000E+00  0.00000000E+00
     atom    8 type  3   force =  -0.75111440E-04  0.18335546E-02  0.10337294E-02
     atom    9 type  1   force =   0.95674680E-03  0.25833198E-03 -0.84905475E-03
     atom   10 type  3   force =   0.51795613E-03  0.30048591E-03 -0.26502739E-03
     atom   11 type  1   force =  -0.61137186E-03 -0.61854337E-04  0.10989214E-02
     atom   12 type  3   force =   0.58901275E-03 -0.14160330E-02 -0.10628297E-02
     atom   13 type  2   force =   0.00000000E+00  0.00000000E+00  0.00000000E+00
     atom   14 type  3   force =   0.48302864E-03  0.50798880E-03 -0.57543790E-03
     atom   15 type  2   force =   0.00000000E+00  0.00000000E+00  0.00000000E+00
     atom   16 type  3   force =   0.14778825E-03 -0.10833023E-02 -0.18471427E-02
     The Hubbard contrib.    to forces
     atom    1 type  2   force =   0.00000000E+00  0.00000000E+00  0.00000000E+00
     atom    2 type  3   force =   0.00000000E+00  0.00000000E+00  0.00000000E+00
     atom    3 type  1   force =   0.00000000E+00  0.00000000E+00  0.00000000E+00
     atom    4 type  3   force =   0.00000000E+00  0.00000000E+00  0.00000000E+00
     atom    5 type  1   force =   0.00000000E+00  0.00000000E+00  0.00000000E+00
     atom    6 type  3   force =   0.00000000E+00  0.00000000E+00  0.00000000E+00
     atom    7 type  2   force =   0.00000000E+00  0.00000000E+00  0.00000000E+00
     atom    8 type  3   force =   0.00000000E+00  0.00000000E+00  0.00000000E+00
     atom    9 type  1   force =   0.00000000E+00  0.00000000E+00  0.00000000E+00
     atom   10 type  3   force =   0.00000000E+00  0.00000000E+00  0.00000000E+00
     atom   11 type  1   force =   0.00000000E+00  0.00000000E+00  0.00000000E+00
     atom   12 type  3   force =   0.00000000E+00  0.00000000E+00  0.00000000E+00
     atom   13 type  2   force =   0.00000000E+00  0.00000000E+00  0.00000000E+00
     atom   14 type  3   force =   0.00000000E+00  0.00000000E+00  0.00000000E+00
     atom   15 type  2   force =   0.00000000E+00  0.00000000E+00  0.00000000E+00
     atom   16 type  3   force =   0.00000000E+00  0.00000000E+00  0.00000000E+00
     The SCF correction term to forces
     atom    1 type  2   force =   0.35208979E-05 -0.57778912E-06  0.44806668E-05
     atom    2 type  3   force =   0.14640630E-05  0.12100593E-05  0.59778457E-07
     atom    3 type  1   force =   0.14173609E-06 -0.14657918E-05 -0.12396931E-05
     atom    4 type  3   force =   0.10613522E-05  0.33045466E-07  0.53582443E-06
     atom    5 type  1   force =  -0.22814688E-05  0.14176334E-05 -0.12158604E-05
     atom    6 type  3   force =   0.45380368E-06  0.39771189E-06 -0.72048066E-06
     atom    7 type  2   force =   0.66069192E-06  0.35990857E-05 -0.12819957E-05
     atom    8 type  3   force =  -0.10391818E-05  0.77549996E-06 -0.65163065E-06
     atom    9 type  1   force =   0.99289989E-06 -0.22571225E-05  0.12457932E-06
     atom   10 type  3   force =  -0.75851041E-06  0.12523890E-06  0.96743734E-07
     atom   11 type  1   force =   0.90740712E-06  0.66424237E-06  0.28107014E-05
     atom   12 type  3   force =   0.15127938E-05  0.31780612E-09  0.55619284E-06
     atom   13 type  2   force =  -0.18916225E-06  0.43169423E-05 -0.11693197E-05
     atom   14 type  3   force =   0.58418676E-06  0.24620629E-05  0.99438578E-06
     atom   15 type  2   force =  -0.23404064E-05  0.29539182E-05 -0.36727607E-05
     atom   16 type  3   force =  -0.30784605E-05  0.33316166E-07 -0.26281011E-05

     Total force =     0.267688     Total SCF correction =     0.000013


     entering subroutine stress ...

          total   stress  (Ry/bohr**3)                   (kbar)     P=   20.77
   0.0001478112  -0.0002144256  -0.0004194156         21.74    -31.54    -61.70
  -0.0002144256   0.0001092271  -0.0004613147        -31.54     16.07    -67.86
  -0.0004194156  -0.0004613147   0.0001665993        -61.70    -67.86     24.51

     kinetic stress (kbar)  20487.28    -16.88    -24.21
                              -16.88  20499.86    -42.00
                              -24.21    -42.00  20502.96

     local   stress (kbar)  -5087.22     48.48    509.97
                               48.48  -3955.64   -317.85
                              509.97   -317.85  -2909.64

     nonloc. stress (kbar)   5189.79      2.94      1.25
                                2.94   5175.56      2.68
                                1.25      2.68   5176.79

     hartree stress (kbar)  11594.03     -8.33   -271.61
                               -8.33  11170.49    101.49
                             -271.61    101.49  10741.83

     exc-cor stress (kbar)  -5195.83      0.16      0.46
                                0.16  -5196.50      0.98
                                0.46      0.98  -5196.89

     corecor stress (kbar)  -1031.01      0.06      0.04
                                0.06  -1030.98      0.12
                                0.04      0.12  -1030.99

     ewald   stress (kbar) -25935.29    -57.96   -277.61
                              -57.96 -26646.72    186.72
                             -277.61    186.72 -27259.55

     hubbard stress (kbar)      0.00      0.00      0.00
                                0.00      0.00      0.00
                                0.00      0.00      0.00

     london  stress (kbar)      0.00      0.00      0.00
                                0.00      0.00      0.00
                                0.00      0.00      0.00

     XDM     stress (kbar)      0.00      0.00      0.00
                                0.00      0.00      0.00
                                0.00      0.00      0.00

     dft-nl  stress (kbar)      0.00      0.00      0.00
                                0.00      0.00      0.00
                                0.00      0.00      0.00



     Writing output data file mix.dummy25575.save

     init_run     :     20.43s CPU     21.03s WALL (       1 calls)
     electrons    :    865.23s CPU    914.30s WALL (       1 calls)
     forces       :      6.14s CPU      6.49s WALL (       1 calls)
     stress       :     13.70s CPU     13.83s WALL (       1 calls)

     Called by init_run:
     wfcinit      :     16.59s CPU     17.18s WALL (       1 calls)
     potinit      :      0.73s CPU      0.73s WALL (       1 calls)

     Called by electrons:
     c_bands      :    751.76s CPU    795.41s WALL (      21 calls)
     sum_band     :    104.55s CPU    109.94s WALL (      21 calls)
     v_of_rho     :      1.12s CPU      1.12s WALL (      22 calls)
     v_h          :      0.10s CPU      0.08s WALL (      22 calls)
     v_xc         :      1.12s CPU      1.14s WALL (      24 calls)
     newd         :      6.10s CPU      6.10s WALL (      22 calls)
     mix_rho      :      1.93s CPU      1.94s WALL (      21 calls)

     Called by c_bands:
     init_us_2    :      3.46s CPU      3.49s WALL (    1620 calls)
     cegterg      :    722.27s CPU    765.07s WALL (     756 calls)

     Called by sum_band:
     sum_band:bec :      1.04s CPU      1.10s WALL (     756 calls)
     addusdens    :      5.67s CPU      5.81s WALL (      21 calls)

     Called by *egterg:
     h_psi        :    405.17s CPU    417.95s WALL (    2236 calls)
     s_psi        :     32.89s CPU     32.74s WALL (    2236 calls)
     g_psi        :      0.40s CPU      0.38s WALL (    1444 calls)
     cdiaghg      :     89.49s CPU     99.64s WALL (    2200 calls)
     cegterg:over :    100.65s CPU    110.76s WALL (    1444 calls)
     cegterg:upda :     11.99s CPU     14.82s WALL (    1444 calls)
     cegterg:last :      7.76s CPU      8.16s WALL (     756 calls)

     Called by h_psi:
     h_psi:vloc   :    279.27s CPU    282.24s WALL (    2236 calls)
     h_psi:vnl    :    125.22s CPU    135.03s WALL (    2236 calls)
     add_vuspsi   :     34.03s CPU     35.41s WALL (    2236 calls)

     General routines
     calbec       :    130.19s CPU    143.47s WALL (    3064 calls)
     fft          :      2.72s CPU      2.82s WALL (     373 calls)
     ffts         :      1.15s CPU      1.18s WALL (     567 calls)
     fftw         :    322.64s CPU    326.41s WALL (  280056 calls)
     interpolate  :      0.24s CPU      0.25s WALL (      43 calls)

     Parallel routines
     fft_scatter  :    153.22s CPU    156.72s WALL (  280996 calls)

     PWSCF        : 15m 9.95s CPU    16m 1.01s WALL


   This run was terminated on:   2:47:42  16Nov2017            

=------------------------------------------------------------------------------=
   JOB DONE.
=------------------------------------------------------------------------------=
