
     Program PWSCF v.5.1 starts on 16Nov2017 at 12:38:22 

     This program is part of the open-source Quantum ESPRESSO suite
     for quantum simulation of materials; please cite
         "P. Giannozzi et al., J. Phys.:Condens. Matter 21 395502 (2009);
          URL http://www.quantum-espresso.org", 
     in publications or presentations arising from this work. More details at
     http://www.quantum-espresso.org/quote

     Parallel version (MPI), running on    16 processors
     R & G space division:  proc/nbgrp/npool/nimage =      16
     Waiting for input...
     Reading input from standard input
Warning: card &IONS ignored
Warning: card   ION_DYNAMICS='BFGS', ignored
Warning: card / ignored
Warning: card &CELL ignored
Warning: card  CELL_DYNAMICS = 'BFGS' ignored
Warning: card / ignored

     Current dimensions of program PWSCF are:
     Max number of different atomic species (ntypx) = 10
     Max number of k-points (npk) =  40000
     Max angular momentum in pseudopotentials (lmaxx) =  3
 kfg - two_fermi_energies  F

     Subspace diagonalization in iterative solution of the eigenvalue problem:
     a serial algorithm will be used


     Parallelization info
     --------------------
     sticks:   dense  smooth     PW     G-vecs:    dense   smooth      PW
     Min         128     102     29                 3862     2754     431
     Max         129     103     30                 3865     2772     435
     Sum        2053    1641    477                61811    44223    6935



     bravais-lattice index     =            0
     lattice parameter (alat)  =    12.509665233  a.u.
     unit-cell volume          =    1295.1138 (a.u.)^3
     number of atoms/cell      =           16
     number of atomic types    =            3
     number of electrons       =       128.00
     number of Kohn-Sham states=           64
     kinetic-energy cutoff     =      40.0000  Ry
     charge density cutoff     =     200.0000  Ry
     convergence threshold     =      1.0E-10
     mixing beta               =       0.3000
     number of iterations used =            8  local-TF  mixing
     Exchange-correlation      = SLA  PW   PSX  PSC ( 1  4 10  8 0)
     A smooth kinetic-energy cutoff is imposed at      39.5000 Ry
     height of the smooth step-function =             800.0000 Ry
     width of the smooth step-function  =               1.0000 Ry


     celldm(1)=  12.509665  celldm(2)=   0.000000  celldm(3)=   0.000000
     celldm(4)=   0.000000  celldm(5)=   0.000000  celldm(6)=   0.000000

     crystal axes: (cart. coord. in units of alat)
               a(1) = (   0.021300918313   0.691095623532   0.722449382319 )  
               a(2) = (   0.691235621358   0.031985913876   0.711764386757 )  
               a(3) = (   0.707534144403   0.696709151014   0.015687390832 )  

     reciprocal axes: (cart. coord. in units 2 pi/alat)
               b(1) = ( -0.748820  0.744834  0.693750 )  
               b(2) = (  0.744443 -0.772147  0.716687 )  
               b(3) = (  0.708609  0.731936 -0.721064 )  


     PseudoPot. # 1 for Ca read from file:
     /users/kfg/psuedo/gbrv_1.5/ca.pbesol.UPF
     MD5 check sum: 0533207b58cddeaa036efa5b63902087
     Pseudo is Ultrasoft + core correction, Zval = 10.0
     Generated by new atomic code, or converted to UPF format
     Using radial grid of  845 points,  6 beta functions with: 
                l(1) =   0
                l(2) =   0
                l(3) =   1
                l(4) =   1
                l(5) =   2
                l(6) =   2
     Q(r) pseudized with  8 coefficients,  rinner =    1.500   1.500   1.500
                                                       1.500   1.500

     PseudoPot. # 2 for Mg read from file:
     /users/kfg/psuedo/gbrv_1.5/mg.pbesol.UPF
     MD5 check sum: 4059f37963cf5867752dbf5ab2400678
     Pseudo is Ultrasoft, Zval = 10.0
     Generated by new atomic code, or converted to UPF format
     Using radial grid of  821 points,  7 beta functions with: 
                l(1) =   0
                l(2) =   0
                l(3) =   0
                l(4) =   1
                l(5) =   1
                l(6) =   2
                l(7) =   2
     Q(r) pseudized with  8 coefficients,  rinner =    1.200   1.200   1.200
                                                       1.200   1.200

     PseudoPot. # 3 for O  read from file:
     /users/kfg/psuedo/gbrv_1.5/o.pbesol.UPF
     MD5 check sum: 501638753501ef6325af9037351f7734
     Pseudo is Ultrasoft + core correction, Zval =  6.0
     Generated by new atomic code, or converted to UPF format
     Using radial grid of  737 points,  5 beta functions with: 
                l(1) =   0
                l(2) =   0
                l(3) =   1
                l(4) =   1
                l(5) =   2
     Q(r) pseudized with  8 coefficients,  rinner =    0.900   0.900   0.900
                                                       0.900   0.900

     atomic species   valence    mass     pseudopotential
        Ca            10.00    40.07800     Ca( 1.00)
        Mg            10.00    40.07800     Mg( 1.00)
        O              6.00    15.99940     O ( 1.00)

     No symmetry found


                                    s                        frac. trans.

      isym =  1     identity                                     

 cryst.   s( 1) = (     1          0          0      )
                  (     0          1          0      )
                  (     0          0          1      )

 cart.    s( 1) = (  1.0000000 -0.0000000  0.0000000 )
                  ( -0.0000000  1.0000000  0.0000000 )
                  ( -0.0000000 -0.0000000  1.0000000 )


     point group C_1 (1)    
     there are  1 classes
     the character table:

       E    
A      1.00

     the symmetry operations in each class:
     E        1

   Cartesian axes

     site n.     atom                  positions (alat units)
         1           Mg  tau(   1) = (   -0.01015770719   -0.00465243135   -0.02900412777  )
         2           O   tau(   2) = (    0.36239331750    0.36209980083    0.38507887166  )
         3           Ca  tau(   3) = (    0.35564463794    0.36472552386    0.02054782621  )
         4           O   tau(   4) = (    0.71264590455    0.69973586751    0.40225554160  )
         5           Ca  tau(   5) = (    0.34842283172    0.01049723217    0.34960944388  )
         6           O   tau(   6) = (    0.69709875968    0.37350268415    0.70609506120  )
         7           Mg  tau(   7) = (    0.70264678576    0.36755419536    0.37720277880  )
         8           O   tau(   8) = (    1.06934161641    0.70992595909    0.72833473722  )
         9           Ca  tau(   9) = (    0.02063005986    0.33597872061    0.36174821194  )
        10           O   tau(  10) = (    0.31977517750    0.67222590354    0.73020347942  )
        11           Ca  tau(  11) = (    0.36632010746    0.71540843598    0.36964078370  )
        12           O   tau(  12) = (    0.72706441830    1.04102402000    0.70531543059  )
        13           Mg  tau(  13) = (    0.34781616931    0.36624861113    0.70166989058  )
        14           O   tau(  14) = (    0.70793118427    0.75189932693    1.10977639160  )
        15           Mg  tau(  15) = (    0.69008903803    0.69432811519    0.70361800631  )
        16           O   tau(  16) = (    1.10276180335    1.05824216552    1.07731463251  )

   Crystallographic axes

     site n.     atom                  positions (cryst. coord.)
         1           Mg  tau(   1) = (   -0.01598061347   -0.02475635430    0.01031069463  )
         2           O   tau(   2) = (    0.26548535397    0.26616794686    0.24416273178  )
         3           Ca  tau(   3) = (    0.01960116555   -0.00213815203    0.50415246357  )
         4           O   tau(   4) = (    0.26660831694    0.27851669771    0.72709740447  )
         5           Ca  tau(   5) = (   -0.01054557573    0.50183608779    0.00248819399  )
         6           O   tau(   6) = (    0.24604961458    0.73660051070    0.25821109366  )
         7           Mg  tau(   7) = (    0.00929544725    0.50961099738    0.49494079197  )
         8           O   tau(   8) = (    0.23331496470    0.76988480937    0.75218983145  )
         9           Ca  tau(   9) = (    0.48576289154    0.01519318962   -0.00030982205  )
        10           O   tau(  10) = (    0.76782121598    0.24232455173    0.19209888242  )
        11           Ca  tau(  11) = (    0.51499084048   -0.01477924062    0.51667650261  )
        12           O   tau(  12) = (    0.72026214770    0.24292492744    0.76859020057  )
        13           Mg  tau(  13) = (    0.49912624135    0.47900925388    0.00858766015  )
        14           O   tau(  14) = (    0.79983456503    0.74179996890    0.25176934925  )
        15           Mg  tau(  15) = (    0.48854171446    0.48188252307    0.48985379484  )
        16           O   tau(  16) = (    0.70983170966    0.77592228249    0.77918022669  )

     number of k points=    36
                       cart. coord. in units 2pi/alat
        k(    1) = (   0.0000000   0.0000000   0.0000000), wk =   0.0312500
        k(    2) = (   0.1771522   0.1829840  -0.1802659), wk =   0.0625000
        k(    3) = (  -0.3543044  -0.3659681   0.3605318), wk =   0.0312500
        k(    4) = (   0.1861108  -0.1930367   0.1791717), wk =   0.0625000
        k(    5) = (   0.3632630  -0.0100527  -0.0010941), wk =   0.0625000
        k(    6) = (  -0.1681937  -0.5590048   0.5397035), wk =   0.0625000
        k(    7) = (   0.0089585  -0.3760208   0.3594376), wk =   0.0625000
        k(    8) = (  -0.3722215   0.3860735  -0.3583435), wk =   0.0312500
        k(    9) = (  -0.1950693   0.5690575  -0.5386094), wk =   0.0625000
        k(   10) = (  -0.7265260   0.0201054   0.0021883), wk =   0.0312500
        k(   11) = (  -0.1872049   0.1862084   0.1734375), wk =   0.0625000
        k(   12) = (  -0.0100527   0.3691924  -0.0068284), wk =   0.0625000
        k(   13) = (  -0.5415094  -0.1797597   0.5339693), wk =   0.0625000
        k(   14) = (  -0.3643571   0.0032243   0.3537034), wk =   0.0625000
        k(   15) = (  -0.0010941  -0.0068284   0.3526093), wk =   0.0625000
        k(   16) = (   0.1760581   0.1761557   0.1723434), wk =   0.0625000
        k(   17) = (  -0.3553986  -0.3727964   0.7131410), wk =   0.0625000
        k(   18) = (  -0.1782464  -0.1898124   0.5328752), wk =   0.0625000
        k(   19) = (  -0.5594264   0.5722819  -0.1849059), wk =   0.0625000
        k(   20) = (  -0.3822742   0.7552659  -0.3651718), wk =   0.0625000
        k(   21) = (  -0.9137309   0.2063138   0.1756258), wk =   0.0625000
        k(   22) = (  -0.7365787   0.3892978  -0.0046401), wk =   0.0625000
        k(   23) = (  -0.3733157   0.3792451  -0.0057342), wk =   0.0625000
        k(   24) = (  -0.1961635   0.5622292  -0.1860001), wk =   0.0625000
        k(   25) = (  -0.7276201   0.0132770   0.3547976), wk =   0.0625000
        k(   26) = (  -0.5504679   0.1962611   0.1745317), wk =   0.0625000
        k(   27) = (   0.3744098  -0.3724168  -0.3468751), wk =   0.0312500
        k(   28) = (   0.5515620  -0.1894327  -0.5271409), wk =   0.0625000
        k(   29) = (   0.0201054  -0.7383849   0.0136567), wk =   0.0312500
        k(   30) = (   0.5605206  -0.5654535  -0.1677033), wk =   0.0625000
        k(   31) = (   0.7376728  -0.3824695  -0.3479692), wk =   0.0625000
        k(   32) = (   0.2062162  -0.9314216   0.1928284), wk =   0.0625000
        k(   33) = (   0.3833684  -0.7484375   0.0125626), wk =   0.0625000
        k(   34) = (   0.0021883   0.0136567  -0.7052185), wk =   0.0312500
        k(   35) = (   0.1793405   0.1966407  -0.8854844), wk =   0.0625000
        k(   36) = (  -0.3521162  -0.3523114  -0.3446868), wk =   0.0312500

                       cryst. coord.
        k(    1) = (   0.0000000   0.0000000   0.0000000), wk =   0.0312500
        k(    2) = (   0.0000000   0.0000000   0.2500000), wk =   0.0625000
        k(    3) = (   0.0000000   0.0000000  -0.5000000), wk =   0.0312500
        k(    4) = (   0.0000000   0.2500000  -0.0000000), wk =   0.0625000
        k(    5) = (  -0.0000000   0.2500000   0.2500000), wk =   0.0625000
        k(    6) = (   0.0000000   0.2500000  -0.5000000), wk =   0.0625000
        k(    7) = (   0.0000000   0.2500000  -0.2500000), wk =   0.0625000
        k(    8) = (   0.0000000  -0.5000000   0.0000000), wk =   0.0312500
        k(    9) = (   0.0000000  -0.5000000   0.2500000), wk =   0.0625000
        k(   10) = (   0.0000000  -0.5000000  -0.5000000), wk =   0.0312500
        k(   11) = (   0.2500000  -0.0000000  -0.0000000), wk =   0.0625000
        k(   12) = (   0.2500000  -0.0000000   0.2500000), wk =   0.0625000
        k(   13) = (   0.2500000  -0.0000000  -0.5000000), wk =   0.0625000
        k(   14) = (   0.2500000  -0.0000000  -0.2500000), wk =   0.0625000
        k(   15) = (   0.2500000   0.2500000  -0.0000000), wk =   0.0625000
        k(   16) = (   0.2500000   0.2500000   0.2500000), wk =   0.0625000
        k(   17) = (   0.2500000   0.2500000  -0.5000000), wk =   0.0625000
        k(   18) = (   0.2500000   0.2500000  -0.2500000), wk =   0.0625000
        k(   19) = (   0.2500000  -0.5000000  -0.0000000), wk =   0.0625000
        k(   20) = (   0.2500000  -0.5000000   0.2500000), wk =   0.0625000
        k(   21) = (   0.2500000  -0.5000000  -0.5000000), wk =   0.0625000
        k(   22) = (   0.2500000  -0.5000000  -0.2500000), wk =   0.0625000
        k(   23) = (   0.2500000  -0.2500000  -0.0000000), wk =   0.0625000
        k(   24) = (   0.2500000  -0.2500000   0.2500000), wk =   0.0625000
        k(   25) = (   0.2500000  -0.2500000  -0.5000000), wk =   0.0625000
        k(   26) = (   0.2500000  -0.2500000  -0.2500000), wk =   0.0625000
        k(   27) = (  -0.5000000   0.0000000   0.0000000), wk =   0.0312500
        k(   28) = (  -0.5000000   0.0000000   0.2500000), wk =   0.0625000
        k(   29) = (  -0.5000000   0.0000000  -0.5000000), wk =   0.0312500
        k(   30) = (  -0.5000000   0.2500000   0.0000000), wk =   0.0625000
        k(   31) = (  -0.5000000   0.2500000   0.2500000), wk =   0.0625000
        k(   32) = (  -0.5000000   0.2500000  -0.5000000), wk =   0.0625000
        k(   33) = (  -0.5000000   0.2500000  -0.2500000), wk =   0.0625000
        k(   34) = (  -0.5000000  -0.5000000   0.0000000), wk =   0.0312500
        k(   35) = (  -0.5000000  -0.5000000   0.2500000), wk =   0.0625000
        k(   36) = (  -0.5000000  -0.5000000  -0.5000000), wk =   0.0312500

     Dense  grid:    61811 G-vectors     FFT dimensions: (  60,  60,  60)

     Smooth grid:    44223 G-vectors     FFT dimensions: (  54,  50,  54)

     Largest allocated arrays     est. size (Mb)     dimensions
        Kohn-Sham Wavefunctions         0.35 Mb     (     358,   64)
        NL pseudopotentials             1.38 Mb     (     358,  252)
        Each V/rho on FFT grid          0.22 Mb     (   14400)
        Each G-vector array             0.03 Mb     (    3863)
        G-vector shells                 0.03 Mb     (    3776)
     Largest temporary arrays     est. size (Mb)     dimensions
        Auxiliary wavefunctions         1.40 Mb     (     358,  256)
        Each subspace H/S matrix        1.00 Mb     (     256,  256)
        Each <psi_i|beta_j> matrix      0.25 Mb     (     252,   64)
        Arrays for rho mixing           1.76 Mb     (   14400,    8)

     Check: negative/imaginary core charge=   -0.000003    0.000000

     Initial potential from superposition of free atoms

     starting charge  126.77837, renormalised to  128.00000
     Starting wfc are   92 randomized atomic wfcs

     total cpu time spent up to now is       20.1 secs

     per-process dynamical memory:    32.4 Mb

     Self-consistent Calculation

     iteration #  1     ecut=    40.00 Ry     beta=0.30
     Davidson diagonalization with overlap
     ethr =  1.00E-02,  avg # of iterations =  2.0

     total cpu time spent up to now is       57.7 secs

     total energy              =   -1059.93443737 Ry
     Harris-Foulkes estimate   =   -1060.57526201 Ry
     estimated scf accuracy    <       3.32133774 Ry

     iteration #  2     ecut=    40.00 Ry     beta=0.30
     Davidson diagonalization with overlap
     ethr =  2.59E-03,  avg # of iterations =  1.6

     total cpu time spent up to now is       93.3 secs

     total energy              =   -1059.45770636 Ry
     Harris-Foulkes estimate   =   -1060.03739693 Ry
     estimated scf accuracy    <       1.43361281 Ry

     iteration #  3     ecut=    40.00 Ry     beta=0.30
     Davidson diagonalization with overlap
     ethr =  1.12E-03,  avg # of iterations =  2.0

     total cpu time spent up to now is      136.1 secs

     total energy              =   -1059.67787706 Ry
     Harris-Foulkes estimate   =   -1059.72412276 Ry
     estimated scf accuracy    <       0.17604674 Ry

     iteration #  4     ecut=    40.00 Ry     beta=0.30
     Davidson diagonalization with overlap
     ethr =  1.38E-04,  avg # of iterations =  2.0

     total cpu time spent up to now is      179.4 secs

     total energy              =   -1059.63155414 Ry
     Harris-Foulkes estimate   =   -1059.69762423 Ry
     estimated scf accuracy    <       0.11410489 Ry

     iteration #  5     ecut=    40.00 Ry     beta=0.30
     Davidson diagonalization with overlap
     ethr =  8.91E-05,  avg # of iterations =  2.0

     total cpu time spent up to now is      224.0 secs

     total energy              =   -1059.65039170 Ry
     Harris-Foulkes estimate   =   -1059.65189101 Ry
     estimated scf accuracy    <       0.01793517 Ry

     iteration #  6     ecut=    40.00 Ry     beta=0.30
     Davidson diagonalization with overlap
     ethr =  1.40E-05,  avg # of iterations =  1.0

     total cpu time spent up to now is      257.9 secs

     total energy              =   -1059.64682418 Ry
     Harris-Foulkes estimate   =   -1059.65072554 Ry
     estimated scf accuracy    <       0.01033151 Ry

     iteration #  7     ecut=    40.00 Ry     beta=0.30
     Davidson diagonalization with overlap
     ethr =  8.07E-06,  avg # of iterations =  2.0

     total cpu time spent up to now is      301.7 secs

     total energy              =   -1059.64744833 Ry
     Harris-Foulkes estimate   =   -1059.64778339 Ry
     estimated scf accuracy    <       0.00111845 Ry

     iteration #  8     ecut=    40.00 Ry     beta=0.30
     Davidson diagonalization with overlap
     ethr =  8.74E-07,  avg # of iterations =  2.0

     total cpu time spent up to now is      347.1 secs

     total energy              =   -1059.64749019 Ry
     Harris-Foulkes estimate   =   -1059.64757745 Ry
     estimated scf accuracy    <       0.00021020 Ry

     iteration #  9     ecut=    40.00 Ry     beta=0.30
     Davidson diagonalization with overlap
     ethr =  1.64E-07,  avg # of iterations =  2.4

     total cpu time spent up to now is      401.0 secs

     total energy              =   -1059.64750807 Ry
     Harris-Foulkes estimate   =   -1059.64752236 Ry
     estimated scf accuracy    <       0.00008369 Ry

     iteration # 10     ecut=    40.00 Ry     beta=0.30
     Davidson diagonalization with overlap
     ethr =  6.54E-08,  avg # of iterations =  2.0

     total cpu time spent up to now is      441.0 secs

     total energy              =   -1059.64749442 Ry
     Harris-Foulkes estimate   =   -1059.64751137 Ry
     estimated scf accuracy    <       0.00005368 Ry

     iteration # 11     ecut=    40.00 Ry     beta=0.30
     Davidson diagonalization with overlap
     ethr =  4.19E-08,  avg # of iterations =  2.0

     total cpu time spent up to now is      483.7 secs

     total energy              =   -1059.64749739 Ry
     Harris-Foulkes estimate   =   -1059.64749984 Ry
     estimated scf accuracy    <       0.00000917 Ry

     iteration # 12     ecut=    40.00 Ry     beta=0.30
     Davidson diagonalization with overlap
     ethr =  7.17E-09,  avg # of iterations =  2.0

     total cpu time spent up to now is      526.4 secs

     total energy              =   -1059.64749692 Ry
     Harris-Foulkes estimate   =   -1059.64749800 Ry
     estimated scf accuracy    <       0.00000236 Ry

     iteration # 13     ecut=    40.00 Ry     beta=0.30
     Davidson diagonalization with overlap
     ethr =  1.84E-09,  avg # of iterations =  2.0

     total cpu time spent up to now is      571.1 secs

     total energy              =   -1059.64749720 Ry
     Harris-Foulkes estimate   =   -1059.64749726 Ry
     estimated scf accuracy    <       0.00000023 Ry

     iteration # 14     ecut=    40.00 Ry     beta=0.30
     Davidson diagonalization with overlap
     ethr =  1.78E-10,  avg # of iterations =  2.0

     total cpu time spent up to now is      616.7 secs

     total energy              =   -1059.64749721 Ry
     Harris-Foulkes estimate   =   -1059.64749723 Ry
     estimated scf accuracy    <       0.00000008 Ry

     iteration # 15     ecut=    40.00 Ry     beta=0.30
     Davidson diagonalization with overlap
     ethr =  6.33E-11,  avg # of iterations =  1.2

     total cpu time spent up to now is      649.6 secs

     total energy              =   -1059.64749720 Ry
     Harris-Foulkes estimate   =   -1059.64749721 Ry
     estimated scf accuracy    <       0.00000003 Ry

     iteration # 16     ecut=    40.00 Ry     beta=0.30
     Davidson diagonalization with overlap
     ethr =  2.31E-11,  avg # of iterations =  2.0

     total cpu time spent up to now is      694.2 secs

     total energy              =   -1059.64749720 Ry
     Harris-Foulkes estimate   =   -1059.64749720 Ry
     estimated scf accuracy    <          7.7E-09 Ry

     iteration # 17     ecut=    40.00 Ry     beta=0.30
     Davidson diagonalization with overlap
     ethr =  5.98E-12,  avg # of iterations =  2.0

     total cpu time spent up to now is      737.9 secs

     total energy              =   -1059.64749720 Ry
     Harris-Foulkes estimate   =   -1059.64749720 Ry
     estimated scf accuracy    <          2.8E-09 Ry

     iteration # 18     ecut=    40.00 Ry     beta=0.30
     Davidson diagonalization with overlap
     ethr =  2.20E-12,  avg # of iterations =  2.0

     total cpu time spent up to now is      780.1 secs

     total energy              =   -1059.64749720 Ry
     Harris-Foulkes estimate   =   -1059.64749720 Ry
     estimated scf accuracy    <          8.9E-10 Ry

     iteration # 19     ecut=    40.00 Ry     beta=0.30
     Davidson diagonalization with overlap
     ethr =  6.95E-13,  avg # of iterations =  2.0

     total cpu time spent up to now is      821.4 secs

     total energy              =   -1059.64749720 Ry
     Harris-Foulkes estimate   =   -1059.64749720 Ry
     estimated scf accuracy    <          3.7E-10 Ry

     iteration # 20     ecut=    40.00 Ry     beta=0.30
     Davidson diagonalization with overlap
     ethr =  2.92E-13,  avg # of iterations =  1.2

     total cpu time spent up to now is      854.5 secs

     total energy              =   -1059.64749720 Ry
     Harris-Foulkes estimate   =   -1059.64749720 Ry
     estimated scf accuracy    <          1.9E-10 Ry

     iteration # 21     ecut=    40.00 Ry     beta=0.30
     Davidson diagonalization with overlap
     ethr =  1.47E-13,  avg # of iterations =  2.0

     total cpu time spent up to now is      896.1 secs

     End of self-consistent calculation

          k = 0.0000 0.0000 0.0000 (  5549 PWs)   bands (ev):

   -66.1133 -65.5616 -65.1788 -65.0936 -33.1158 -33.0769 -33.0342 -32.5543
   -32.5353 -32.4874 -32.1736 -32.1567 -32.1225 -32.0738 -32.0599 -32.0468
   -29.8620 -29.4475 -29.2422 -29.1704 -11.9709 -11.7587 -11.4707 -11.4599
   -11.0350 -10.7746 -10.6749 -10.6521 -10.6108 -10.4896 -10.3152 -10.2677
    -8.7220  -8.0701  -7.9834  -7.9637  -7.4436  -7.3008  -7.2843  -6.6031
     3.1591   3.8096   3.8447   4.6001   4.7354   4.7669   4.8370   5.8268
     5.9568   6.1306   6.1770   6.2201   6.2768   6.3296   6.3701   6.4569
     6.4938   6.6188   6.6947   6.7659   6.8434   7.1238   7.1759   7.4701

     occupation numbers 
     1.0000   1.0000   1.0000   1.0000   1.0000   1.0000   1.0000   1.0000
     1.0000   1.0000   1.0000   1.0000   1.0000   1.0000   1.0000   1.0000
     1.0000   1.0000   1.0000   1.0000   1.0000   1.0000   1.0000   1.0000
     1.0000   1.0000   1.0000   1.0000   1.0000   1.0000   1.0000   1.0000
     1.0000   1.0000   1.0000   1.0000   1.0000   1.0000   1.0000   1.0000
     1.0000   1.0000   1.0000   1.0000   1.0000   1.0000   1.0000   1.0000
     1.0000   1.0000   1.0000   1.0000   1.0000   1.0000   1.0000   1.0000
     1.0000   1.0000   1.0000   1.0000   1.0000   1.0000   1.0000   1.0000

          k = 0.1772 0.1830-0.1803 (  5533 PWs)   bands (ev):

   -66.1133 -65.5616 -65.1788 -65.0936 -33.1158 -33.0770 -33.0342 -32.5543
   -32.5353 -32.4874 -32.1736 -32.1568 -32.1226 -32.0738 -32.0599 -32.0468
   -29.8597 -29.4495 -29.2372 -29.1759 -11.8467 -11.7038 -11.4271 -11.3930
   -11.0999 -10.8294 -10.7893 -10.7331 -10.6922 -10.5009 -10.3993 -10.3143
    -8.4807  -7.9628  -7.8955  -7.7637  -7.5293  -7.4088  -7.3561  -6.7604
     3.4078   4.0138   4.1579   4.5801   4.7520   4.8818   4.9492   5.7541
     5.7997   5.9311   6.0003   6.0769   6.1918   6.2466   6.2911   6.3926
     6.4956   6.6151   6.6430   6.7167   6.7536   6.8679   7.0146   7.3328

     occupation numbers 
     1.0000   1.0000   1.0000   1.0000   1.0000   1.0000   1.0000   1.0000
     1.0000   1.0000   1.0000   1.0000   1.0000   1.0000   1.0000   1.0000
     1.0000   1.0000   1.0000   1.0000   1.0000   1.0000   1.0000   1.0000
     1.0000   1.0000   1.0000   1.0000   1.0000   1.0000   1.0000   1.0000
     1.0000   1.0000   1.0000   1.0000   1.0000   1.0000   1.0000   1.0000
     1.0000   1.0000   1.0000   1.0000   1.0000   1.0000   1.0000   1.0000
     1.0000   1.0000   1.0000   1.0000   1.0000   1.0000   1.0000   1.0000
     1.0000   1.0000   1.0000   1.0000   1.0000   1.0000   1.0000   1.0000

          k =-0.3543-0.3660 0.3605 (  5528 PWs)   bands (ev):

   -66.1133 -65.5616 -65.1788 -65.0936 -33.1158 -33.0770 -33.0342 -32.5542
   -32.5352 -32.4873 -32.1737 -32.1569 -32.1226 -32.0739 -32.0599 -32.0468
   -29.8573 -29.4516 -29.2312 -29.1825 -11.6758 -11.5850 -11.3864 -11.3090
   -11.2689 -10.9824 -10.8579 -10.8074 -10.7489 -10.5406 -10.4693 -10.3168
    -8.1593  -7.8643  -7.7725  -7.7169  -7.5477  -7.4667  -7.4116  -7.0339
     3.9987   4.0298   4.4380   4.5507   4.8674   5.0570   5.2508   5.4409
     5.4809   5.7080   5.7387   5.8582   5.9152   6.1869   6.3194   6.3969
     6.4226   6.5636   6.6132   6.6871   6.7164   6.8029   6.9385   7.1634

     occupation numbers 
     1.0000   1.0000   1.0000   1.0000   1.0000   1.0000   1.0000   1.0000
     1.0000   1.0000   1.0000   1.0000   1.0000   1.0000   1.0000   1.0000
     1.0000   1.0000   1.0000   1.0000   1.0000   1.0000   1.0000   1.0000
     1.0000   1.0000   1.0000   1.0000   1.0000   1.0000   1.0000   1.0000
     1.0000   1.0000   1.0000   1.0000   1.0000   1.0000   1.0000   1.0000
     1.0000   1.0000   1.0000   1.0000   1.0000   1.0000   1.0000   1.0000
     1.0000   1.0000   1.0000   1.0000   1.0000   1.0000   1.0000   1.0000
     1.0000   1.0000   1.0000   1.0000   1.0000   1.0000   1.0000   1.0000

          k = 0.1861-0.1930 0.1792 (  5545 PWs)   bands (ev):

   -66.1133 -65.5616 -65.1787 -65.0936 -33.1158 -33.0770 -33.0343 -32.5543
   -32.5353 -32.4874 -32.1736 -32.1564 -32.1219 -32.0739 -32.0605 -32.0473
   -29.8603 -29.4443 -29.2466 -29.1710 -11.8834 -11.7085 -11.4658 -11.3704
   -11.0447 -10.8398 -10.8003 -10.7372 -10.6109 -10.4960 -10.4532 -10.2669
    -8.5021  -8.0160  -7.9265  -7.8324  -7.4789  -7.3984  -7.3520  -6.7046
     3.4200   4.0919   4.1458   4.6064   4.8048   4.8423   4.9666   5.6967
     5.8726   5.9415   6.0281   6.0720   6.1387   6.2486   6.3340   6.3732
     6.4780   6.5576   6.6080   6.6847   6.7820   6.8721   7.0473   7.1317

     occupation numbers 
     1.0000   1.0000   1.0000   1.0000   1.0000   1.0000   1.0000   1.0000
     1.0000   1.0000   1.0000   1.0000   1.0000   1.0000   1.0000   1.0000
     1.0000   1.0000   1.0000   1.0000   1.0000   1.0000   1.0000   1.0000
     1.0000   1.0000   1.0000   1.0000   1.0000   1.0000   1.0000   1.0000
     1.0000   1.0000   1.0000   1.0000   1.0000   1.0000   1.0000   1.0000
     1.0000   1.0000   1.0000   1.0000   1.0000   1.0000   1.0000   1.0000
     1.0000   1.0000   1.0000   1.0000   1.0000   1.0000   1.0000   1.0000
     1.0000   1.0000   1.0000   1.0000   1.0000   1.0000   1.0000   1.0000

          k = 0.3633-0.0101-0.0011 (  5541 PWs)   bands (ev):

   -66.1133 -65.5616 -65.1787 -65.0936 -33.1158 -33.0770 -33.0342 -32.5544
   -32.5353 -32.4874 -32.1736 -32.1564 -32.1219 -32.0739 -32.0605 -32.0473
   -29.8609 -29.4426 -29.2423 -29.1764 -11.8461 -11.7582 -11.4085 -11.2899
   -11.0652 -10.8726 -10.7545 -10.7356 -10.6581 -10.5486 -10.4671 -10.3685
    -8.4179  -8.0260  -7.7804  -7.7482  -7.6050  -7.4959  -7.3035  -6.7376
     3.5177   4.0883   4.1853   4.6634   4.7992   4.8476   4.9301   5.6558
     5.8293   5.8982   5.9827   6.0858   6.1156   6.1748   6.3009   6.3871
     6.4307   6.5378   6.6144   6.6531   6.7496   6.8020   7.0780   7.2705

     occupation numbers 
     1.0000   1.0000   1.0000   1.0000   1.0000   1.0000   1.0000   1.0000
     1.0000   1.0000   1.0000   1.0000   1.0000   1.0000   1.0000   1.0000
     1.0000   1.0000   1.0000   1.0000   1.0000   1.0000   1.0000   1.0000
     1.0000   1.0000   1.0000   1.0000   1.0000   1.0000   1.0000   1.0000
     1.0000   1.0000   1.0000   1.0000   1.0000   1.0000   1.0000   1.0000
     1.0000   1.0000   1.0000   1.0000   1.0000   1.0000   1.0000   1.0000
     1.0000   1.0000   1.0000   1.0000   1.0000   1.0000   1.0000   1.0000
     1.0000   1.0000   1.0000   1.0000   1.0000   1.0000   1.0000   1.0000

          k =-0.1682-0.5590 0.5397 (  5532 PWs)   bands (ev):

   -66.1133 -65.5616 -65.1787 -65.0936 -33.1158 -33.0770 -33.0342 -32.5543
   -32.5352 -32.4874 -32.1736 -32.1565 -32.1220 -32.0740 -32.0605 -32.0473
   -29.8585 -29.4447 -29.2365 -29.1827 -11.7184 -11.6159 -11.3583 -11.3032
   -11.2015 -10.9142 -10.8390 -10.7873 -10.7321 -10.5596 -10.4759 -10.4521
    -8.1605  -7.9576  -7.8931  -7.6462  -7.4867  -7.4521  -7.3703  -6.9888
     3.9903   4.2976   4.4436   4.4882   4.9221   5.0375   5.1966   5.4013
     5.4837   5.5336   5.7375   5.8639   6.0632   6.1420   6.2998   6.3282
     6.4428   6.5301   6.6044   6.6409   6.6927   6.8087   6.8974   7.0776

     occupation numbers 
     1.0000   1.0000   1.0000   1.0000   1.0000   1.0000   1.0000   1.0000
     1.0000   1.0000   1.0000   1.0000   1.0000   1.0000   1.0000   1.0000
     1.0000   1.0000   1.0000   1.0000   1.0000   1.0000   1.0000   1.0000
     1.0000   1.0000   1.0000   1.0000   1.0000   1.0000   1.0000   1.0000
     1.0000   1.0000   1.0000   1.0000   1.0000   1.0000   1.0000   1.0000
     1.0000   1.0000   1.0000   1.0000   1.0000   1.0000   1.0000   1.0000
     1.0000   1.0000   1.0000   1.0000   1.0000   1.0000   1.0000   1.0000
     1.0000   1.0000   1.0000   1.0000   1.0000   1.0000   1.0000   1.0000

          k = 0.0090-0.3760 0.3594 (  5541 PWs)   bands (ev):

   -66.1133 -65.5616 -65.1787 -65.0936 -33.1158 -33.0770 -33.0342 -32.5543
   -32.5352 -32.4873 -32.1736 -32.1565 -32.1219 -32.0740 -32.0605 -32.0473
   -29.8579 -29.4464 -29.2417 -29.1763 -11.7254 -11.6181 -11.4231 -11.3537
   -11.1956 -10.9637 -10.8369 -10.7283 -10.6456 -10.5138 -10.4881 -10.3783
    -8.2948  -8.0374  -7.8163  -7.6211  -7.5567  -7.4648  -7.3378  -6.9140
     3.7785   4.3261   4.4217   4.5583   4.8522   4.9988   5.1553   5.3810
     5.4861   5.7845   5.8630   6.0417   6.1352   6.2154   6.2688   6.3566
     6.3833   6.4480   6.5257   6.6304   6.6949   6.7674   6.8843   7.1007

     occupation numbers 
     1.0000   1.0000   1.0000   1.0000   1.0000   1.0000   1.0000   1.0000
     1.0000   1.0000   1.0000   1.0000   1.0000   1.0000   1.0000   1.0000
     1.0000   1.0000   1.0000   1.0000   1.0000   1.0000   1.0000   1.0000
     1.0000   1.0000   1.0000   1.0000   1.0000   1.0000   1.0000   1.0000
     1.0000   1.0000   1.0000   1.0000   1.0000   1.0000   1.0000   1.0000
     1.0000   1.0000   1.0000   1.0000   1.0000   1.0000   1.0000   1.0000
     1.0000   1.0000   1.0000   1.0000   1.0000   1.0000   1.0000   1.0000
     1.0000   1.0000   1.0000   1.0000   1.0000   1.0000   1.0000   1.0000

          k =-0.3722 0.3861-0.3583 (  5554 PWs)   bands (ev):

   -66.1133 -65.5616 -65.1787 -65.0936 -33.1159 -33.0770 -33.0343 -32.5543
   -32.5353 -32.4873 -32.1736 -32.1561 -32.1212 -32.0740 -32.0611 -32.0477
   -29.8585 -29.4410 -29.2513 -29.1715 -11.7897 -11.6254 -11.4664 -11.1927
   -11.0497 -11.0096 -10.9292 -10.8707 -10.6086 -10.5610 -10.4855 -10.2640
    -8.2570  -7.9342  -7.8175  -7.6896  -7.6580  -7.5098  -7.3742  -6.8319
     3.9907   4.1261   4.6111   4.7130   4.7799   4.9287   5.3643   5.4039
     5.5770   5.6707   5.7783   5.9340   5.9572   6.1143   6.2306   6.3168
     6.3525   6.4232   6.5862   6.6379   6.7212   6.8356   6.8873   6.9775

     occupation numbers 
     1.0000   1.0000   1.0000   1.0000   1.0000   1.0000   1.0000   1.0000
     1.0000   1.0000   1.0000   1.0000   1.0000   1.0000   1.0000   1.0000
     1.0000   1.0000   1.0000   1.0000   1.0000   1.0000   1.0000   1.0000
     1.0000   1.0000   1.0000   1.0000   1.0000   1.0000   1.0000   1.0000
     1.0000   1.0000   1.0000   1.0000   1.0000   1.0000   1.0000   1.0000
     1.0000   1.0000   1.0000   1.0000   1.0000   1.0000   1.0000   1.0000
     1.0000   1.0000   1.0000   1.0000   1.0000   1.0000   1.0000   1.0000
     1.0000   1.0000   1.0000   1.0000   1.0000   1.0000   1.0000   1.0000

          k =-0.1951 0.5691-0.5386 (  5545 PWs)   bands (ev):

   -66.1133 -65.5616 -65.1787 -65.0936 -33.1159 -33.0770 -33.0343 -32.5544
   -32.5353 -32.4874 -32.1736 -32.1561 -32.1212 -32.0740 -32.0612 -32.0477
   -29.8591 -29.4393 -29.2471 -29.1768 -11.7242 -11.6997 -11.4195 -11.2099
   -11.0987 -10.9048 -10.8751 -10.8016 -10.7044 -10.5961 -10.4871 -10.3906
    -8.1753  -8.0394  -7.8974  -7.6240  -7.5712  -7.4488  -7.3648  -6.8819
     3.9944   4.3540   4.5120   4.5967   4.8301   4.9923   5.1943   5.4040
     5.5174   5.5917   5.7487   5.9108   6.0332   6.1203   6.2143   6.3254
     6.4396   6.4495   6.5660   6.6266   6.7143   6.8305   6.8676   6.9802

     occupation numbers 
     1.0000   1.0000   1.0000   1.0000   1.0000   1.0000   1.0000   1.0000
     1.0000   1.0000   1.0000   1.0000   1.0000   1.0000   1.0000   1.0000
     1.0000   1.0000   1.0000   1.0000   1.0000   1.0000   1.0000   1.0000
     1.0000   1.0000   1.0000   1.0000   1.0000   1.0000   1.0000   1.0000
     1.0000   1.0000   1.0000   1.0000   1.0000   1.0000   1.0000   1.0000
     1.0000   1.0000   1.0000   1.0000   1.0000   1.0000   1.0000   1.0000
     1.0000   1.0000   1.0000   1.0000   1.0000   1.0000   1.0000   1.0000
     1.0000   1.0000   1.0000   1.0000   1.0000   1.0000   1.0000   1.0000

          k =-0.7265 0.0201 0.0022 (  5500 PWs)   bands (ev):

   -66.1133 -65.5616 -65.1787 -65.0936 -33.1159 -33.0770 -33.0342 -32.5544
   -32.5353 -32.4875 -32.1735 -32.1560 -32.1213 -32.0740 -32.0612 -32.0477
   -29.8598 -29.4376 -29.2421 -29.1829 -11.7750 -11.6303 -11.3573 -11.2107
   -11.1218 -10.8889 -10.8414 -10.7703 -10.6955 -10.6352 -10.5653 -10.4715
    -8.1485  -8.0689  -7.9405  -7.6128  -7.4723  -7.4326  -7.3191  -6.9461
     4.0705   4.3447   4.3819   4.8246   4.8829   5.1416   5.1433   5.2357
     5.2806   5.5881   5.8579   5.9059   5.9851   6.0047   6.1278   6.2855
     6.4099   6.4743   6.5428   6.6297   6.6662   6.7960   7.0007   7.1565

     occupation numbers 
     1.0000   1.0000   1.0000   1.0000   1.0000   1.0000   1.0000   1.0000
     1.0000   1.0000   1.0000   1.0000   1.0000   1.0000   1.0000   1.0000
     1.0000   1.0000   1.0000   1.0000   1.0000   1.0000   1.0000   1.0000
     1.0000   1.0000   1.0000   1.0000   1.0000   1.0000   1.0000   1.0000
     1.0000   1.0000   1.0000   1.0000   1.0000   1.0000   1.0000   1.0000
     1.0000   1.0000   1.0000   1.0000   1.0000   1.0000   1.0000   1.0000
     1.0000   1.0000   1.0000   1.0000   1.0000   1.0000   1.0000   1.0000
     1.0000   1.0000   1.0000   1.0000   1.0000   1.0000   1.0000   1.0000

          k =-0.1872 0.1862 0.1734 (  5539 PWs)   bands (ev):

   -66.1133 -65.5616 -65.1787 -65.0936 -33.1158 -33.0769 -33.0342 -32.5543
   -32.5353 -32.4875 -32.1736 -32.1564 -32.1219 -32.0739 -32.0605 -32.0473
   -29.8606 -29.4428 -29.2480 -29.1711 -11.8449 -11.7202 -11.4031 -11.3679
   -11.1082 -10.8279 -10.7505 -10.7434 -10.6761 -10.5604 -10.4559 -10.2677
    -8.4870  -7.9580  -7.9102  -7.8020  -7.5285  -7.3955  -7.3550  -6.7255
     3.4321   4.0363   4.1664   4.6357   4.8167   4.8729   4.9229   5.7789
     5.8486   5.8856   5.9872   6.0581   6.1222   6.2275   6.3229   6.4507
     6.5067   6.5325   6.5951   6.6724   6.7263   6.8882   7.0536   7.2325

     occupation numbers 
     1.0000   1.0000   1.0000   1.0000   1.0000   1.0000   1.0000   1.0000
     1.0000   1.0000   1.0000   1.0000   1.0000   1.0000   1.0000   1.0000
     1.0000   1.0000   1.0000   1.0000   1.0000   1.0000   1.0000   1.0000
     1.0000   1.0000   1.0000   1.0000   1.0000   1.0000   1.0000   1.0000
     1.0000   1.0000   1.0000   1.0000   1.0000   1.0000   1.0000   1.0000
     1.0000   1.0000   1.0000   1.0000   1.0000   1.0000   1.0000   1.0000
     1.0000   1.0000   1.0000   1.0000   1.0000   1.0000   1.0000   1.0000
     1.0000   1.0000   1.0000   1.0000   1.0000   1.0000   1.0000   1.0000

          k =-0.0101 0.3692-0.0068 (  5548 PWs)   bands (ev):

   -66.1133 -65.5616 -65.1787 -65.0936 -33.1158 -33.0769 -33.0342 -32.5543
   -32.5353 -32.4874 -32.1736 -32.1565 -32.1219 -32.0739 -32.0605 -32.0473
   -29.8598 -29.4443 -29.2416 -29.1768 -11.7985 -11.6741 -11.4512 -11.3716
   -11.0699 -10.9114 -10.8198 -10.6516 -10.6126 -10.5474 -10.5020 -10.3778
    -8.4774  -8.0311  -7.9089  -7.6035  -7.4912  -7.3587  -7.3478  -6.8907
     3.4988   4.1289   4.1967   4.6425   4.8121   4.9335   5.0295   5.6126
     5.8146   5.9078   5.9553   6.0532   6.1603   6.1898   6.2708   6.3742
     6.4668   6.5550   6.5688   6.6372   6.7369   6.7933   7.0440   7.1671

     occupation numbers 
     1.0000   1.0000   1.0000   1.0000   1.0000   1.0000   1.0000   1.0000
     1.0000   1.0000   1.0000   1.0000   1.0000   1.0000   1.0000   1.0000
     1.0000   1.0000   1.0000   1.0000   1.0000   1.0000   1.0000   1.0000
     1.0000   1.0000   1.0000   1.0000   1.0000   1.0000   1.0000   1.0000
     1.0000   1.0000   1.0000   1.0000   1.0000   1.0000   1.0000   1.0000
     1.0000   1.0000   1.0000   1.0000   1.0000   1.0000   1.0000   1.0000
     1.0000   1.0000   1.0000   1.0000   1.0000   1.0000   1.0000   1.0000
     1.0000   1.0000   1.0000   1.0000   1.0000   1.0000   1.0000   1.0000

          k =-0.5415-0.1798 0.5340 (  5543 PWs)   bands (ev):

   -66.1133 -65.5616 -65.1787 -65.0936 -33.1158 -33.0770 -33.0342 -32.5543
   -32.5353 -32.4874 -32.1736 -32.1566 -32.1219 -32.0740 -32.0605 -32.0473
   -29.8574 -29.4463 -29.2357 -29.1831 -11.6365 -11.5645 -11.4024 -11.3243
   -11.2367 -10.9684 -10.8527 -10.7799 -10.6828 -10.5699 -10.5110 -10.4515
    -8.2170  -7.9591  -7.7735  -7.6315  -7.5027  -7.4369  -7.4002  -7.0163
     3.9611   4.2920   4.4685   4.5906   4.9667   5.0098   5.2680   5.3371
     5.4520   5.5622   5.7147   5.9346   6.0170   6.1468   6.2115   6.2845
     6.4473   6.5284   6.5859   6.6528   6.7253   6.8065   6.8848   7.0661

     occupation numbers 
     1.0000   1.0000   1.0000   1.0000   1.0000   1.0000   1.0000   1.0000
     1.0000   1.0000   1.0000   1.0000   1.0000   1.0000   1.0000   1.0000
     1.0000   1.0000   1.0000   1.0000   1.0000   1.0000   1.0000   1.0000
     1.0000   1.0000   1.0000   1.0000   1.0000   1.0000   1.0000   1.0000
     1.0000   1.0000   1.0000   1.0000   1.0000   1.0000   1.0000   1.0000
     1.0000   1.0000   1.0000   1.0000   1.0000   1.0000   1.0000   1.0000
     1.0000   1.0000   1.0000   1.0000   1.0000   1.0000   1.0000   1.0000
     1.0000   1.0000   1.0000   1.0000   1.0000   1.0000   1.0000   1.0000

          k =-0.3644 0.0032 0.3537 (  5534 PWs)   bands (ev):

   -66.1133 -65.5616 -65.1787 -65.0936 -33.1158 -33.0770 -33.0342 -32.5543
   -32.5352 -32.4874 -32.1736 -32.1565 -32.1219 -32.0740 -32.0605 -32.0473
   -29.8582 -29.4448 -29.2432 -29.1763 -11.6929 -11.6640 -11.3217 -11.2874
   -11.2192 -10.9458 -10.8706 -10.8153 -10.6964 -10.5632 -10.4806 -10.3681
    -8.2133  -7.8994  -7.7459  -7.6851  -7.6332  -7.5486  -7.4684  -6.7892
     3.8319   4.2630   4.3984   4.5153   4.8543   5.0066   5.1520   5.4148
     5.5578   5.7214   5.7809   6.0239   6.1140   6.1791   6.2697   6.3499
     6.4183   6.4475   6.5386   6.6213   6.6980   6.8017   6.9545   7.2044

     occupation numbers 
     1.0000   1.0000   1.0000   1.0000   1.0000   1.0000   1.0000   1.0000
     1.0000   1.0000   1.0000   1.0000   1.0000   1.0000   1.0000   1.0000
     1.0000   1.0000   1.0000   1.0000   1.0000   1.0000   1.0000   1.0000
     1.0000   1.0000   1.0000   1.0000   1.0000   1.0000   1.0000   1.0000
     1.0000   1.0000   1.0000   1.0000   1.0000   1.0000   1.0000   1.0000
     1.0000   1.0000   1.0000   1.0000   1.0000   1.0000   1.0000   1.0000
     1.0000   1.0000   1.0000   1.0000   1.0000   1.0000   1.0000   1.0000
     1.0000   1.0000   1.0000   1.0000   1.0000   1.0000   1.0000   1.0000

          k =-0.0011-0.0068 0.3526 (  5533 PWs)   bands (ev):

   -66.1133 -65.5616 -65.1788 -65.0936 -33.1158 -33.0770 -33.0342 -32.5543
   -32.5353 -32.4874 -32.1737 -32.1568 -32.1226 -32.0738 -32.0599 -32.0468
   -29.8593 -29.4496 -29.2429 -29.1704 -11.8769 -11.6662 -11.4754 -11.3995
   -11.1292 -10.8562 -10.7359 -10.7296 -10.6579 -10.5476 -10.3168 -10.2680
    -8.4918  -8.0760  -7.9332  -7.7968  -7.5053  -7.4643  -7.3046  -6.6458
     3.4881   4.0354   4.1401   4.6665   4.7340   4.8727   4.9063   5.7247
     5.8353   5.8807   6.0021   6.0805   6.1567   6.2032   6.3182   6.3375
     6.4160   6.4826   6.6533   6.6781   6.7469   6.8274   7.1038   7.3957

     occupation numbers 
     1.0000   1.0000   1.0000   1.0000   1.0000   1.0000   1.0000   1.0000
     1.0000   1.0000   1.0000   1.0000   1.0000   1.0000   1.0000   1.0000
     1.0000   1.0000   1.0000   1.0000   1.0000   1.0000   1.0000   1.0000
     1.0000   1.0000   1.0000   1.0000   1.0000   1.0000   1.0000   1.0000
     1.0000   1.0000   1.0000   1.0000   1.0000   1.0000   1.0000   1.0000
     1.0000   1.0000   1.0000   1.0000   1.0000   1.0000   1.0000   1.0000
     1.0000   1.0000   1.0000   1.0000   1.0000   1.0000   1.0000   1.0000
     1.0000   1.0000   1.0000   1.0000   1.0000   1.0000   1.0000   1.0000

          k = 0.1761 0.1762 0.1723 (  5540 PWs)   bands (ev):

   -66.1133 -65.5616 -65.1788 -65.0936 -33.1158 -33.0769 -33.0342 -32.5543
   -32.5354 -32.4875 -32.1736 -32.1567 -32.1226 -32.0738 -32.0599 -32.0468
   -29.8614 -29.4473 -29.2370 -29.1764 -11.9115 -11.7158 -11.4661 -11.4188
   -11.0374 -10.8213 -10.7322 -10.6809 -10.6141 -10.5587 -10.4034 -10.3131
    -8.5008  -8.0181  -7.9256  -7.7898  -7.4916  -7.3856  -7.3445  -6.7514
     3.4106   4.0438   4.0983   4.5655   4.7346   4.8026   4.9115   5.7186
     5.8249   5.9163   6.0116   6.0807   6.1912   6.2475   6.3510   6.4282
     6.5270   6.5692   6.6567   6.6731   6.8288   6.8773   7.0818   7.3420

     occupation numbers 
     1.0000   1.0000   1.0000   1.0000   1.0000   1.0000   1.0000   1.0000
     1.0000   1.0000   1.0000   1.0000   1.0000   1.0000   1.0000   1.0000
     1.0000   1.0000   1.0000   1.0000   1.0000   1.0000   1.0000   1.0000
     1.0000   1.0000   1.0000   1.0000   1.0000   1.0000   1.0000   1.0000
     1.0000   1.0000   1.0000   1.0000   1.0000   1.0000   1.0000   1.0000
     1.0000   1.0000   1.0000   1.0000   1.0000   1.0000   1.0000   1.0000
     1.0000   1.0000   1.0000   1.0000   1.0000   1.0000   1.0000   1.0000
     1.0000   1.0000   1.0000   1.0000   1.0000   1.0000   1.0000   1.0000

          k =-0.3554-0.3728 0.7131 (  5521 PWs)   bands (ev):

   -66.1133 -65.5616 -65.1788 -65.0936 -33.1158 -33.0770 -33.0342 -32.5543
   -32.5353 -32.4874 -32.1737 -32.1569 -32.1226 -32.0739 -32.0599 -32.0469
   -29.8591 -29.4493 -29.2308 -29.1831 -11.7691 -11.6493 -11.4016 -11.3591
   -11.1777 -10.8643 -10.8045 -10.7809 -10.7130 -10.5568 -10.4873 -10.3159
    -8.2601  -7.9776  -7.8120  -7.6032  -7.5806  -7.4675  -7.3245  -7.0050
     3.7732   4.2779   4.4254   4.4999   4.7314   4.9188   5.2106   5.3700
     5.5124   5.7007   5.7996   5.9421   6.2178   6.2440   6.3294   6.3792
     6.4187   6.4765   6.5685   6.6130   6.7448   6.8711   7.0005   7.1707

     occupation numbers 
     1.0000   1.0000   1.0000   1.0000   1.0000   1.0000   1.0000   1.0000
     1.0000   1.0000   1.0000   1.0000   1.0000   1.0000   1.0000   1.0000
     1.0000   1.0000   1.0000   1.0000   1.0000   1.0000   1.0000   1.0000
     1.0000   1.0000   1.0000   1.0000   1.0000   1.0000   1.0000   1.0000
     1.0000   1.0000   1.0000   1.0000   1.0000   1.0000   1.0000   1.0000
     1.0000   1.0000   1.0000   1.0000   1.0000   1.0000   1.0000   1.0000
     1.0000   1.0000   1.0000   1.0000   1.0000   1.0000   1.0000   1.0000
     1.0000   1.0000   1.0000   1.0000   1.0000   1.0000   1.0000   1.0000

          k =-0.1782-0.1898 0.5329 (  5534 PWs)   bands (ev):

   -66.1133 -65.5616 -65.1788 -65.0936 -33.1158 -33.0770 -33.0342 -32.5542
   -32.5352 -32.4873 -32.1737 -32.1569 -32.1226 -32.0739 -32.0599 -32.0469
   -29.8569 -29.4516 -29.2380 -29.1758 -11.7017 -11.5982 -11.4235 -11.3049
   -11.2715 -11.0210 -10.8451 -10.7473 -10.7071 -10.5439 -10.3930 -10.3154
    -8.2194  -7.9916  -7.8035  -7.7002  -7.6690  -7.4398  -7.3902  -6.8204
     3.9284   4.2778   4.4217   4.4710   4.8648   5.1052   5.1917   5.3423
     5.4112   5.7241   5.7458   5.8461   6.0719   6.1659   6.2185   6.2929
     6.4411   6.5255   6.5983   6.6612   6.7589   6.8173   6.8819   7.2401

     occupation numbers 
     1.0000   1.0000   1.0000   1.0000   1.0000   1.0000   1.0000   1.0000
     1.0000   1.0000   1.0000   1.0000   1.0000   1.0000   1.0000   1.0000
     1.0000   1.0000   1.0000   1.0000   1.0000   1.0000   1.0000   1.0000
     1.0000   1.0000   1.0000   1.0000   1.0000   1.0000   1.0000   1.0000
     1.0000   1.0000   1.0000   1.0000   1.0000   1.0000   1.0000   1.0000
     1.0000   1.0000   1.0000   1.0000   1.0000   1.0000   1.0000   1.0000
     1.0000   1.0000   1.0000   1.0000   1.0000   1.0000   1.0000   1.0000
     1.0000   1.0000   1.0000   1.0000   1.0000   1.0000   1.0000   1.0000

          k =-0.5594 0.5723-0.1849 (  5535 PWs)   bands (ev):

   -66.1133 -65.5616 -65.1787 -65.0936 -33.1158 -33.0770 -33.0342 -32.5543
   -32.5353 -32.4873 -32.1737 -32.1565 -32.1219 -32.0740 -32.0605 -32.0473
   -29.8575 -29.4464 -29.2473 -29.1709 -11.7590 -11.6063 -11.4224 -11.3637
   -11.1870 -10.9868 -10.7976 -10.7526 -10.6924 -10.5375 -10.4537 -10.2664
    -8.2292  -8.0524  -7.8673  -7.7642  -7.6126  -7.4262  -7.3758  -6.7552
     3.9420   4.3123   4.5139   4.5798   4.8009   4.9318   5.2174   5.3913
     5.5209   5.6516   5.8200   5.8741   6.0250   6.0734   6.2319   6.3567
     6.4097   6.5017   6.5662   6.6799   6.6978   6.7765   6.9445   7.0668

     occupation numbers 
     1.0000   1.0000   1.0000   1.0000   1.0000   1.0000   1.0000   1.0000
     1.0000   1.0000   1.0000   1.0000   1.0000   1.0000   1.0000   1.0000
     1.0000   1.0000   1.0000   1.0000   1.0000   1.0000   1.0000   1.0000
     1.0000   1.0000   1.0000   1.0000   1.0000   1.0000   1.0000   1.0000
     1.0000   1.0000   1.0000   1.0000   1.0000   1.0000   1.0000   1.0000
     1.0000   1.0000   1.0000   1.0000   1.0000   1.0000   1.0000   1.0000
     1.0000   1.0000   1.0000   1.0000   1.0000   1.0000   1.0000   1.0000
     1.0000   1.0000   1.0000   1.0000   1.0000   1.0000   1.0000   1.0000

          k =-0.3823 0.7553-0.3652 (  5524 PWs)   bands (ev):

   -66.1133 -65.5616 -65.1787 -65.0936 -33.1158 -33.0769 -33.0342 -32.5543
   -32.5353 -32.4874 -32.1736 -32.1565 -32.1219 -32.0739 -32.0605 -32.0473
   -29.8597 -29.4441 -29.2415 -29.1768 -11.8317 -11.6690 -11.4757 -11.2889
   -11.0664 -10.8901 -10.8397 -10.7103 -10.6373 -10.5489 -10.4982 -10.3706
    -8.2797  -7.9821  -7.7989  -7.7441  -7.6323  -7.4750  -7.4111  -6.7527
     3.8186   4.3419   4.3817   4.4976   4.6915   4.8883   5.1615   5.3252
     5.6474   5.7732   5.9238   6.0107   6.0988   6.1359   6.2495   6.3454
     6.4479   6.5100   6.5488   6.6358   6.7290   6.7971   6.9973   7.1629

     occupation numbers 
     1.0000   1.0000   1.0000   1.0000   1.0000   1.0000   1.0000   1.0000
     1.0000   1.0000   1.0000   1.0000   1.0000   1.0000   1.0000   1.0000
     1.0000   1.0000   1.0000   1.0000   1.0000   1.0000   1.0000   1.0000
     1.0000   1.0000   1.0000   1.0000   1.0000   1.0000   1.0000   1.0000
     1.0000   1.0000   1.0000   1.0000   1.0000   1.0000   1.0000   1.0000
     1.0000   1.0000   1.0000   1.0000   1.0000   1.0000   1.0000   1.0000
     1.0000   1.0000   1.0000   1.0000   1.0000   1.0000   1.0000   1.0000
     1.0000   1.0000   1.0000   1.0000   1.0000   1.0000   1.0000   1.0000

          k =-0.9137 0.2063 0.1756 (  5515 PWs)   bands (ev):

   -66.1133 -65.5616 -65.1787 -65.0936 -33.1158 -33.0769 -33.0342 -32.5544
   -32.5353 -32.4875 -32.1736 -32.1564 -32.1220 -32.0739 -32.0605 -32.0473
   -29.8603 -29.4425 -29.2361 -29.1833 -11.7937 -11.6670 -11.4219 -11.2906
   -11.1128 -10.8740 -10.7866 -10.7376 -10.6668 -10.5847 -10.5157 -10.4552
    -8.1805  -8.0322  -7.9086  -7.6193  -7.5050  -7.4383  -7.3521  -6.9644
     3.9806   4.3240   4.4377   4.5199   4.7160   4.9455   5.2679   5.3384
     5.4419   5.5676   5.7887   5.9784   6.0285   6.1741   6.2280   6.3370
     6.4475   6.5181   6.6082   6.6744   6.7377   6.8213   6.9818   7.0903

     occupation numbers 
     1.0000   1.0000   1.0000   1.0000   1.0000   1.0000   1.0000   1.0000
     1.0000   1.0000   1.0000   1.0000   1.0000   1.0000   1.0000   1.0000
     1.0000   1.0000   1.0000   1.0000   1.0000   1.0000   1.0000   1.0000
     1.0000   1.0000   1.0000   1.0000   1.0000   1.0000   1.0000   1.0000
     1.0000   1.0000   1.0000   1.0000   1.0000   1.0000   1.0000   1.0000
     1.0000   1.0000   1.0000   1.0000   1.0000   1.0000   1.0000   1.0000
     1.0000   1.0000   1.0000   1.0000   1.0000   1.0000   1.0000   1.0000
     1.0000   1.0000   1.0000   1.0000   1.0000   1.0000   1.0000   1.0000

          k =-0.7366 0.3893-0.0046 (  5519 PWs)   bands (ev):

   -66.1133 -65.5616 -65.1787 -65.0936 -33.1158 -33.0770 -33.0342 -32.5543
   -32.5352 -32.4874 -32.1736 -32.1565 -32.1220 -32.0740 -32.0605 -32.0473
   -29.8581 -29.4447 -29.2430 -29.1764 -11.7057 -11.5661 -11.3971 -11.3743
   -11.2800 -10.9367 -10.8118 -10.7675 -10.6560 -10.5346 -10.4997 -10.3782
    -8.1501  -8.0264  -7.9809  -7.6568  -7.5249  -7.3610  -7.3426  -6.9620
     4.2312   4.2802   4.4966   4.5656   4.9253   5.0598   5.1285   5.2390
     5.3250   5.4700   5.7499   5.9783   6.0646   6.1886   6.2349   6.3300
     6.4077   6.4628   6.5493   6.6417   6.7067   6.7812   6.8325   7.0623

     occupation numbers 
     1.0000   1.0000   1.0000   1.0000   1.0000   1.0000   1.0000   1.0000
     1.0000   1.0000   1.0000   1.0000   1.0000   1.0000   1.0000   1.0000
     1.0000   1.0000   1.0000   1.0000   1.0000   1.0000   1.0000   1.0000
     1.0000   1.0000   1.0000   1.0000   1.0000   1.0000   1.0000   1.0000
     1.0000   1.0000   1.0000   1.0000   1.0000   1.0000   1.0000   1.0000
     1.0000   1.0000   1.0000   1.0000   1.0000   1.0000   1.0000   1.0000
     1.0000   1.0000   1.0000   1.0000   1.0000   1.0000   1.0000   1.0000
     1.0000   1.0000   1.0000   1.0000   1.0000   1.0000   1.0000   1.0000

          k =-0.3733 0.3792-0.0057 (  5545 PWs)   bands (ev):

   -66.1133 -65.5616 -65.1787 -65.0936 -33.1159 -33.0770 -33.0342 -32.5543
   -32.5353 -32.4874 -32.1736 -32.1561 -32.1212 -32.0740 -32.0611 -32.0477
   -29.8588 -29.4393 -29.2527 -29.1716 -11.7121 -11.6765 -11.4009 -11.2371
   -11.1413 -10.9817 -10.8581 -10.8183 -10.6991 -10.5608 -10.5323 -10.2641
    -8.2645  -7.9849  -7.8010  -7.6566  -7.6034  -7.5343  -7.3285  -6.8636
     3.8257   4.3930   4.4907   4.5550   4.8900   5.0258   5.1788   5.3310
     5.5519   5.7080   5.8498   5.9155   6.0962   6.1844   6.2711   6.2939
     6.3852   6.4611   6.5325   6.6227   6.7471   6.7604   6.8897   7.0110

     occupation numbers 
     1.0000   1.0000   1.0000   1.0000   1.0000   1.0000   1.0000   1.0000
     1.0000   1.0000   1.0000   1.0000   1.0000   1.0000   1.0000   1.0000
     1.0000   1.0000   1.0000   1.0000   1.0000   1.0000   1.0000   1.0000
     1.0000   1.0000   1.0000   1.0000   1.0000   1.0000   1.0000   1.0000
     1.0000   1.0000   1.0000   1.0000   1.0000   1.0000   1.0000   1.0000
     1.0000   1.0000   1.0000   1.0000   1.0000   1.0000   1.0000   1.0000
     1.0000   1.0000   1.0000   1.0000   1.0000   1.0000   1.0000   1.0000
     1.0000   1.0000   1.0000   1.0000   1.0000   1.0000   1.0000   1.0000

          k =-0.1962 0.5622-0.1860 (  5551 PWs)   bands (ev):

   -66.1133 -65.5616 -65.1787 -65.0936 -33.1159 -33.0770 -33.0342 -32.5543
   -32.5353 -32.4874 -32.1736 -32.1562 -32.1212 -32.0740 -32.0611 -32.0477
   -29.8580 -29.4409 -29.2464 -29.1771 -11.7057 -11.6030 -11.4551 -11.2034
   -11.1120 -10.9841 -10.9059 -10.8412 -10.6200 -10.5730 -10.5365 -10.3929
    -8.2727  -7.9698  -7.7908  -7.6240  -7.5530  -7.5025  -7.3754  -6.8985
     3.9828   4.3695   4.5104   4.5986   4.9453   5.0230   5.2513   5.3803
     5.4709   5.6289   5.6654   5.9359   6.0454   6.0950   6.1450   6.2517
     6.4383   6.5030   6.5566   6.6276   6.7409   6.7906   6.8727   6.9756

     occupation numbers 
     1.0000   1.0000   1.0000   1.0000   1.0000   1.0000   1.0000   1.0000
     1.0000   1.0000   1.0000   1.0000   1.0000   1.0000   1.0000   1.0000
     1.0000   1.0000   1.0000   1.0000   1.0000   1.0000   1.0000   1.0000
     1.0000   1.0000   1.0000   1.0000   1.0000   1.0000   1.0000   1.0000
     1.0000   1.0000   1.0000   1.0000   1.0000   1.0000   1.0000   1.0000
     1.0000   1.0000   1.0000   1.0000   1.0000   1.0000   1.0000   1.0000
     1.0000   1.0000   1.0000   1.0000   1.0000   1.0000   1.0000   1.0000
     1.0000   1.0000   1.0000   1.0000   1.0000   1.0000   1.0000   1.0000

          k =-0.7276 0.0133 0.3548 (  5536 PWs)   bands (ev):

   -66.1133 -65.5616 -65.1787 -65.0936 -33.1159 -33.0770 -33.0342 -32.5543
   -32.5353 -32.4874 -32.1736 -32.1561 -32.1212 -32.0740 -32.0612 -32.0477
   -29.8587 -29.4392 -29.2413 -29.1833 -11.6834 -11.5961 -11.4195 -11.2281
   -11.1470 -10.9083 -10.8150 -10.7751 -10.7110 -10.6213 -10.5642 -10.5371
    -8.1593  -7.9880  -7.8560  -7.6109  -7.5009  -7.4383  -7.3841  -6.9707
     4.2843   4.3522   4.4705   4.5486   4.9647   5.0449   5.2207   5.2450
     5.3597   5.4469   5.7437   5.9674   6.0445   6.1060   6.1905   6.2695
     6.3516   6.4593   6.5585   6.6363   6.6919   6.8072   6.8607   7.0447

     occupation numbers 
     1.0000   1.0000   1.0000   1.0000   1.0000   1.0000   1.0000   1.0000
     1.0000   1.0000   1.0000   1.0000   1.0000   1.0000   1.0000   1.0000
     1.0000   1.0000   1.0000   1.0000   1.0000   1.0000   1.0000   1.0000
     1.0000   1.0000   1.0000   1.0000   1.0000   1.0000   1.0000   1.0000
     1.0000   1.0000   1.0000   1.0000   1.0000   1.0000   1.0000   1.0000
     1.0000   1.0000   1.0000   1.0000   1.0000   1.0000   1.0000   1.0000
     1.0000   1.0000   1.0000   1.0000   1.0000   1.0000   1.0000   1.0000
     1.0000   1.0000   1.0000   1.0000   1.0000   1.0000   1.0000   1.0000

          k =-0.5505 0.1963 0.1745 (  5517 PWs)   bands (ev):

   -66.1133 -65.5616 -65.1787 -65.0936 -33.1159 -33.0770 -33.0342 -32.5544
   -32.5353 -32.4875 -32.1735 -32.1560 -32.1212 -32.0740 -32.0612 -32.0477
   -29.8595 -29.4376 -29.2486 -29.1768 -11.7505 -11.5911 -11.3374 -11.2863
   -11.1551 -10.9084 -10.8861 -10.8191 -10.6898 -10.6031 -10.5401 -10.3891
    -8.1481  -8.0054  -7.8878  -7.6223  -7.5223  -7.4798  -7.3715  -6.9212
     4.0118   4.3778   4.4638   4.5142   4.9496   5.0721   5.1992   5.3495
     5.4824   5.6385   5.6906   5.7956   5.9928   6.1507   6.2413   6.3061
     6.4049   6.5194   6.5540   6.6534   6.7089   6.8122   6.8897   7.0649

     occupation numbers 
     1.0000   1.0000   1.0000   1.0000   1.0000   1.0000   1.0000   1.0000
     1.0000   1.0000   1.0000   1.0000   1.0000   1.0000   1.0000   1.0000
     1.0000   1.0000   1.0000   1.0000   1.0000   1.0000   1.0000   1.0000
     1.0000   1.0000   1.0000   1.0000   1.0000   1.0000   1.0000   1.0000
     1.0000   1.0000   1.0000   1.0000   1.0000   1.0000   1.0000   1.0000
     1.0000   1.0000   1.0000   1.0000   1.0000   1.0000   1.0000   1.0000
     1.0000   1.0000   1.0000   1.0000   1.0000   1.0000   1.0000   1.0000
     1.0000   1.0000   1.0000   1.0000   1.0000   1.0000   1.0000   1.0000

          k = 0.3744-0.3724-0.3469 (  5524 PWs)   bands (ev):

   -66.1133 -65.5616 -65.1787 -65.0936 -33.1159 -33.0769 -33.0342 -32.5544
   -32.5353 -32.4875 -32.1735 -32.1560 -32.1212 -32.0740 -32.0611 -32.0477
   -29.8592 -29.4377 -29.2541 -29.1717 -11.7257 -11.5403 -11.3725 -11.3077
   -11.1606 -10.9726 -10.8980 -10.8352 -10.7105 -10.5954 -10.5615 -10.2651
    -8.1242  -7.9966  -7.7826  -7.6165  -7.5743  -7.5419  -7.4440  -6.8995
     4.0449   4.1356   4.4910   4.5985   4.9794   5.0456   5.2442   5.4114
     5.5992   5.6521   5.7256   5.7919   5.9114   6.0186   6.2715   6.3564
     6.3646   6.5229   6.6244   6.6860   6.7625   6.8440   6.9384   6.9523

     occupation numbers 
     1.0000   1.0000   1.0000   1.0000   1.0000   1.0000   1.0000   1.0000
     1.0000   1.0000   1.0000   1.0000   1.0000   1.0000   1.0000   1.0000
     1.0000   1.0000   1.0000   1.0000   1.0000   1.0000   1.0000   1.0000
     1.0000   1.0000   1.0000   1.0000   1.0000   1.0000   1.0000   1.0000
     1.0000   1.0000   1.0000   1.0000   1.0000   1.0000   1.0000   1.0000
     1.0000   1.0000   1.0000   1.0000   1.0000   1.0000   1.0000   1.0000
     1.0000   1.0000   1.0000   1.0000   1.0000   1.0000   1.0000   1.0000
     1.0000   1.0000   1.0000   1.0000   1.0000   1.0000   1.0000   1.0000

          k = 0.5516-0.1894-0.5271 (  5542 PWs)   bands (ev):

   -66.1133 -65.5616 -65.1787 -65.0936 -33.1158 -33.0769 -33.0342 -32.5543
   -32.5353 -32.4875 -32.1736 -32.1561 -32.1212 -32.0740 -32.0611 -32.0477
   -29.8583 -29.4393 -29.2479 -29.1772 -11.6652 -11.5555 -11.3895 -11.3060
   -11.1842 -10.9220 -10.8892 -10.8124 -10.6940 -10.5944 -10.5764 -10.3903
    -8.2123  -7.9834  -7.7924  -7.6025  -7.5068  -7.4749  -7.4268  -6.9411
     4.0066   4.3328   4.5204   4.5743   4.9952   5.0701   5.2389   5.3673
     5.4625   5.5755   5.6370   5.8986   6.0019   6.0996   6.1988   6.2539
     6.4537   6.5107   6.5664   6.6264   6.7087   6.8466   6.9158   6.9687

     occupation numbers 
     1.0000   1.0000   1.0000   1.0000   1.0000   1.0000   1.0000   1.0000
     1.0000   1.0000   1.0000   1.0000   1.0000   1.0000   1.0000   1.0000
     1.0000   1.0000   1.0000   1.0000   1.0000   1.0000   1.0000   1.0000
     1.0000   1.0000   1.0000   1.0000   1.0000   1.0000   1.0000   1.0000
     1.0000   1.0000   1.0000   1.0000   1.0000   1.0000   1.0000   1.0000
     1.0000   1.0000   1.0000   1.0000   1.0000   1.0000   1.0000   1.0000
     1.0000   1.0000   1.0000   1.0000   1.0000   1.0000   1.0000   1.0000
     1.0000   1.0000   1.0000   1.0000   1.0000   1.0000   1.0000   1.0000

          k = 0.0201-0.7384 0.0137 (  5542 PWs)   bands (ev):

   -66.1133 -65.5616 -65.1787 -65.0936 -33.1158 -33.0769 -33.0342 -32.5543
   -32.5353 -32.4874 -32.1736 -32.1562 -32.1212 -32.0740 -32.0611 -32.0477
   -29.8575 -29.4409 -29.2405 -29.1838 -11.6125 -11.5715 -11.4036 -11.2345
   -11.2062 -10.9834 -10.8475 -10.7871 -10.6558 -10.6037 -10.5671 -10.5357
    -8.2543  -8.0553  -7.7688  -7.5387  -7.4800  -7.4239  -7.3869  -6.9975
     4.0767   4.2923   4.4449   4.8690   4.9809   5.1466   5.2484   5.3046
     5.4261   5.5706   5.6496   5.7582   5.9414   6.0700   6.1033   6.2016
     6.2609   6.4374   6.6244   6.7698   6.8314   6.8474   6.8709   6.9879

     occupation numbers 
     1.0000   1.0000   1.0000   1.0000   1.0000   1.0000   1.0000   1.0000
     1.0000   1.0000   1.0000   1.0000   1.0000   1.0000   1.0000   1.0000
     1.0000   1.0000   1.0000   1.0000   1.0000   1.0000   1.0000   1.0000
     1.0000   1.0000   1.0000   1.0000   1.0000   1.0000   1.0000   1.0000
     1.0000   1.0000   1.0000   1.0000   1.0000   1.0000   1.0000   1.0000
     1.0000   1.0000   1.0000   1.0000   1.0000   1.0000   1.0000   1.0000
     1.0000   1.0000   1.0000   1.0000   1.0000   1.0000   1.0000   1.0000
     1.0000   1.0000   1.0000   1.0000   1.0000   1.0000   1.0000   1.0000

          k = 0.5605-0.5655-0.1677 (  5543 PWs)   bands (ev):

   -66.1133 -65.5616 -65.1787 -65.0936 -33.1158 -33.0770 -33.0342 -32.5543
   -32.5352 -32.4874 -32.1736 -32.1565 -32.1219 -32.0740 -32.0605 -32.0473
   -29.8578 -29.4448 -29.2487 -29.1710 -11.6946 -11.6224 -11.3954 -11.2968
   -11.2758 -10.9716 -10.8223 -10.7686 -10.7194 -10.5838 -10.4531 -10.2670
    -8.2212  -7.9757  -7.8730  -7.7347  -7.6269  -7.4254  -7.4004  -6.7801
     3.9717   4.3365   4.4373   4.4919   4.9094   5.0400   5.1890   5.4124
     5.4594   5.5518   5.8034   5.8462   6.0145   6.1328   6.2664   6.3025
     6.4524   6.5103   6.5896   6.6389   6.7038   6.7825   6.9634   7.1074

     occupation numbers 
     1.0000   1.0000   1.0000   1.0000   1.0000   1.0000   1.0000   1.0000
     1.0000   1.0000   1.0000   1.0000   1.0000   1.0000   1.0000   1.0000
     1.0000   1.0000   1.0000   1.0000   1.0000   1.0000   1.0000   1.0000
     1.0000   1.0000   1.0000   1.0000   1.0000   1.0000   1.0000   1.0000
     1.0000   1.0000   1.0000   1.0000   1.0000   1.0000   1.0000   1.0000
     1.0000   1.0000   1.0000   1.0000   1.0000   1.0000   1.0000   1.0000
     1.0000   1.0000   1.0000   1.0000   1.0000   1.0000   1.0000   1.0000
     1.0000   1.0000   1.0000   1.0000   1.0000   1.0000   1.0000   1.0000

          k = 0.7377-0.3825-0.3480 (  5538 PWs)   bands (ev):

   -66.1133 -65.5616 -65.1787 -65.0936 -33.1158 -33.0769 -33.0342 -32.5544
   -32.5353 -32.4875 -32.1736 -32.1564 -32.1219 -32.0739 -32.0605 -32.0473
   -29.8600 -29.4426 -29.2429 -29.1768 -11.7818 -11.6253 -11.4162 -11.3564
   -11.2019 -10.8800 -10.7653 -10.7082 -10.6483 -10.5966 -10.5021 -10.3814
    -8.3024  -8.0352  -7.8471  -7.6162  -7.5260  -7.4469  -7.3338  -6.9363
     3.7978   4.3536   4.3899   4.4705   4.7732   4.9807   5.1311   5.3505
     5.5811   5.7303   5.7972   6.0388   6.1258   6.2188   6.2847   6.3598
     6.4401   6.4670   6.5122   6.6347   6.7648   6.8365   6.9459   7.1253

     occupation numbers 
     1.0000   1.0000   1.0000   1.0000   1.0000   1.0000   1.0000   1.0000
     1.0000   1.0000   1.0000   1.0000   1.0000   1.0000   1.0000   1.0000
     1.0000   1.0000   1.0000   1.0000   1.0000   1.0000   1.0000   1.0000
     1.0000   1.0000   1.0000   1.0000   1.0000   1.0000   1.0000   1.0000
     1.0000   1.0000   1.0000   1.0000   1.0000   1.0000   1.0000   1.0000
     1.0000   1.0000   1.0000   1.0000   1.0000   1.0000   1.0000   1.0000
     1.0000   1.0000   1.0000   1.0000   1.0000   1.0000   1.0000   1.0000
     1.0000   1.0000   1.0000   1.0000   1.0000   1.0000   1.0000   1.0000

          k = 0.2062-0.9314 0.1928 (  5520 PWs)   bands (ev):

   -66.1133 -65.5616 -65.1787 -65.0936 -33.1158 -33.0769 -33.0342 -32.5543
   -32.5354 -32.4875 -32.1736 -32.1565 -32.1219 -32.0739 -32.0605 -32.0473
   -29.8592 -29.4441 -29.2354 -29.1838 -11.7513 -11.6071 -11.4556 -11.2918
   -11.1194 -10.9174 -10.8481 -10.7461 -10.6245 -10.5882 -10.5263 -10.4514
    -8.2731  -7.9831  -7.7878  -7.6236  -7.4970  -7.4675  -7.3649  -6.9876
     3.9567   4.3392   4.4398   4.5561   4.8351   4.9777   5.1420   5.3571
     5.5109   5.5792   5.7481   5.8621   6.0517   6.1899   6.2506   6.3559
     6.4355   6.5085   6.5632   6.6905   6.7340   6.8506   6.9549   7.0524

     occupation numbers 
     1.0000   1.0000   1.0000   1.0000   1.0000   1.0000   1.0000   1.0000
     1.0000   1.0000   1.0000   1.0000   1.0000   1.0000   1.0000   1.0000
     1.0000   1.0000   1.0000   1.0000   1.0000   1.0000   1.0000   1.0000
     1.0000   1.0000   1.0000   1.0000   1.0000   1.0000   1.0000   1.0000
     1.0000   1.0000   1.0000   1.0000   1.0000   1.0000   1.0000   1.0000
     1.0000   1.0000   1.0000   1.0000   1.0000   1.0000   1.0000   1.0000
     1.0000   1.0000   1.0000   1.0000   1.0000   1.0000   1.0000   1.0000
     1.0000   1.0000   1.0000   1.0000   1.0000   1.0000   1.0000   1.0000

          k = 0.3834-0.7484 0.0126 (  5524 PWs)   bands (ev):

   -66.1133 -65.5616 -65.1787 -65.0936 -33.1158 -33.0770 -33.0342 -32.5543
   -32.5353 -32.4874 -32.1737 -32.1566 -32.1219 -32.0740 -32.0605 -32.0473
   -29.8570 -29.4463 -29.2424 -29.1767 -11.6652 -11.5756 -11.4185 -11.2898
   -11.2255 -11.0050 -10.8909 -10.7426 -10.7040 -10.5690 -10.4841 -10.3700
    -8.1665  -7.9118  -7.8249  -7.6881  -7.6356  -7.5515  -7.3881  -6.8058
     4.2660   4.3403   4.4112   4.5775   4.8849   5.0297   5.2162   5.3073
     5.3714   5.4192   5.7221   5.9362   5.9764   6.1624   6.2443   6.3029
     6.3765   6.5076   6.5532   6.6110   6.7515   6.7788   6.8966   7.0925

     occupation numbers 
     1.0000   1.0000   1.0000   1.0000   1.0000   1.0000   1.0000   1.0000
     1.0000   1.0000   1.0000   1.0000   1.0000   1.0000   1.0000   1.0000
     1.0000   1.0000   1.0000   1.0000   1.0000   1.0000   1.0000   1.0000
     1.0000   1.0000   1.0000   1.0000   1.0000   1.0000   1.0000   1.0000
     1.0000   1.0000   1.0000   1.0000   1.0000   1.0000   1.0000   1.0000
     1.0000   1.0000   1.0000   1.0000   1.0000   1.0000   1.0000   1.0000
     1.0000   1.0000   1.0000   1.0000   1.0000   1.0000   1.0000   1.0000
     1.0000   1.0000   1.0000   1.0000   1.0000   1.0000   1.0000   1.0000

          k = 0.0022 0.0137-0.7052 (  5516 PWs)   bands (ev):

   -66.1133 -65.5616 -65.1788 -65.0936 -33.1158 -33.0770 -33.0342 -32.5543
   -32.5352 -32.4874 -32.1738 -32.1569 -32.1226 -32.0739 -32.0599 -32.0469
   -29.8565 -29.4517 -29.2436 -29.1703 -11.7481 -11.5736 -11.4793 -11.3050
   -11.2321 -11.0561 -10.8398 -10.7406 -10.6640 -10.5635 -10.3175 -10.2677
    -8.3257  -8.0054  -7.8670  -7.8362  -7.6627  -7.4075  -7.3104  -6.6897
     3.9717   4.2143   4.3994   4.7493   4.8582   5.0073   5.1360   5.2218
     5.4342   5.7976   5.8287   5.9131   5.9811   6.0063   6.1648   6.2429
     6.3152   6.4096   6.5641   6.6848   6.7927   6.8373   7.0293   7.3288

     occupation numbers 
     1.0000   1.0000   1.0000   1.0000   1.0000   1.0000   1.0000   1.0000
     1.0000   1.0000   1.0000   1.0000   1.0000   1.0000   1.0000   1.0000
     1.0000   1.0000   1.0000   1.0000   1.0000   1.0000   1.0000   1.0000
     1.0000   1.0000   1.0000   1.0000   1.0000   1.0000   1.0000   1.0000
     1.0000   1.0000   1.0000   1.0000   1.0000   1.0000   1.0000   1.0000
     1.0000   1.0000   1.0000   1.0000   1.0000   1.0000   1.0000   1.0000
     1.0000   1.0000   1.0000   1.0000   1.0000   1.0000   1.0000   1.0000
     1.0000   1.0000   1.0000   1.0000   1.0000   1.0000   1.0000   1.0000

          k = 0.1793 0.1966-0.8855 (  5513 PWs)   bands (ev):

   -66.1133 -65.5616 -65.1788 -65.0936 -33.1158 -33.0769 -33.0342 -32.5543
   -32.5353 -32.4874 -32.1737 -32.1568 -32.1226 -32.0739 -32.0599 -32.0469
   -29.8586 -29.4493 -29.2378 -29.1763 -11.7951 -11.6240 -11.4282 -11.3997
   -11.1874 -10.9030 -10.7571 -10.7286 -10.7063 -10.5788 -10.3978 -10.3149
    -8.2326  -8.0544  -7.8506  -7.7323  -7.6169  -7.4037  -7.3817  -6.8078
     3.9337   4.2860   4.3828   4.5275   4.7216   4.9188   5.1929   5.3765
     5.5392   5.6217   5.7575   5.9570   6.0119   6.1083   6.2628   6.3316
     6.4739   6.5748   6.5801   6.6927   6.7817   6.8361   6.9102   7.2519

     occupation numbers 
     1.0000   1.0000   1.0000   1.0000   1.0000   1.0000   1.0000   1.0000
     1.0000   1.0000   1.0000   1.0000   1.0000   1.0000   1.0000   1.0000
     1.0000   1.0000   1.0000   1.0000   1.0000   1.0000   1.0000   1.0000
     1.0000   1.0000   1.0000   1.0000   1.0000   1.0000   1.0000   1.0000
     1.0000   1.0000   1.0000   1.0000   1.0000   1.0000   1.0000   1.0000
     1.0000   1.0000   1.0000   1.0000   1.0000   1.0000   1.0000   1.0000
     1.0000   1.0000   1.0000   1.0000   1.0000   1.0000   1.0000   1.0000
     1.0000   1.0000   1.0000   1.0000   1.0000   1.0000   1.0000   1.0000

          k =-0.3521-0.3523-0.3447 (  5510 PWs)   bands (ev):

   -66.1133 -65.5616 -65.1788 -65.0936 -33.1158 -33.0769 -33.0342 -32.5544
   -32.5354 -32.4875 -32.1737 -32.1568 -32.1226 -32.0738 -32.0599 -32.0469
   -29.8608 -29.4471 -29.2304 -29.1837 -11.8550 -11.6465 -11.4676 -11.3492
   -11.0783 -10.8742 -10.8139 -10.7322 -10.6137 -10.5986 -10.4985 -10.3152
    -8.2652  -7.9078  -7.8460  -7.6891  -7.5328  -7.5010  -7.3459  -6.9789
     3.9119   4.1111   4.5000   4.6046   4.6484   4.7345   5.2867   5.4078
     5.5178   5.6210   5.7155   5.9467   6.0874   6.1221   6.2913   6.4093
     6.4790   6.4936   6.6886   6.7323   6.7800   6.9311   7.0281   7.1562

     occupation numbers 
     1.0000   1.0000   1.0000   1.0000   1.0000   1.0000   1.0000   1.0000
     1.0000   1.0000   1.0000   1.0000   1.0000   1.0000   1.0000   1.0000
     1.0000   1.0000   1.0000   1.0000   1.0000   1.0000   1.0000   1.0000
     1.0000   1.0000   1.0000   1.0000   1.0000   1.0000   1.0000   1.0000
     1.0000   1.0000   1.0000   1.0000   1.0000   1.0000   1.0000   1.0000
     1.0000   1.0000   1.0000   1.0000   1.0000   1.0000   1.0000   1.0000
     1.0000   1.0000   1.0000   1.0000   1.0000   1.0000   1.0000   1.0000
     1.0000   1.0000   1.0000   1.0000   1.0000   1.0000   1.0000   1.0000

     highest occupied level (ev):     7.4701

!    total energy              =   -1059.64749720 Ry
     Harris-Foulkes estimate   =   -1059.64749720 Ry
     estimated scf accuracy    <          2.4E-11 Ry

     The total energy is the sum of the following terms:

     one-electron contribution =    -489.07634642 Ry
     hartree contribution      =     292.35778639 Ry
     xc contribution           =    -172.80716182 Ry
     ewald contribution        =    -690.12177536 Ry

     convergence has been achieved in  21 iterations

     Forces acting on atoms (Ry/au):

     atom    1 type  2   force =   0.10586573E-01  0.46055145E-02  0.20121210E-01
     atom    2 type  3   force =   0.28384329E-01 -0.30485698E-03 -0.23182137E-01
     atom    3 type  1   force =   0.84111047E-02 -0.61558844E-01 -0.71353291E-02
     atom    4 type  3   force =  -0.38839118E-02 -0.49899250E-01 -0.97670009E-02
     atom    5 type  1   force =  -0.26494564E-02  0.62846903E-02  0.75392749E-02
     atom    6 type  3   force =  -0.11007480E-01  0.17015575E-01 -0.45765685E-03
     atom    7 type  2   force =  -0.25477603E-01  0.86214298E-02  0.89962251E-02
     atom    8 type  3   force =  -0.39380731E-02  0.64961790E-01  0.28476252E-02
     atom    9 type  1   force =   0.24049890E-01  0.27478282E-01 -0.23284150E-01
     atom   10 type  3   force =   0.49921805E-01  0.24474795E-01 -0.53763786E-02
     atom   11 type  1   force =  -0.17740884E-01 -0.66805681E-01 -0.25168275E-02
     atom   12 type  3   force =   0.13953836E-02 -0.96492533E-02  0.73020929E-01
     atom   13 type  2   force =   0.37742953E-02 -0.14480689E-01  0.41238195E-02
     atom   14 type  3   force =   0.10755999E-01 -0.13453553E-01 -0.51319662E-01
     atom   15 type  2   force =   0.16685428E-01  0.13095580E-01  0.63234934E-02
     atom   16 type  3   force =  -0.89267399E-01  0.49614472E-01  0.66565314E-04
     The non-local contrib.  to forces
     atom    1 type  2   force =  -0.85107589E-01  0.37429098E-02  0.35293645E+00
     atom    2 type  3   force =   0.80450626E-01 -0.13052174E-01  0.35691117E-03
     atom    3 type  1   force =  -0.60901889E-02 -0.57383092E-01 -0.34323973E-02
     atom    4 type  3   force =  -0.25369553E-01 -0.15073536E+00  0.16913825E+00
     atom    5 type  1   force =   0.37716105E-03  0.13320327E-01  0.33722052E-02
     atom    6 type  3   force =  -0.22965259E-01  0.16145800E+00 -0.59706744E-01
     atom    7 type  2   force =   0.16328026E+00  0.15624799E+00 -0.23159154E+00
     atom    8 type  3   force =   0.82625341E-01  0.67196131E-01  0.76067893E-02
     atom    9 type  1   force =   0.31616437E-01  0.36223588E-01 -0.43674097E-01
     atom   10 type  3   force =   0.10438326E+00 -0.47746570E-01 -0.25565425E-01
     atom   11 type  1   force =  -0.57658008E-02 -0.27470805E-01  0.20895427E-02
     atom   12 type  3   force =   0.13442139E-01 -0.19303568E-01  0.12867156E+00
     atom   13 type  2   force =   0.83909826E-01 -0.19750367E+00  0.17697050E+00
     atom   14 type  3   force =   0.28361755E-01  0.73183857E-01  0.37238063E-01
     atom   15 type  2   force =  -0.41539301E-01  0.12093110E+00  0.40398658E+00
     atom   16 type  3   force =  -0.19924535E+00  0.58077139E-01  0.65758519E-02
     The ionic contribution  to forces
     atom    1 type  2   force =  -0.42794604E+00 -0.80350912E-01  0.46860762E+01
     atom    2 type  3   force =  -0.17891722E+00  0.51502034E-01 -0.26460751E+01
     atom    3 type  1   force =  -0.39597544E-01 -0.25939779E+01  0.96269680E+00
     atom    4 type  3   force =   0.44638917E+00 -0.78806614E-01 -0.32311678E+01
     atom    5 type  1   force =  -0.13378222E+00  0.15622297E+00 -0.15811816E+01
     atom    6 type  3   force =   0.89968727E+00 -0.70584197E+00  0.24145315E+01
     atom    7 type  2   force =   0.15577311E+01  0.11796263E+01 -0.44269535E+01
     atom    8 type  3   force =  -0.19610414E+01  0.83386049E+00  0.10442030E+01
     atom    9 type  1   force =   0.10800306E+01  0.15362936E+01 -0.30412224E+01
     atom   10 type  3   force =   0.16001280E+01  0.28045717E+01  0.12023939E+01
     atom   11 type  1   force =  -0.86289237E+00 -0.88549615E+00 -0.16510294E+01
     atom   12 type  3   force =  -0.10482508E+01 -0.11341236E+01  0.27014719E+01
     atom   13 type  2   force =  -0.13039771E-02 -0.21177753E+01  0.28548990E+01
     atom   14 type  3   force =   0.29762695E+00 -0.18356497E+01 -0.46289087E+01
     atom   15 type  2   force =   0.16420042E+00  0.19275820E+01  0.53677985E+01
     atom   16 type  3   force =  -0.13920619E+01  0.94236307E+00 -0.27532309E-01
     The local contribution  to forces
     atom    1 type  2   force =   0.52364247E+00  0.81214631E-01 -0.50188901E+01
     atom    2 type  3   force =   0.12793291E+00 -0.38797395E-01  0.26223913E+01
     atom    3 type  1   force =   0.54425322E-01  0.25907802E+01 -0.96671016E+00
     atom    4 type  3   force =  -0.42511038E+00  0.17803271E+00  0.30526201E+01
     atom    5 type  1   force =   0.13090894E+00 -0.16333768E+00  0.15857489E+01
     atom    6 type  3   force =  -0.88824035E+00  0.56223078E+00 -0.23555323E+01
     atom    7 type  2   force =  -0.17464903E+01 -0.13272532E+01  0.46675421E+01
     atom    8 type  3   force =   0.18746495E+01 -0.83436462E+00 -0.10489171E+01
     atom    9 type  1   force =  -0.10883825E+01 -0.15452872E+01  0.30625817E+01
     atom   10 type  3   force =  -0.16533075E+01 -0.27321386E+01 -0.11824768E+01
     atom   11 type  1   force =   0.85109181E+00  0.84619223E+00  0.16466460E+01
     atom   12 type  3   force =   0.10363946E+01  0.11434780E+01 -0.27550934E+01
     atom   13 type  2   force =  -0.78830526E-01  0.23008000E+01 -0.30277470E+01
     atom   14 type  3   force =  -0.31491903E+00  0.17490649E+01  0.45395130E+01
     atom   15 type  2   force =  -0.10597700E+00 -0.20354198E+01 -0.57654589E+01
     atom   16 type  3   force =   0.14995389E+01 -0.94975787E+00  0.20858472E-01
     The core correction contribution to forces
     atom    1 type  2   force =   0.00000000E+00  0.00000000E+00  0.00000000E+00
     atom    2 type  3   force =  -0.10827383E-02  0.41793047E-04  0.14354852E-03
     atom    3 type  1   force =  -0.32876541E-03 -0.98078489E-03  0.31285437E-03
     atom    4 type  3   force =   0.20718564E-03  0.16097951E-02 -0.35649056E-03
     atom    5 type  1   force =  -0.15304675E-03  0.80521868E-04 -0.40237565E-03
     atom    6 type  3   force =   0.51238525E-03 -0.83075447E-03  0.25138442E-03
     atom    7 type  2   force =   0.00000000E+00  0.00000000E+00  0.00000000E+00
     atom    8 type  3   force =  -0.17165989E-03 -0.17322028E-02 -0.44413377E-04
     atom    9 type  1   force =   0.78779637E-03  0.24894989E-03 -0.97109051E-03
     atom   10 type  3   force =  -0.12823405E-02 -0.21104481E-03  0.27343637E-03
     atom   11 type  1   force =  -0.17512887E-03 -0.32842666E-04 -0.22084339E-03
     atom   12 type  3   force =  -0.19167830E-03  0.29891785E-03 -0.20286213E-02
     atom   13 type  2   force =   0.00000000E+00  0.00000000E+00  0.00000000E+00
     atom   14 type  3   force =  -0.31405351E-03 -0.52403824E-04  0.83777229E-03
     atom   15 type  2   force =   0.00000000E+00  0.00000000E+00  0.00000000E+00
     atom   16 type  3   force =   0.25022253E-02 -0.10679983E-02  0.16532740E-03
     The Hubbard contrib.    to forces
     atom    1 type  2   force =   0.00000000E+00  0.00000000E+00  0.00000000E+00
     atom    2 type  3   force =   0.00000000E+00  0.00000000E+00  0.00000000E+00
     atom    3 type  1   force =   0.00000000E+00  0.00000000E+00  0.00000000E+00
     atom    4 type  3   force =   0.00000000E+00  0.00000000E+00  0.00000000E+00
     atom    5 type  1   force =   0.00000000E+00  0.00000000E+00  0.00000000E+00
     atom    6 type  3   force =   0.00000000E+00  0.00000000E+00  0.00000000E+00
     atom    7 type  2   force =   0.00000000E+00  0.00000000E+00  0.00000000E+00
     atom    8 type  3   force =   0.00000000E+00  0.00000000E+00  0.00000000E+00
     atom    9 type  1   force =   0.00000000E+00  0.00000000E+00  0.00000000E+00
     atom   10 type  3   force =   0.00000000E+00  0.00000000E+00  0.00000000E+00
     atom   11 type  1   force =   0.00000000E+00  0.00000000E+00  0.00000000E+00
     atom   12 type  3   force =   0.00000000E+00  0.00000000E+00  0.00000000E+00
     atom   13 type  2   force =   0.00000000E+00  0.00000000E+00  0.00000000E+00
     atom   14 type  3   force =   0.00000000E+00  0.00000000E+00  0.00000000E+00
     atom   15 type  2   force =   0.00000000E+00  0.00000000E+00  0.00000000E+00
     atom   16 type  3   force =   0.00000000E+00  0.00000000E+00  0.00000000E+00
     The SCF correction term to forces
     atom    1 type  2   force =  -0.23236199E-05 -0.15230118E-05 -0.75855169E-06
     atom    2 type  3   force =   0.69525460E-06  0.47643889E-06  0.17329839E-05
     atom    3 type  1   force =   0.22263033E-05  0.22686059E-05 -0.19346392E-05
     atom    4 type  3   force =  -0.38618394E-06 -0.19248410E-06 -0.62367005E-06
     atom    5 type  1   force =  -0.34442820E-06 -0.18526925E-05  0.26573743E-05
     atom    6 type  3   force =  -0.15804296E-05 -0.89017157E-06 -0.93569633E-06
     atom    7 type  2   force =   0.12101030E-05 -0.59749956E-07 -0.26516936E-06
     atom    8 type  3   force =   0.78620707E-07  0.15774260E-05 -0.13086406E-06
     atom    9 type  1   force =  -0.24724445E-05 -0.10224508E-05  0.22308491E-05
     atom   10 type  3   force =   0.32086703E-06 -0.10734928E-05 -0.98487903E-06
     atom   11 type  1   force =   0.54554413E-06  0.14743536E-05 -0.16506307E-05
     atom   12 type  3   force =   0.10659777E-05  0.61204923E-06  0.42675942E-07
     atom   13 type  2   force =  -0.10820854E-05 -0.21292666E-05  0.18243682E-05
     atom   14 type  3   force =   0.32339514E-06 -0.63423349E-06  0.65579110E-06
     atom   15 type  2   force =   0.12521106E-05  0.18548575E-05 -0.21948219E-05
     atom   16 type  3   force =  -0.13089894E-05 -0.27403346E-06 -0.28072236E-06

     Total force =     0.207975     Total SCF correction =     0.000009


     entering subroutine stress ...

          total   stress  (Ry/bohr**3)                   (kbar)     P=    9.56
   0.0000556460  -0.0003199552  -0.0000288373          8.19    -47.07     -4.24
  -0.0003199552   0.0002036794  -0.0002229016        -47.07     29.96    -32.79
  -0.0000288373  -0.0002229016  -0.0000643140         -4.24    -32.79     -9.46

     kinetic stress (kbar)  20213.18    -28.86      6.35
                              -28.86  20231.33    -23.11
                                6.35    -23.11  20158.83

     local   stress (kbar)  -4625.03   -458.88   -127.62
                             -458.88  -6867.43      7.47
                             -127.62      7.47   -809.91

     nonloc. stress (kbar)   5102.74      0.72      0.20
                                0.72   5111.86      0.80
                                0.20      0.80   5109.44

     hartree stress (kbar)  11279.05    137.59     43.89
                              137.59  12174.71     -5.24
                               43.89     -5.24   9753.59

     exc-cor stress (kbar)  -5121.78      0.88      0.09
                                0.88  -5120.64      0.26
                                0.09      0.26  -5124.00

     corecor stress (kbar)  -1016.73      0.07     -0.04
                                0.07  -1016.79      0.07
                               -0.04      0.07  -1016.51

     ewald   stress (kbar) -25823.25    301.41     72.89
                              301.41 -24483.09    -13.04
                               72.89    -13.04 -28080.91

     hubbard stress (kbar)      0.00      0.00      0.00
                                0.00      0.00      0.00
                                0.00      0.00      0.00

     london  stress (kbar)      0.00      0.00      0.00
                                0.00      0.00      0.00
                                0.00      0.00      0.00

     XDM     stress (kbar)      0.00      0.00      0.00
                                0.00      0.00      0.00
                                0.00      0.00      0.00

     dft-nl  stress (kbar)      0.00      0.00      0.00
                                0.00      0.00      0.00
                                0.00      0.00      0.00



     Writing output data file mix.dummy27180.save

     init_run     :     18.58s CPU     19.20s WALL (       1 calls)
     electrons    :    825.94s CPU    876.00s WALL (       1 calls)
     forces       :      6.31s CPU      6.52s WALL (       1 calls)
     stress       :     12.33s CPU     12.58s WALL (       1 calls)

     Called by init_run:
     wfcinit      :     16.34s CPU     16.80s WALL (       1 calls)
     potinit      :      0.54s CPU      0.54s WALL (       1 calls)

     Called by electrons:
     c_bands      :    715.48s CPU    761.02s WALL (      21 calls)
     sum_band     :    101.53s CPU    106.00s WALL (      21 calls)
     v_of_rho     :      1.12s CPU      1.12s WALL (      22 calls)
     v_h          :      0.07s CPU      0.06s WALL (      22 calls)
     v_xc         :      1.13s CPU      1.14s WALL (      24 calls)
     newd         :      6.08s CPU      6.08s WALL (      22 calls)
     mix_rho      :      1.89s CPU      1.90s WALL (      21 calls)

     Called by c_bands:
     init_us_2    :      3.48s CPU      3.73s WALL (    1620 calls)
     cegterg      :    687.97s CPU    732.21s WALL (     756 calls)

     Called by sum_band:
     sum_band:bec :      1.13s CPU      1.09s WALL (     756 calls)
     addusdens    :      5.82s CPU      5.82s WALL (      21 calls)

     Called by *egterg:
     h_psi        :    381.16s CPU    393.84s WALL (    2210 calls)
     s_psi        :     33.44s CPU     32.46s WALL (    2210 calls)
     g_psi        :      0.37s CPU      0.39s WALL (    1418 calls)
     cdiaghg      :     87.22s CPU     97.00s WALL (    2174 calls)
     cegterg:over :     96.87s CPU    106.37s WALL (    1418 calls)
     cegterg:upda :     12.12s CPU     14.65s WALL (    1418 calls)
     cegterg:last :      7.70s CPU      8.14s WALL (     756 calls)

     Called by h_psi:
     h_psi:vloc   :    257.94s CPU    261.03s WALL (    2210 calls)
     h_psi:vnl    :    122.72s CPU    132.25s WALL (    2210 calls)
     add_vuspsi   :     33.91s CPU     34.67s WALL (    2210 calls)

     General routines
     calbec       :    128.88s CPU    141.58s WALL (    3038 calls)
     fft          :      2.71s CPU      2.74s WALL (     373 calls)
     ffts         :      1.24s CPU      1.16s WALL (     573 calls)
     fftw         :    298.07s CPU    302.10s WALL (  277818 calls)
     interpolate  :      0.22s CPU      0.23s WALL (      43 calls)

     Parallel routines
     fft_scatter  :    155.67s CPU    158.55s WALL (  278764 calls)

     PWSCF        : 14m25.93s CPU    15m17.80s WALL


   This run was terminated on:  12:53:40  16Nov2017            

=------------------------------------------------------------------------------=
   JOB DONE.
=------------------------------------------------------------------------------=
