
     Program PWSCF v.5.1 starts on 15Nov2017 at 10: 0:25 

     This program is part of the open-source Quantum ESPRESSO suite
     for quantum simulation of materials; please cite
         "P. Giannozzi et al., J. Phys.:Condens. Matter 21 395502 (2009);
          URL http://www.quantum-espresso.org", 
     in publications or presentations arising from this work. More details at
     http://www.quantum-espresso.org/quote

     Parallel version (MPI), running on    16 processors
     R & G space division:  proc/nbgrp/npool/nimage =      16
     Waiting for input...
     Reading input from standard input
Warning: card &IONS ignored
Warning: card   ION_DYNAMICS='BFGS', ignored
Warning: card / ignored
Warning: card &CELL ignored
Warning: card  CELL_DYNAMICS = 'BFGS' ignored
Warning: card / ignored

     Current dimensions of program PWSCF are:
     Max number of different atomic species (ntypx) = 10
     Max number of k-points (npk) =  40000
     Max angular momentum in pseudopotentials (lmaxx) =  3
 kfg - two_fermi_energies  F

     Subspace diagonalization in iterative solution of the eigenvalue problem:
     a serial algorithm will be used


     Parallelization info
     --------------------
     sticks:   dense  smooth     PW     G-vecs:    dense   smooth      PW
     Min         109      87     25                 3131     2232     353
     Max         110      88     26                 3132     2251     356
     Sum        1745    1393    409                50109    35853    5667



     bravais-lattice index     =            0
     lattice parameter (alat)  =    11.215532441  a.u.
     unit-cell volume          =    1048.6516 (a.u.)^3
     number of atoms/cell      =           16
     number of atomic types    =            3
     number of electrons       =       128.00
     number of Kohn-Sham states=           64
     kinetic-energy cutoff     =      40.0000  Ry
     charge density cutoff     =     200.0000  Ry
     convergence threshold     =      1.0E-10
     mixing beta               =       0.3000
     number of iterations used =            8  local-TF  mixing
     Exchange-correlation      = SLA  PW   PSX  PSC ( 1  4 10  8 0)
     A smooth kinetic-energy cutoff is imposed at      39.5000 Ry
     height of the smooth step-function =             800.0000 Ry
     width of the smooth step-function  =               1.0000 Ry


     celldm(1)=  11.215532  celldm(2)=   0.000000  celldm(3)=   0.000000
     celldm(4)=   0.000000  celldm(5)=   0.000000  celldm(6)=   0.000000

     crystal axes: (cart. coord. in units of alat)
               a(1) = (  -0.009226612391   0.704744431852   0.709401265433 )  
               a(2) = (   0.703824292668  -0.007612023691   0.707786676733 )  
               a(3) = (   0.723082861981   0.722388412465  -0.026870593004 )  

     reciprocal axes: (cart. coord. in units 2 pi/alat)
               b(1) = ( -0.687587  0.713967  0.691417 )  
               b(2) = (  0.714908 -0.689761  0.694531 )  
               b(3) = (  0.678327  0.680500 -0.667211 )  


     PseudoPot. # 1 for Ca read from file:
     /users/kfg/psuedo/gbrv_1.5/ca.pbesol.UPF
     MD5 check sum: 0533207b58cddeaa036efa5b63902087
     Pseudo is Ultrasoft + core correction, Zval = 10.0
     Generated by new atomic code, or converted to UPF format
     Using radial grid of  845 points,  6 beta functions with: 
                l(1) =   0
                l(2) =   0
                l(3) =   1
                l(4) =   1
                l(5) =   2
                l(6) =   2
     Q(r) pseudized with  8 coefficients,  rinner =    1.500   1.500   1.500
                                                       1.500   1.500

     PseudoPot. # 2 for Mg read from file:
     /users/kfg/psuedo/gbrv_1.5/mg.pbesol.UPF
     MD5 check sum: 4059f37963cf5867752dbf5ab2400678
     Pseudo is Ultrasoft, Zval = 10.0
     Generated by new atomic code, or converted to UPF format
     Using radial grid of  821 points,  7 beta functions with: 
                l(1) =   0
                l(2) =   0
                l(3) =   0
                l(4) =   1
                l(5) =   1
                l(6) =   2
                l(7) =   2
     Q(r) pseudized with  8 coefficients,  rinner =    1.200   1.200   1.200
                                                       1.200   1.200

     PseudoPot. # 3 for O  read from file:
     /users/kfg/psuedo/gbrv_1.5/o.pbesol.UPF
     MD5 check sum: 501638753501ef6325af9037351f7734
     Pseudo is Ultrasoft + core correction, Zval =  6.0
     Generated by new atomic code, or converted to UPF format
     Using radial grid of  737 points,  5 beta functions with: 
                l(1) =   0
                l(2) =   0
                l(3) =   1
                l(4) =   1
                l(5) =   2
     Q(r) pseudized with  8 coefficients,  rinner =    0.900   0.900   0.900
                                                       0.900   0.900

     atomic species   valence    mass     pseudopotential
        Ca            10.00    40.07800     Ca( 1.00)
        Mg            10.00    40.07800     Mg( 1.00)
        O              6.00    15.99940     O ( 1.00)

     No symmetry found


                                    s                        frac. trans.

      isym =  1     identity                                     

 cryst.   s( 1) = (     1          0          0      )
                  (     0          1          0      )
                  (     0          0          1      )

 cart.    s( 1) = (  1.0000000  0.0000000  0.0000000 )
                  ( -0.0000000  1.0000000  0.0000000 )
                  ( -0.0000000 -0.0000000  1.0000000 )


     point group C_1 (1)    
     there are  1 classes
     the character table:

       E    
A      1.00

     the symmetry operations in each class:
     E        1

   Cartesian axes

     site n.     atom                  positions (alat units)
         1           Mg  tau(   1) = (    0.00029352042    0.03500239071   -0.01067348555  )
         2           O   tau(   2) = (    0.36775672520    0.34674929044    0.34656480754  )
         3           Mg  tau(   3) = (    0.38179957131    0.36134006431    0.00593718203  )
         4           O   tau(   4) = (    0.68543952867    0.71876797497    0.29974486235  )
         5           Mg  tau(   5) = (    0.34081806623   -0.02401572011    0.38090995490  )
         6           O   tau(   6) = (    0.69102907956    0.34132195580    0.68467524490  )
         7           Mg  tau(   7) = (    0.74669013704    0.33327784496    0.34792765693  )
         8           O   tau(   8) = (    1.05822727687    0.73186526899    0.70111853840  )
         9           Mg  tau(   9) = (   -0.00996757849    0.36830784968    0.33156080343  )
        10           O   tau(  10) = (    0.32638533970    0.71671499190    0.72192119587  )
        11           Mg  tau(  11) = (    0.35903629139    0.70339454586    0.35151690916  )
        12           O   tau(  12) = (    0.70042673364    1.05559599057    0.66158424488  )
        13           Mg  tau(  13) = (    0.33593648512    0.35865190021    0.71979871821  )
        14           O   tau(  14) = (    0.73273380058    0.69606448792    1.08673306722  )
        15           Mg  tau(  15) = (    0.69443543649    0.70176013085    0.67866614494  )
        16           O   tau(  16) = (    1.09504283981    1.07232595670    1.03391824974  )

   Crystallographic axes

     site n.     atom                  positions (cryst. coord.)
         1           Mg  tau(   1) = (    0.01740890145   -0.03134650731    0.03113969383  )
         2           O   tau(   2) = (    0.23432326403    0.26443819855    0.25419037948  )
         3           Mg  tau(   3) = (   -0.00043065113    0.02783688950    0.50091536924  )
         4           O   tau(   4) = (    0.24912552154    0.20243033463    0.75408055546  )
         5           Mg  tau(   5) = (    0.01187882161    0.52477250175   -0.03930388734  )
         6           O   tau(   6) = (    0.24194549276    0.73411999067    0.24419045583  )
         7           Mg  tau(   7) = (   -0.03490241180    0.54557933771    0.50115434014  )
         8           O   tau(   8) = (    0.27966881141    0.73867180547    0.74806435062  )
         9           Mg  tau(   9) = (    0.49905978403   -0.03089092132    0.02265139226  )
        10           O   tau(  10) = (    0.78644054866    0.24037032290    0.22744702988  )
        11           Mg  tau(  11) = (    0.49837617568    0.01564334428    0.48766810556  )
        12           O   tau(  12) = (    0.72948626449    0.23212276179    0.75203522392  )
        13           Mg  tau(  13) = (    0.52276061086    0.49270228957   -0.00831999501  )
        14           O   tau(  14) = (    0.74453367434    0.79848921174    0.24562498836  )
        15           Mg  tau(  15) = (    0.49278944015    0.48376557217    0.49578861683  )
        16           O   tau(  16) = (    0.72753575191    0.76129486789    0.78267338094  )

     number of k points=    36
                       cart. coord. in units 2pi/alat
        k(    1) = (   0.0000000   0.0000000   0.0000000), wk =   0.0312500
        k(    2) = (   0.1695816   0.1701250  -0.1668026), wk =   0.0625000
        k(    3) = (  -0.3391633  -0.3402500   0.3336053), wk =   0.0312500
        k(    4) = (   0.1787270  -0.1724402   0.1736328), wk =   0.0625000
        k(    5) = (   0.3483086  -0.0023152   0.0068302), wk =   0.0625000
        k(    6) = (  -0.1604363  -0.5126902   0.5072381), wk =   0.0625000
        k(    7) = (   0.0091454  -0.3425652   0.3404354), wk =   0.0625000
        k(    8) = (  -0.3574540   0.3448804  -0.3472656), wk =   0.0312500
        k(    9) = (  -0.1878724   0.5150054  -0.5140682), wk =   0.0625000
        k(   10) = (  -0.6966173   0.0046304  -0.0136603), wk =   0.0312500
        k(   11) = (  -0.1718968   0.1784917   0.1728541), wk =   0.0625000
        k(   12) = (  -0.0023152   0.3486167   0.0060515), wk =   0.0625000
        k(   13) = (  -0.5110601  -0.1617583   0.5064594), wk =   0.0625000
        k(   14) = (  -0.3414785   0.0083667   0.3396568), wk =   0.0625000
        k(   15) = (   0.0068302   0.0060515   0.3464869), wk =   0.0625000
        k(   16) = (   0.1764118   0.1761765   0.1796843), wk =   0.0625000
        k(   17) = (  -0.3323331  -0.3341985   0.6800922), wk =   0.0625000
        k(   18) = (  -0.1627515  -0.1640735   0.5132895), wk =   0.0625000
        k(   19) = (  -0.5293508   0.5233721  -0.1744115), wk =   0.0625000
        k(   20) = (  -0.3597692   0.6934972  -0.3412141), wk =   0.0625000
        k(   21) = (  -0.8685141   0.1831221   0.1591938), wk =   0.0625000
        k(   22) = (  -0.6989325   0.3532471  -0.0076088), wk =   0.0625000
        k(   23) = (  -0.3506238   0.3509319  -0.0007787), wk =   0.0625000
        k(   24) = (  -0.1810422   0.5210569  -0.1675813), wk =   0.0625000
        k(   25) = (  -0.6897871   0.0106819   0.3328266), wk =   0.0625000
        k(   26) = (  -0.5202055   0.1808069   0.1660240), wk =   0.0625000
        k(   27) = (   0.3437937  -0.3569834  -0.3457083), wk =   0.0312500
        k(   28) = (   0.5133753  -0.1868584  -0.5125109), wk =   0.0625000
        k(   29) = (   0.0046304  -0.6972335  -0.0121030), wk =   0.0312500
        k(   30) = (   0.5225207  -0.5294236  -0.1720755), wk =   0.0625000
        k(   31) = (   0.6921023  -0.3592986  -0.3388781), wk =   0.0625000
        k(   32) = (   0.1833574  -0.8696737   0.1615298), wk =   0.0625000
        k(   33) = (   0.3529390  -0.6995487  -0.0052728), wk =   0.0625000
        k(   34) = (  -0.0136603  -0.0121030  -0.6929738), wk =   0.0312500
        k(   35) = (   0.1559213   0.1580220  -0.8597765), wk =   0.0625000
        k(   36) = (  -0.3528236  -0.3523530  -0.3593686), wk =   0.0312500

                       cryst. coord.
        k(    1) = (   0.0000000   0.0000000   0.0000000), wk =   0.0312500
        k(    2) = (  -0.0000000  -0.0000000   0.2500000), wk =   0.0625000
        k(    3) = (   0.0000000   0.0000000  -0.5000000), wk =   0.0312500
        k(    4) = (   0.0000000   0.2500000   0.0000000), wk =   0.0625000
        k(    5) = (   0.0000000   0.2500000   0.2500000), wk =   0.0625000
        k(    6) = (   0.0000000   0.2500000  -0.5000000), wk =   0.0625000
        k(    7) = (   0.0000000   0.2500000  -0.2500000), wk =   0.0625000
        k(    8) = (  -0.0000000  -0.5000000  -0.0000000), wk =   0.0312500
        k(    9) = (  -0.0000000  -0.5000000   0.2500000), wk =   0.0625000
        k(   10) = (  -0.0000000  -0.5000000  -0.5000000), wk =   0.0312500
        k(   11) = (   0.2500000   0.0000000  -0.0000000), wk =   0.0625000
        k(   12) = (   0.2500000  -0.0000000   0.2500000), wk =   0.0625000
        k(   13) = (   0.2500000   0.0000000  -0.5000000), wk =   0.0625000
        k(   14) = (   0.2500000   0.0000000  -0.2500000), wk =   0.0625000
        k(   15) = (   0.2500000   0.2500000  -0.0000000), wk =   0.0625000
        k(   16) = (   0.2500000   0.2500000   0.2500000), wk =   0.0625000
        k(   17) = (   0.2500000   0.2500000  -0.5000000), wk =   0.0625000
        k(   18) = (   0.2500000   0.2500000  -0.2500000), wk =   0.0625000
        k(   19) = (   0.2500000  -0.5000000  -0.0000000), wk =   0.0625000
        k(   20) = (   0.2500000  -0.5000000   0.2500000), wk =   0.0625000
        k(   21) = (   0.2500000  -0.5000000  -0.5000000), wk =   0.0625000
        k(   22) = (   0.2500000  -0.5000000  -0.2500000), wk =   0.0625000
        k(   23) = (   0.2500000  -0.2500000  -0.0000000), wk =   0.0625000
        k(   24) = (   0.2500000  -0.2500000   0.2500000), wk =   0.0625000
        k(   25) = (   0.2500000  -0.2500000  -0.5000000), wk =   0.0625000
        k(   26) = (   0.2500000  -0.2500000  -0.2500000), wk =   0.0625000
        k(   27) = (  -0.5000000  -0.0000000   0.0000000), wk =   0.0312500
        k(   28) = (  -0.5000000  -0.0000000   0.2500000), wk =   0.0625000
        k(   29) = (  -0.5000000   0.0000000  -0.5000000), wk =   0.0312500
        k(   30) = (  -0.5000000   0.2500000   0.0000000), wk =   0.0625000
        k(   31) = (  -0.5000000   0.2500000   0.2500000), wk =   0.0625000
        k(   32) = (  -0.5000000   0.2500000  -0.5000000), wk =   0.0625000
        k(   33) = (  -0.5000000   0.2500000  -0.2500000), wk =   0.0625000
        k(   34) = (  -0.5000000  -0.5000000   0.0000000), wk =   0.0312500
        k(   35) = (  -0.5000000  -0.5000000   0.2500000), wk =   0.0625000
        k(   36) = (  -0.5000000  -0.5000000  -0.5000000), wk =   0.0312500

     Dense  grid:    50109 G-vectors     FFT dimensions: (  54,  54,  54)

     Smooth grid:    35853 G-vectors     FFT dimensions: (  45,  45,  48)

     Largest allocated arrays     est. size (Mb)     dimensions
        Kohn-Sham Wavefunctions         0.29 Mb     (     292,   64)
        NL pseudopotentials             1.14 Mb     (     292,  256)
        Each V/rho on FFT grid          0.18 Mb     (   11664)
        Each G-vector array             0.02 Mb     (    3132)
        G-vector shells                 0.02 Mb     (    3094)
     Largest temporary arrays     est. size (Mb)     dimensions
        Auxiliary wavefunctions         1.14 Mb     (     292,  256)
        Each subspace H/S matrix        1.00 Mb     (     256,  256)
        Each <psi_i|beta_j> matrix      0.25 Mb     (     256,   64)
        Arrays for rho mixing           1.42 Mb     (   11664,    8)

     Check: negative/imaginary core charge=   -0.000003    0.000000

     Initial potential from superposition of free atoms

     starting charge  125.59817, renormalised to  128.00000
     Starting wfc are   72 randomized atomic wfcs

     total cpu time spent up to now is       13.1 secs

     per-process dynamical memory:    28.7 Mb

     Self-consistent Calculation

     iteration #  1     ecut=    40.00 Ry     beta=0.30
     Davidson diagonalization with overlap
     ethr =  1.00E-02,  avg # of iterations =  2.0

     total cpu time spent up to now is       46.3 secs

     total energy              =   -1261.07247331 Ry
     Harris-Foulkes estimate   =   -1261.66788041 Ry
     estimated scf accuracy    <       3.02163930 Ry

     iteration #  2     ecut=    40.00 Ry     beta=0.30
     Davidson diagonalization with overlap
     ethr =  2.36E-03,  avg # of iterations =  1.0

     total cpu time spent up to now is       72.6 secs

     total energy              =   -1260.50827962 Ry
     Harris-Foulkes estimate   =   -1261.15365283 Ry
     estimated scf accuracy    <       1.41858528 Ry

     iteration #  3     ecut=    40.00 Ry     beta=0.30
     Davidson diagonalization with overlap
     ethr =  1.11E-03,  avg # of iterations =  2.0

     total cpu time spent up to now is      108.3 secs

     total energy              =   -1260.66280702 Ry
     Harris-Foulkes estimate   =   -1260.73164463 Ry
     estimated scf accuracy    <       0.17214496 Ry

     iteration #  4     ecut=    40.00 Ry     beta=0.30
     Davidson diagonalization with overlap
     ethr =  1.34E-04,  avg # of iterations =  1.0

     total cpu time spent up to now is      135.7 secs

     total energy              =   -1260.63671615 Ry
     Harris-Foulkes estimate   =   -1260.67024161 Ry
     estimated scf accuracy    <       0.05326835 Ry

     iteration #  5     ecut=    40.00 Ry     beta=0.30
     Davidson diagonalization with overlap
     ethr =  4.16E-05,  avg # of iterations =  2.0

     total cpu time spent up to now is      172.6 secs

     total energy              =   -1260.63791416 Ry
     Harris-Foulkes estimate   =   -1260.64130830 Ry
     estimated scf accuracy    <       0.00607305 Ry

     iteration #  6     ecut=    40.00 Ry     beta=0.30
     Davidson diagonalization with overlap
     ethr =  4.74E-06,  avg # of iterations =  3.0

     total cpu time spent up to now is      218.2 secs

     total energy              =   -1260.63739222 Ry
     Harris-Foulkes estimate   =   -1260.64353134 Ry
     estimated scf accuracy    <       0.01433208 Ry

     iteration #  7     ecut=    40.00 Ry     beta=0.30
     Davidson diagonalization with overlap
     ethr =  4.74E-06,  avg # of iterations =  2.1

     total cpu time spent up to now is      254.8 secs

     total energy              =   -1260.63985906 Ry
     Harris-Foulkes estimate   =   -1260.63985317 Ry
     estimated scf accuracy    <       0.00014824 Ry

     iteration #  8     ecut=    40.00 Ry     beta=0.30
     Davidson diagonalization with overlap
     ethr =  1.16E-07,  avg # of iterations =  3.0

     total cpu time spent up to now is      300.6 secs

     total energy              =   -1260.63981949 Ry
     Harris-Foulkes estimate   =   -1260.63995612 Ry
     estimated scf accuracy    <       0.00049273 Ry

     iteration #  9     ecut=    40.00 Ry     beta=0.30
     Davidson diagonalization with overlap
     ethr =  1.16E-07,  avg # of iterations =  2.0

     total cpu time spent up to now is      337.8 secs

     total energy              =   -1260.63980729 Ry
     Harris-Foulkes estimate   =   -1260.63984626 Ry
     estimated scf accuracy    <       0.00010672 Ry

     iteration # 10     ecut=    40.00 Ry     beta=0.30
     Davidson diagonalization with overlap
     ethr =  8.34E-08,  avg # of iterations =  2.0

     total cpu time spent up to now is      375.0 secs

     total energy              =   -1260.63981846 Ry
     Harris-Foulkes estimate   =   -1260.63981964 Ry
     estimated scf accuracy    <       0.00000851 Ry

     iteration # 11     ecut=    40.00 Ry     beta=0.30
     Davidson diagonalization with overlap
     ethr =  6.65E-09,  avg # of iterations =  1.0

     total cpu time spent up to now is      406.0 secs

     total energy              =   -1260.63981699 Ry
     Harris-Foulkes estimate   =   -1260.63981879 Ry
     estimated scf accuracy    <       0.00000444 Ry

     iteration # 12     ecut=    40.00 Ry     beta=0.30
     Davidson diagonalization with overlap
     ethr =  3.47E-09,  avg # of iterations =  2.0

     total cpu time spent up to now is      450.6 secs

     total energy              =   -1260.63981782 Ry
     Harris-Foulkes estimate   =   -1260.63981781 Ry
     estimated scf accuracy    <       0.00000005 Ry

     iteration # 13     ecut=    40.00 Ry     beta=0.30
     Davidson diagonalization with overlap
     ethr =  3.67E-11,  avg # of iterations =  2.9

     total cpu time spent up to now is      497.5 secs

     total energy              =   -1260.63981782 Ry
     Harris-Foulkes estimate   =   -1260.63981783 Ry
     estimated scf accuracy    <       0.00000004 Ry

     iteration # 14     ecut=    40.00 Ry     beta=0.30
     Davidson diagonalization with overlap
     ethr =  3.17E-11,  avg # of iterations =  2.0

     total cpu time spent up to now is      533.2 secs

     total energy              =   -1260.63981783 Ry
     Harris-Foulkes estimate   =   -1260.63981783 Ry
     estimated scf accuracy    <          2.1E-09 Ry

     iteration # 15     ecut=    40.00 Ry     beta=0.30
     Davidson diagonalization with overlap
     ethr =  1.63E-12,  avg # of iterations =  2.0

     total cpu time spent up to now is      569.8 secs

     total energy              =   -1260.63981783 Ry
     Harris-Foulkes estimate   =   -1260.63981783 Ry
     estimated scf accuracy    <          1.1E-09 Ry

     iteration # 16     ecut=    40.00 Ry     beta=0.30
     Davidson diagonalization with overlap
     ethr =  8.86E-13,  avg # of iterations =  2.1

     total cpu time spent up to now is      608.0 secs

     total energy              =   -1260.63981783 Ry
     Harris-Foulkes estimate   =   -1260.63981783 Ry
     estimated scf accuracy    <          5.7E-10 Ry

     iteration # 17     ecut=    40.00 Ry     beta=0.30
     Davidson diagonalization with overlap
     ethr =  4.47E-13,  avg # of iterations =  2.6

     total cpu time spent up to now is      647.4 secs

     total energy              =   -1260.63981783 Ry
     Harris-Foulkes estimate   =   -1260.63981783 Ry
     estimated scf accuracy    <          1.7E-10 Ry

     iteration # 18     ecut=    40.00 Ry     beta=0.30
     Davidson diagonalization with overlap
     ethr =  1.36E-13,  avg # of iterations =  2.0

     total cpu time spent up to now is      682.3 secs

     End of self-consistent calculation

          k = 0.0000 0.0000 0.0000 (  4477 PWs)   bands (ev):

   -65.3558 -65.2496 -65.0639 -64.8518 -64.6660 -64.5304 -64.4945 -64.1150
   -32.3592 -32.3280 -32.3024 -32.2450 -32.2209 -32.2119 -32.0695 -32.0299
   -32.0229 -31.8515 -31.8369 -31.8013 -31.6568 -31.6499 -31.6399 -31.5290
   -31.5176 -31.5117 -31.4984 -31.4904 -31.4356 -31.1350 -31.1178 -31.0859
    -9.8790  -8.9720  -8.7698  -8.4830  -8.4207  -8.0106  -7.8744  -7.8391
     2.4277   2.6668   2.7497   2.8021   3.3283   3.3823   3.5896   5.4673
     5.6274   5.7212   5.8321   5.9897   6.2376   6.3458   6.4864   6.5549
     6.6341   6.7565   6.8567   6.9161   7.1063   7.2540   7.4795   7.6689

     occupation numbers 
     1.0000   1.0000   1.0000   1.0000   1.0000   1.0000   1.0000   1.0000
     1.0000   1.0000   1.0000   1.0000   1.0000   1.0000   1.0000   1.0000
     1.0000   1.0000   1.0000   1.0000   1.0000   1.0000   1.0000   1.0000
     1.0000   1.0000   1.0000   1.0000   1.0000   1.0000   1.0000   1.0000
     1.0000   1.0000   1.0000   1.0000   1.0000   1.0000   1.0000   1.0000
     1.0000   1.0000   1.0000   1.0000   1.0000   1.0000   1.0000   1.0000
     1.0000   1.0000   1.0000   1.0000   1.0000   1.0000   1.0000   1.0000
     1.0000   1.0000   1.0000   1.0000   1.0000   1.0000   1.0000   1.0000

          k = 0.1696 0.1701-0.1668 (  4488 PWs)   bands (ev):

   -65.3558 -65.2496 -65.0639 -64.8518 -64.6660 -64.5304 -64.4945 -64.1150
   -32.3590 -32.3278 -32.3020 -32.2447 -32.2208 -32.2111 -32.0703 -32.0302
   -32.0225 -31.8515 -31.8369 -31.8012 -31.6567 -31.6501 -31.6395 -31.5290
   -31.5146 -31.5115 -31.4994 -31.4917 -31.4374 -31.1351 -31.1179 -31.0864
    -9.7507  -9.0690  -8.7880  -8.4875  -8.4394  -8.0355  -7.8937  -7.8465
     2.7021   2.9339   3.0193   3.1038   3.4193   3.6190   3.7938   5.0833
     5.2623   5.4493   5.7901   5.8562   6.0037   6.0871   6.3007   6.3762
     6.4394   6.5295   6.6851   6.8302   6.9853   7.1794   7.4262   7.5984

     occupation numbers 
     1.0000   1.0000   1.0000   1.0000   1.0000   1.0000   1.0000   1.0000
     1.0000   1.0000   1.0000   1.0000   1.0000   1.0000   1.0000   1.0000
     1.0000   1.0000   1.0000   1.0000   1.0000   1.0000   1.0000   1.0000
     1.0000   1.0000   1.0000   1.0000   1.0000   1.0000   1.0000   1.0000
     1.0000   1.0000   1.0000   1.0000   1.0000   1.0000   1.0000   1.0000
     1.0000   1.0000   1.0000   1.0000   1.0000   1.0000   1.0000   1.0000
     1.0000   1.0000   1.0000   1.0000   1.0000   1.0000   1.0000   1.0000
     1.0000   1.0000   1.0000   1.0000   1.0000   1.0000   1.0000   1.0000

          k =-0.3392-0.3403 0.3336 (  4496 PWs)   bands (ev):

   -65.3558 -65.2496 -65.0639 -64.8518 -64.6660 -64.5303 -64.4946 -64.1150
   -32.3588 -32.3276 -32.3016 -32.2444 -32.2207 -32.2103 -32.0711 -32.0305
   -32.0221 -31.8516 -31.8369 -31.8012 -31.6566 -31.6503 -31.6390 -31.5290
   -31.5130 -31.5091 -31.5011 -31.4935 -31.4391 -31.1353 -31.1179 -31.0870
    -9.5158  -9.2881  -8.7997  -8.4936  -8.4503  -8.0595  -7.9193  -7.8445
     3.0446   3.2843   3.3934   3.4402   3.7328   3.9435   4.2249   4.3236
     4.8802   5.1358   5.1675   5.4582   5.8278   5.9253   6.0296   6.1563
     6.3731   6.4788   6.5250   6.7269   7.0437   7.2687   7.3547   7.4996

     occupation numbers 
     1.0000   1.0000   1.0000   1.0000   1.0000   1.0000   1.0000   1.0000
     1.0000   1.0000   1.0000   1.0000   1.0000   1.0000   1.0000   1.0000
     1.0000   1.0000   1.0000   1.0000   1.0000   1.0000   1.0000   1.0000
     1.0000   1.0000   1.0000   1.0000   1.0000   1.0000   1.0000   1.0000
     1.0000   1.0000   1.0000   1.0000   1.0000   1.0000   1.0000   1.0000
     1.0000   1.0000   1.0000   1.0000   1.0000   1.0000   1.0000   1.0000
     1.0000   1.0000   1.0000   1.0000   1.0000   1.0000   1.0000   1.0000
     1.0000   1.0000   1.0000   1.0000   1.0000   1.0000   1.0000   1.0000

          k = 0.1787-0.1724 0.1736 (  4486 PWs)   bands (ev):

   -65.3558 -65.2496 -65.0639 -64.8518 -64.6660 -64.5304 -64.4945 -64.1150
   -32.3589 -32.3275 -32.3021 -32.2446 -32.2204 -32.2118 -32.0694 -32.0297
   -32.0221 -31.8523 -31.8374 -31.8017 -31.6546 -31.6496 -31.6391 -31.5306
   -31.5182 -31.5123 -31.4993 -31.4906 -31.4358 -31.1351 -31.1183 -31.0860
    -9.7526  -8.9727  -8.8082  -8.5795  -8.4050  -8.0972  -7.8699  -7.8416
     2.6226   2.9000   3.0103   3.2615   3.5578   3.6243   3.8601   5.1715
     5.5157   5.5852   5.6577   5.7817   5.8702   6.1268   6.2759   6.3715
     6.4681   6.5619   6.6171   6.7169   6.8120   7.0246   7.2316   7.6271

     occupation numbers 
     1.0000   1.0000   1.0000   1.0000   1.0000   1.0000   1.0000   1.0000
     1.0000   1.0000   1.0000   1.0000   1.0000   1.0000   1.0000   1.0000
     1.0000   1.0000   1.0000   1.0000   1.0000   1.0000   1.0000   1.0000
     1.0000   1.0000   1.0000   1.0000   1.0000   1.0000   1.0000   1.0000
     1.0000   1.0000   1.0000   1.0000   1.0000   1.0000   1.0000   1.0000
     1.0000   1.0000   1.0000   1.0000   1.0000   1.0000   1.0000   1.0000
     1.0000   1.0000   1.0000   1.0000   1.0000   1.0000   1.0000   1.0000
     1.0000   1.0000   1.0000   1.0000   1.0000   1.0000   1.0000   1.0000

          k = 0.3483-0.0023 0.0068 (  4484 PWs)   bands (ev):

   -65.3558 -65.2496 -65.0639 -64.8518 -64.6660 -64.5304 -64.4945 -64.1150
   -32.3588 -32.3273 -32.3020 -32.2444 -32.2204 -32.2112 -32.0701 -32.0301
   -32.0229 -31.8521 -31.8371 -31.8009 -31.6548 -31.6500 -31.6398 -31.5304
   -31.5153 -31.5119 -31.4994 -31.4917 -31.4372 -31.1353 -31.1183 -31.0865
    -9.7009  -9.0379  -8.7998  -8.5153  -8.4548  -8.1111  -7.8943  -7.8352
     2.8074   3.0101   3.1382   3.2389   3.5861   3.7673   3.9242   5.0636
     5.2449   5.4742   5.6785   5.8227   5.8867   5.9485   6.1475   6.3298
     6.4109   6.5234   6.5870   6.6558   6.8076   7.0675   7.1357   7.5323

     occupation numbers 
     1.0000   1.0000   1.0000   1.0000   1.0000   1.0000   1.0000   1.0000
     1.0000   1.0000   1.0000   1.0000   1.0000   1.0000   1.0000   1.0000
     1.0000   1.0000   1.0000   1.0000   1.0000   1.0000   1.0000   1.0000
     1.0000   1.0000   1.0000   1.0000   1.0000   1.0000   1.0000   1.0000
     1.0000   1.0000   1.0000   1.0000   1.0000   1.0000   1.0000   1.0000
     1.0000   1.0000   1.0000   1.0000   1.0000   1.0000   1.0000   1.0000
     1.0000   1.0000   1.0000   1.0000   1.0000   1.0000   1.0000   1.0000
     1.0000   1.0000   1.0000   1.0000   1.0000   1.0000   1.0000   1.0000

          k =-0.1604-0.5127 0.5072 (  4478 PWs)   bands (ev):

   -65.3558 -65.2496 -65.0639 -64.8518 -64.6660 -64.5304 -64.4946 -64.1150
   -32.3586 -32.3271 -32.3016 -32.2441 -32.2203 -32.2104 -32.0709 -32.0303
   -32.0225 -31.8521 -31.8371 -31.8008 -31.6547 -31.6502 -31.6393 -31.5304
   -31.5138 -31.5091 -31.5013 -31.4934 -31.4389 -31.1354 -31.1184 -31.0870
    -9.4740  -9.2241  -8.8189  -8.5590  -8.4483  -8.1529  -7.8988  -7.8334
     3.2159   3.4383   3.5853   3.7444   3.8779   4.0594   4.1985   4.3712
     4.6629   4.9464   5.1371   5.5164   5.6780   5.8728   6.0237   6.1534
     6.2815   6.3533   6.5116   6.6059   6.7021   7.0059   7.1788   7.4537

     occupation numbers 
     1.0000   1.0000   1.0000   1.0000   1.0000   1.0000   1.0000   1.0000
     1.0000   1.0000   1.0000   1.0000   1.0000   1.0000   1.0000   1.0000
     1.0000   1.0000   1.0000   1.0000   1.0000   1.0000   1.0000   1.0000
     1.0000   1.0000   1.0000   1.0000   1.0000   1.0000   1.0000   1.0000
     1.0000   1.0000   1.0000   1.0000   1.0000   1.0000   1.0000   1.0000
     1.0000   1.0000   1.0000   1.0000   1.0000   1.0000   1.0000   1.0000
     1.0000   1.0000   1.0000   1.0000   1.0000   1.0000   1.0000   1.0000
     1.0000   1.0000   1.0000   1.0000   1.0000   1.0000   1.0000   1.0000

          k = 0.0091-0.3426 0.3404 (  4471 PWs)   bands (ev):

   -65.3558 -65.2496 -65.0639 -64.8518 -64.6660 -64.5304 -64.4945 -64.1150
   -32.3587 -32.3273 -32.3017 -32.2444 -32.2203 -32.2110 -32.0701 -32.0300
   -32.0217 -31.8523 -31.8374 -31.8017 -31.6545 -31.6498 -31.6386 -31.5306
   -31.5154 -31.5121 -31.5003 -31.4920 -31.4376 -31.1353 -31.1184 -31.0866
    -9.5861  -9.0940  -8.8301  -8.6077  -8.4171  -8.1341  -7.8738  -7.8441
     2.9745   3.2455   3.4421   3.5773   3.7736   3.9696   4.1743   4.4690
     4.9476   5.1959   5.4459   5.4967   5.6526   5.9158   6.0580   6.2682
     6.3539   6.4880   6.5042   6.6011   6.7945   6.9821   7.0987   7.5613

     occupation numbers 
     1.0000   1.0000   1.0000   1.0000   1.0000   1.0000   1.0000   1.0000
     1.0000   1.0000   1.0000   1.0000   1.0000   1.0000   1.0000   1.0000
     1.0000   1.0000   1.0000   1.0000   1.0000   1.0000   1.0000   1.0000
     1.0000   1.0000   1.0000   1.0000   1.0000   1.0000   1.0000   1.0000
     1.0000   1.0000   1.0000   1.0000   1.0000   1.0000   1.0000   1.0000
     1.0000   1.0000   1.0000   1.0000   1.0000   1.0000   1.0000   1.0000
     1.0000   1.0000   1.0000   1.0000   1.0000   1.0000   1.0000   1.0000
     1.0000   1.0000   1.0000   1.0000   1.0000   1.0000   1.0000   1.0000

          k =-0.3575 0.3449-0.3473 (  4482 PWs)   bands (ev):

   -65.3558 -65.2496 -65.0639 -64.8518 -64.6660 -64.5304 -64.4945 -64.1150
   -32.3587 -32.3271 -32.3019 -32.2443 -32.2199 -32.2117 -32.0692 -32.0295
   -32.0213 -31.8531 -31.8378 -31.8022 -31.6524 -31.6493 -31.6382 -31.5323
   -31.5188 -31.5129 -31.5002 -31.4909 -31.4360 -31.1353 -31.1189 -31.0861
    -9.5723  -8.9731  -8.9323  -8.6592  -8.3772  -8.1695  -7.8782  -7.8415
     2.9139   3.2591   3.2907   3.7835   3.8352   4.1339   4.4877   4.7375
     4.9083   5.2023   5.3071   5.4709   5.6384   5.6940   5.9263   5.9361
     6.2315   6.4090   6.5836   6.6072   6.7772   6.9601   7.1622   7.5861

     occupation numbers 
     1.0000   1.0000   1.0000   1.0000   1.0000   1.0000   1.0000   1.0000
     1.0000   1.0000   1.0000   1.0000   1.0000   1.0000   1.0000   1.0000
     1.0000   1.0000   1.0000   1.0000   1.0000   1.0000   1.0000   1.0000
     1.0000   1.0000   1.0000   1.0000   1.0000   1.0000   1.0000   1.0000
     1.0000   1.0000   1.0000   1.0000   1.0000   1.0000   1.0000   1.0000
     1.0000   1.0000   1.0000   1.0000   1.0000   1.0000   1.0000   1.0000
     1.0000   1.0000   1.0000   1.0000   1.0000   1.0000   1.0000   1.0000
     1.0000   1.0000   1.0000   1.0000   1.0000   1.0000   1.0000   1.0000

          k =-0.1879 0.5150-0.5141 (  4475 PWs)   bands (ev):

   -65.3558 -65.2496 -65.0639 -64.8518 -64.6660 -64.5304 -64.4945 -64.1150
   -32.3586 -32.3269 -32.3017 -32.2440 -32.2199 -32.2111 -32.0699 -32.0299
   -32.0221 -31.8529 -31.8376 -31.8013 -31.6526 -31.6497 -31.6389 -31.5321
   -31.5161 -31.5124 -31.5002 -31.4920 -31.4374 -31.1354 -31.1189 -31.0866
    -9.5089  -9.0711  -8.8650  -8.6479  -8.4166  -8.1958  -7.8909  -7.8292
     3.1326   3.3769   3.5071   3.8877   4.0281   4.1915   4.3589   4.6450
     4.8555   4.9403   5.0895   5.3769   5.4714   5.7377   6.0170   6.1319
     6.2211   6.2964   6.4324   6.5586   6.7191   6.8772   7.0335   7.5019

     occupation numbers 
     1.0000   1.0000   1.0000   1.0000   1.0000   1.0000   1.0000   1.0000
     1.0000   1.0000   1.0000   1.0000   1.0000   1.0000   1.0000   1.0000
     1.0000   1.0000   1.0000   1.0000   1.0000   1.0000   1.0000   1.0000
     1.0000   1.0000   1.0000   1.0000   1.0000   1.0000   1.0000   1.0000
     1.0000   1.0000   1.0000   1.0000   1.0000   1.0000   1.0000   1.0000
     1.0000   1.0000   1.0000   1.0000   1.0000   1.0000   1.0000   1.0000
     1.0000   1.0000   1.0000   1.0000   1.0000   1.0000   1.0000   1.0000
     1.0000   1.0000   1.0000   1.0000   1.0000   1.0000   1.0000   1.0000

          k =-0.6966 0.0046-0.0137 (  4470 PWs)   bands (ev):

   -65.3558 -65.2496 -65.0639 -64.8518 -64.6660 -64.5304 -64.4946 -64.1150
   -32.3584 -32.3267 -32.3016 -32.2438 -32.2199 -32.2104 -32.0707 -32.0302
   -32.0229 -31.8527 -31.8373 -31.8005 -31.6528 -31.6501 -31.6396 -31.5320
   -31.5146 -31.5092 -31.5014 -31.4932 -31.4387 -31.1355 -31.1188 -31.0871
    -9.3801  -9.2310  -8.8351  -8.5659  -8.4502  -8.2674  -7.9003  -7.8177
     3.4478   3.6655   3.7032   3.7620   4.2744   4.3632   4.4388   4.5166
     4.5971   4.7730   5.1095   5.1725   5.3066   5.4221   5.8178   6.0369
     6.2221   6.3048   6.4132   6.5424   6.7043   6.8814   7.1087   7.4019

     occupation numbers 
     1.0000   1.0000   1.0000   1.0000   1.0000   1.0000   1.0000   1.0000
     1.0000   1.0000   1.0000   1.0000   1.0000   1.0000   1.0000   1.0000
     1.0000   1.0000   1.0000   1.0000   1.0000   1.0000   1.0000   1.0000
     1.0000   1.0000   1.0000   1.0000   1.0000   1.0000   1.0000   1.0000
     1.0000   1.0000   1.0000   1.0000   1.0000   1.0000   1.0000   1.0000
     1.0000   1.0000   1.0000   1.0000   1.0000   1.0000   1.0000   1.0000
     1.0000   1.0000   1.0000   1.0000   1.0000   1.0000   1.0000   1.0000
     1.0000   1.0000   1.0000   1.0000   1.0000   1.0000   1.0000   1.0000

          k =-0.1719 0.1785 0.1729 (  4485 PWs)   bands (ev):

   -65.3558 -65.2496 -65.0639 -64.8518 -64.6660 -64.5304 -64.4945 -64.1150
   -32.3579 -32.3274 -32.3013 -32.2468 -32.2209 -32.2118 -32.0696 -32.0293
   -32.0227 -31.8513 -31.8367 -31.8010 -31.6570 -31.6502 -31.6399 -31.5293
   -31.5177 -31.5116 -31.4985 -31.4907 -31.4354 -31.1356 -31.1181 -31.0867
    -9.7342  -9.0624  -8.7836  -8.5193  -8.4262  -8.0224  -7.8996  -7.8769
     2.6735   2.9252   3.0236   3.2123   3.5244   3.5980   3.8073   5.0234
     5.3626   5.6047   5.7524   5.8526   5.9767   6.1914   6.2151   6.3475
     6.4705   6.5624   6.6945   6.7803   6.9177   7.0444   7.2393   7.5253

     occupation numbers 
     1.0000   1.0000   1.0000   1.0000   1.0000   1.0000   1.0000   1.0000
     1.0000   1.0000   1.0000   1.0000   1.0000   1.0000   1.0000   1.0000
     1.0000   1.0000   1.0000   1.0000   1.0000   1.0000   1.0000   1.0000
     1.0000   1.0000   1.0000   1.0000   1.0000   1.0000   1.0000   1.0000
     1.0000   1.0000   1.0000   1.0000   1.0000   1.0000   1.0000   1.0000
     1.0000   1.0000   1.0000   1.0000   1.0000   1.0000   1.0000   1.0000
     1.0000   1.0000   1.0000   1.0000   1.0000   1.0000   1.0000   1.0000
     1.0000   1.0000   1.0000   1.0000   1.0000   1.0000   1.0000   1.0000

          k =-0.0023 0.3486 0.0061 (  4483 PWs)   bands (ev):

   -65.3558 -65.2496 -65.0639 -64.8518 -64.6660 -64.5304 -64.4945 -64.1150
   -32.3580 -32.3275 -32.3011 -32.2465 -32.2208 -32.2114 -32.0700 -32.0293
   -32.0223 -31.8514 -31.8369 -31.8016 -31.6569 -31.6500 -31.6395 -31.5292
   -31.5146 -31.5111 -31.4995 -31.4923 -31.4379 -31.1358 -31.1182 -31.0863
    -9.7004  -9.0095  -8.8542  -8.5075  -8.4537  -8.0636  -7.9290  -7.8297
     2.7503   3.0395   3.1891   3.2083   3.5707   3.7689   3.9244   5.0905
     5.2449   5.3978   5.5975   5.7212   5.8766   6.0480   6.2027   6.3602
     6.4335   6.5198   6.6596   6.7101   6.8636   7.0475   7.2003   7.4136

     occupation numbers 
     1.0000   1.0000   1.0000   1.0000   1.0000   1.0000   1.0000   1.0000
     1.0000   1.0000   1.0000   1.0000   1.0000   1.0000   1.0000   1.0000
     1.0000   1.0000   1.0000   1.0000   1.0000   1.0000   1.0000   1.0000
     1.0000   1.0000   1.0000   1.0000   1.0000   1.0000   1.0000   1.0000
     1.0000   1.0000   1.0000   1.0000   1.0000   1.0000   1.0000   1.0000
     1.0000   1.0000   1.0000   1.0000   1.0000   1.0000   1.0000   1.0000
     1.0000   1.0000   1.0000   1.0000   1.0000   1.0000   1.0000   1.0000
     1.0000   1.0000   1.0000   1.0000   1.0000   1.0000   1.0000   1.0000

          k =-0.5111-0.1618 0.5065 (  4477 PWs)   bands (ev):

   -65.3558 -65.2496 -65.0639 -64.8518 -64.6660 -64.5303 -64.4946 -64.1150
   -32.3578 -32.3273 -32.3007 -32.2462 -32.2207 -32.2106 -32.0708 -32.0296
   -32.0219 -31.8515 -31.8369 -31.8015 -31.6568 -31.6501 -31.6390 -31.5292
   -31.5123 -31.5092 -31.5011 -31.4940 -31.4397 -31.1360 -31.1182 -31.0869
    -9.4832  -9.1755  -8.9092  -8.5014  -8.4647  -8.1086  -7.9513  -7.8137
     3.2084   3.4484   3.5486   3.7211   3.8808   4.0070   4.1680   4.5391
     4.7043   4.8566   5.1226   5.5454   5.6399   5.7971   5.9086   6.1344
     6.3364   6.4479   6.5866   6.7051   6.7559   7.0734   7.1511   7.3358

     occupation numbers 
     1.0000   1.0000   1.0000   1.0000   1.0000   1.0000   1.0000   1.0000
     1.0000   1.0000   1.0000   1.0000   1.0000   1.0000   1.0000   1.0000
     1.0000   1.0000   1.0000   1.0000   1.0000   1.0000   1.0000   1.0000
     1.0000   1.0000   1.0000   1.0000   1.0000   1.0000   1.0000   1.0000
     1.0000   1.0000   1.0000   1.0000   1.0000   1.0000   1.0000   1.0000
     1.0000   1.0000   1.0000   1.0000   1.0000   1.0000   1.0000   1.0000
     1.0000   1.0000   1.0000   1.0000   1.0000   1.0000   1.0000   1.0000
     1.0000   1.0000   1.0000   1.0000   1.0000   1.0000   1.0000   1.0000

          k =-0.3415 0.0084 0.3397 (  4476 PWs)   bands (ev):

   -65.3558 -65.2496 -65.0639 -64.8518 -64.6660 -64.5304 -64.4945 -64.1150
   -32.3577 -32.3271 -32.3010 -32.2465 -32.2208 -32.2111 -32.0704 -32.0296
   -32.0224 -31.8514 -31.8367 -31.8009 -31.6569 -31.6504 -31.6395 -31.5293
   -31.5147 -31.5117 -31.4995 -31.4920 -31.4372 -31.1358 -31.1182 -31.0873
    -9.5452  -9.1855  -8.8531  -8.5124  -8.4357  -8.0588  -7.9684  -7.8260
     3.0918   3.2526   3.4577   3.5724   3.7227   3.8768   4.0804   4.2656
     4.9798   5.2593   5.4509   5.6073   5.7953   5.8489   6.0437   6.2019
     6.3154   6.4791   6.6056   6.7022   6.8591   7.0153   7.1020   7.4719

     occupation numbers 
     1.0000   1.0000   1.0000   1.0000   1.0000   1.0000   1.0000   1.0000
     1.0000   1.0000   1.0000   1.0000   1.0000   1.0000   1.0000   1.0000
     1.0000   1.0000   1.0000   1.0000   1.0000   1.0000   1.0000   1.0000
     1.0000   1.0000   1.0000   1.0000   1.0000   1.0000   1.0000   1.0000
     1.0000   1.0000   1.0000   1.0000   1.0000   1.0000   1.0000   1.0000
     1.0000   1.0000   1.0000   1.0000   1.0000   1.0000   1.0000   1.0000
     1.0000   1.0000   1.0000   1.0000   1.0000   1.0000   1.0000   1.0000
     1.0000   1.0000   1.0000   1.0000   1.0000   1.0000   1.0000   1.0000

          k = 0.0068 0.0061 0.3465 (  4491 PWs)   bands (ev):

   -65.3558 -65.2496 -65.0639 -64.8518 -64.6660 -64.5304 -64.4945 -64.1150
   -32.3577 -32.3275 -32.3013 -32.2464 -32.2209 -32.2118 -32.0696 -32.0293
   -32.0223 -31.8520 -31.8365 -31.8014 -31.6549 -31.6503 -31.6395 -31.5302
   -31.5182 -31.5122 -31.4992 -31.4906 -31.4355 -31.1356 -31.1181 -31.0867
    -9.7004  -9.0504  -8.7804  -8.5422  -8.4403  -8.1013  -7.8849  -7.8483
     2.7542   3.0046   3.1674   3.2682   3.6027   3.7110   3.9541   4.9849
     5.2347   5.5078   5.7023   5.8143   5.8771   6.0534   6.1539   6.2796
     6.4306   6.4919   6.5907   6.7402   6.8432   6.9588   7.2732   7.4037

     occupation numbers 
     1.0000   1.0000   1.0000   1.0000   1.0000   1.0000   1.0000   1.0000
     1.0000   1.0000   1.0000   1.0000   1.0000   1.0000   1.0000   1.0000
     1.0000   1.0000   1.0000   1.0000   1.0000   1.0000   1.0000   1.0000
     1.0000   1.0000   1.0000   1.0000   1.0000   1.0000   1.0000   1.0000
     1.0000   1.0000   1.0000   1.0000   1.0000   1.0000   1.0000   1.0000
     1.0000   1.0000   1.0000   1.0000   1.0000   1.0000   1.0000   1.0000
     1.0000   1.0000   1.0000   1.0000   1.0000   1.0000   1.0000   1.0000
     1.0000   1.0000   1.0000   1.0000   1.0000   1.0000   1.0000   1.0000

          k = 0.1764 0.1762 0.1797 (  4484 PWs)   bands (ev):

   -65.3558 -65.2496 -65.0639 -64.8518 -64.6660 -64.5304 -64.4945 -64.1150
   -32.3578 -32.3277 -32.3013 -32.2461 -32.2210 -32.2115 -32.0700 -32.0294
   -32.0230 -31.8518 -31.8364 -31.8012 -31.6551 -31.6502 -31.6402 -31.5300
   -31.5150 -31.5114 -31.4993 -31.4918 -31.4375 -31.1357 -31.1181 -31.0862
    -9.7376  -8.9932  -8.8359  -8.5192  -8.4345  -8.0322  -7.9381  -7.8420
     2.6538   2.8946   3.0590   3.2645   3.5031   3.6678   3.8418   5.1667
     5.4359   5.5913   5.6557   5.8826   5.9724   6.0600   6.2267   6.3550
     6.5159   6.6059   6.6630   6.7618   6.8653   6.9488   7.1793   7.4176

     occupation numbers 
     1.0000   1.0000   1.0000   1.0000   1.0000   1.0000   1.0000   1.0000
     1.0000   1.0000   1.0000   1.0000   1.0000   1.0000   1.0000   1.0000
     1.0000   1.0000   1.0000   1.0000   1.0000   1.0000   1.0000   1.0000
     1.0000   1.0000   1.0000   1.0000   1.0000   1.0000   1.0000   1.0000
     1.0000   1.0000   1.0000   1.0000   1.0000   1.0000   1.0000   1.0000
     1.0000   1.0000   1.0000   1.0000   1.0000   1.0000   1.0000   1.0000
     1.0000   1.0000   1.0000   1.0000   1.0000   1.0000   1.0000   1.0000
     1.0000   1.0000   1.0000   1.0000   1.0000   1.0000   1.0000   1.0000

          k =-0.3323-0.3342 0.6801 (  4470 PWs)   bands (ev):

   -65.3558 -65.2496 -65.0639 -64.8518 -64.6660 -64.5303 -64.4946 -64.1150
   -32.3576 -32.3274 -32.3009 -32.2458 -32.2209 -32.2107 -32.0708 -32.0297
   -32.0226 -31.8518 -31.8364 -31.8011 -31.6550 -31.6504 -31.6398 -31.5300
   -31.5130 -31.5093 -31.5012 -31.4933 -31.4393 -31.1359 -31.1181 -31.0867
    -9.5583  -9.1160  -8.8876  -8.5341  -8.4321  -8.0767  -7.9726  -7.8157
     3.0381   3.2726   3.4417   3.6437   3.7200   3.9557   4.1356   4.3975
     4.9141   5.2844   5.4554   5.5754   5.7235   5.9330   6.0507   6.1618
     6.2581   6.4414   6.5529   6.7601   6.8319   6.9404   7.0693   7.3763

     occupation numbers 
     1.0000   1.0000   1.0000   1.0000   1.0000   1.0000   1.0000   1.0000
     1.0000   1.0000   1.0000   1.0000   1.0000   1.0000   1.0000   1.0000
     1.0000   1.0000   1.0000   1.0000   1.0000   1.0000   1.0000   1.0000
     1.0000   1.0000   1.0000   1.0000   1.0000   1.0000   1.0000   1.0000
     1.0000   1.0000   1.0000   1.0000   1.0000   1.0000   1.0000   1.0000
     1.0000   1.0000   1.0000   1.0000   1.0000   1.0000   1.0000   1.0000
     1.0000   1.0000   1.0000   1.0000   1.0000   1.0000   1.0000   1.0000
     1.0000   1.0000   1.0000   1.0000   1.0000   1.0000   1.0000   1.0000

          k =-0.1628-0.1641 0.5133 (  4489 PWs)   bands (ev):

   -65.3558 -65.2496 -65.0639 -64.8518 -64.6660 -64.5304 -64.4945 -64.1150
   -32.3575 -32.3273 -32.3009 -32.2461 -32.2208 -32.2110 -32.0704 -32.0296
   -32.0219 -31.8520 -31.8365 -31.8013 -31.6548 -31.6505 -31.6390 -31.5303
   -31.5153 -31.5123 -31.5003 -31.4918 -31.4373 -31.1357 -31.1182 -31.0872
    -9.4757  -9.2173  -8.8381  -8.5579  -8.4362  -8.1384  -7.9286  -7.8162
     3.1992   3.4381   3.5995   3.7167   3.8797   4.0114   4.1809   4.3876
     4.7807   4.9551   5.0647   5.4581   5.7194   5.9011   6.0095   6.1869
     6.1979   6.3510   6.5770   6.6765   6.7987   6.9842   7.1862   7.3268

     occupation numbers 
     1.0000   1.0000   1.0000   1.0000   1.0000   1.0000   1.0000   1.0000
     1.0000   1.0000   1.0000   1.0000   1.0000   1.0000   1.0000   1.0000
     1.0000   1.0000   1.0000   1.0000   1.0000   1.0000   1.0000   1.0000
     1.0000   1.0000   1.0000   1.0000   1.0000   1.0000   1.0000   1.0000
     1.0000   1.0000   1.0000   1.0000   1.0000   1.0000   1.0000   1.0000
     1.0000   1.0000   1.0000   1.0000   1.0000   1.0000   1.0000   1.0000
     1.0000   1.0000   1.0000   1.0000   1.0000   1.0000   1.0000   1.0000
     1.0000   1.0000   1.0000   1.0000   1.0000   1.0000   1.0000   1.0000

          k =-0.5294 0.5234-0.1744 (  4474 PWs)   bands (ev):

   -65.3558 -65.2496 -65.0639 -64.8518 -64.6660 -64.5304 -64.4945 -64.1150
   -32.3574 -32.3271 -32.3011 -32.2461 -32.2204 -32.2117 -32.0694 -32.0291
   -32.0215 -31.8528 -31.8370 -31.8018 -31.6528 -31.6499 -31.6386 -31.5320
   -31.5187 -31.5129 -31.5001 -31.4908 -31.4357 -31.1357 -31.1186 -31.0868
    -9.5086  -9.0852  -8.8328  -8.6644  -8.4379  -8.1741  -7.8819  -7.8394
     3.0879   3.4153   3.5208   3.8977   3.9902   4.2073   4.3342   4.6480
     4.7968   4.8427   5.1647   5.3411   5.5721   5.8194   5.9367   6.0995
     6.2659   6.3616   6.5197   6.6374   6.6601   6.8500   7.0436   7.3842

     occupation numbers 
     1.0000   1.0000   1.0000   1.0000   1.0000   1.0000   1.0000   1.0000
     1.0000   1.0000   1.0000   1.0000   1.0000   1.0000   1.0000   1.0000
     1.0000   1.0000   1.0000   1.0000   1.0000   1.0000   1.0000   1.0000
     1.0000   1.0000   1.0000   1.0000   1.0000   1.0000   1.0000   1.0000
     1.0000   1.0000   1.0000   1.0000   1.0000   1.0000   1.0000   1.0000
     1.0000   1.0000   1.0000   1.0000   1.0000   1.0000   1.0000   1.0000
     1.0000   1.0000   1.0000   1.0000   1.0000   1.0000   1.0000   1.0000
     1.0000   1.0000   1.0000   1.0000   1.0000   1.0000   1.0000   1.0000

          k =-0.3598 0.6935-0.3412 (  4485 PWs)   bands (ev):

   -65.3558 -65.2496 -65.0639 -64.8518 -64.6660 -64.5304 -64.4945 -64.1150
   -32.3576 -32.3272 -32.3011 -32.2458 -32.2205 -32.2114 -32.0698 -32.0292
   -32.0222 -31.8526 -31.8369 -31.8016 -31.6530 -31.6498 -31.6393 -31.5317
   -31.5157 -31.5119 -31.5002 -31.4921 -31.4377 -31.1359 -31.1186 -31.0863
    -9.5715  -9.0059  -8.8688  -8.6584  -8.4209  -8.1442  -7.8925  -7.8469
     2.9333   3.2296   3.5484   3.6949   3.8008   4.0154   4.2545   4.6860
     5.1208   5.2381   5.3100   5.5496   5.5999   5.7682   6.0644   6.1932
     6.3350   6.3643   6.5222   6.5942   6.7434   6.8016   7.0841   7.2873

     occupation numbers 
     1.0000   1.0000   1.0000   1.0000   1.0000   1.0000   1.0000   1.0000
     1.0000   1.0000   1.0000   1.0000   1.0000   1.0000   1.0000   1.0000
     1.0000   1.0000   1.0000   1.0000   1.0000   1.0000   1.0000   1.0000
     1.0000   1.0000   1.0000   1.0000   1.0000   1.0000   1.0000   1.0000
     1.0000   1.0000   1.0000   1.0000   1.0000   1.0000   1.0000   1.0000
     1.0000   1.0000   1.0000   1.0000   1.0000   1.0000   1.0000   1.0000
     1.0000   1.0000   1.0000   1.0000   1.0000   1.0000   1.0000   1.0000
     1.0000   1.0000   1.0000   1.0000   1.0000   1.0000   1.0000   1.0000

          k =-0.8685 0.1831 0.1592 (  4476 PWs)   bands (ev):

   -65.3558 -65.2496 -65.0639 -64.8518 -64.6660 -64.5304 -64.4946 -64.1150
   -32.3575 -32.3270 -32.3009 -32.2455 -32.2205 -32.2107 -32.0706 -32.0295
   -32.0230 -31.8524 -31.8366 -31.8008 -31.6532 -31.6502 -31.6401 -31.5316
   -31.5137 -31.5094 -31.5013 -31.4932 -31.4391 -31.1360 -31.1186 -31.0868
    -9.4737  -9.1064  -8.9154  -8.5822  -8.4187  -8.1786  -7.9374  -7.8190
     3.2051   3.4506   3.5976   3.8359   3.9292   4.1439   4.2332   4.5861
     4.8005   5.0609   5.2099   5.3818   5.6251   5.7176   5.9156   6.1236
     6.2427   6.3729   6.5017   6.5467   6.6914   6.8805   7.0386   7.2366

     occupation numbers 
     1.0000   1.0000   1.0000   1.0000   1.0000   1.0000   1.0000   1.0000
     1.0000   1.0000   1.0000   1.0000   1.0000   1.0000   1.0000   1.0000
     1.0000   1.0000   1.0000   1.0000   1.0000   1.0000   1.0000   1.0000
     1.0000   1.0000   1.0000   1.0000   1.0000   1.0000   1.0000   1.0000
     1.0000   1.0000   1.0000   1.0000   1.0000   1.0000   1.0000   1.0000
     1.0000   1.0000   1.0000   1.0000   1.0000   1.0000   1.0000   1.0000
     1.0000   1.0000   1.0000   1.0000   1.0000   1.0000   1.0000   1.0000
     1.0000   1.0000   1.0000   1.0000   1.0000   1.0000   1.0000   1.0000

          k =-0.6989 0.3532-0.0076 (  4496 PWs)   bands (ev):

   -65.3558 -65.2496 -65.0639 -64.8518 -64.6660 -64.5304 -64.4945 -64.1150
   -32.3573 -32.3269 -32.3009 -32.2458 -32.2204 -32.2110 -32.0702 -32.0295
   -32.0223 -31.8526 -31.8367 -31.8010 -31.6530 -31.6503 -31.6393 -31.5318
   -31.5157 -31.5127 -31.5002 -31.4918 -31.4371 -31.1358 -31.1186 -31.0873
    -9.3537  -9.2351  -8.8592  -8.6394  -8.4266  -8.1974  -7.9185  -7.8165
     3.4966   3.6445   3.8141   3.9065   4.1769   4.2071   4.3099   4.3386
     4.6151   4.7241   4.9007   5.0513   5.6741   5.8303   5.9507   5.9792
     6.2593   6.3773   6.4725   6.5582   6.6190   6.7704   7.0137   7.2865

     occupation numbers 
     1.0000   1.0000   1.0000   1.0000   1.0000   1.0000   1.0000   1.0000
     1.0000   1.0000   1.0000   1.0000   1.0000   1.0000   1.0000   1.0000
     1.0000   1.0000   1.0000   1.0000   1.0000   1.0000   1.0000   1.0000
     1.0000   1.0000   1.0000   1.0000   1.0000   1.0000   1.0000   1.0000
     1.0000   1.0000   1.0000   1.0000   1.0000   1.0000   1.0000   1.0000
     1.0000   1.0000   1.0000   1.0000   1.0000   1.0000   1.0000   1.0000
     1.0000   1.0000   1.0000   1.0000   1.0000   1.0000   1.0000   1.0000
     1.0000   1.0000   1.0000   1.0000   1.0000   1.0000   1.0000   1.0000

          k =-0.3506 0.3509-0.0008 (  4484 PWs)   bands (ev):

   -65.3558 -65.2496 -65.0639 -64.8518 -64.6660 -64.5304 -64.4945 -64.1150
   -32.3576 -32.3269 -32.3011 -32.2465 -32.2204 -32.2117 -32.0694 -32.0292
   -32.0220 -31.8521 -31.8371 -31.8014 -31.6549 -31.6499 -31.6391 -31.5309
   -31.5183 -31.5124 -31.4994 -31.4910 -31.4356 -31.1358 -31.1187 -31.0868
    -9.5596  -9.0994  -8.8252  -8.6097  -8.4389  -8.1265  -7.8904  -7.8513
     2.9566   3.2360   3.4967   3.7083   3.8542   3.9117   4.1747   4.5398
     4.9671   5.2934   5.3819   5.5616   5.6362   5.8523   6.0739   6.2082
     6.3061   6.4581   6.5825   6.6069   6.7664   6.8520   7.0015   7.4314

     occupation numbers 
     1.0000   1.0000   1.0000   1.0000   1.0000   1.0000   1.0000   1.0000
     1.0000   1.0000   1.0000   1.0000   1.0000   1.0000   1.0000   1.0000
     1.0000   1.0000   1.0000   1.0000   1.0000   1.0000   1.0000   1.0000
     1.0000   1.0000   1.0000   1.0000   1.0000   1.0000   1.0000   1.0000
     1.0000   1.0000   1.0000   1.0000   1.0000   1.0000   1.0000   1.0000
     1.0000   1.0000   1.0000   1.0000   1.0000   1.0000   1.0000   1.0000
     1.0000   1.0000   1.0000   1.0000   1.0000   1.0000   1.0000   1.0000
     1.0000   1.0000   1.0000   1.0000   1.0000   1.0000   1.0000   1.0000

          k =-0.1810 0.5211-0.1676 (  4470 PWs)   bands (ev):

   -65.3558 -65.2496 -65.0639 -64.8518 -64.6660 -64.5304 -64.4945 -64.1150
   -32.3577 -32.3270 -32.3009 -32.2461 -32.2203 -32.2113 -32.0698 -32.0291
   -32.0215 -31.8522 -31.8373 -31.8020 -31.6548 -31.6496 -31.6386 -31.5308
   -31.5153 -31.5116 -31.5004 -31.4925 -31.4380 -31.1360 -31.1187 -31.0864
    -9.5125  -9.0269  -8.9159  -8.6427  -8.4488  -8.1443  -7.8965  -7.8361
     3.0784   3.4538   3.5297   3.8773   4.0461   4.1783   4.3094   4.5234
     4.7369   4.9312   5.2066   5.2849   5.5635   5.7654   5.9739   6.1588
     6.3567   6.4057   6.4873   6.5711   6.7370   6.8826   7.0960   7.2705

     occupation numbers 
     1.0000   1.0000   1.0000   1.0000   1.0000   1.0000   1.0000   1.0000
     1.0000   1.0000   1.0000   1.0000   1.0000   1.0000   1.0000   1.0000
     1.0000   1.0000   1.0000   1.0000   1.0000   1.0000   1.0000   1.0000
     1.0000   1.0000   1.0000   1.0000   1.0000   1.0000   1.0000   1.0000
     1.0000   1.0000   1.0000   1.0000   1.0000   1.0000   1.0000   1.0000
     1.0000   1.0000   1.0000   1.0000   1.0000   1.0000   1.0000   1.0000
     1.0000   1.0000   1.0000   1.0000   1.0000   1.0000   1.0000   1.0000
     1.0000   1.0000   1.0000   1.0000   1.0000   1.0000   1.0000   1.0000

          k =-0.6898 0.0107 0.3328 (  4458 PWs)   bands (ev):

   -65.3558 -65.2496 -65.0639 -64.8518 -64.6660 -64.5303 -64.4946 -64.1150
   -32.3576 -32.3268 -32.3007 -32.2459 -32.2203 -32.2107 -32.0706 -32.0295
   -32.0223 -31.8520 -31.8371 -31.8012 -31.6550 -31.6500 -31.6393 -31.5306
   -31.5131 -31.5093 -31.5012 -31.4939 -31.4395 -31.1361 -31.1187 -31.0869
    -9.3773  -9.1760  -8.9254  -8.6081  -8.4452  -8.1656  -7.9289  -7.8193
     3.4557   3.6934   3.8412   4.0041   4.0612   4.1539   4.2870   4.3749
     4.5832   4.7380   4.9110   5.0438   5.5866   5.7955   6.0073   6.0862
     6.2122   6.3414   6.5122   6.5358   6.6908   6.8806   7.0009   7.2103

     occupation numbers 
     1.0000   1.0000   1.0000   1.0000   1.0000   1.0000   1.0000   1.0000
     1.0000   1.0000   1.0000   1.0000   1.0000   1.0000   1.0000   1.0000
     1.0000   1.0000   1.0000   1.0000   1.0000   1.0000   1.0000   1.0000
     1.0000   1.0000   1.0000   1.0000   1.0000   1.0000   1.0000   1.0000
     1.0000   1.0000   1.0000   1.0000   1.0000   1.0000   1.0000   1.0000
     1.0000   1.0000   1.0000   1.0000   1.0000   1.0000   1.0000   1.0000
     1.0000   1.0000   1.0000   1.0000   1.0000   1.0000   1.0000   1.0000
     1.0000   1.0000   1.0000   1.0000   1.0000   1.0000   1.0000   1.0000

          k =-0.5202 0.1808 0.1660 (  4469 PWs)   bands (ev):

   -65.3558 -65.2496 -65.0639 -64.8518 -64.6660 -64.5304 -64.4945 -64.1150
   -32.3575 -32.3267 -32.3009 -32.2462 -32.2204 -32.2111 -32.0702 -32.0295
   -32.0227 -31.8519 -31.8369 -31.8006 -31.6551 -31.6503 -31.6398 -31.5307
   -31.5151 -31.5123 -31.4994 -31.4920 -31.4370 -31.1359 -31.1186 -31.0873
    -9.4391  -9.2235  -8.8449  -8.5721  -8.4238  -8.1624  -7.9329  -7.8246
     3.2677   3.4682   3.5426   3.8126   3.9355   4.0371   4.1442   4.4819
     4.7482   4.9899   5.2444   5.4570   5.6625   5.8147   5.9595   6.1432
     6.2187   6.3909   6.4771   6.6277   6.8160   6.8909   7.0209   7.2899

     occupation numbers 
     1.0000   1.0000   1.0000   1.0000   1.0000   1.0000   1.0000   1.0000
     1.0000   1.0000   1.0000   1.0000   1.0000   1.0000   1.0000   1.0000
     1.0000   1.0000   1.0000   1.0000   1.0000   1.0000   1.0000   1.0000
     1.0000   1.0000   1.0000   1.0000   1.0000   1.0000   1.0000   1.0000
     1.0000   1.0000   1.0000   1.0000   1.0000   1.0000   1.0000   1.0000
     1.0000   1.0000   1.0000   1.0000   1.0000   1.0000   1.0000   1.0000
     1.0000   1.0000   1.0000   1.0000   1.0000   1.0000   1.0000   1.0000
     1.0000   1.0000   1.0000   1.0000   1.0000   1.0000   1.0000   1.0000

          k = 0.3438-0.3570-0.3457 (  4478 PWs)   bands (ev):

   -65.3558 -65.2496 -65.0639 -64.8518 -64.6660 -64.5304 -64.4945 -64.1150
   -32.3566 -32.3267 -32.3002 -32.2487 -32.2209 -32.2118 -32.0697 -32.0288
   -32.0226 -31.8511 -31.8364 -31.8007 -31.6573 -31.6505 -31.6399 -31.5296
   -31.5180 -31.5115 -31.4985 -31.4910 -31.4353 -31.1363 -31.1184 -31.0875
    -9.4049  -9.3542  -8.7957  -8.5564  -8.4199  -8.0345  -7.9419  -7.8916
     3.0653   3.3103   3.4413   3.5926   3.7556   3.8911   4.2992   4.4442
     4.9735   5.1325   5.3661   5.6819   5.7537   5.8534   5.9628   6.0686
     6.2187   6.3498   6.5847   6.7472   6.8914   7.0128   7.1851   7.3870

     occupation numbers 
     1.0000   1.0000   1.0000   1.0000   1.0000   1.0000   1.0000   1.0000
     1.0000   1.0000   1.0000   1.0000   1.0000   1.0000   1.0000   1.0000
     1.0000   1.0000   1.0000   1.0000   1.0000   1.0000   1.0000   1.0000
     1.0000   1.0000   1.0000   1.0000   1.0000   1.0000   1.0000   1.0000
     1.0000   1.0000   1.0000   1.0000   1.0000   1.0000   1.0000   1.0000
     1.0000   1.0000   1.0000   1.0000   1.0000   1.0000   1.0000   1.0000
     1.0000   1.0000   1.0000   1.0000   1.0000   1.0000   1.0000   1.0000
     1.0000   1.0000   1.0000   1.0000   1.0000   1.0000   1.0000   1.0000

          k = 0.5134-0.1869-0.5125 (  4470 PWs)   bands (ev):

   -65.3558 -65.2496 -65.0639 -64.8518 -64.6660 -64.5304 -64.4945 -64.1150
   -32.3566 -32.3268 -32.3000 -32.2484 -32.2208 -32.2113 -32.0701 -32.0287
   -32.0221 -31.8512 -31.8366 -31.8012 -31.6572 -31.6502 -31.6395 -31.5295
   -31.5148 -31.5111 -31.4995 -31.4925 -31.4377 -31.1365 -31.1185 -31.0871
    -9.4357  -9.2118  -8.8928  -8.5369  -8.4494  -8.1034  -7.9624  -7.8294
     3.1923   3.4584   3.5855   3.8150   3.9543   4.0404   4.1113   4.5246
     4.7758   4.9894   5.2023   5.5282   5.6087   5.7631   5.8992   6.1086
     6.2716   6.3802   6.5444   6.6604   6.7884   6.8962   7.0913   7.3062

     occupation numbers 
     1.0000   1.0000   1.0000   1.0000   1.0000   1.0000   1.0000   1.0000
     1.0000   1.0000   1.0000   1.0000   1.0000   1.0000   1.0000   1.0000
     1.0000   1.0000   1.0000   1.0000   1.0000   1.0000   1.0000   1.0000
     1.0000   1.0000   1.0000   1.0000   1.0000   1.0000   1.0000   1.0000
     1.0000   1.0000   1.0000   1.0000   1.0000   1.0000   1.0000   1.0000
     1.0000   1.0000   1.0000   1.0000   1.0000   1.0000   1.0000   1.0000
     1.0000   1.0000   1.0000   1.0000   1.0000   1.0000   1.0000   1.0000
     1.0000   1.0000   1.0000   1.0000   1.0000   1.0000   1.0000   1.0000

          k = 0.0046-0.6972-0.0121 (  4466 PWs)   bands (ev):

   -65.3558 -65.2496 -65.0639 -64.8518 -64.6660 -64.5303 -64.4946 -64.1150
   -32.3567 -32.3270 -32.2998 -32.2482 -32.2208 -32.2109 -32.0705 -32.0287
   -32.0217 -31.8514 -31.8368 -31.8018 -31.6571 -31.6500 -31.6390 -31.5294
   -31.5118 -31.5093 -31.5010 -31.4946 -31.4402 -31.1367 -31.1185 -31.0867
    -9.4011  -9.1442  -8.9552  -8.5202  -8.4988  -8.1737  -7.9311  -7.8200
     3.3338   3.6390   3.8481   3.8597   4.1804   4.2548   4.3075   4.4905
     4.6716   4.7918   4.8863   5.3297   5.3502   5.6558   5.7922   5.9402
     6.0142   6.3602   6.6538   6.7394   6.8089   6.9182   7.0537   7.1932

     occupation numbers 
     1.0000   1.0000   1.0000   1.0000   1.0000   1.0000   1.0000   1.0000
     1.0000   1.0000   1.0000   1.0000   1.0000   1.0000   1.0000   1.0000
     1.0000   1.0000   1.0000   1.0000   1.0000   1.0000   1.0000   1.0000
     1.0000   1.0000   1.0000   1.0000   1.0000   1.0000   1.0000   1.0000
     1.0000   1.0000   1.0000   1.0000   1.0000   1.0000   1.0000   1.0000
     1.0000   1.0000   1.0000   1.0000   1.0000   1.0000   1.0000   1.0000
     1.0000   1.0000   1.0000   1.0000   1.0000   1.0000   1.0000   1.0000
     1.0000   1.0000   1.0000   1.0000   1.0000   1.0000   1.0000   1.0000

          k = 0.5225-0.5294-0.1721 (  4479 PWs)   bands (ev):

   -65.3558 -65.2496 -65.0639 -64.8518 -64.6660 -64.5304 -64.4945 -64.1150
   -32.3564 -32.3269 -32.3002 -32.2483 -32.2209 -32.2117 -32.0697 -32.0288
   -32.0221 -31.8518 -31.8363 -31.8010 -31.6552 -31.6505 -31.6395 -31.5305
   -31.5184 -31.5121 -31.4993 -31.4909 -31.4354 -31.1362 -31.1184 -31.0875
    -9.4214  -9.2608  -8.8059  -8.5749  -8.4660  -8.1331  -7.9073  -7.8530
     3.1916   3.4536   3.6003   3.8428   3.9081   4.0685   4.1802   4.4031
     4.7938   4.8972   5.2715   5.4831   5.6839   5.8790   5.9513   6.1539
     6.2191   6.3829   6.4809   6.6364   6.7257   6.9173   7.0653   7.2672

     occupation numbers 
     1.0000   1.0000   1.0000   1.0000   1.0000   1.0000   1.0000   1.0000
     1.0000   1.0000   1.0000   1.0000   1.0000   1.0000   1.0000   1.0000
     1.0000   1.0000   1.0000   1.0000   1.0000   1.0000   1.0000   1.0000
     1.0000   1.0000   1.0000   1.0000   1.0000   1.0000   1.0000   1.0000
     1.0000   1.0000   1.0000   1.0000   1.0000   1.0000   1.0000   1.0000
     1.0000   1.0000   1.0000   1.0000   1.0000   1.0000   1.0000   1.0000
     1.0000   1.0000   1.0000   1.0000   1.0000   1.0000   1.0000   1.0000
     1.0000   1.0000   1.0000   1.0000   1.0000   1.0000   1.0000   1.0000

          k = 0.6921-0.3593-0.3389 (  4481 PWs)   bands (ev):

   -65.3558 -65.2496 -65.0639 -64.8518 -64.6660 -64.5304 -64.4945 -64.1150
   -32.3565 -32.3270 -32.3002 -32.2481 -32.2209 -32.2114 -32.0701 -32.0288
   -32.0228 -31.8516 -31.8362 -31.8008 -31.6554 -31.6504 -31.6402 -31.5303
   -31.5150 -31.5116 -31.4993 -31.4921 -31.4374 -31.1364 -31.1184 -31.0870
    -9.5280  -9.1367  -8.8674  -8.5619  -8.4190  -8.0858  -7.9804  -7.8280
     3.0101   3.2555   3.5167   3.7144   3.7948   3.9574   4.1680   4.4195
     4.9769   5.3482   5.4205   5.5338   5.8028   5.9490   6.0278   6.1482
     6.2321   6.4814   6.5698   6.6856   6.7402   6.7600   7.0505   7.2364

     occupation numbers 
     1.0000   1.0000   1.0000   1.0000   1.0000   1.0000   1.0000   1.0000
     1.0000   1.0000   1.0000   1.0000   1.0000   1.0000   1.0000   1.0000
     1.0000   1.0000   1.0000   1.0000   1.0000   1.0000   1.0000   1.0000
     1.0000   1.0000   1.0000   1.0000   1.0000   1.0000   1.0000   1.0000
     1.0000   1.0000   1.0000   1.0000   1.0000   1.0000   1.0000   1.0000
     1.0000   1.0000   1.0000   1.0000   1.0000   1.0000   1.0000   1.0000
     1.0000   1.0000   1.0000   1.0000   1.0000   1.0000   1.0000   1.0000
     1.0000   1.0000   1.0000   1.0000   1.0000   1.0000   1.0000   1.0000

          k = 0.1834-0.8697 0.1615 (  4478 PWs)   bands (ev):

   -65.3558 -65.2496 -65.0639 -64.8518 -64.6660 -64.5303 -64.4946 -64.1150
   -32.3566 -32.3271 -32.2999 -32.2478 -32.2209 -32.2109 -32.0705 -32.0288
   -32.0224 -31.8517 -31.8364 -31.8014 -31.6553 -31.6502 -31.6397 -31.5302
   -31.5124 -31.5094 -31.5012 -31.4939 -31.4399 -31.1366 -31.1184 -31.0866
    -9.4718  -9.1028  -8.9210  -8.5876  -8.4534  -8.1139  -7.9459  -7.8333
     3.1416   3.4710   3.6266   3.8429   3.9639   4.2125   4.2568   4.4817
     4.5947   4.9928   5.2303   5.4523   5.6596   5.7932   5.9845   6.1108
     6.2976   6.3169   6.5617   6.6491   6.7566   6.8042   7.0273   7.1416

     occupation numbers 
     1.0000   1.0000   1.0000   1.0000   1.0000   1.0000   1.0000   1.0000
     1.0000   1.0000   1.0000   1.0000   1.0000   1.0000   1.0000   1.0000
     1.0000   1.0000   1.0000   1.0000   1.0000   1.0000   1.0000   1.0000
     1.0000   1.0000   1.0000   1.0000   1.0000   1.0000   1.0000   1.0000
     1.0000   1.0000   1.0000   1.0000   1.0000   1.0000   1.0000   1.0000
     1.0000   1.0000   1.0000   1.0000   1.0000   1.0000   1.0000   1.0000
     1.0000   1.0000   1.0000   1.0000   1.0000   1.0000   1.0000   1.0000
     1.0000   1.0000   1.0000   1.0000   1.0000   1.0000   1.0000   1.0000

          k = 0.3529-0.6995-0.0053 (  4481 PWs)   bands (ev):

   -65.3558 -65.2496 -65.0639 -64.8518 -64.6660 -64.5304 -64.4945 -64.1150
   -32.3564 -32.3270 -32.3000 -32.2480 -32.2208 -32.2112 -32.0701 -32.0287
   -32.0217 -31.8519 -31.8364 -31.8016 -31.6551 -31.6503 -31.6390 -31.5305
   -31.5153 -31.5117 -31.5003 -31.4924 -31.4378 -31.1364 -31.1185 -31.0871
    -9.3638  -9.2049  -8.9066  -8.5950  -8.4815  -8.1384  -7.9293  -7.8251
     3.4244   3.6256   3.8772   4.0634   4.0922   4.1561   4.2596   4.4028
     4.5526   4.7419   4.8500   5.0140   5.6124   5.8072   5.9924   6.1354
     6.2613   6.4028   6.4946   6.5783   6.6904   6.8233   7.0135   7.1498

     occupation numbers 
     1.0000   1.0000   1.0000   1.0000   1.0000   1.0000   1.0000   1.0000
     1.0000   1.0000   1.0000   1.0000   1.0000   1.0000   1.0000   1.0000
     1.0000   1.0000   1.0000   1.0000   1.0000   1.0000   1.0000   1.0000
     1.0000   1.0000   1.0000   1.0000   1.0000   1.0000   1.0000   1.0000
     1.0000   1.0000   1.0000   1.0000   1.0000   1.0000   1.0000   1.0000
     1.0000   1.0000   1.0000   1.0000   1.0000   1.0000   1.0000   1.0000
     1.0000   1.0000   1.0000   1.0000   1.0000   1.0000   1.0000   1.0000
     1.0000   1.0000   1.0000   1.0000   1.0000   1.0000   1.0000   1.0000

          k =-0.0137-0.0121-0.6930 (  4494 PWs)   bands (ev):

   -65.3558 -65.2496 -65.0639 -64.8518 -64.6660 -64.5304 -64.4945 -64.1150
   -32.3562 -32.3270 -32.3002 -32.2479 -32.2209 -32.2116 -32.0697 -32.0287
   -32.0217 -31.8525 -31.8361 -31.8014 -31.6532 -31.6505 -31.6390 -31.5317
   -31.5189 -31.5127 -31.5001 -31.4907 -31.4354 -31.1362 -31.1184 -31.0875
    -9.3393  -9.2906  -8.7970  -8.5982  -8.4747  -8.2181  -7.8965  -7.8312
     3.3831   3.5165   3.8089   3.8326   4.2381   4.3290   4.4259   4.5227
     4.6540   4.7135   5.0674   5.2736   5.3554   5.5269   5.8386   5.9462
     6.0976   6.2775   6.4318   6.7068   6.7898   6.9505   7.0976   7.2285

     occupation numbers 
     1.0000   1.0000   1.0000   1.0000   1.0000   1.0000   1.0000   1.0000
     1.0000   1.0000   1.0000   1.0000   1.0000   1.0000   1.0000   1.0000
     1.0000   1.0000   1.0000   1.0000   1.0000   1.0000   1.0000   1.0000
     1.0000   1.0000   1.0000   1.0000   1.0000   1.0000   1.0000   1.0000
     1.0000   1.0000   1.0000   1.0000   1.0000   1.0000   1.0000   1.0000
     1.0000   1.0000   1.0000   1.0000   1.0000   1.0000   1.0000   1.0000
     1.0000   1.0000   1.0000   1.0000   1.0000   1.0000   1.0000   1.0000
     1.0000   1.0000   1.0000   1.0000   1.0000   1.0000   1.0000   1.0000

          k = 0.1559 0.1580-0.8598 (  4478 PWs)   bands (ev):

   -65.3558 -65.2496 -65.0639 -64.8518 -64.6660 -64.5304 -64.4945 -64.1150
   -32.3563 -32.3272 -32.3001 -32.2477 -32.2210 -32.2113 -32.0701 -32.0288
   -32.0224 -31.8523 -31.8360 -31.8012 -31.6534 -31.6504 -31.6397 -31.5314
   -31.5156 -31.5121 -31.5001 -31.4919 -31.4375 -31.1363 -31.1184 -31.0870
    -9.4653  -9.1400  -8.8854  -8.5910  -8.4297  -8.1524  -7.9394  -7.8273
     3.1663   3.4003   3.6103   3.8837   3.9531   4.1047   4.2614   4.6028
     4.8710   4.9553   5.1828   5.4552   5.6066   5.8153   5.9043   6.0909
     6.2254   6.2624   6.4434   6.6032   6.8318   6.8478   7.0231   7.2441

     occupation numbers 
     1.0000   1.0000   1.0000   1.0000   1.0000   1.0000   1.0000   1.0000
     1.0000   1.0000   1.0000   1.0000   1.0000   1.0000   1.0000   1.0000
     1.0000   1.0000   1.0000   1.0000   1.0000   1.0000   1.0000   1.0000
     1.0000   1.0000   1.0000   1.0000   1.0000   1.0000   1.0000   1.0000
     1.0000   1.0000   1.0000   1.0000   1.0000   1.0000   1.0000   1.0000
     1.0000   1.0000   1.0000   1.0000   1.0000   1.0000   1.0000   1.0000
     1.0000   1.0000   1.0000   1.0000   1.0000   1.0000   1.0000   1.0000
     1.0000   1.0000   1.0000   1.0000   1.0000   1.0000   1.0000   1.0000

          k =-0.3528-0.3524-0.3594 (  4490 PWs)   bands (ev):

   -65.3558 -65.2496 -65.0639 -64.8518 -64.6660 -64.5303 -64.4946 -64.1150
   -32.3565 -32.3273 -32.3001 -32.2474 -32.2210 -32.2110 -32.0705 -32.0288
   -32.0230 -31.8521 -31.8359 -31.8010 -31.6536 -31.6503 -31.6405 -31.5312
   -31.5129 -31.5096 -31.5013 -31.4932 -31.4395 -31.1365 -31.1183 -31.0865
    -9.5076  -9.1220  -8.9053  -8.5692  -8.4179  -8.0540  -7.9906  -7.8487
     3.0047   3.2981   3.4783   3.6378   3.8376   3.9999   4.4662   4.6870
     4.8497   5.1930   5.3852   5.6329   5.6767   5.8945   5.9279   5.9960
     6.2181   6.3446   6.4267   6.6621   6.8158   6.9225   7.0673   7.3046

     occupation numbers 
     1.0000   1.0000   1.0000   1.0000   1.0000   1.0000   1.0000   1.0000
     1.0000   1.0000   1.0000   1.0000   1.0000   1.0000   1.0000   1.0000
     1.0000   1.0000   1.0000   1.0000   1.0000   1.0000   1.0000   1.0000
     1.0000   1.0000   1.0000   1.0000   1.0000   1.0000   1.0000   1.0000
     1.0000   1.0000   1.0000   1.0000   1.0000   1.0000   1.0000   1.0000
     1.0000   1.0000   1.0000   1.0000   1.0000   1.0000   1.0000   1.0000
     1.0000   1.0000   1.0000   1.0000   1.0000   1.0000   1.0000   1.0000
     1.0000   1.0000   1.0000   1.0000   1.0000   1.0000   1.0000   1.0000

     highest occupied level (ev):     7.6689

!    total energy              =   -1260.63981783 Ry
     Harris-Foulkes estimate   =   -1260.63981783 Ry
     estimated scf accuracy    <          4.3E-11 Ry

     The total energy is the sum of the following terms:

     one-electron contribution =    -719.00306913 Ry
     hartree contribution      =     394.57814382 Ry
     xc contribution           =    -192.48829109 Ry
     ewald contribution        =    -743.72660144 Ry

     convergence has been achieved in  18 iterations

     Forces acting on atoms (Ry/au):

     atom    1 type  2   force =  -0.17595927E-01 -0.96927692E-01  0.54067516E-01
     atom    2 type  3   force =  -0.18755902E-01  0.36198582E-02  0.83131734E-02
     atom    3 type  2   force =  -0.15248033E-02  0.39714084E-02  0.32369217E-02
     atom    4 type  3   force =   0.75850127E-01 -0.25951420E-01  0.70804598E-01
     atom    5 type  2   force =  -0.44621469E-02  0.74223390E-01 -0.32892152E-01
     atom    6 type  3   force =   0.32959028E-01  0.10605861E+00  0.22987404E-01
     atom    7 type  2   force =  -0.61746346E-01  0.30435359E-01 -0.40529224E-01
     atom    8 type  3   force =  -0.22986766E-01 -0.51063973E-01 -0.38126932E-01
     atom    9 type  2   force =   0.55441001E-01 -0.41945076E-01  0.47076480E-01
     atom   10 type  3   force =   0.70915477E-01 -0.22497625E-01 -0.14724066E-01
     atom   11 type  2   force =   0.15478180E-01 -0.70772045E-02 -0.22656296E-01
     atom   12 type  3   force =   0.33847926E-01 -0.46054706E-02  0.48207466E-01
     atom   13 type  2   force =  -0.21465733E-01 -0.14652628E-01 -0.48670562E-01
     atom   14 type  3   force =  -0.49209101E-01  0.13662380E-01 -0.83206242E-01
     atom   15 type  2   force =   0.15891706E-01  0.30070377E-01  0.33083419E-02
     atom   16 type  3   force =  -0.10263672E+00  0.26797096E-02  0.22803574E-01
     The non-local contrib.  to forces
     atom    1 type  2   force =  -0.13445430E+00 -0.20146746E+00  0.32097458E-01
     atom    2 type  3   force =  -0.91225121E-01  0.83807157E-01 -0.86978198E-01
     atom    3 type  2   force =  -0.29776305E+00  0.11964392E+00 -0.21389240E+00
     atom    4 type  3   force =   0.14976054E+00 -0.49432846E-01  0.23233969E+00
     atom    5 type  2   force =   0.48198153E-01  0.62261052E-01 -0.36768587E-01
     atom    6 type  3   force =   0.10471346E+00  0.14114951E+00  0.65724143E-01
     atom    7 type  2   force =   0.87970211E-01  0.12426861E+00 -0.13228831E+00
     atom    8 type  3   force =  -0.94753217E-01 -0.14731061E+00 -0.22111676E+00
     atom    9 type  2   force =   0.17521601E+00 -0.33787109E-01 -0.12803081E+00
     atom   10 type  3   force =   0.18379898E+00 -0.70718420E-01 -0.10204260E+00
     atom   11 type  2   force =  -0.50150645E-01  0.11245030E+00  0.10236045E+00
     atom   12 type  3   force =   0.80089052E-02 -0.11253193E+00  0.17478324E+00
     atom   13 type  2   force =   0.32702238E-01  0.86614856E-01 -0.39033511E-01
     atom   14 type  3   force =  -0.30102727E-01  0.92279052E-01 -0.10666255E+00
     atom   15 type  2   force =  -0.50908414E-01 -0.14320461E+00  0.87836081E-01
     atom   16 type  3   force =  -0.26423581E+00  0.19203253E+00 -0.40951512E-01
     The ionic contribution  to forces
     atom    1 type  2   force =  -0.11366229E+01 -0.42604419E+01  0.18456390E+01
     atom    2 type  3   force =   0.28262445E+00 -0.11067470E+01  0.77663652E+00
     atom    3 type  2   force =  -0.70328084E+00  0.14284136E+01 -0.37533066E-01
     atom    4 type  3   force =   0.18866170E+01 -0.13487972E+01  0.96913303E+00
     atom    5 type  2   force =  -0.76260448E+00  0.22749236E+01 -0.42524237E+00
     atom    6 type  3   force =   0.76432951E+00  0.30969595E+01 -0.14627662E+00
     atom    7 type  2   force =  -0.12146410E+01  0.24706125E+01 -0.31526004E+01
     atom    8 type  3   force =  -0.94848232E+00 -0.10429929E+01  0.11786665E+00
     atom    9 type  2   force =   0.33462441E+01 -0.77207017E+00  0.77848921E+00
     atom   10 type  3   force =   0.15017355E+01 -0.20610498E+00  0.10917879E+01
     atom   11 type  2   force =   0.72638692E+00 -0.72450191E+00 -0.10151975E-01
     atom   12 type  3   force =   0.10975763E+01  0.69323566E+00  0.90608163E+00
     atom   13 type  2   force =  -0.20407644E+01  0.66790849E+00 -0.19800951E+01
     atom   14 type  3   force =  -0.19312792E+01 -0.32854622E+00 -0.29707695E+01
     atom   15 type  2   force =   0.55237656E+00  0.91978879E-01  0.75750435E+00
     atom   16 type  3   force =  -0.14202151E+01 -0.93383000E+00  0.14795307E+01
     The local contribution  to forces
     atom    1 type  2   force =   0.12534808E+01  0.43649885E+01 -0.18236709E+01
     atom    2 type  3   force =  -0.21081774E+00  0.10268843E+01 -0.68151415E+00
     atom    3 type  2   force =   0.99950671E+00 -0.15440841E+01  0.25465086E+00
     atom    4 type  3   force =  -0.19586868E+01  0.13716419E+01 -0.11286027E+01
     atom    5 type  2   force =   0.70994691E+00 -0.22629698E+01  0.42911911E+00
     atom    6 type  3   force =  -0.83510120E+00 -0.31299907E+01  0.10414026E+00
     atom    7 type  2   force =   0.10649341E+01 -0.25644431E+01  0.32443638E+01
     atom    8 type  3   force =   0.10195299E+01  0.11378329E+01  0.63701204E-01
     atom    9 type  2   force =  -0.34660276E+01  0.76391679E+00 -0.60339230E+00
     atom   10 type  3   force =  -0.16127978E+01  0.25370769E+00 -0.10050954E+01
     atom   11 type  2   force =  -0.66076107E+00  0.60498506E+00 -0.11486273E+00
     atom   12 type  3   force =  -0.10711402E+01 -0.58572091E+00 -0.10311421E+01
     atom   13 type  2   force =   0.19866050E+01 -0.76917308E+00  0.19704677E+01
     atom   14 type  3   force =   0.19111985E+01  0.25049714E+00  0.29924779E+01
     atom   15 type  2   force =  -0.48557649E+00  0.81286780E-01 -0.84202670E+00
     atom   16 type  3   force =   0.15793350E+01  0.74518950E+00 -0.14155086E+01
     The core correction contribution to forces
     atom    1 type  2   force =   0.00000000E+00  0.00000000E+00  0.00000000E+00
     atom    2 type  3   force =   0.66358958E-03 -0.32618859E-03  0.16943249E-03
     atom    3 type  2   force =   0.00000000E+00  0.00000000E+00  0.00000000E+00
     atom    4 type  3   force =  -0.18387713E-02  0.63629421E-03 -0.20632081E-02
     atom    5 type  2   force =   0.00000000E+00  0.00000000E+00  0.00000000E+00
     atom    6 type  3   force =  -0.98154135E-03 -0.20543206E-02 -0.60036591E-03
     atom    7 type  2   force =   0.00000000E+00  0.00000000E+00  0.00000000E+00
     atom    8 type  3   force =   0.71630505E-03  0.14057779E-02  0.14207501E-02
     atom    9 type  2   force =   0.00000000E+00  0.00000000E+00  0.00000000E+00
     atom   10 type  3   force =  -0.18176516E-02  0.61810617E-03  0.62749608E-03
     atom   11 type  2   force =   0.00000000E+00  0.00000000E+00  0.00000000E+00
     atom   12 type  3   force =  -0.59773144E-03  0.41109193E-03 -0.15138194E-02
     atom   13 type  2   force =   0.00000000E+00  0.00000000E+00  0.00000000E+00
     atom   14 type  3   force =   0.97133454E-03 -0.56527436E-03  0.17432747E-02
     atom   15 type  2   force =   0.00000000E+00  0.00000000E+00  0.00000000E+00
     atom   16 type  3   force =   0.24754624E-02 -0.71051325E-03 -0.26648354E-03
     The Hubbard contrib.    to forces
     atom    1 type  2   force =   0.00000000E+00  0.00000000E+00  0.00000000E+00
     atom    2 type  3   force =   0.00000000E+00  0.00000000E+00  0.00000000E+00
     atom    3 type  2   force =   0.00000000E+00  0.00000000E+00  0.00000000E+00
     atom    4 type  3   force =   0.00000000E+00  0.00000000E+00  0.00000000E+00
     atom    5 type  2   force =   0.00000000E+00  0.00000000E+00  0.00000000E+00
     atom    6 type  3   force =   0.00000000E+00  0.00000000E+00  0.00000000E+00
     atom    7 type  2   force =   0.00000000E+00  0.00000000E+00  0.00000000E+00
     atom    8 type  3   force =   0.00000000E+00  0.00000000E+00  0.00000000E+00
     atom    9 type  2   force =   0.00000000E+00  0.00000000E+00  0.00000000E+00
     atom   10 type  3   force =   0.00000000E+00  0.00000000E+00  0.00000000E+00
     atom   11 type  2   force =   0.00000000E+00  0.00000000E+00  0.00000000E+00
     atom   12 type  3   force =   0.00000000E+00  0.00000000E+00  0.00000000E+00
     atom   13 type  2   force =   0.00000000E+00  0.00000000E+00  0.00000000E+00
     atom   14 type  3   force =   0.00000000E+00  0.00000000E+00  0.00000000E+00
     atom   15 type  2   force =   0.00000000E+00  0.00000000E+00  0.00000000E+00
     atom   16 type  3   force =   0.00000000E+00  0.00000000E+00  0.00000000E+00
     The SCF correction term to forces
     atom    1 type  2   force =   0.25071993E-06 -0.64032329E-05  0.19417216E-05
     atom    2 type  3   force =  -0.12633933E-05  0.20264493E-05 -0.44034905E-06
     atom    3 type  2   force =   0.12190691E-04 -0.15380058E-05  0.11511136E-04
     atom    4 type  3   force =  -0.20356714E-05  0.81680123E-06 -0.22171442E-05
     atom    5 type  2   force =  -0.29223628E-05  0.89578877E-05 -0.32925206E-06
     atom    6 type  3   force =  -0.13870359E-05 -0.49757420E-05 -0.29014132E-07
     atom    7 type  2   force =  -0.98485621E-05 -0.22066427E-05 -0.43744358E-05
     atom    8 type  3   force =   0.24060605E-05  0.12949016E-05  0.12037893E-05
     atom    9 type  2   force =   0.82863166E-05 -0.41605355E-05  0.10356030E-04
     atom   10 type  3   force =  -0.37502557E-05  0.40851337E-06 -0.14895885E-05
     atom   11 type  2   force =   0.27900259E-05 -0.10234271E-04 -0.20582411E-05
     atom   12 type  3   force =   0.48127399E-06  0.10392915E-05 -0.14946658E-05
     atom   13 type  2   force =  -0.86862081E-05 -0.24692877E-05 -0.96854600E-05
     atom   14 type  3   force =   0.28598207E-05 -0.19046740E-05  0.45970819E-05
     atom   15 type  2   force =  -0.13149829E-06  0.97525925E-05 -0.54035561E-05
     atom   16 type  3   force =   0.35339459E-05 -0.13888783E-05 -0.55813841E-06

     Total force =     0.311249     Total SCF correction =     0.000036


     entering subroutine stress ...

          total   stress  (Ry/bohr**3)                   (kbar)     P=    1.79
   0.0000614174  -0.0001498708   0.0003410971          9.03    -22.05     50.18
  -0.0001498708  -0.0000027206   0.0003156092        -22.05     -0.40     46.43
   0.0003410971   0.0003156092  -0.0000222764         50.18     46.43     -3.28

     kinetic stress (kbar)  23220.22    -26.70     74.65
                              -26.70  23221.62     53.72
                               74.65     53.72  23219.60

     local   stress (kbar)  -4922.88    -29.28   1736.13
                              -29.28  -4834.93      2.30
                             1736.13      2.30  -4284.12

     nonloc. stress (kbar)   6340.47      1.13     -9.52
                                1.13   6341.96     -2.11
                               -9.52     -2.11   6334.06

     hartree stress (kbar)  18534.27      8.77   -685.98
                                8.77  18508.38      1.89
                             -685.98      1.89  18308.86

     exc-cor stress (kbar)  -8246.87      0.12     -1.04
                                0.12  -8246.93     -0.28
                               -1.04     -0.28  -8247.42

     corecor stress (kbar)   -303.60      0.07     -0.16
                                0.07   -303.62     -0.15
                               -0.16     -0.15   -303.59

     ewald   stress (kbar) -34612.57     23.86  -1063.91
                               23.86 -34686.88     -8.94
                            -1063.91     -8.94 -35030.67

     hubbard stress (kbar)      0.00      0.00      0.00
                                0.00      0.00      0.00
                                0.00      0.00      0.00

     london  stress (kbar)      0.00      0.00      0.00
                                0.00      0.00      0.00
                                0.00      0.00      0.00

     XDM     stress (kbar)      0.00      0.00      0.00
                                0.00      0.00      0.00
                                0.00      0.00      0.00

     dft-nl  stress (kbar)      0.00      0.00      0.00
                                0.00      0.00      0.00
                                0.00      0.00      0.00



     Writing output data file mix.dummy5201.save

     init_run     :     11.41s CPU     12.03s WALL (       1 calls)
     electrons    :    625.01s CPU    669.17s WALL (       1 calls)
     forces       :      5.29s CPU      5.34s WALL (       1 calls)
     stress       :      9.34s CPU      9.36s WALL (       1 calls)

     Called by init_run:
     wfcinit      :      9.56s CPU     10.10s WALL (       1 calls)
     potinit      :      0.38s CPU      0.38s WALL (       1 calls)

     Called by electrons:
     c_bands      :    553.11s CPU    594.65s WALL (      18 calls)
     sum_band     :     65.38s CPU     67.96s WALL (      18 calls)
     v_of_rho     :      0.77s CPU      0.77s WALL (      19 calls)
     v_h          :      0.05s CPU      0.05s WALL (      19 calls)
     v_xc         :      0.78s CPU      0.78s WALL (      21 calls)
     newd         :      4.73s CPU      4.73s WALL (      19 calls)
     mix_rho      :      1.12s CPU      1.13s WALL (      18 calls)

     Called by c_bands:
     init_us_2    :      3.10s CPU      3.16s WALL (    1404 calls)
     cegterg      :    530.68s CPU    571.13s WALL (     648 calls)

     Called by sum_band:
     sum_band:bec :      0.96s CPU      0.98s WALL (     648 calls)
     addusdens    :      4.26s CPU      4.26s WALL (      18 calls)

     Called by *egterg:
     h_psi        :    251.84s CPU    263.55s WALL (    2008 calls)
     s_psi        :     26.81s CPU     26.47s WALL (    2008 calls)
     g_psi        :      0.26s CPU      0.30s WALL (    1324 calls)
     cdiaghg      :     89.19s CPU     97.91s WALL (    1972 calls)
     cegterg:over :     83.38s CPU     91.95s WALL (    1324 calls)
     cegterg:upda :     10.08s CPU     12.68s WALL (    1324 calls)
     cegterg:last :      5.88s CPU      6.32s WALL (     648 calls)

     Called by h_psi:
     h_psi:vloc   :    152.88s CPU    154.84s WALL (    2008 calls)
     h_psi:vnl    :     98.63s CPU    108.32s WALL (    2008 calls)
     add_vuspsi   :     27.43s CPU     29.24s WALL (    2008 calls)

     General routines
     calbec       :    100.66s CPU    110.84s WALL (    2728 calls)
     fft          :      1.86s CPU      1.86s WALL (     325 calls)
     ffts         :      0.59s CPU      0.62s WALL (     454 calls)
     fftw         :    172.97s CPU    175.16s WALL (  247300 calls)
     interpolate  :      0.14s CPU      0.15s WALL (      37 calls)

     Parallel routines
     fft_scatter  :    108.75s CPU    109.88s WALL (  248079 calls)

     PWSCF        : 10m54.02s CPU    11m39.72s WALL


   This run was terminated on:  10:12: 5  15Nov2017            

=------------------------------------------------------------------------------=
   JOB DONE.
=------------------------------------------------------------------------------=
