
     Program PWSCF v.5.1 starts on 16Nov2017 at  5:16: 3 

     This program is part of the open-source Quantum ESPRESSO suite
     for quantum simulation of materials; please cite
         "P. Giannozzi et al., J. Phys.:Condens. Matter 21 395502 (2009);
          URL http://www.quantum-espresso.org", 
     in publications or presentations arising from this work. More details at
     http://www.quantum-espresso.org/quote

     Parallel version (MPI), running on    16 processors
     R & G space division:  proc/nbgrp/npool/nimage =      16
     Waiting for input...
     Reading input from standard input
Warning: card &IONS ignored
Warning: card   ION_DYNAMICS='BFGS', ignored
Warning: card / ignored
Warning: card &CELL ignored
Warning: card  CELL_DYNAMICS = 'BFGS' ignored
Warning: card / ignored

     Current dimensions of program PWSCF are:
     Max number of different atomic species (ntypx) = 10
     Max number of k-points (npk) =  40000
     Max angular momentum in pseudopotentials (lmaxx) =  3
 kfg - two_fermi_energies  F

     Subspace diagonalization in iterative solution of the eigenvalue problem:
     a serial algorithm will be used


     Parallelization info
     --------------------
     sticks:   dense  smooth     PW     G-vecs:    dense   smooth      PW
     Min         126     100     29                 3854     2744     428
     Max         127     101     30                 3856     2767     430
     Sum        2023    1613    469                61679    44133    6861



     bravais-lattice index     =            0
     lattice parameter (alat)  =    12.294531861  a.u.
     unit-cell volume          =    1291.4536 (a.u.)^3
     number of atoms/cell      =           16
     number of atomic types    =            3
     number of electrons       =       128.00
     number of Kohn-Sham states=           64
     kinetic-energy cutoff     =      40.0000  Ry
     charge density cutoff     =     200.0000  Ry
     convergence threshold     =      1.0E-10
     mixing beta               =       0.3000
     number of iterations used =            8  local-TF  mixing
     Exchange-correlation      = SLA  PW   PSX  PSC ( 1  4 10  8 0)
     A smooth kinetic-energy cutoff is imposed at      39.5000 Ry
     height of the smooth step-function =             800.0000 Ry
     width of the smooth step-function  =               1.0000 Ry


     celldm(1)=  12.294532  celldm(2)=   0.000000  celldm(3)=   0.000000
     celldm(4)=   0.000000  celldm(5)=   0.000000  celldm(6)=   0.000000

     crystal axes: (cart. coord. in units of alat)
               a(1) = (  -0.008806536837   0.714294546243   0.699789787090 )  
               a(2) = (   0.692668828702   0.017958464942   0.673024785311 )  
               a(3) = (   0.721695578428   0.716556294190  -0.011068284784 )  

     reciprocal axes: (cart. coord. in units 2 pi/alat)
               b(1) = ( -0.694253  0.709976  0.695572 )  
               b(2) = (  0.732941 -0.726599  0.750883 )  
               b(3) = (  0.673692  0.706039 -0.712195 )  


     PseudoPot. # 1 for Ca read from file:
     /users/kfg/psuedo/gbrv_1.5/ca.pbesol.UPF
     MD5 check sum: 0533207b58cddeaa036efa5b63902087
     Pseudo is Ultrasoft + core correction, Zval = 10.0
     Generated by new atomic code, or converted to UPF format
     Using radial grid of  845 points,  6 beta functions with: 
                l(1) =   0
                l(2) =   0
                l(3) =   1
                l(4) =   1
                l(5) =   2
                l(6) =   2
     Q(r) pseudized with  8 coefficients,  rinner =    1.500   1.500   1.500
                                                       1.500   1.500

     PseudoPot. # 2 for Mg read from file:
     /users/kfg/psuedo/gbrv_1.5/mg.pbesol.UPF
     MD5 check sum: 4059f37963cf5867752dbf5ab2400678
     Pseudo is Ultrasoft, Zval = 10.0
     Generated by new atomic code, or converted to UPF format
     Using radial grid of  821 points,  7 beta functions with: 
                l(1) =   0
                l(2) =   0
                l(3) =   0
                l(4) =   1
                l(5) =   1
                l(6) =   2
                l(7) =   2
     Q(r) pseudized with  8 coefficients,  rinner =    1.200   1.200   1.200
                                                       1.200   1.200

     PseudoPot. # 3 for O  read from file:
     /users/kfg/psuedo/gbrv_1.5/o.pbesol.UPF
     MD5 check sum: 501638753501ef6325af9037351f7734
     Pseudo is Ultrasoft + core correction, Zval =  6.0
     Generated by new atomic code, or converted to UPF format
     Using radial grid of  737 points,  5 beta functions with: 
                l(1) =   0
                l(2) =   0
                l(3) =   1
                l(4) =   1
                l(5) =   2
     Q(r) pseudized with  8 coefficients,  rinner =    0.900   0.900   0.900
                                                       0.900   0.900

     atomic species   valence    mass     pseudopotential
        Ca            10.00    40.07800     Ca( 1.00)
        Mg            10.00    40.07800     Mg( 1.00)
        O              6.00    15.99940     O ( 1.00)

     No symmetry found


                                    s                        frac. trans.

      isym =  1     identity                                     

 cryst.   s( 1) = (     1          0          0      )
                  (     0          1          0      )
                  (     0          0          1      )

 cart.    s( 1) = (  1.0000000  0.0000000  0.0000000 )
                  (  0.0000000  1.0000000 -0.0000000 )
                  ( -0.0000000  0.0000000  1.0000000 )


     point group C_1 (1)    
     there are  1 classes
     the character table:

       E    
A      1.00

     the symmetry operations in each class:
     E        1

   Cartesian axes

     site n.     atom                  positions (alat units)
         1           Mg  tau(   1) = (    0.00565121787   -0.02713578521    0.01455317556  )
         2           O   tau(   2) = (    0.34471561316    0.36140399706    0.37657769110  )
         3           Ca  tau(   3) = (    0.37054169919    0.33215775671   -0.01632243445  )
         4           O   tau(   4) = (    0.70643019962    0.67753440989    0.30898215983  )
         5           Ca  tau(   5) = (    0.34268711738    0.02171840605    0.33543159006  )
         6           O   tau(   6) = (    0.68484732320    0.42382519935    0.68148349176  )
         7           Mg  tau(   7) = (    0.71269907211    0.39169451809    0.34416227245  )
         8           O   tau(   8) = (    1.09019225016    0.73837715043    0.69303306570  )
         9           Ca  tau(   9) = (    0.00768184915    0.34990064953    0.32216399562  )
        10           O   tau(  10) = (    0.33191628039    0.73872900038    0.69231653690  )
        11           Ca  tau(  11) = (    0.39086642160    0.69955796064    0.34321728453  )
        12           O   tau(  12) = (    0.70324949406    1.08230582240    0.66448944300  )
        13           Mg  tau(  13) = (    0.37159241877    0.31297370758    0.68260568650  )
        14           O   tau(  14) = (    0.66228128779    0.73931840772    1.00507452153  )
        15           Mg  tau(  15) = (    0.68875219802    0.76476306990    0.70518994926  )
        16           O   tau(  16) = (    1.01924277928    1.08573156173    1.01751929634  )

   Crystallographic axes

     site n.     atom                  positions (cryst. coord.)
         1           Mg  tau(   1) = (   -0.01306635197    0.03478659164   -0.02571643735  )
         2           O   tau(   2) = (    0.27920528827    0.27282629354    0.21920069952  )
         3           Ca  tau(   3) = (   -0.03277890491    0.01798337170    0.49577206823  )
         4           O   tau(   4) = (    0.20551148016    0.25748524718    0.73422652889  )
         5           Ca  tau(   5) = (    0.01082487764    0.48725891478    0.00730693860  )
         6           O   tau(   6) = (    0.29946939698    0.70571631031    0.27526415203  )
         7           Mg  tau(   7) = (    0.02269011641    0.49618719589    0.51158064522  )
         8           O   tau(   8) = (    0.24941554336    0.78292939301    0.76220219184  )
         9           Ca  tau(   9) = (    0.46717611699   -0.00669960317    0.02277505864  )
        10           O   tau(  10) = (    0.77560200009    0.22636413615    0.25211636646  )
        11           Ca  tau(  11) = (    0.46404162722    0.03589989859    0.51280109182  )
        12           O   tau(  12) = (    0.74237853069    0.22799189743    0.76467753702  )
        13           Mg  tau(  13) = (    0.43902608599    0.55750619205   -0.01483789452  )
        14           O   tau(  14) = (    0.76420933154    0.70291875084    0.25235213163  )
        15           Mg  tau(  15) = (    0.55530569135    0.47865391835    0.50172660037  )
        16           O   tau(  16) = (    0.77098917018    0.72219149172    0.72855232158  )

     number of k points=    36
                       cart. coord. in units 2pi/alat
        k(    1) = (   0.0000000   0.0000000   0.0000000), wk =   0.0312500
        k(    2) = (   0.1684230   0.1765097  -0.1780488), wk =   0.0625000
        k(    3) = (  -0.3368461  -0.3530194   0.3560975), wk =   0.0312500
        k(    4) = (   0.1832353  -0.1816498   0.1877209), wk =   0.0625000
        k(    5) = (   0.3516583  -0.0051401   0.0096721), wk =   0.0625000
        k(    6) = (  -0.1536108  -0.5346693   0.5438184), wk =   0.0625000
        k(    7) = (   0.0148122  -0.3581595   0.3657696), wk =   0.0625000
        k(    8) = (  -0.3664705   0.3632997  -0.3754417), wk =   0.0312500
        k(    9) = (  -0.1980475   0.5398094  -0.5534905), wk =   0.0625000
        k(   10) = (  -0.7033166   0.0102802  -0.0193442), wk =   0.0312500
        k(   11) = (  -0.1735631   0.1774940   0.1738929), wk =   0.0625000
        k(   12) = (  -0.0051401   0.3540037  -0.0041558), wk =   0.0625000
        k(   13) = (  -0.5104092  -0.1755254   0.5299905), wk =   0.0625000
        k(   14) = (  -0.3419862   0.0009843   0.3519417), wk =   0.0625000
        k(   15) = (   0.0096721  -0.0041558   0.3616138), wk =   0.0625000
        k(   16) = (   0.1780951   0.1723539   0.1835651), wk =   0.0625000
        k(   17) = (  -0.3271740  -0.3571752   0.7177113), wk =   0.0625000
        k(   18) = (  -0.1587509  -0.1806655   0.5396626), wk =   0.0625000
        k(   19) = (  -0.5400337   0.5407937  -0.2015488), wk =   0.0625000
        k(   20) = (  -0.3716106   0.7173034  -0.3795976), wk =   0.0625000
        k(   21) = (  -0.8768797   0.1877742   0.1545487), wk =   0.0625000
        k(   22) = (  -0.7084567   0.3642840  -0.0235000), wk =   0.0625000
        k(   23) = (  -0.3567984   0.3591438  -0.0138279), wk =   0.0625000
        k(   24) = (  -0.1883754   0.5356536  -0.1918767), wk =   0.0625000
        k(   25) = (  -0.6936445   0.0061244   0.3422696), wk =   0.0625000
        k(   26) = (  -0.5252214   0.1826341   0.1642208), wk =   0.0625000
        k(   27) = (   0.3471263  -0.3549880  -0.3477859), wk =   0.0312500
        k(   28) = (   0.5155493  -0.1784783  -0.5258346), wk =   0.0625000
        k(   29) = (   0.0102802  -0.7080075   0.0083116), wk =   0.0312500
        k(   30) = (   0.5303615  -0.5366379  -0.1600650), wk =   0.0625000
        k(   31) = (   0.6987846  -0.3601281  -0.3381138), wk =   0.0625000
        k(   32) = (   0.1935155  -0.8896573   0.1960325), wk =   0.0625000
        k(   33) = (   0.3619385  -0.7131476   0.0179837), wk =   0.0625000
        k(   34) = (  -0.0193442   0.0083116  -0.7232276), wk =   0.0312500
        k(   35) = (   0.1490788   0.1848213  -0.9012764), wk =   0.0625000
        k(   36) = (  -0.3561903  -0.3447078  -0.3671301), wk =   0.0312500

                       cryst. coord.
        k(    1) = (   0.0000000   0.0000000   0.0000000), wk =   0.0312500
        k(    2) = (   0.0000000   0.0000000   0.2500000), wk =   0.0625000
        k(    3) = (  -0.0000000   0.0000000  -0.5000000), wk =   0.0312500
        k(    4) = (   0.0000000   0.2500000   0.0000000), wk =   0.0625000
        k(    5) = (   0.0000000   0.2500000   0.2500000), wk =   0.0625000
        k(    6) = (   0.0000000   0.2500000  -0.5000000), wk =   0.0625000
        k(    7) = (   0.0000000   0.2500000  -0.2500000), wk =   0.0625000
        k(    8) = (  -0.0000000  -0.5000000  -0.0000000), wk =   0.0312500
        k(    9) = (  -0.0000000  -0.5000000   0.2500000), wk =   0.0625000
        k(   10) = (  -0.0000000  -0.5000000  -0.5000000), wk =   0.0312500
        k(   11) = (   0.2500000   0.0000000   0.0000000), wk =   0.0625000
        k(   12) = (   0.2500000  -0.0000000   0.2500000), wk =   0.0625000
        k(   13) = (   0.2500000   0.0000000  -0.5000000), wk =   0.0625000
        k(   14) = (   0.2500000  -0.0000000  -0.2500000), wk =   0.0625000
        k(   15) = (   0.2500000   0.2500000   0.0000000), wk =   0.0625000
        k(   16) = (   0.2500000   0.2500000   0.2500000), wk =   0.0625000
        k(   17) = (   0.2500000   0.2500000  -0.5000000), wk =   0.0625000
        k(   18) = (   0.2500000   0.2500000  -0.2500000), wk =   0.0625000
        k(   19) = (   0.2500000  -0.5000000  -0.0000000), wk =   0.0625000
        k(   20) = (   0.2500000  -0.5000000   0.2500000), wk =   0.0625000
        k(   21) = (   0.2500000  -0.5000000  -0.5000000), wk =   0.0625000
        k(   22) = (   0.2500000  -0.5000000  -0.2500000), wk =   0.0625000
        k(   23) = (   0.2500000  -0.2500000  -0.0000000), wk =   0.0625000
        k(   24) = (   0.2500000  -0.2500000   0.2500000), wk =   0.0625000
        k(   25) = (   0.2500000  -0.2500000  -0.5000000), wk =   0.0625000
        k(   26) = (   0.2500000  -0.2500000  -0.2500000), wk =   0.0625000
        k(   27) = (  -0.5000000   0.0000000  -0.0000000), wk =   0.0312500
        k(   28) = (  -0.5000000   0.0000000   0.2500000), wk =   0.0625000
        k(   29) = (  -0.5000000   0.0000000  -0.5000000), wk =   0.0312500
        k(   30) = (  -0.5000000   0.2500000   0.0000000), wk =   0.0625000
        k(   31) = (  -0.5000000   0.2500000   0.2500000), wk =   0.0625000
        k(   32) = (  -0.5000000   0.2500000  -0.5000000), wk =   0.0625000
        k(   33) = (  -0.5000000   0.2500000  -0.2500000), wk =   0.0625000
        k(   34) = (  -0.5000000  -0.5000000  -0.0000000), wk =   0.0312500
        k(   35) = (  -0.5000000  -0.5000000   0.2500000), wk =   0.0625000
        k(   36) = (  -0.5000000  -0.5000000  -0.5000000), wk =   0.0312500

     Dense  grid:    61679 G-vectors     FFT dimensions: (  60,  54,  60)

     Smooth grid:    44133 G-vectors     FFT dimensions: (  50,  48,  54)

     Largest allocated arrays     est. size (Mb)     dimensions
        Kohn-Sham Wavefunctions         0.34 Mb     (     352,   64)
        NL pseudopotentials             1.35 Mb     (     352,  252)
        Each V/rho on FFT grid          0.20 Mb     (   12960)
        Each G-vector array             0.03 Mb     (    3856)
        G-vector shells                 0.03 Mb     (    3809)
     Largest temporary arrays     est. size (Mb)     dimensions
        Auxiliary wavefunctions         1.38 Mb     (     352,  256)
        Each subspace H/S matrix        1.00 Mb     (     256,  256)
        Each <psi_i|beta_j> matrix      0.25 Mb     (     252,   64)
        Arrays for rho mixing           1.58 Mb     (   12960,    8)

     Check: negative/imaginary core charge=   -0.000003    0.000000

     Initial potential from superposition of free atoms

     starting charge  126.77837, renormalised to  128.00000
     Starting wfc are   92 randomized atomic wfcs

     total cpu time spent up to now is       17.3 secs

     per-process dynamical memory:    31.9 Mb

     Self-consistent Calculation

     iteration #  1     ecut=    40.00 Ry     beta=0.30
     Davidson diagonalization with overlap
     ethr =  1.00E-02,  avg # of iterations =  2.0

     total cpu time spent up to now is       53.2 secs

     total energy              =   -1059.83420318 Ry
     Harris-Foulkes estimate   =   -1060.49636870 Ry
     estimated scf accuracy    <       3.39584301 Ry

     iteration #  2     ecut=    40.00 Ry     beta=0.30
     Davidson diagonalization with overlap
     ethr =  2.65E-03,  avg # of iterations =  1.4

     total cpu time spent up to now is       87.1 secs

     total energy              =   -1059.34860347 Ry
     Harris-Foulkes estimate   =   -1059.94199154 Ry
     estimated scf accuracy    <       1.45118354 Ry

     iteration #  3     ecut=    40.00 Ry     beta=0.30
     Davidson diagonalization with overlap
     ethr =  1.13E-03,  avg # of iterations =  2.0

     total cpu time spent up to now is      128.4 secs

     total energy              =   -1059.57938610 Ry
     Harris-Foulkes estimate   =   -1059.62382359 Ry
     estimated scf accuracy    <       0.17391339 Ry

     iteration #  4     ecut=    40.00 Ry     beta=0.30
     Davidson diagonalization with overlap
     ethr =  1.36E-04,  avg # of iterations =  2.0

     total cpu time spent up to now is      168.7 secs

     total energy              =   -1059.53554303 Ry
     Harris-Foulkes estimate   =   -1059.59829295 Ry
     estimated scf accuracy    <       0.11023382 Ry

     iteration #  5     ecut=    40.00 Ry     beta=0.30
     Davidson diagonalization with overlap
     ethr =  8.61E-05,  avg # of iterations =  2.0

     total cpu time spent up to now is      210.4 secs

     total energy              =   -1059.55202756 Ry
     Harris-Foulkes estimate   =   -1059.55357317 Ry
     estimated scf accuracy    <       0.01621254 Ry

     iteration #  6     ecut=    40.00 Ry     beta=0.30
     Davidson diagonalization with overlap
     ethr =  1.27E-05,  avg # of iterations =  1.0

     total cpu time spent up to now is      242.9 secs

     total energy              =   -1059.54870379 Ry
     Harris-Foulkes estimate   =   -1059.55237846 Ry
     estimated scf accuracy    <       0.00936485 Ry

     iteration #  7     ecut=    40.00 Ry     beta=0.30
     Davidson diagonalization with overlap
     ethr =  7.32E-06,  avg # of iterations =  2.0

     total cpu time spent up to now is      282.8 secs

     total energy              =   -1059.54926804 Ry
     Harris-Foulkes estimate   =   -1059.54960457 Ry
     estimated scf accuracy    <       0.00150399 Ry

     iteration #  8     ecut=    40.00 Ry     beta=0.30
     Davidson diagonalization with overlap
     ethr =  1.17E-06,  avg # of iterations =  2.0

     total cpu time spent up to now is      321.6 secs

     total energy              =   -1059.54918984 Ry
     Harris-Foulkes estimate   =   -1059.54937533 Ry
     estimated scf accuracy    <       0.00043983 Ry

     iteration #  9     ecut=    40.00 Ry     beta=0.30
     Davidson diagonalization with overlap
     ethr =  3.44E-07,  avg # of iterations =  2.4

     total cpu time spent up to now is      366.8 secs

     total energy              =   -1059.54924801 Ry
     Harris-Foulkes estimate   =   -1059.54926689 Ry
     estimated scf accuracy    <       0.00009837 Ry

     iteration # 10     ecut=    40.00 Ry     beta=0.30
     Davidson diagonalization with overlap
     ethr =  7.68E-08,  avg # of iterations =  2.0

     total cpu time spent up to now is      404.1 secs

     total energy              =   -1059.54923612 Ry
     Harris-Foulkes estimate   =   -1059.54925272 Ry
     estimated scf accuracy    <       0.00005048 Ry

     iteration # 11     ecut=    40.00 Ry     beta=0.30
     Davidson diagonalization with overlap
     ethr =  3.94E-08,  avg # of iterations =  2.0

     total cpu time spent up to now is      445.5 secs

     total energy              =   -1059.54923896 Ry
     Harris-Foulkes estimate   =   -1059.54924123 Ry
     estimated scf accuracy    <       0.00000856 Ry

     iteration # 12     ecut=    40.00 Ry     beta=0.30
     Davidson diagonalization with overlap
     ethr =  6.69E-09,  avg # of iterations =  2.0

     total cpu time spent up to now is      489.5 secs

     total energy              =   -1059.54923841 Ry
     Harris-Foulkes estimate   =   -1059.54923949 Ry
     estimated scf accuracy    <       0.00000242 Ry

     iteration # 13     ecut=    40.00 Ry     beta=0.30
     Davidson diagonalization with overlap
     ethr =  1.89E-09,  avg # of iterations =  2.0

     total cpu time spent up to now is      535.0 secs

     total energy              =   -1059.54923867 Ry
     Harris-Foulkes estimate   =   -1059.54923875 Ry
     estimated scf accuracy    <       0.00000026 Ry

     iteration # 14     ecut=    40.00 Ry     beta=0.30
     Davidson diagonalization with overlap
     ethr =  2.02E-10,  avg # of iterations =  2.0

     total cpu time spent up to now is      576.1 secs

     total energy              =   -1059.54923869 Ry
     Harris-Foulkes estimate   =   -1059.54923872 Ry
     estimated scf accuracy    <       0.00000011 Ry

     iteration # 15     ecut=    40.00 Ry     beta=0.30
     Davidson diagonalization with overlap
     ethr =  8.40E-11,  avg # of iterations =  2.0

     total cpu time spent up to now is      615.6 secs

     total energy              =   -1059.54923869 Ry
     Harris-Foulkes estimate   =   -1059.54923870 Ry
     estimated scf accuracy    <       0.00000003 Ry

     iteration # 16     ecut=    40.00 Ry     beta=0.30
     Davidson diagonalization with overlap
     ethr =  2.54E-11,  avg # of iterations =  2.0

     total cpu time spent up to now is      652.4 secs

     total energy              =   -1059.54923869 Ry
     Harris-Foulkes estimate   =   -1059.54923869 Ry
     estimated scf accuracy    <       0.00000001 Ry

     iteration # 17     ecut=    40.00 Ry     beta=0.30
     Davidson diagonalization with overlap
     ethr =  9.40E-12,  avg # of iterations =  2.0

     total cpu time spent up to now is      693.5 secs

     total energy              =   -1059.54923869 Ry
     Harris-Foulkes estimate   =   -1059.54923869 Ry
     estimated scf accuracy    <          1.9E-09 Ry

     iteration # 18     ecut=    40.00 Ry     beta=0.30
     Davidson diagonalization with overlap
     ethr =  1.48E-12,  avg # of iterations =  2.0

     total cpu time spent up to now is      732.6 secs

     total energy              =   -1059.54923869 Ry
     Harris-Foulkes estimate   =   -1059.54923869 Ry
     estimated scf accuracy    <          8.4E-10 Ry

     iteration # 19     ecut=    40.00 Ry     beta=0.30
     Davidson diagonalization with overlap
     ethr =  6.57E-13,  avg # of iterations =  2.0

     total cpu time spent up to now is      772.6 secs

     total energy              =   -1059.54923869 Ry
     Harris-Foulkes estimate   =   -1059.54923869 Ry
     estimated scf accuracy    <          3.3E-10 Ry

     iteration # 20     ecut=    40.00 Ry     beta=0.30
     Davidson diagonalization with overlap
     ethr =  2.60E-13,  avg # of iterations =  2.0

     total cpu time spent up to now is      812.2 secs

     End of self-consistent calculation

          k = 0.0000 0.0000 0.0000 (  5535 PWs)   bands (ev):

   -65.7700 -65.6605 -65.1880 -65.1049 -32.7876 -32.7332 -32.6898 -32.6575
   -32.6299 -32.5981 -32.1928 -32.1660 -32.1337 -32.1117 -32.0722 -32.0530
   -29.7821 -29.4458 -29.2189 -29.1406 -11.7958 -11.7371 -11.6326 -11.5590
   -11.0342 -10.8626 -10.7376 -10.6771 -10.6379 -10.5195 -10.3824 -10.3519
    -8.6622  -8.0597  -7.9681  -7.8214  -7.3839  -7.1540  -6.9264  -6.8658
     3.0380   3.6929   3.9421   4.5519   4.7126   4.8172   4.8855   5.6590
     5.8193   5.9133   6.0405   6.1402   6.2151   6.3082   6.3436   6.5640
     6.5946   6.6620   6.7697   6.8098   7.0248   7.1534   7.2866   7.4626

     occupation numbers 
     1.0000   1.0000   1.0000   1.0000   1.0000   1.0000   1.0000   1.0000
     1.0000   1.0000   1.0000   1.0000   1.0000   1.0000   1.0000   1.0000
     1.0000   1.0000   1.0000   1.0000   1.0000   1.0000   1.0000   1.0000
     1.0000   1.0000   1.0000   1.0000   1.0000   1.0000   1.0000   1.0000
     1.0000   1.0000   1.0000   1.0000   1.0000   1.0000   1.0000   1.0000
     1.0000   1.0000   1.0000   1.0000   1.0000   1.0000   1.0000   1.0000
     1.0000   1.0000   1.0000   1.0000   1.0000   1.0000   1.0000   1.0000
     1.0000   1.0000   1.0000   1.0000   1.0000   1.0000   1.0000   1.0000

          k = 0.1684 0.1765-0.1780 (  5508 PWs)   bands (ev):

   -65.7700 -65.6605 -65.1880 -65.1049 -32.7876 -32.7333 -32.6898 -32.6575
   -32.6298 -32.5982 -32.1928 -32.1660 -32.1336 -32.1117 -32.0722 -32.0532
   -29.7804 -29.4445 -29.2218 -29.1408 -11.7217 -11.6656 -11.5892 -11.4962
   -11.0619 -10.9154 -10.8442 -10.7922 -10.6780 -10.5228 -10.4724 -10.3611
    -8.4355  -7.9856  -7.9045  -7.6978  -7.4620  -7.2105  -7.0299  -6.9527
     3.2515   3.9357   4.1454   4.5273   4.7363   4.8838   4.9807   5.4524
     5.7682   5.8567   5.9503   6.0143   6.1114   6.2101   6.2965   6.3818
     6.5164   6.6229   6.7276   6.8462   6.9079   7.0466   7.2149   7.3398

     occupation numbers 
     1.0000   1.0000   1.0000   1.0000   1.0000   1.0000   1.0000   1.0000
     1.0000   1.0000   1.0000   1.0000   1.0000   1.0000   1.0000   1.0000
     1.0000   1.0000   1.0000   1.0000   1.0000   1.0000   1.0000   1.0000
     1.0000   1.0000   1.0000   1.0000   1.0000   1.0000   1.0000   1.0000
     1.0000   1.0000   1.0000   1.0000   1.0000   1.0000   1.0000   1.0000
     1.0000   1.0000   1.0000   1.0000   1.0000   1.0000   1.0000   1.0000
     1.0000   1.0000   1.0000   1.0000   1.0000   1.0000   1.0000   1.0000
     1.0000   1.0000   1.0000   1.0000   1.0000   1.0000   1.0000   1.0000

          k =-0.3368-0.3530 0.3561 (  5500 PWs)   bands (ev):

   -65.7700 -65.6605 -65.1880 -65.1049 -32.7876 -32.7333 -32.6899 -32.6574
   -32.6298 -32.5982 -32.1928 -32.1660 -32.1335 -32.1118 -32.0723 -32.0534
   -29.7787 -29.4431 -29.2247 -29.1411 -11.6484 -11.6031 -11.4670 -11.3945
   -11.1196 -11.0366 -10.9490 -10.9457 -10.7193 -10.5408 -10.4977 -10.3736
    -8.1311  -7.9068  -7.8583  -7.6756  -7.4307  -7.2690  -7.2084  -7.0540
     3.6416   4.0078   4.3944   4.5781   4.7983   5.0328   5.1229   5.2788
     5.5368   5.5862   5.7529   5.8660   5.9278   6.0869   6.2975   6.3864
     6.4047   6.5285   6.8137   6.8217   6.9611   7.0293   7.0894   7.1768

     occupation numbers 
     1.0000   1.0000   1.0000   1.0000   1.0000   1.0000   1.0000   1.0000
     1.0000   1.0000   1.0000   1.0000   1.0000   1.0000   1.0000   1.0000
     1.0000   1.0000   1.0000   1.0000   1.0000   1.0000   1.0000   1.0000
     1.0000   1.0000   1.0000   1.0000   1.0000   1.0000   1.0000   1.0000
     1.0000   1.0000   1.0000   1.0000   1.0000   1.0000   1.0000   1.0000
     1.0000   1.0000   1.0000   1.0000   1.0000   1.0000   1.0000   1.0000
     1.0000   1.0000   1.0000   1.0000   1.0000   1.0000   1.0000   1.0000
     1.0000   1.0000   1.0000   1.0000   1.0000   1.0000   1.0000   1.0000

          k = 0.1832-0.1816 0.1877 (  5521 PWs)   bands (ev):

   -65.7700 -65.6605 -65.1880 -65.1049 -32.7876 -32.7333 -32.6899 -32.6574
   -32.6299 -32.5981 -32.1929 -32.1660 -32.1337 -32.1118 -32.0722 -32.0530
   -29.7808 -29.4432 -29.2228 -29.1404 -11.7188 -11.6998 -11.6352 -11.5000
   -11.0558 -10.8697 -10.8193 -10.7172 -10.6575 -10.5811 -10.4784 -10.3561
    -8.4519  -8.0115  -7.9548  -7.7205  -7.3797  -7.2149  -7.0301  -6.9478
     3.2962   3.9072   4.2141   4.6134   4.7793   4.8382   5.0304   5.4557
     5.6410   5.8745   5.9708   6.0351   6.1463   6.2045   6.2801   6.4180
     6.5222   6.6732   6.7100   6.7490   6.8458   6.9325   7.1299   7.2563

     occupation numbers 
     1.0000   1.0000   1.0000   1.0000   1.0000   1.0000   1.0000   1.0000
     1.0000   1.0000   1.0000   1.0000   1.0000   1.0000   1.0000   1.0000
     1.0000   1.0000   1.0000   1.0000   1.0000   1.0000   1.0000   1.0000
     1.0000   1.0000   1.0000   1.0000   1.0000   1.0000   1.0000   1.0000
     1.0000   1.0000   1.0000   1.0000   1.0000   1.0000   1.0000   1.0000
     1.0000   1.0000   1.0000   1.0000   1.0000   1.0000   1.0000   1.0000
     1.0000   1.0000   1.0000   1.0000   1.0000   1.0000   1.0000   1.0000
     1.0000   1.0000   1.0000   1.0000   1.0000   1.0000   1.0000   1.0000

          k = 0.3517-0.0051 0.0097 (  5520 PWs)   bands (ev):

   -65.7700 -65.6605 -65.1880 -65.1049 -32.7876 -32.7333 -32.6898 -32.6575
   -32.6299 -32.5981 -32.1929 -32.1660 -32.1335 -32.1117 -32.0722 -32.0532
   -29.7795 -29.4472 -29.2196 -29.1408 -11.7900 -11.6594 -11.5715 -11.4411
   -11.1325 -10.9125 -10.8436 -10.7373 -10.6858 -10.5772 -10.3951 -10.3485
    -8.4220  -8.0297  -7.9021  -7.7630  -7.4462  -7.2733  -6.9865  -6.8774
     3.3634   3.9060   4.1772   4.5765   4.8135   4.8781   4.9936   5.5562
     5.6257   5.8121   5.9274   5.9618   6.0396   6.1346   6.2732   6.4777
     6.5132   6.6668   6.6918   6.7928   6.8389   6.9545   7.1850   7.2758

     occupation numbers 
     1.0000   1.0000   1.0000   1.0000   1.0000   1.0000   1.0000   1.0000
     1.0000   1.0000   1.0000   1.0000   1.0000   1.0000   1.0000   1.0000
     1.0000   1.0000   1.0000   1.0000   1.0000   1.0000   1.0000   1.0000
     1.0000   1.0000   1.0000   1.0000   1.0000   1.0000   1.0000   1.0000
     1.0000   1.0000   1.0000   1.0000   1.0000   1.0000   1.0000   1.0000
     1.0000   1.0000   1.0000   1.0000   1.0000   1.0000   1.0000   1.0000
     1.0000   1.0000   1.0000   1.0000   1.0000   1.0000   1.0000   1.0000
     1.0000   1.0000   1.0000   1.0000   1.0000   1.0000   1.0000   1.0000

          k =-0.1536-0.5347 0.5438 (  5520 PWs)   bands (ev):

   -65.7700 -65.6605 -65.1880 -65.1049 -32.7876 -32.7333 -32.6898 -32.6574
   -32.6299 -32.5982 -32.1929 -32.1660 -32.1335 -32.1118 -32.0722 -32.0534
   -29.7778 -29.4459 -29.2225 -29.1411 -11.7292 -11.5707 -11.4599 -11.3977
   -11.1467 -11.0715 -10.9490 -10.8450 -10.6769 -10.5599 -10.4773 -10.3660
    -8.1691  -8.0057  -7.8846  -7.6569  -7.5444  -7.2317  -7.1112  -6.9641
     3.7259   4.1465   4.3477   4.5326   4.7977   5.0153   5.1758   5.2238
     5.4169   5.5019   5.7751   5.8982   6.0285   6.1814   6.2090   6.4008
     6.4512   6.5221   6.6765   6.7451   6.9270   6.9724   7.0391   7.1742

     occupation numbers 
     1.0000   1.0000   1.0000   1.0000   1.0000   1.0000   1.0000   1.0000
     1.0000   1.0000   1.0000   1.0000   1.0000   1.0000   1.0000   1.0000
     1.0000   1.0000   1.0000   1.0000   1.0000   1.0000   1.0000   1.0000
     1.0000   1.0000   1.0000   1.0000   1.0000   1.0000   1.0000   1.0000
     1.0000   1.0000   1.0000   1.0000   1.0000   1.0000   1.0000   1.0000
     1.0000   1.0000   1.0000   1.0000   1.0000   1.0000   1.0000   1.0000
     1.0000   1.0000   1.0000   1.0000   1.0000   1.0000   1.0000   1.0000
     1.0000   1.0000   1.0000   1.0000   1.0000   1.0000   1.0000   1.0000

          k = 0.0148-0.3582 0.3658 (  5531 PWs)   bands (ev):

   -65.7700 -65.6605 -65.1880 -65.1049 -32.7876 -32.7333 -32.6899 -32.6574
   -32.6298 -32.5981 -32.1929 -32.1660 -32.1336 -32.1118 -32.0722 -32.0532
   -29.7791 -29.4417 -29.2257 -29.1407 -11.6471 -11.6140 -11.5648 -11.4628
   -11.0842 -10.9604 -10.8905 -10.8503 -10.6927 -10.5871 -10.5214 -10.3664
    -8.2477  -8.0265  -7.8550  -7.5907  -7.4409  -7.2030  -7.1666  -7.0503
     3.6035   4.1149   4.4592   4.5966   4.8444   4.9648   5.0695   5.1835
     5.5126   5.6288   5.7454   5.9688   6.0864   6.1375   6.2913   6.3722
     6.4651   6.4976   6.6278   6.7110   6.8259   6.9788   7.0819   7.2030

     occupation numbers 
     1.0000   1.0000   1.0000   1.0000   1.0000   1.0000   1.0000   1.0000
     1.0000   1.0000   1.0000   1.0000   1.0000   1.0000   1.0000   1.0000
     1.0000   1.0000   1.0000   1.0000   1.0000   1.0000   1.0000   1.0000
     1.0000   1.0000   1.0000   1.0000   1.0000   1.0000   1.0000   1.0000
     1.0000   1.0000   1.0000   1.0000   1.0000   1.0000   1.0000   1.0000
     1.0000   1.0000   1.0000   1.0000   1.0000   1.0000   1.0000   1.0000
     1.0000   1.0000   1.0000   1.0000   1.0000   1.0000   1.0000   1.0000
     1.0000   1.0000   1.0000   1.0000   1.0000   1.0000   1.0000   1.0000

          k =-0.3665 0.3633-0.3754 (  5534 PWs)   bands (ev):

   -65.7700 -65.6605 -65.1880 -65.1049 -32.7877 -32.7333 -32.6899 -32.6573
   -32.6299 -32.5980 -32.1930 -32.1661 -32.1338 -32.1119 -32.0722 -32.0530
   -29.7794 -29.4404 -29.2268 -29.1402 -11.6852 -11.6255 -11.6074 -11.4201
   -11.0391 -10.9729 -10.9136 -10.7497 -10.6996 -10.6493 -10.5130 -10.3591
    -8.2058  -8.0287  -7.8758  -7.5572  -7.4632  -7.2638  -7.1604  -7.0406
     3.7869   4.0495   4.4648   4.6365   4.7793   4.9918   5.3031   5.3297
     5.4911   5.6725   5.7060   5.8169   6.0025   6.1182   6.2236   6.3244
     6.3802   6.4262   6.6439   6.7410   6.8021   6.9143   6.9927   7.1511

     occupation numbers 
     1.0000   1.0000   1.0000   1.0000   1.0000   1.0000   1.0000   1.0000
     1.0000   1.0000   1.0000   1.0000   1.0000   1.0000   1.0000   1.0000
     1.0000   1.0000   1.0000   1.0000   1.0000   1.0000   1.0000   1.0000
     1.0000   1.0000   1.0000   1.0000   1.0000   1.0000   1.0000   1.0000
     1.0000   1.0000   1.0000   1.0000   1.0000   1.0000   1.0000   1.0000
     1.0000   1.0000   1.0000   1.0000   1.0000   1.0000   1.0000   1.0000
     1.0000   1.0000   1.0000   1.0000   1.0000   1.0000   1.0000   1.0000
     1.0000   1.0000   1.0000   1.0000   1.0000   1.0000   1.0000   1.0000

          k =-0.1980 0.5398-0.5535 (  5536 PWs)   bands (ev):

   -65.7700 -65.6605 -65.1880 -65.1049 -32.7877 -32.7333 -32.6899 -32.6574
   -32.6299 -32.5981 -32.1930 -32.1661 -32.1336 -32.1118 -32.0722 -32.0532
   -29.7781 -29.4445 -29.2235 -29.1407 -11.7254 -11.6101 -11.5574 -11.3897
   -11.1297 -10.9926 -10.8591 -10.8216 -10.7065 -10.5888 -10.4757 -10.3638
    -8.1770  -8.0170  -7.9875  -7.6324  -7.4936  -7.2285  -7.1023  -6.9595
     3.7946   4.1816   4.3321   4.6440   4.7973   5.0007   5.1786   5.2562
     5.4134   5.5772   5.7006   5.9173   6.0377   6.1121   6.2324   6.3377
     6.4206   6.4949   6.6701   6.7410   6.8101   6.8998   6.9752   7.1791

     occupation numbers 
     1.0000   1.0000   1.0000   1.0000   1.0000   1.0000   1.0000   1.0000
     1.0000   1.0000   1.0000   1.0000   1.0000   1.0000   1.0000   1.0000
     1.0000   1.0000   1.0000   1.0000   1.0000   1.0000   1.0000   1.0000
     1.0000   1.0000   1.0000   1.0000   1.0000   1.0000   1.0000   1.0000
     1.0000   1.0000   1.0000   1.0000   1.0000   1.0000   1.0000   1.0000
     1.0000   1.0000   1.0000   1.0000   1.0000   1.0000   1.0000   1.0000
     1.0000   1.0000   1.0000   1.0000   1.0000   1.0000   1.0000   1.0000
     1.0000   1.0000   1.0000   1.0000   1.0000   1.0000   1.0000   1.0000

          k =-0.7033 0.0103-0.0193 (  5506 PWs)   bands (ev):

   -65.7700 -65.6605 -65.1880 -65.1049 -32.7877 -32.7333 -32.6898 -32.6574
   -32.6299 -32.5981 -32.1930 -32.1661 -32.1334 -32.1118 -32.0722 -32.0534
   -29.7768 -29.4486 -29.2203 -29.1411 -11.7945 -11.5601 -11.4476 -11.3665
   -11.1705 -11.1012 -10.9491 -10.7509 -10.7104 -10.6015 -10.3985 -10.3486
    -8.1963  -8.1128  -7.9065  -7.6900  -7.5589  -7.1995  -7.0521  -6.8903
     3.8581   4.1658   4.2816   4.6324   4.9093   5.0041   5.0838   5.1406
     5.3146   5.6290   5.7533   5.8948   6.0322   6.1046   6.1990   6.2388
     6.3843   6.5412   6.6259   6.8373   6.8734   6.9477   7.0063   7.2193

     occupation numbers 
     1.0000   1.0000   1.0000   1.0000   1.0000   1.0000   1.0000   1.0000
     1.0000   1.0000   1.0000   1.0000   1.0000   1.0000   1.0000   1.0000
     1.0000   1.0000   1.0000   1.0000   1.0000   1.0000   1.0000   1.0000
     1.0000   1.0000   1.0000   1.0000   1.0000   1.0000   1.0000   1.0000
     1.0000   1.0000   1.0000   1.0000   1.0000   1.0000   1.0000   1.0000
     1.0000   1.0000   1.0000   1.0000   1.0000   1.0000   1.0000   1.0000
     1.0000   1.0000   1.0000   1.0000   1.0000   1.0000   1.0000   1.0000
     1.0000   1.0000   1.0000   1.0000   1.0000   1.0000   1.0000   1.0000

          k =-0.1736 0.1775 0.1739 (  5508 PWs)   bands (ev):

   -65.7700 -65.6605 -65.1880 -65.1049 -32.7876 -32.7332 -32.6898 -32.6575
   -32.6299 -32.5981 -32.1928 -32.1660 -32.1335 -32.1117 -32.0722 -32.0532
   -29.7800 -29.4459 -29.2196 -29.1420 -11.7303 -11.6411 -11.5734 -11.5010
   -11.0813 -10.8915 -10.8529 -10.7857 -10.7084 -10.5787 -10.4462 -10.3421
    -8.4341  -7.9861  -7.8813  -7.6931  -7.4548  -7.2154  -7.0323  -6.9715
     3.2802   3.9342   4.1482   4.5339   4.7943   4.8891   4.9825   5.6029
     5.6455   5.8019   5.9187   6.0126   6.0961   6.2331   6.2782   6.3226
     6.5222   6.6524   6.7283   6.7845   6.8949   7.0346   7.1910   7.3660

     occupation numbers 
     1.0000   1.0000   1.0000   1.0000   1.0000   1.0000   1.0000   1.0000
     1.0000   1.0000   1.0000   1.0000   1.0000   1.0000   1.0000   1.0000
     1.0000   1.0000   1.0000   1.0000   1.0000   1.0000   1.0000   1.0000
     1.0000   1.0000   1.0000   1.0000   1.0000   1.0000   1.0000   1.0000
     1.0000   1.0000   1.0000   1.0000   1.0000   1.0000   1.0000   1.0000
     1.0000   1.0000   1.0000   1.0000   1.0000   1.0000   1.0000   1.0000
     1.0000   1.0000   1.0000   1.0000   1.0000   1.0000   1.0000   1.0000
     1.0000   1.0000   1.0000   1.0000   1.0000   1.0000   1.0000   1.0000

          k =-0.0051 0.3540-0.0042 (  5509 PWs)   bands (ev):

   -65.7700 -65.6605 -65.1880 -65.1049 -32.7876 -32.7332 -32.6898 -32.6574
   -32.6298 -32.5981 -32.1928 -32.1661 -32.1337 -32.1117 -32.0723 -32.0530
   -29.7803 -29.4420 -29.2227 -29.1426 -11.6980 -11.6534 -11.5966 -11.4739
   -11.0277 -10.9191 -10.8274 -10.7333 -10.6937 -10.6188 -10.5229 -10.3944
    -8.4450  -8.0347  -7.9241  -7.5788  -7.3911  -7.1829  -7.1436  -6.9420
     3.3488   3.9761   4.2142   4.6677   4.7331   4.9274   5.0509   5.3876
     5.5833   5.6789   5.8618   5.9447   6.0710   6.1755   6.3149   6.5005
     6.5741   6.6433   6.7055   6.7179   6.8714   7.0299   7.1316   7.3556

     occupation numbers 
     1.0000   1.0000   1.0000   1.0000   1.0000   1.0000   1.0000   1.0000
     1.0000   1.0000   1.0000   1.0000   1.0000   1.0000   1.0000   1.0000
     1.0000   1.0000   1.0000   1.0000   1.0000   1.0000   1.0000   1.0000
     1.0000   1.0000   1.0000   1.0000   1.0000   1.0000   1.0000   1.0000
     1.0000   1.0000   1.0000   1.0000   1.0000   1.0000   1.0000   1.0000
     1.0000   1.0000   1.0000   1.0000   1.0000   1.0000   1.0000   1.0000
     1.0000   1.0000   1.0000   1.0000   1.0000   1.0000   1.0000   1.0000
     1.0000   1.0000   1.0000   1.0000   1.0000   1.0000   1.0000   1.0000

          k =-0.5104-0.1755 0.5300 (  5510 PWs)   bands (ev):

   -65.7700 -65.6605 -65.1880 -65.1049 -32.7876 -32.7332 -32.6898 -32.6574
   -32.6298 -32.5981 -32.1928 -32.1661 -32.1336 -32.1118 -32.0723 -32.0532
   -29.7787 -29.4405 -29.2257 -29.1428 -11.6050 -11.5906 -11.5160 -11.3804
   -11.0868 -11.0174 -10.9658 -10.8839 -10.7018 -10.5984 -10.5190 -10.4489
    -8.1858  -8.0091  -7.8309  -7.6105  -7.4117  -7.2405  -7.1778  -7.0429
     3.6979   4.1641   4.4487   4.5407   4.8872   4.9933   5.1444   5.2557
     5.4301   5.4963   5.6982   5.8159   5.9370   6.1248   6.1654   6.3693
     6.5137   6.5911   6.6694   6.7860   6.8885   6.9553   7.1181   7.2125

     occupation numbers 
     1.0000   1.0000   1.0000   1.0000   1.0000   1.0000   1.0000   1.0000
     1.0000   1.0000   1.0000   1.0000   1.0000   1.0000   1.0000   1.0000
     1.0000   1.0000   1.0000   1.0000   1.0000   1.0000   1.0000   1.0000
     1.0000   1.0000   1.0000   1.0000   1.0000   1.0000   1.0000   1.0000
     1.0000   1.0000   1.0000   1.0000   1.0000   1.0000   1.0000   1.0000
     1.0000   1.0000   1.0000   1.0000   1.0000   1.0000   1.0000   1.0000
     1.0000   1.0000   1.0000   1.0000   1.0000   1.0000   1.0000   1.0000
     1.0000   1.0000   1.0000   1.0000   1.0000   1.0000   1.0000   1.0000

          k =-0.3420 0.0010 0.3519 (  5512 PWs)   bands (ev):

   -65.7700 -65.6605 -65.1880 -65.1049 -32.7876 -32.7332 -32.6898 -32.6574
   -32.6298 -32.5981 -32.1928 -32.1660 -32.1334 -32.1117 -32.0722 -32.0534
   -29.7783 -29.4445 -29.2225 -29.1423 -11.6406 -11.5687 -11.4871 -11.4292
   -11.1331 -11.0299 -10.9578 -10.9098 -10.6997 -10.5415 -10.4757 -10.4163
    -8.1620  -7.9455  -7.8054  -7.6811  -7.5263  -7.2853  -7.0827  -7.0451
     3.6020   4.1519   4.2903   4.4393   4.8175   5.0309   5.1377   5.4020
     5.5339   5.6781   5.8054   5.8546   6.0147   6.1230   6.2173   6.2546
     6.4488   6.5308   6.7118   6.7558   6.8476   7.0530   7.1380   7.2277

     occupation numbers 
     1.0000   1.0000   1.0000   1.0000   1.0000   1.0000   1.0000   1.0000
     1.0000   1.0000   1.0000   1.0000   1.0000   1.0000   1.0000   1.0000
     1.0000   1.0000   1.0000   1.0000   1.0000   1.0000   1.0000   1.0000
     1.0000   1.0000   1.0000   1.0000   1.0000   1.0000   1.0000   1.0000
     1.0000   1.0000   1.0000   1.0000   1.0000   1.0000   1.0000   1.0000
     1.0000   1.0000   1.0000   1.0000   1.0000   1.0000   1.0000   1.0000
     1.0000   1.0000   1.0000   1.0000   1.0000   1.0000   1.0000   1.0000
     1.0000   1.0000   1.0000   1.0000   1.0000   1.0000   1.0000   1.0000

          k = 0.0097-0.0042 0.3616 (  5528 PWs)   bands (ev):

   -65.7700 -65.6605 -65.1880 -65.1049 -32.7876 -32.7332 -32.6899 -32.6575
   -32.6299 -32.5982 -32.1928 -32.1660 -32.1336 -32.1118 -32.0722 -32.0532
   -29.7806 -29.4429 -29.2217 -29.1420 -11.6897 -11.6272 -11.5965 -11.5541
   -11.0758 -10.9168 -10.8520 -10.8023 -10.6415 -10.5075 -10.4740 -10.4085
    -8.3905  -8.0429  -7.8230  -7.7269  -7.4365  -7.1648  -7.0781  -6.9951
     3.3755   3.9684   4.2336   4.6005   4.7392   4.8814   4.9915   5.5324
     5.7026   5.8422   5.9331   5.9817   6.1041   6.2062   6.2869   6.3461
     6.4679   6.5791   6.6172   6.7571   6.8058   6.9193   7.2027   7.2833

     occupation numbers 
     1.0000   1.0000   1.0000   1.0000   1.0000   1.0000   1.0000   1.0000
     1.0000   1.0000   1.0000   1.0000   1.0000   1.0000   1.0000   1.0000
     1.0000   1.0000   1.0000   1.0000   1.0000   1.0000   1.0000   1.0000
     1.0000   1.0000   1.0000   1.0000   1.0000   1.0000   1.0000   1.0000
     1.0000   1.0000   1.0000   1.0000   1.0000   1.0000   1.0000   1.0000
     1.0000   1.0000   1.0000   1.0000   1.0000   1.0000   1.0000   1.0000
     1.0000   1.0000   1.0000   1.0000   1.0000   1.0000   1.0000   1.0000
     1.0000   1.0000   1.0000   1.0000   1.0000   1.0000   1.0000   1.0000

          k = 0.1781 0.1724 0.1836 (  5527 PWs)   bands (ev):

   -65.7700 -65.6605 -65.1880 -65.1049 -32.7876 -32.7332 -32.6898 -32.6575
   -32.6299 -32.5982 -32.1928 -32.1661 -32.1337 -32.1117 -32.0722 -32.0530
   -29.7813 -29.4444 -29.2188 -29.1426 -11.7584 -11.6681 -11.6300 -11.5173
   -11.0363 -10.9056 -10.8203 -10.7140 -10.6776 -10.5309 -10.4793 -10.3413
    -8.4613  -8.0344  -7.9217  -7.7205  -7.3671  -7.2094  -7.0320  -6.9719
     3.3085   3.8925   4.1989   4.5917   4.6658   4.8751   5.0072   5.5799
     5.7074   5.7961   5.9363   5.9734   6.1237   6.2152   6.3120   6.3986
     6.5025   6.6553   6.7510   6.8570   6.8809   6.9523   7.0916   7.2755

     occupation numbers 
     1.0000   1.0000   1.0000   1.0000   1.0000   1.0000   1.0000   1.0000
     1.0000   1.0000   1.0000   1.0000   1.0000   1.0000   1.0000   1.0000
     1.0000   1.0000   1.0000   1.0000   1.0000   1.0000   1.0000   1.0000
     1.0000   1.0000   1.0000   1.0000   1.0000   1.0000   1.0000   1.0000
     1.0000   1.0000   1.0000   1.0000   1.0000   1.0000   1.0000   1.0000
     1.0000   1.0000   1.0000   1.0000   1.0000   1.0000   1.0000   1.0000
     1.0000   1.0000   1.0000   1.0000   1.0000   1.0000   1.0000   1.0000
     1.0000   1.0000   1.0000   1.0000   1.0000   1.0000   1.0000   1.0000

          k =-0.3272-0.3572 0.7177 (  5500 PWs)   bands (ev):

   -65.7700 -65.6605 -65.1880 -65.1049 -32.7876 -32.7332 -32.6898 -32.6575
   -32.6299 -32.5982 -32.1928 -32.1661 -32.1336 -32.1118 -32.0723 -32.0532
   -29.7797 -29.4430 -29.2216 -29.1429 -11.7033 -11.6262 -11.5646 -11.4264
   -11.0446 -10.9900 -10.8726 -10.8439 -10.6917 -10.5501 -10.5187 -10.3957
    -8.2591  -7.9937  -7.9115  -7.5910  -7.4259  -7.2858  -7.1757  -6.9437
     3.6174   4.1047   4.3609   4.5848   4.7115   4.9385   5.1803   5.2271
     5.4018   5.6334   5.8069   5.9503   6.0467   6.1733   6.3313   6.3721
     6.4523   6.5533   6.7142   6.7788   6.8818   6.9870   7.0474   7.1519

     occupation numbers 
     1.0000   1.0000   1.0000   1.0000   1.0000   1.0000   1.0000   1.0000
     1.0000   1.0000   1.0000   1.0000   1.0000   1.0000   1.0000   1.0000
     1.0000   1.0000   1.0000   1.0000   1.0000   1.0000   1.0000   1.0000
     1.0000   1.0000   1.0000   1.0000   1.0000   1.0000   1.0000   1.0000
     1.0000   1.0000   1.0000   1.0000   1.0000   1.0000   1.0000   1.0000
     1.0000   1.0000   1.0000   1.0000   1.0000   1.0000   1.0000   1.0000
     1.0000   1.0000   1.0000   1.0000   1.0000   1.0000   1.0000   1.0000
     1.0000   1.0000   1.0000   1.0000   1.0000   1.0000   1.0000   1.0000

          k =-0.1588-0.1807 0.5397 (  5540 PWs)   bands (ev):

   -65.7700 -65.6605 -65.1880 -65.1049 -32.7876 -32.7333 -32.6899 -32.6574
   -32.6299 -32.5982 -32.1928 -32.1660 -32.1335 -32.1118 -32.0723 -32.0534
   -29.7790 -29.4415 -29.2246 -29.1423 -11.6253 -11.6044 -11.5006 -11.4581
   -11.0791 -11.0066 -10.9424 -10.8846 -10.7130 -10.5430 -10.5009 -10.4326
    -8.1850  -7.9252  -7.8430  -7.6765  -7.5208  -7.2204  -7.1259  -7.0333
     3.7697   4.0880   4.4215   4.5571   4.8302   5.0071   5.1251   5.2530
     5.4289   5.5778   5.7504   5.8624   6.0420   6.1364   6.1967   6.3400
     6.4231   6.5537   6.6037   6.8003   6.8747   6.9750   7.0571   7.1588

     occupation numbers 
     1.0000   1.0000   1.0000   1.0000   1.0000   1.0000   1.0000   1.0000
     1.0000   1.0000   1.0000   1.0000   1.0000   1.0000   1.0000   1.0000
     1.0000   1.0000   1.0000   1.0000   1.0000   1.0000   1.0000   1.0000
     1.0000   1.0000   1.0000   1.0000   1.0000   1.0000   1.0000   1.0000
     1.0000   1.0000   1.0000   1.0000   1.0000   1.0000   1.0000   1.0000
     1.0000   1.0000   1.0000   1.0000   1.0000   1.0000   1.0000   1.0000
     1.0000   1.0000   1.0000   1.0000   1.0000   1.0000   1.0000   1.0000
     1.0000   1.0000   1.0000   1.0000   1.0000   1.0000   1.0000   1.0000

          k =-0.5400 0.5408-0.2015 (  5529 PWs)   bands (ev):

   -65.7700 -65.6605 -65.1880 -65.1049 -32.7876 -32.7333 -32.6899 -32.6574
   -32.6299 -32.5981 -32.1929 -32.1661 -32.1336 -32.1119 -32.0723 -32.0532
   -29.7793 -29.4402 -29.2256 -29.1418 -11.6320 -11.6026 -11.5814 -11.4957
   -11.0580 -10.9370 -10.8822 -10.8256 -10.7063 -10.6027 -10.5159 -10.4224
    -8.1808  -8.0423  -7.8559  -7.6109  -7.5128  -7.2157  -7.1143  -7.0267
     3.8674   4.0926   4.4836   4.5937   4.7919   4.9594   5.1382   5.2494
     5.5530   5.6101   5.7353   5.9232   5.9440   6.1278   6.1959   6.3605
     6.3866   6.5161   6.5639   6.7024   6.8054   6.8679   6.9845   7.1984

     occupation numbers 
     1.0000   1.0000   1.0000   1.0000   1.0000   1.0000   1.0000   1.0000
     1.0000   1.0000   1.0000   1.0000   1.0000   1.0000   1.0000   1.0000
     1.0000   1.0000   1.0000   1.0000   1.0000   1.0000   1.0000   1.0000
     1.0000   1.0000   1.0000   1.0000   1.0000   1.0000   1.0000   1.0000
     1.0000   1.0000   1.0000   1.0000   1.0000   1.0000   1.0000   1.0000
     1.0000   1.0000   1.0000   1.0000   1.0000   1.0000   1.0000   1.0000
     1.0000   1.0000   1.0000   1.0000   1.0000   1.0000   1.0000   1.0000
     1.0000   1.0000   1.0000   1.0000   1.0000   1.0000   1.0000   1.0000

          k =-0.3716 0.7173-0.3796 (  5523 PWs)   bands (ev):

   -65.7700 -65.6605 -65.1880 -65.1049 -32.7876 -32.7332 -32.6898 -32.6574
   -32.6299 -32.5981 -32.1929 -32.1661 -32.1337 -32.1118 -32.0723 -32.0530
   -29.7800 -29.4417 -29.2227 -29.1425 -11.6871 -11.6392 -11.6059 -11.4525
   -11.0955 -10.9704 -10.8589 -10.7139 -10.7017 -10.5646 -10.4993 -10.4197
    -8.2229  -8.0651  -7.8578  -7.6828  -7.4009  -7.2744  -7.0806  -7.0266
     3.7205   4.1368   4.3205   4.5545   4.7155   4.9382   5.2412   5.3740
     5.5900   5.7001   5.7959   5.9494   6.0353   6.1426   6.2199   6.3100
     6.3917   6.4247   6.6818   6.7082   6.7661   6.9155   6.9652   7.1945

     occupation numbers 
     1.0000   1.0000   1.0000   1.0000   1.0000   1.0000   1.0000   1.0000
     1.0000   1.0000   1.0000   1.0000   1.0000   1.0000   1.0000   1.0000
     1.0000   1.0000   1.0000   1.0000   1.0000   1.0000   1.0000   1.0000
     1.0000   1.0000   1.0000   1.0000   1.0000   1.0000   1.0000   1.0000
     1.0000   1.0000   1.0000   1.0000   1.0000   1.0000   1.0000   1.0000
     1.0000   1.0000   1.0000   1.0000   1.0000   1.0000   1.0000   1.0000
     1.0000   1.0000   1.0000   1.0000   1.0000   1.0000   1.0000   1.0000
     1.0000   1.0000   1.0000   1.0000   1.0000   1.0000   1.0000   1.0000

          k =-0.8769 0.1878 0.1545 (  5514 PWs)   bands (ev):

   -65.7700 -65.6605 -65.1880 -65.1049 -32.7876 -32.7332 -32.6898 -32.6575
   -32.6300 -32.5982 -32.1929 -32.1661 -32.1336 -32.1118 -32.0722 -32.0532
   -29.7787 -29.4458 -29.2195 -29.1429 -11.7389 -11.6046 -11.5540 -11.4185
   -11.1107 -10.9913 -10.8665 -10.8375 -10.6883 -10.5818 -10.4774 -10.3425
    -8.1731  -8.0297  -7.9901  -7.6298  -7.4669  -7.2290  -7.0983  -6.9866
     3.8516   4.1117   4.3450   4.5218   4.7731   4.9647   5.2320   5.3408
     5.3805   5.6021   5.7277   5.8339   6.0007   6.1427   6.1729   6.3774
     6.4574   6.5515   6.7022   6.7383   6.8770   6.9036   6.9768   7.1370

     occupation numbers 
     1.0000   1.0000   1.0000   1.0000   1.0000   1.0000   1.0000   1.0000
     1.0000   1.0000   1.0000   1.0000   1.0000   1.0000   1.0000   1.0000
     1.0000   1.0000   1.0000   1.0000   1.0000   1.0000   1.0000   1.0000
     1.0000   1.0000   1.0000   1.0000   1.0000   1.0000   1.0000   1.0000
     1.0000   1.0000   1.0000   1.0000   1.0000   1.0000   1.0000   1.0000
     1.0000   1.0000   1.0000   1.0000   1.0000   1.0000   1.0000   1.0000
     1.0000   1.0000   1.0000   1.0000   1.0000   1.0000   1.0000   1.0000
     1.0000   1.0000   1.0000   1.0000   1.0000   1.0000   1.0000   1.0000

          k =-0.7085 0.3643-0.0235 (  5520 PWs)   bands (ev):

   -65.7700 -65.6605 -65.1880 -65.1049 -32.7876 -32.7333 -32.6898 -32.6574
   -32.6299 -32.5982 -32.1929 -32.1661 -32.1334 -32.1118 -32.0723 -32.0534
   -29.7780 -29.4443 -29.2223 -29.1423 -11.7006 -11.5775 -11.5023 -11.4263
   -11.1495 -11.0154 -10.9004 -10.8277 -10.6791 -10.5775 -10.5120 -10.3969
    -8.1727  -8.0155  -7.9056  -7.6119  -7.4939  -7.2296  -7.1764  -6.9462
     4.0553   4.1068   4.4702   4.5210   4.8665   4.9223   5.1320   5.1855
     5.3287   5.4217   5.7988   5.8919   6.0559   6.1144   6.2153   6.3212
     6.4145   6.5064   6.6350   6.7023   6.8101   6.9611   7.0001   7.1370

     occupation numbers 
     1.0000   1.0000   1.0000   1.0000   1.0000   1.0000   1.0000   1.0000
     1.0000   1.0000   1.0000   1.0000   1.0000   1.0000   1.0000   1.0000
     1.0000   1.0000   1.0000   1.0000   1.0000   1.0000   1.0000   1.0000
     1.0000   1.0000   1.0000   1.0000   1.0000   1.0000   1.0000   1.0000
     1.0000   1.0000   1.0000   1.0000   1.0000   1.0000   1.0000   1.0000
     1.0000   1.0000   1.0000   1.0000   1.0000   1.0000   1.0000   1.0000
     1.0000   1.0000   1.0000   1.0000   1.0000   1.0000   1.0000   1.0000
     1.0000   1.0000   1.0000   1.0000   1.0000   1.0000   1.0000   1.0000

          k =-0.3568 0.3591-0.0138 (  5515 PWs)   bands (ev):

   -65.7700 -65.6605 -65.1880 -65.1049 -32.7876 -32.7332 -32.6899 -32.6574
   -32.6299 -32.5981 -32.1929 -32.1661 -32.1336 -32.1118 -32.0723 -32.0532
   -29.7787 -29.4433 -29.2234 -29.1419 -11.6876 -11.6026 -11.5673 -11.4064
   -11.0898 -10.9625 -10.8788 -10.8149 -10.7195 -10.6303 -10.4950 -10.3932
    -8.2538  -7.9742  -7.9056  -7.5808  -7.4444  -7.3024  -7.1721  -6.9373
     3.6431   4.1346   4.3873   4.5166   4.9350   5.0239   5.1487   5.2234
     5.3765   5.6987   5.7329   5.9050   6.0135   6.1171   6.1975   6.3278
     6.4746   6.6143   6.6892   6.7805   6.8275   6.8696   7.0983   7.1797

     occupation numbers 
     1.0000   1.0000   1.0000   1.0000   1.0000   1.0000   1.0000   1.0000
     1.0000   1.0000   1.0000   1.0000   1.0000   1.0000   1.0000   1.0000
     1.0000   1.0000   1.0000   1.0000   1.0000   1.0000   1.0000   1.0000
     1.0000   1.0000   1.0000   1.0000   1.0000   1.0000   1.0000   1.0000
     1.0000   1.0000   1.0000   1.0000   1.0000   1.0000   1.0000   1.0000
     1.0000   1.0000   1.0000   1.0000   1.0000   1.0000   1.0000   1.0000
     1.0000   1.0000   1.0000   1.0000   1.0000   1.0000   1.0000   1.0000
     1.0000   1.0000   1.0000   1.0000   1.0000   1.0000   1.0000   1.0000

          k =-0.1884 0.5357-0.1919 (  5519 PWs)   bands (ev):

   -65.7700 -65.6605 -65.1880 -65.1049 -32.7876 -32.7332 -32.6899 -32.6573
   -32.6298 -32.5981 -32.1930 -32.1661 -32.1338 -32.1118 -32.0723 -32.0530
   -29.7790 -29.4391 -29.2268 -29.1424 -11.6657 -11.5862 -11.5487 -11.3959
   -11.0608 -11.0056 -10.9154 -10.7797 -10.6988 -10.6626 -10.5206 -10.4430
    -8.2325  -8.0419  -7.8446  -7.5691  -7.4248  -7.2333  -7.1578  -7.0369
     3.7597   4.2088   4.4602   4.6434   4.8722   5.0116   5.1351   5.2558
     5.3767   5.5101   5.6965   5.8437   5.9543   6.0365   6.2279   6.2865
     6.4929   6.6374   6.7083   6.7492   6.8118   6.8969   7.0052   7.1371

     occupation numbers 
     1.0000   1.0000   1.0000   1.0000   1.0000   1.0000   1.0000   1.0000
     1.0000   1.0000   1.0000   1.0000   1.0000   1.0000   1.0000   1.0000
     1.0000   1.0000   1.0000   1.0000   1.0000   1.0000   1.0000   1.0000
     1.0000   1.0000   1.0000   1.0000   1.0000   1.0000   1.0000   1.0000
     1.0000   1.0000   1.0000   1.0000   1.0000   1.0000   1.0000   1.0000
     1.0000   1.0000   1.0000   1.0000   1.0000   1.0000   1.0000   1.0000
     1.0000   1.0000   1.0000   1.0000   1.0000   1.0000   1.0000   1.0000
     1.0000   1.0000   1.0000   1.0000   1.0000   1.0000   1.0000   1.0000

          k =-0.6936 0.0061 0.3423 (  5534 PWs)   bands (ev):

   -65.7700 -65.6605 -65.1880 -65.1049 -32.7876 -32.7332 -32.6898 -32.6574
   -32.6299 -32.5981 -32.1929 -32.1661 -32.1336 -32.1118 -32.0723 -32.0532
   -29.7777 -29.4433 -29.2235 -29.1428 -11.6454 -11.5902 -11.4892 -11.3563
   -11.1360 -11.0497 -10.9701 -10.8635 -10.7118 -10.5747 -10.4943 -10.4186
    -8.1031  -8.0764  -7.8532  -7.6264  -7.4875  -7.1906  -7.1038  -7.0836
     3.9390   4.2492   4.4170   4.5434   4.8489   5.0045   5.1240   5.2442
     5.3467   5.4605   5.7043   5.8453   5.9300   6.1350   6.2209   6.3440
     6.4123   6.5319   6.6227   6.7378   6.8276   6.9511   7.0179   7.1515

     occupation numbers 
     1.0000   1.0000   1.0000   1.0000   1.0000   1.0000   1.0000   1.0000
     1.0000   1.0000   1.0000   1.0000   1.0000   1.0000   1.0000   1.0000
     1.0000   1.0000   1.0000   1.0000   1.0000   1.0000   1.0000   1.0000
     1.0000   1.0000   1.0000   1.0000   1.0000   1.0000   1.0000   1.0000
     1.0000   1.0000   1.0000   1.0000   1.0000   1.0000   1.0000   1.0000
     1.0000   1.0000   1.0000   1.0000   1.0000   1.0000   1.0000   1.0000
     1.0000   1.0000   1.0000   1.0000   1.0000   1.0000   1.0000   1.0000
     1.0000   1.0000   1.0000   1.0000   1.0000   1.0000   1.0000   1.0000

          k =-0.5252 0.1826 0.1642 (  5514 PWs)   bands (ev):

   -65.7700 -65.6605 -65.1880 -65.1049 -32.7876 -32.7332 -32.6898 -32.6574
   -32.6299 -32.5981 -32.1929 -32.1661 -32.1334 -32.1117 -32.0722 -32.0534
   -29.7773 -29.4473 -29.2203 -29.1423 -11.7276 -11.5484 -11.4619 -11.3814
   -11.1708 -11.0672 -10.9387 -10.8423 -10.7179 -10.6056 -10.4560 -10.3439
    -8.1512  -8.0042  -7.9018  -7.6240  -7.5384  -7.2443  -7.1096  -6.9841
     3.7917   4.1802   4.3082   4.4113   4.9604   5.0375   5.1728   5.3329
     5.4567   5.6101   5.6804   5.7963   5.8923   6.0424   6.1750   6.2746
     6.5561   6.6365   6.6794   6.7398   6.8738   6.9614   7.0896   7.1550

     occupation numbers 
     1.0000   1.0000   1.0000   1.0000   1.0000   1.0000   1.0000   1.0000
     1.0000   1.0000   1.0000   1.0000   1.0000   1.0000   1.0000   1.0000
     1.0000   1.0000   1.0000   1.0000   1.0000   1.0000   1.0000   1.0000
     1.0000   1.0000   1.0000   1.0000   1.0000   1.0000   1.0000   1.0000
     1.0000   1.0000   1.0000   1.0000   1.0000   1.0000   1.0000   1.0000
     1.0000   1.0000   1.0000   1.0000   1.0000   1.0000   1.0000   1.0000
     1.0000   1.0000   1.0000   1.0000   1.0000   1.0000   1.0000   1.0000
     1.0000   1.0000   1.0000   1.0000   1.0000   1.0000   1.0000   1.0000

          k = 0.3471-0.3550-0.3478 (  5512 PWs)   bands (ev):

   -65.7700 -65.6605 -65.1880 -65.1049 -32.7876 -32.7332 -32.6898 -32.6574
   -32.6299 -32.5981 -32.1929 -32.1661 -32.1334 -32.1117 -32.0723 -32.0534
   -29.7779 -29.4461 -29.2203 -29.1435 -11.6462 -11.5426 -11.4848 -11.3734
   -11.1289 -11.0470 -10.9847 -10.9273 -10.7578 -10.6035 -10.4862 -10.3357
    -8.0954  -7.9862  -7.8010  -7.5859  -7.4235  -7.3176  -7.1966  -7.1083
     3.7522   4.0867   4.2948   4.4468   4.9369   5.1212   5.2422   5.4122
     5.5320   5.6110   5.6311   5.7946   5.9006   6.0018   6.0956   6.2679
     6.4776   6.5240   6.7319   6.8031   6.9006   7.0575   7.0844   7.2738

     occupation numbers 
     1.0000   1.0000   1.0000   1.0000   1.0000   1.0000   1.0000   1.0000
     1.0000   1.0000   1.0000   1.0000   1.0000   1.0000   1.0000   1.0000
     1.0000   1.0000   1.0000   1.0000   1.0000   1.0000   1.0000   1.0000
     1.0000   1.0000   1.0000   1.0000   1.0000   1.0000   1.0000   1.0000
     1.0000   1.0000   1.0000   1.0000   1.0000   1.0000   1.0000   1.0000
     1.0000   1.0000   1.0000   1.0000   1.0000   1.0000   1.0000   1.0000
     1.0000   1.0000   1.0000   1.0000   1.0000   1.0000   1.0000   1.0000
     1.0000   1.0000   1.0000   1.0000   1.0000   1.0000   1.0000   1.0000

          k = 0.5155-0.1785-0.5258 (  5504 PWs)   bands (ev):

   -65.7700 -65.6605 -65.1880 -65.1049 -32.7876 -32.7332 -32.6898 -32.6574
   -32.6298 -32.5981 -32.1929 -32.1661 -32.1336 -32.1117 -32.0723 -32.0532
   -29.7782 -29.4420 -29.2234 -29.1440 -11.6050 -11.5749 -11.5026 -11.3735
   -11.0943 -11.0082 -10.9897 -10.8880 -10.7252 -10.6282 -10.5096 -10.4259
    -8.1902  -8.0060  -7.7964  -7.6076  -7.4046  -7.2503  -7.1762  -7.0684
     3.7596   4.2381   4.3887   4.4473   4.9278   5.0458   5.1661   5.3183
     5.4480   5.5611   5.6812   5.7610   5.8694   6.0734   6.1231   6.2417
     6.5617   6.6256   6.7054   6.7444   6.8105   6.9915   7.0929   7.2529

     occupation numbers 
     1.0000   1.0000   1.0000   1.0000   1.0000   1.0000   1.0000   1.0000
     1.0000   1.0000   1.0000   1.0000   1.0000   1.0000   1.0000   1.0000
     1.0000   1.0000   1.0000   1.0000   1.0000   1.0000   1.0000   1.0000
     1.0000   1.0000   1.0000   1.0000   1.0000   1.0000   1.0000   1.0000
     1.0000   1.0000   1.0000   1.0000   1.0000   1.0000   1.0000   1.0000
     1.0000   1.0000   1.0000   1.0000   1.0000   1.0000   1.0000   1.0000
     1.0000   1.0000   1.0000   1.0000   1.0000   1.0000   1.0000   1.0000
     1.0000   1.0000   1.0000   1.0000   1.0000   1.0000   1.0000   1.0000

          k = 0.0103-0.7080 0.0083 (  5510 PWs)   bands (ev):

   -65.7700 -65.6605 -65.1880 -65.1049 -32.7876 -32.7332 -32.6898 -32.6574
   -32.6298 -32.5981 -32.1929 -32.1661 -32.1338 -32.1118 -32.0724 -32.0530
   -29.7786 -29.4379 -29.2267 -29.1445 -11.6559 -11.5377 -11.4740 -11.3531
   -11.0916 -11.0094 -10.9640 -10.8278 -10.7091 -10.6746 -10.5392 -10.4932
    -8.2222  -8.0983  -7.8191  -7.5751  -7.3713  -7.2153  -7.1527  -7.0337
     3.7930   4.2187   4.4046   4.8458   4.8837   5.0596   5.0980   5.2583
     5.3774   5.4232   5.4776   5.7607   5.8350   6.0086   6.1533   6.3689
     6.4783   6.6649   6.7001   6.7485   6.8117   6.9786   7.1513   7.2135

     occupation numbers 
     1.0000   1.0000   1.0000   1.0000   1.0000   1.0000   1.0000   1.0000
     1.0000   1.0000   1.0000   1.0000   1.0000   1.0000   1.0000   1.0000
     1.0000   1.0000   1.0000   1.0000   1.0000   1.0000   1.0000   1.0000
     1.0000   1.0000   1.0000   1.0000   1.0000   1.0000   1.0000   1.0000
     1.0000   1.0000   1.0000   1.0000   1.0000   1.0000   1.0000   1.0000
     1.0000   1.0000   1.0000   1.0000   1.0000   1.0000   1.0000   1.0000
     1.0000   1.0000   1.0000   1.0000   1.0000   1.0000   1.0000   1.0000
     1.0000   1.0000   1.0000   1.0000   1.0000   1.0000   1.0000   1.0000

          k = 0.5304-0.5366-0.1601 (  5505 PWs)   bands (ev):

   -65.7700 -65.6605 -65.1880 -65.1049 -32.7876 -32.7332 -32.6898 -32.6574
   -32.6299 -32.5981 -32.1928 -32.1661 -32.1334 -32.1118 -32.0723 -32.0534
   -29.7785 -29.4430 -29.2223 -29.1434 -11.6021 -11.5858 -11.5283 -11.4460
   -11.0649 -11.0154 -10.9784 -10.8788 -10.7179 -10.5754 -10.4897 -10.4195
    -8.1729  -7.9495  -7.8259  -7.6425  -7.5152  -7.2292  -7.1243  -7.0606
     3.8110   4.2138   4.3409   4.4351   4.8826   5.0600   5.2135   5.3103
     5.4556   5.6117   5.7283   5.7983   5.8945   5.9991   6.2038   6.2869
     6.4964   6.5718   6.6654   6.7521   6.8578   6.9170   7.0440   7.2115

     occupation numbers 
     1.0000   1.0000   1.0000   1.0000   1.0000   1.0000   1.0000   1.0000
     1.0000   1.0000   1.0000   1.0000   1.0000   1.0000   1.0000   1.0000
     1.0000   1.0000   1.0000   1.0000   1.0000   1.0000   1.0000   1.0000
     1.0000   1.0000   1.0000   1.0000   1.0000   1.0000   1.0000   1.0000
     1.0000   1.0000   1.0000   1.0000   1.0000   1.0000   1.0000   1.0000
     1.0000   1.0000   1.0000   1.0000   1.0000   1.0000   1.0000   1.0000
     1.0000   1.0000   1.0000   1.0000   1.0000   1.0000   1.0000   1.0000
     1.0000   1.0000   1.0000   1.0000   1.0000   1.0000   1.0000   1.0000

          k = 0.6988-0.3601-0.3381 (  5514 PWs)   bands (ev):

   -65.7700 -65.6605 -65.1880 -65.1049 -32.7876 -32.7332 -32.6898 -32.6575
   -32.6299 -32.5981 -32.1929 -32.1661 -32.1335 -32.1117 -32.0723 -32.0532
   -29.7792 -29.4445 -29.2194 -29.1441 -11.6749 -11.5857 -11.5494 -11.4706
   -11.0675 -10.9906 -10.9115 -10.8549 -10.7013 -10.5884 -10.5146 -10.3346
    -8.2530  -8.0514  -7.8036  -7.5636  -7.4184  -7.2015  -7.1728  -7.1136
     3.6609   4.2102   4.3670   4.4587   4.7730   4.9567   5.1402   5.3613
     5.5233   5.6890   5.7115   5.8924   5.9830   6.0838   6.2247   6.3612
     6.4630   6.5844   6.6428   6.7406   6.8362   6.9782   7.0784   7.1967

     occupation numbers 
     1.0000   1.0000   1.0000   1.0000   1.0000   1.0000   1.0000   1.0000
     1.0000   1.0000   1.0000   1.0000   1.0000   1.0000   1.0000   1.0000
     1.0000   1.0000   1.0000   1.0000   1.0000   1.0000   1.0000   1.0000
     1.0000   1.0000   1.0000   1.0000   1.0000   1.0000   1.0000   1.0000
     1.0000   1.0000   1.0000   1.0000   1.0000   1.0000   1.0000   1.0000
     1.0000   1.0000   1.0000   1.0000   1.0000   1.0000   1.0000   1.0000
     1.0000   1.0000   1.0000   1.0000   1.0000   1.0000   1.0000   1.0000
     1.0000   1.0000   1.0000   1.0000   1.0000   1.0000   1.0000   1.0000

          k = 0.1935-0.8897 0.1960 (  5523 PWs)   bands (ev):

   -65.7700 -65.6605 -65.1880 -65.1049 -32.7876 -32.7332 -32.6898 -32.6574
   -32.6299 -32.5981 -32.1929 -32.1661 -32.1337 -32.1118 -32.0723 -32.0530
   -29.7796 -29.4405 -29.2226 -29.1446 -11.6741 -11.6088 -11.5294 -11.4089
   -11.0491 -11.0066 -10.9304 -10.7988 -10.7012 -10.6205 -10.5206 -10.4255
    -8.2431  -8.0622  -7.8077  -7.5736  -7.4003  -7.2358  -7.1529  -7.0717
     3.7902   4.2226   4.4039   4.5879   4.7465   5.0355   5.1399   5.2526
     5.4248   5.5438   5.5917   5.8941   5.9710   6.1020   6.2051   6.4247
     6.4934   6.6067   6.6645   6.7517   6.8414   6.9033   7.0200   7.1182

     occupation numbers 
     1.0000   1.0000   1.0000   1.0000   1.0000   1.0000   1.0000   1.0000
     1.0000   1.0000   1.0000   1.0000   1.0000   1.0000   1.0000   1.0000
     1.0000   1.0000   1.0000   1.0000   1.0000   1.0000   1.0000   1.0000
     1.0000   1.0000   1.0000   1.0000   1.0000   1.0000   1.0000   1.0000
     1.0000   1.0000   1.0000   1.0000   1.0000   1.0000   1.0000   1.0000
     1.0000   1.0000   1.0000   1.0000   1.0000   1.0000   1.0000   1.0000
     1.0000   1.0000   1.0000   1.0000   1.0000   1.0000   1.0000   1.0000
     1.0000   1.0000   1.0000   1.0000   1.0000   1.0000   1.0000   1.0000

          k = 0.3619-0.7131 0.0180 (  5515 PWs)   bands (ev):

   -65.7700 -65.6605 -65.1880 -65.1049 -32.7876 -32.7332 -32.6898 -32.6574
   -32.6299 -32.5981 -32.1929 -32.1661 -32.1336 -32.1118 -32.0723 -32.0532
   -29.7789 -29.4389 -29.2256 -29.1440 -11.6098 -11.5530 -11.5347 -11.4375
   -11.0232 -10.9915 -10.9469 -10.8794 -10.7142 -10.6238 -10.5420 -10.4775
    -8.1329  -7.9961  -7.8376  -7.6370  -7.4782  -7.2866  -7.1014  -7.0186
     4.0074   4.2234   4.3514   4.5491   4.8971   4.9741   5.1185   5.2696
     5.4421   5.4827   5.6453   5.8686   5.8951   6.0653   6.1814   6.3082
     6.3918   6.5599   6.6671   6.7725   6.8878   6.9078   7.0197   7.0927

     occupation numbers 
     1.0000   1.0000   1.0000   1.0000   1.0000   1.0000   1.0000   1.0000
     1.0000   1.0000   1.0000   1.0000   1.0000   1.0000   1.0000   1.0000
     1.0000   1.0000   1.0000   1.0000   1.0000   1.0000   1.0000   1.0000
     1.0000   1.0000   1.0000   1.0000   1.0000   1.0000   1.0000   1.0000
     1.0000   1.0000   1.0000   1.0000   1.0000   1.0000   1.0000   1.0000
     1.0000   1.0000   1.0000   1.0000   1.0000   1.0000   1.0000   1.0000
     1.0000   1.0000   1.0000   1.0000   1.0000   1.0000   1.0000   1.0000
     1.0000   1.0000   1.0000   1.0000   1.0000   1.0000   1.0000   1.0000

          k =-0.0193 0.0083-0.7232 (  5530 PWs)   bands (ev):

   -65.7700 -65.6605 -65.1880 -65.1049 -32.7876 -32.7332 -32.6899 -32.6574
   -32.6299 -32.5982 -32.1928 -32.1661 -32.1335 -32.1118 -32.0723 -32.0534
   -29.7792 -29.4399 -29.2244 -29.1434 -11.6373 -11.6024 -11.5246 -11.4653
   -11.0108 -10.9913 -10.9645 -10.8548 -10.7096 -10.5465 -10.5281 -10.4481
    -8.2528  -7.9022  -7.8384  -7.6561  -7.6269  -7.1675  -7.0666  -7.0180
     3.9294   4.1451   4.4757   4.5777   4.8298   4.8920   5.1103   5.2358
     5.5955   5.6203   5.7077   5.8846   5.9285   5.9627   6.1288   6.3293
     6.4321   6.5404   6.5553   6.6716   6.8050   6.8923   7.1476   7.1746

     occupation numbers 
     1.0000   1.0000   1.0000   1.0000   1.0000   1.0000   1.0000   1.0000
     1.0000   1.0000   1.0000   1.0000   1.0000   1.0000   1.0000   1.0000
     1.0000   1.0000   1.0000   1.0000   1.0000   1.0000   1.0000   1.0000
     1.0000   1.0000   1.0000   1.0000   1.0000   1.0000   1.0000   1.0000
     1.0000   1.0000   1.0000   1.0000   1.0000   1.0000   1.0000   1.0000
     1.0000   1.0000   1.0000   1.0000   1.0000   1.0000   1.0000   1.0000
     1.0000   1.0000   1.0000   1.0000   1.0000   1.0000   1.0000   1.0000
     1.0000   1.0000   1.0000   1.0000   1.0000   1.0000   1.0000   1.0000

          k = 0.1491 0.1848-0.9013 (  5510 PWs)   bands (ev):

   -65.7700 -65.6605 -65.1880 -65.1049 -32.7876 -32.7332 -32.6898 -32.6575
   -32.6299 -32.5982 -32.1928 -32.1661 -32.1336 -32.1118 -32.0723 -32.0532
   -29.7799 -29.4414 -29.2215 -29.1441 -11.6539 -11.6266 -11.5543 -11.4929
   -11.0270 -10.9631 -10.9110 -10.8485 -10.6937 -10.5583 -10.5063 -10.4166
    -8.1730  -8.0827  -7.8309  -7.6122  -7.4775  -7.2225  -7.1051  -7.0622
     3.8891   4.1624   4.2835   4.5903   4.7787   4.9519   5.1992   5.3021
     5.4484   5.6020   5.8221   5.8675   5.9677   6.0379   6.1736   6.3527
     6.4282   6.5491   6.6421   6.7409   6.8355   6.9179   7.0004   7.1295

     occupation numbers 
     1.0000   1.0000   1.0000   1.0000   1.0000   1.0000   1.0000   1.0000
     1.0000   1.0000   1.0000   1.0000   1.0000   1.0000   1.0000   1.0000
     1.0000   1.0000   1.0000   1.0000   1.0000   1.0000   1.0000   1.0000
     1.0000   1.0000   1.0000   1.0000   1.0000   1.0000   1.0000   1.0000
     1.0000   1.0000   1.0000   1.0000   1.0000   1.0000   1.0000   1.0000
     1.0000   1.0000   1.0000   1.0000   1.0000   1.0000   1.0000   1.0000
     1.0000   1.0000   1.0000   1.0000   1.0000   1.0000   1.0000   1.0000
     1.0000   1.0000   1.0000   1.0000   1.0000   1.0000   1.0000   1.0000

          k =-0.3562-0.3447-0.3671 (  5506 PWs)   bands (ev):

   -65.7700 -65.6605 -65.1880 -65.1049 -32.7876 -32.7332 -32.6898 -32.6575
   -32.6300 -32.5982 -32.1929 -32.1661 -32.1337 -32.1118 -32.0723 -32.0530
   -29.7806 -29.4429 -29.2186 -29.1447 -11.7232 -11.6448 -11.5608 -11.4502
   -11.0333 -10.9744 -10.9438 -10.7629 -10.7058 -10.5785 -10.5046 -10.3344
    -8.2173  -8.0676  -7.8273  -7.5588  -7.4106  -7.2597  -7.1491  -7.1182
     3.8989   3.9759   4.3357   4.5953   4.6809   4.9412   5.2763   5.4309
     5.5014   5.6882   5.7767   5.8538   5.8837   6.0827   6.2132   6.2480
     6.4305   6.5396   6.7131   6.7725   6.9317   6.9430   7.0066   7.0720

     occupation numbers 
     1.0000   1.0000   1.0000   1.0000   1.0000   1.0000   1.0000   1.0000
     1.0000   1.0000   1.0000   1.0000   1.0000   1.0000   1.0000   1.0000
     1.0000   1.0000   1.0000   1.0000   1.0000   1.0000   1.0000   1.0000
     1.0000   1.0000   1.0000   1.0000   1.0000   1.0000   1.0000   1.0000
     1.0000   1.0000   1.0000   1.0000   1.0000   1.0000   1.0000   1.0000
     1.0000   1.0000   1.0000   1.0000   1.0000   1.0000   1.0000   1.0000
     1.0000   1.0000   1.0000   1.0000   1.0000   1.0000   1.0000   1.0000
     1.0000   1.0000   1.0000   1.0000   1.0000   1.0000   1.0000   1.0000

     highest occupied level (ev):     7.4626

!    total energy              =   -1059.54923869 Ry
     Harris-Foulkes estimate   =   -1059.54923869 Ry
     estimated scf accuracy    <          4.6E-11 Ry

     The total energy is the sum of the following terms:

     one-electron contribution =    -495.13563353 Ry
     hartree contribution      =     295.57031864 Ry
     xc contribution           =    -172.98321013 Ry
     ewald contribution        =    -687.00071368 Ry

     convergence has been achieved in  20 iterations

     Forces acting on atoms (Ry/au):

     atom    1 type  2   force =   0.96001626E-02 -0.32506209E-01 -0.56628819E-01
     atom    2 type  3   force =   0.25184892E-01 -0.55507772E-02 -0.23975752E-01
     atom    3 type  1   force =  -0.33409774E-01  0.13346022E+00 -0.86376101E-03
     atom    4 type  3   force =   0.59845224E-01  0.88444459E-01  0.10166365E-01
     atom    5 type  1   force =   0.48813245E-02 -0.68998615E-01  0.23160619E-01
     atom    6 type  3   force =  -0.34950822E-02 -0.26132577E-01 -0.70372819E-01
     atom    7 type  2   force =   0.16755917E-01 -0.84562709E-01  0.12310074E-01
     atom    8 type  3   force =  -0.61902518E-02 -0.11371143E-01 -0.66486319E-01
     atom    9 type  1   force =  -0.28414215E-01  0.43187803E-01  0.71160646E-01
     atom   10 type  3   force =  -0.13917052E-01 -0.65905868E-01 -0.41005552E-02
     atom   11 type  1   force =  -0.11905441E+00  0.15272107E-01  0.53525556E-01
     atom   12 type  3   force =   0.14610450E-01 -0.31196760E-01  0.26890288E-01
     atom   13 type  2   force =  -0.29821861E-01  0.96632232E-01  0.10950657E-01
     atom   14 type  3   force =   0.55354291E-01  0.17644273E-01  0.31223385E-01
     atom   15 type  2   force =   0.15833057E-01 -0.51032294E-01  0.10874191E-01
     atom   16 type  3   force =   0.32237323E-01 -0.17384138E-01 -0.27833756E-01
     The non-local contrib.  to forces
     atom    1 type  2   force =   0.62326048E-01  0.25550323E+00 -0.22394962E+00
     atom    2 type  3   force =   0.59289408E-01 -0.84894148E-01  0.34810224E-01
     atom    3 type  1   force =  -0.17624645E-01  0.56792390E-01  0.50870284E-01
     atom    4 type  3   force =   0.29908138E-01  0.26189743E-01 -0.12533694E+00
     atom    5 type  1   force =  -0.45126603E-01 -0.94068250E-02  0.26040767E-01
     atom    6 type  3   force =  -0.71038778E-01 -0.12576113E+00 -0.10276480E+00
     atom    7 type  2   force =  -0.23758458E+00 -0.32958918E+00 -0.53526739E-01
     atom    8 type  3   force =   0.93223198E-01  0.28292742E+00 -0.10584087E+00
     atom    9 type  1   force =  -0.34121645E-01 -0.44873229E-01  0.19962472E-01
     atom   10 type  3   force =  -0.30637469E-01  0.99838506E-01  0.36782597E-01
     atom   11 type  1   force =  -0.49384980E-01  0.23239846E-01  0.37648719E-01
     atom   12 type  3   force =  -0.61411947E-01 -0.16984695E+00  0.85863873E-01
     atom   13 type  2   force =  -0.88600750E-01  0.29711698E+00  0.16595210E+00
     atom   14 type  3   force =   0.65174700E-01  0.86958582E-01 -0.10821650E+00
     atom   15 type  2   force =   0.10782950E+00 -0.33970930E-01 -0.44649948E+00
     atom   16 type  3   force =   0.22960401E-02 -0.71886691E-01 -0.26019248E-01
     The ionic contribution  to forces
     atom    1 type  2   force =   0.24123170E+01  0.17432150E+01 -0.53721601E+01
     atom    2 type  3   force =  -0.89514449E+00  0.10880807E+01 -0.17515127E+01
     atom    3 type  1   force =  -0.20229123E+01  0.34488490E+01  0.20977364E+00
     atom    4 type  3   force =   0.18203691E+01  0.37729948E+01  0.28625505E+01
     atom    5 type  1   force =  -0.46515631E+00 -0.21198188E+01  0.14118608E+01
     atom    6 type  3   force =   0.17955882E+01  0.53909751E-01 -0.34919556E+00
     atom    7 type  2   force =   0.23380535E+00 -0.51637409E+01  0.97226697E+00
     atom    8 type  3   force =  -0.28693297E+01 -0.37936451E+01 -0.14982533E+01
     atom    9 type  1   force =  -0.76834373E+00  0.66275199E+00  0.16663973E+01
     atom   10 type  3   force =  -0.85088173E+00 -0.29890900E+01 -0.11888637E+01
     atom   11 type  1   force =  -0.49466367E+01  0.89616778E+00  0.21894702E+01
     atom   12 type  3   force =   0.13900917E+01  0.50442604E+00 -0.13079744E+01
     atom   13 type  2   force =  -0.20161324E+01  0.41304426E+01  0.18185294E+01
     atom   14 type  3   force =   0.23188320E+01 -0.85302379E+00  0.31991555E+01
     atom   15 type  2   force =   0.28986057E+01 -0.14689842E+01 -0.24152017E+01
     atom   16 type  3   force =   0.19649282E+01  0.87465198E-01 -0.44684288E+00
     The local contribution  to forces
     atom    1 type  2   force =  -0.24650463E+01 -0.20312199E+01  0.55394831E+01
     atom    2 type  3   force =   0.86200472E+00 -0.10091089E+01  0.16925982E+01
     atom    3 type  1   force =   0.20069087E+01 -0.33725291E+01 -0.26254705E+00
     atom    4 type  3   force =  -0.17893391E+01 -0.37093977E+01 -0.27272626E+01
     atom    5 type  1   force =   0.51649170E+00  0.20593276E+01 -0.14151481E+01
     atom    6 type  3   force =  -0.17284085E+01  0.44863146E-01  0.37971651E+00
     atom    7 type  2   force =   0.20534656E-01  0.54087679E+01 -0.90642618E+00
     atom    8 type  3   force =   0.27700511E+01  0.35002873E+01  0.15360661E+01
     atom    9 type  1   force =   0.77401745E+00 -0.57262193E+00 -0.16152467E+01
     atom   10 type  3   force =   0.86723118E+00  0.28222316E+01  0.11479845E+01
     atom   11 type  1   force =   0.48760396E+01 -0.90401832E+00 -0.21738319E+01
     atom   12 type  3   force =  -0.13137337E+01 -0.36686496E+00  0.12499263E+01
     atom   13 type  2   force =   0.20749116E+01 -0.43309274E+01 -0.19735305E+01
     atom   14 type  3   force =  -0.23271298E+01  0.78453913E+00 -0.30594316E+01
     atom   15 type  2   force =  -0.29905906E+01  0.14519176E+01  0.28725671E+01
     atom   16 type  3   force =  -0.19345394E+01 -0.33532163E-01  0.44405386E+00
     The core correction contribution to forces
     atom    1 type  2   force =   0.00000000E+00  0.00000000E+00  0.00000000E+00
     atom    2 type  3   force =  -0.96667226E-03  0.37276914E-03  0.12953822E-03
     atom    3 type  1   force =   0.21577757E-03  0.35632179E-03  0.10386797E-02
     atom    4 type  3   force =  -0.10922926E-02 -0.13395232E-02  0.21887750E-03
     atom    5 type  1   force =  -0.13310910E-02  0.89961051E-03  0.41410103E-03
     atom    6 type  3   force =   0.36410382E-03  0.85484780E-03  0.18710604E-02
     atom    7 type  2   force =   0.00000000E+00  0.00000000E+00  0.00000000E+00
     atom    8 type  3   force =  -0.13877318E-03 -0.94056749E-03  0.15411409E-02
     atom    9 type  1   force =   0.35391513E-04 -0.20718872E-02  0.46920760E-04
     atom   10 type  3   force =   0.36929926E-03  0.11102658E-02 -0.52424774E-05
     atom   11 type  1   force =   0.92944517E-03 -0.11802417E-03  0.23334483E-03
     atom   12 type  3   force =  -0.33201981E-03  0.10887672E-02 -0.92767718E-03
     atom   13 type  2   force =   0.00000000E+00  0.00000000E+00  0.00000000E+00
     atom   14 type  3   force =  -0.15201213E-02 -0.83080489E-03 -0.28173722E-03
     atom   15 type  2   force =   0.00000000E+00  0.00000000E+00  0.00000000E+00
     atom   16 type  3   force =  -0.44545487E-03  0.56957648E-03  0.97226653E-03
     The Hubbard contrib.    to forces
     atom    1 type  2   force =   0.00000000E+00  0.00000000E+00  0.00000000E+00
     atom    2 type  3   force =   0.00000000E+00  0.00000000E+00  0.00000000E+00
     atom    3 type  1   force =   0.00000000E+00  0.00000000E+00  0.00000000E+00
     atom    4 type  3   force =   0.00000000E+00  0.00000000E+00  0.00000000E+00
     atom    5 type  1   force =   0.00000000E+00  0.00000000E+00  0.00000000E+00
     atom    6 type  3   force =   0.00000000E+00  0.00000000E+00  0.00000000E+00
     atom    7 type  2   force =   0.00000000E+00  0.00000000E+00  0.00000000E+00
     atom    8 type  3   force =   0.00000000E+00  0.00000000E+00  0.00000000E+00
     atom    9 type  1   force =   0.00000000E+00  0.00000000E+00  0.00000000E+00
     atom   10 type  3   force =   0.00000000E+00  0.00000000E+00  0.00000000E+00
     atom   11 type  1   force =   0.00000000E+00  0.00000000E+00  0.00000000E+00
     atom   12 type  3   force =   0.00000000E+00  0.00000000E+00  0.00000000E+00
     atom   13 type  2   force =   0.00000000E+00  0.00000000E+00  0.00000000E+00
     atom   14 type  3   force =   0.00000000E+00  0.00000000E+00  0.00000000E+00
     atom   15 type  2   force =   0.00000000E+00  0.00000000E+00  0.00000000E+00
     atom   16 type  3   force =   0.00000000E+00  0.00000000E+00  0.00000000E+00
     The SCF correction term to forces
     atom    1 type  2   force =   0.34172375E-05 -0.45482032E-05 -0.20144729E-05
     atom    2 type  3   force =   0.19435637E-05 -0.12643166E-05 -0.79934999E-06
     atom    3 type  1   force =   0.27250150E-05 -0.84404218E-05  0.91255825E-06
     atom    4 type  3   force =  -0.58198667E-06 -0.29643269E-05 -0.31995816E-05
     atom    5 type  1   force =   0.36559452E-05 -0.29159748E-06 -0.66673919E-05
     atom    6 type  3   force =  -0.47736259E-07  0.75028624E-06  0.20245163E-06
     atom    7 type  2   force =   0.51878050E-06 -0.60437827E-06 -0.37416122E-05
     atom    8 type  3   force =   0.39287656E-05 -0.29917779E-06  0.82079832E-06
     atom    9 type  1   force =  -0.16629674E-05  0.28021740E-05  0.84489087E-06
     atom   10 type  3   force =   0.16971311E-05  0.37499525E-05  0.15761435E-05
     atom   11 type  1   force =  -0.17867772E-05  0.76213484E-06  0.54333263E-05
     atom   12 type  3   force =  -0.34827847E-05  0.27898777E-06  0.24647146E-05
     atom   13 type  2   force =  -0.27638871E-06  0.60071620E-08 -0.13615324E-06
     atom   14 type  3   force =  -0.24456692E-05  0.10921583E-05 -0.21141971E-05
     atom   15 type  2   force =  -0.11498480E-04  0.52328621E-05  0.84435109E-05
     atom   16 type  3   force =  -0.20337301E-05 -0.11885743E-06  0.24762357E-05

     Total force =     0.332311     Total SCF correction =     0.000024


     entering subroutine stress ...

          total   stress  (Ry/bohr**3)                   (kbar)     P=   47.27
   0.0001515109  -0.0002202322   0.0003051605         22.29    -32.40     44.89
  -0.0002202322   0.0003429469  -0.0001610450        -32.40     50.45    -23.69
   0.0003051605  -0.0001610450   0.0004694646         44.89    -23.69     69.06

     kinetic stress (kbar)  20269.96    -25.45     42.62
                              -25.45  20277.33    -22.66
                               42.62    -22.66  20344.76

     local   stress (kbar)  -2345.11   -338.29    622.67
                             -338.29  -4907.68   1410.77
                              622.67   1410.77  -5797.22

     nonloc. stress (kbar)   5114.34      2.17     -3.11
                                2.17   5133.44     -2.13
                               -3.11     -2.13   5125.98

     hartree stress (kbar)  10467.48    119.70   -267.55
                              119.70  11441.23   -544.78
                             -267.55   -544.78  11758.69

     exc-cor stress (kbar)  -5144.18      0.58     -0.68
                                0.58  -5142.45     -0.68
                               -0.68     -0.68  -5141.58

     corecor stress (kbar)  -1019.61      0.07     -0.11
                                0.07  -1019.73      0.09
                               -0.11      0.09  -1019.97

     ewald   stress (kbar) -27320.60    208.83   -348.95
                              208.83 -25731.69   -864.31
                             -348.95   -864.31 -25201.60

     hubbard stress (kbar)      0.00      0.00      0.00
                                0.00      0.00      0.00
                                0.00      0.00      0.00

     london  stress (kbar)      0.00      0.00      0.00
                                0.00      0.00      0.00
                                0.00      0.00      0.00

     XDM     stress (kbar)      0.00      0.00      0.00
                                0.00      0.00      0.00
                                0.00      0.00      0.00

     dft-nl  stress (kbar)      0.00      0.00      0.00
                                0.00      0.00      0.00
                                0.00      0.00      0.00



     Writing output data file mix.dummy2821.save

     init_run     :     16.52s CPU     16.76s WALL (       1 calls)
     electrons    :    753.77s CPU    795.00s WALL (       1 calls)
     forces       :      6.59s CPU      7.07s WALL (       1 calls)
     stress       :     12.00s CPU     12.25s WALL (       1 calls)

     Called by init_run:
     wfcinit      :     14.36s CPU     14.58s WALL (       1 calls)
     potinit      :      0.57s CPU      0.57s WALL (       1 calls)

     Called by electrons:
     c_bands      :    658.12s CPU    695.07s WALL (      20 calls)
     sum_band     :     87.88s CPU     92.11s WALL (      20 calls)
     v_of_rho     :      0.80s CPU      0.80s WALL (      21 calls)
     v_h          :      0.04s CPU      0.05s WALL (      21 calls)
     v_xc         :      0.85s CPU      0.85s WALL (      23 calls)
     newd         :      5.68s CPU      5.67s WALL (      21 calls)
     mix_rho      :      1.42s CPU      1.41s WALL (      20 calls)

     Called by c_bands:
     init_us_2    :      3.56s CPU      3.68s WALL (    1548 calls)
     cegterg      :    630.21s CPU    666.33s WALL (     720 calls)

     Called by sum_band:
     sum_band:bec :      1.02s CPU      1.03s WALL (     720 calls)
     addusdens    :      5.69s CPU      5.68s WALL (      20 calls)

     Called by *egterg:
     h_psi        :    325.86s CPU    335.37s WALL (    2157 calls)
     s_psi        :     31.83s CPU     31.35s WALL (    2157 calls)
     g_psi        :      0.37s CPU      0.37s WALL (    1401 calls)
     cdiaghg      :     84.61s CPU     93.85s WALL (    2121 calls)
     cegterg:over :     94.92s CPU    104.68s WALL (    1401 calls)
     cegterg:upda :     11.78s CPU     14.36s WALL (    1401 calls)
     cegterg:last :      7.58s CPU      7.94s WALL (     720 calls)

     Called by h_psi:
     h_psi:vloc   :    205.92s CPU    208.24s WALL (    2157 calls)
     h_psi:vnl    :    119.28s CPU    126.48s WALL (    2157 calls)
     add_vuspsi   :     32.60s CPU     33.84s WALL (    2157 calls)

     General routines
     calbec       :    124.49s CPU    134.24s WALL (    2949 calls)
     fft          :      2.88s CPU      2.87s WALL (     357 calls)
     ffts         :      0.85s CPU      0.85s WALL (     556 calls)
     fftw         :    236.86s CPU    239.87s WALL (  266686 calls)
     interpolate  :      0.15s CPU      0.17s WALL (      41 calls)

     Parallel routines
     fft_scatter  :    133.51s CPU    136.28s WALL (  267599 calls)

     PWSCF        : 13m11.29s CPU    13m53.88s WALL


   This run was terminated on:   5:29:57  16Nov2017            

=------------------------------------------------------------------------------=
   JOB DONE.
=------------------------------------------------------------------------------=
