
     Program PWSCF v.5.1 starts on  8Dec2017 at  3:45: 1 

     This program is part of the open-source Quantum ESPRESSO suite
     for quantum simulation of materials; please cite
         "P. Giannozzi et al., J. Phys.:Condens. Matter 21 395502 (2009);
          URL http://www.quantum-espresso.org", 
     in publications or presentations arising from this work. More details at
     http://www.quantum-espresso.org/quote

     Parallel version (MPI), running on    16 processors
     R & G space division:  proc/nbgrp/npool/nimage =      16
     Waiting for input...
     Reading input from standard input
Warning: card &IONS ignored
Warning: card   ION_DYNAMICS='BFGS', ignored
Warning: card / ignored
Warning: card &CELL ignored
Warning: card  CELL_DYNAMICS = 'BFGS' ignored
Warning: card / ignored

     Current dimensions of program PWSCF are:
     Max number of different atomic species (ntypx) = 10
     Max number of k-points (npk) =  40000
     Max angular momentum in pseudopotentials (lmaxx) =  3
 kfg - two_fermi_energies  F

     Subspace diagonalization in iterative solution of the eigenvalue problem:
     a serial algorithm will be used


     Parallelization info
     --------------------
     sticks:   dense  smooth     PW     G-vecs:    dense   smooth      PW
     Min         126     101     29                 3743     2675     418
     Max         127     102     30                 3746     2693     420
     Sum        2023    1627    467                59909    42891    6711



     bravais-lattice index     =            0
     lattice parameter (alat)  =    11.941114832  a.u.
     unit-cell volume          =    1255.7127 (a.u.)^3
     number of atoms/cell      =           16
     number of atomic types    =            3
     number of electrons       =       128.00
     number of Kohn-Sham states=           64
     kinetic-energy cutoff     =      40.0000  Ry
     charge density cutoff     =     200.0000  Ry
     convergence threshold     =      1.0E-10
     mixing beta               =       0.3000
     number of iterations used =            8  local-TF  mixing
     Exchange-correlation      = SLA  PW   PSX  PSC ( 1  4 10  8 0)
     A smooth kinetic-energy cutoff is imposed at      39.5000 Ry
     height of the smooth step-function =             800.0000 Ry
     width of the smooth step-function  =               1.0000 Ry


     celldm(1)=  11.941115  celldm(2)=   0.000000  celldm(3)=   0.000000
     celldm(4)=   0.000000  celldm(5)=   0.000000  celldm(6)=   0.000000

     crystal axes: (cart. coord. in units of alat)
               a(1) = (   0.013849308078   0.690082557513   0.723598134659 )  
               a(2) = (   0.751140727937   0.006761005018   0.730686437718 )  
               a(3) = (   0.747300062346   0.693330194983   0.010601670608 )  

     reciprocal axes: (cart. coord. in units 2 pi/alat)
               b(1) = ( -0.686838  0.729609  0.699313 )  
               b(2) = (  0.670351 -0.733025  0.686243 )  
               b(3) = (  0.677083  0.723271 -0.702730 )  


     PseudoPot. # 1 for Ca read from file:
     /users/kfg/psuedo/gbrv_1.5/ca.pbesol.UPF
     MD5 check sum: 0533207b58cddeaa036efa5b63902087
     Pseudo is Ultrasoft + core correction, Zval = 10.0
     Generated by new atomic code, or converted to UPF format
     Using radial grid of  845 points,  6 beta functions with: 
                l(1) =   0
                l(2) =   0
                l(3) =   1
                l(4) =   1
                l(5) =   2
                l(6) =   2
     Q(r) pseudized with  8 coefficients,  rinner =    1.500   1.500   1.500
                                                       1.500   1.500

     PseudoPot. # 2 for Mg read from file:
     /users/kfg/psuedo/gbrv_1.5/mg.pbesol.UPF
     MD5 check sum: 4059f37963cf5867752dbf5ab2400678
     Pseudo is Ultrasoft, Zval = 10.0
     Generated by new atomic code, or converted to UPF format
     Using radial grid of  821 points,  7 beta functions with: 
                l(1) =   0
                l(2) =   0
                l(3) =   0
                l(4) =   1
                l(5) =   1
                l(6) =   2
                l(7) =   2
     Q(r) pseudized with  8 coefficients,  rinner =    1.200   1.200   1.200
                                                       1.200   1.200

     PseudoPot. # 3 for O  read from file:
     /users/kfg/psuedo/gbrv_1.5/o.pbesol.UPF
     MD5 check sum: 501638753501ef6325af9037351f7734
     Pseudo is Ultrasoft + core correction, Zval =  6.0
     Generated by new atomic code, or converted to UPF format
     Using radial grid of  737 points,  5 beta functions with: 
                l(1) =   0
                l(2) =   0
                l(3) =   1
                l(4) =   1
                l(5) =   2
     Q(r) pseudized with  8 coefficients,  rinner =    0.900   0.900   0.900
                                                       0.900   0.900

     atomic species   valence    mass     pseudopotential
        Ca            10.00    40.07800     Ca( 1.00)
        Mg            10.00    40.07800     Mg( 1.00)
        O              6.00    15.99940     O ( 1.00)

     No symmetry found


                                    s                        frac. trans.

      isym =  1     identity                                     

 cryst.   s( 1) = (     1          0          0      )
                  (     0          1          0      )
                  (     0          0          1      )

 cart.    s( 1) = (  1.0000000 -0.0000000  0.0000000 )
                  (  0.0000000  1.0000000  0.0000000 )
                  ( -0.0000000  0.0000000  1.0000000 )


     point group C_1 (1)    
     there are  1 classes
     the character table:

       E    
A      1.00

     the symmetry operations in each class:
     E        1

   Cartesian axes

     site n.     atom                  positions (alat units)
         1           Ca  tau(   1) = (   -0.01304557743   -0.00658820283   -0.00889259583  )
         2           O   tau(   2) = (    0.41071537424    0.34845003709    0.40398970857  )
         3           Mg  tau(   3) = (    0.39283036153    0.36266307269   -0.01957543218  )
         4           O   tau(   4) = (    0.77046167490    0.66640176682    0.36978020107  )
         5           Mg  tau(   5) = (    0.37880386440    0.00931813547    0.37549253982  )
         6           O   tau(   6) = (    0.71581123277    0.37406917464    0.71916022154  )
         7           Mg  tau(   7) = (    0.71744333530    0.33865589587    0.36500880552  )
         8           O   tau(   8) = (    1.13414108348    0.69323245262    0.74456074013  )
         9           Ca  tau(   9) = (    0.01535645785    0.34399641368    0.34411669100  )
        10           O   tau(  10) = (    0.36544553214    0.70117848080    0.73187785116  )
        11           Ca  tau(  11) = (    0.37718133215    0.69490132313    0.36453139520  )
        12           O   tau(  12) = (    0.73602633868    1.03212982464    0.74867766469  )
        13           Mg  tau(  13) = (    0.38149927732    0.33593840093    0.72445769087  )
        14           O   tau(  14) = (    0.78809316480    0.68866357282    1.06776456418  )
        15           Ca  tau(  15) = (    0.76341557647    0.69788038428    0.71308578545  )
        16           O   tau(  16) = (    1.13956156154    1.06015181240    1.14528162669  )

   Crystallographic axes

     site n.     atom                  positions (cryst. coord.)
         1           Ca  tau(   1) = (   -0.00206532966   -0.01001827328   -0.00734891008  )
         2           O   tau(   2) = (    0.25465289643    0.29713571588    0.24621685341  )
         3           Mg  tau(   3) = (   -0.01889781315   -0.01594052732    0.54203884473  )
         4           O   tau(   4) = (    0.21562286151    0.28174927456    0.74380040934  )
         5           Mg  tau(   5) = (    0.00920881606    0.50478004294   -0.00064836102  )
         6           O   tau(   6) = (    0.28419649764    0.69916094723    0.24984213770  )
         7           Mg  tau(   7) = (    0.00957484485    0.48318001593    0.47420649254  )
         8           O   tau(   8) = (    0.24749912322    0.76306488284    0.74607819323  )
         9           Ca  tau(   9) = (    0.48108085519   -0.00571622414    0.01737924335  )
        10           O   tau(  10) = (    0.77239629907    0.23324108701    0.24026693828  )
        11           Ca  tau(  11) = (    0.50286555251   -0.00637933257    0.50181819540  )
        12           O   tau(  12) = (    0.77108085260    0.25059329660    0.71874284272  )
        13           Mg  tau(  13) = (    0.48969855333    0.50664085196   -0.00781652169  )
        14           O   tau(  14) = (    0.70786510017    0.75623679027    0.28134544665  )
        15           Ca  tau(  15) = (    0.48350765119    0.48954226228    0.52054618808  )
        16           O   tau(  16) = (    0.79171323899    0.77272918984    0.73353200736  )

     number of k points=    36
                       cart. coord. in units 2pi/alat
        k(    1) = (   0.0000000   0.0000000   0.0000000), wk =   0.0312500
        k(    2) = (   0.1692709   0.1808177  -0.1756824), wk =   0.0625000
        k(    3) = (  -0.3385417  -0.3616355   0.3513648), wk =   0.0312500
        k(    4) = (   0.1675877  -0.1832563   0.1715607), wk =   0.0625000
        k(    5) = (   0.3368585  -0.0024385  -0.0041217), wk =   0.0625000
        k(    6) = (  -0.1709540  -0.5448918   0.5229255), wk =   0.0625000
        k(    7) = (  -0.0016832  -0.3640740   0.3472431), wk =   0.0625000
        k(    8) = (  -0.3351754   0.3665126  -0.3431214), wk =   0.0312500
        k(    9) = (  -0.1659045   0.5473303  -0.5188038), wk =   0.0625000
        k(   10) = (  -0.6737171   0.0048771   0.0082434), wk =   0.0312500
        k(   11) = (  -0.1717094   0.1824022   0.1748283), wk =   0.0625000
        k(   12) = (  -0.0024385   0.3632200  -0.0008541), wk =   0.0625000
        k(   13) = (  -0.5102511  -0.1792333   0.5261931), wk =   0.0625000
        k(   14) = (  -0.3409803   0.0015845   0.3505107), wk =   0.0625000
        k(   15) = (  -0.0041217  -0.0008541   0.3463890), wk =   0.0625000
        k(   16) = (   0.1651491   0.1799637   0.1707066), wk =   0.0625000
        k(   17) = (  -0.3426634  -0.3624895   0.6977538), wk =   0.0625000
        k(   18) = (  -0.1733926  -0.1816718   0.5220714), wk =   0.0625000
        k(   19) = (  -0.5068848   0.5489148  -0.1682930), wk =   0.0625000
        k(   20) = (  -0.3376139   0.7297325  -0.3439754), wk =   0.0625000
        k(   21) = (  -0.8454265   0.1872793   0.1830718), wk =   0.0625000
        k(   22) = (  -0.6761556   0.3680970   0.0073894), wk =   0.0625000
        k(   23) = (  -0.3392971   0.3656585   0.0032677), wk =   0.0625000
        k(   24) = (  -0.1700262   0.5464763  -0.1724147), wk =   0.0625000
        k(   25) = (  -0.6778388   0.0040230   0.3546325), wk =   0.0625000
        k(   26) = (  -0.5085679   0.1848408   0.1789501), wk =   0.0625000
        k(   27) = (   0.3434188  -0.3648044  -0.3496567), wk =   0.0312500
        k(   28) = (   0.5126897  -0.1839867  -0.5253391), wk =   0.0625000
        k(   29) = (   0.0048771  -0.7264399   0.0017081), wk =   0.0312500
        k(   30) = (   0.5110065  -0.5480607  -0.1780960), wk =   0.0625000
        k(   31) = (   0.6802773  -0.3672430  -0.3537784), wk =   0.0625000
        k(   32) = (   0.1724648  -0.9096962   0.1732688), wk =   0.0625000
        k(   33) = (   0.3417356  -0.7288785  -0.0024136), wk =   0.0625000
        k(   34) = (   0.0082434   0.0017081  -0.6927781), wk =   0.0312500
        k(   35) = (   0.1775143   0.1825259  -0.8684605), wk =   0.0625000
        k(   36) = (  -0.3302983  -0.3599274  -0.3414133), wk =   0.0312500

                       cryst. coord.
        k(    1) = (   0.0000000   0.0000000   0.0000000), wk =   0.0312500
        k(    2) = (   0.0000000   0.0000000   0.2500000), wk =   0.0625000
        k(    3) = (   0.0000000  -0.0000000  -0.5000000), wk =   0.0312500
        k(    4) = (  -0.0000000   0.2500000  -0.0000000), wk =   0.0625000
        k(    5) = (  -0.0000000   0.2500000   0.2500000), wk =   0.0625000
        k(    6) = (   0.0000000   0.2500000  -0.5000000), wk =   0.0625000
        k(    7) = (   0.0000000   0.2500000  -0.2500000), wk =   0.0625000
        k(    8) = (   0.0000000  -0.5000000   0.0000000), wk =   0.0312500
        k(    9) = (   0.0000000  -0.5000000   0.2500000), wk =   0.0625000
        k(   10) = (   0.0000000  -0.5000000  -0.5000000), wk =   0.0312500
        k(   11) = (   0.2500000   0.0000000  -0.0000000), wk =   0.0625000
        k(   12) = (   0.2500000  -0.0000000   0.2500000), wk =   0.0625000
        k(   13) = (   0.2500000   0.0000000  -0.5000000), wk =   0.0625000
        k(   14) = (   0.2500000   0.0000000  -0.2500000), wk =   0.0625000
        k(   15) = (   0.2500000   0.2500000  -0.0000000), wk =   0.0625000
        k(   16) = (   0.2500000   0.2500000   0.2500000), wk =   0.0625000
        k(   17) = (   0.2500000   0.2500000  -0.5000000), wk =   0.0625000
        k(   18) = (   0.2500000   0.2500000  -0.2500000), wk =   0.0625000
        k(   19) = (   0.2500000  -0.5000000   0.0000000), wk =   0.0625000
        k(   20) = (   0.2500000  -0.5000000   0.2500000), wk =   0.0625000
        k(   21) = (   0.2500000  -0.5000000  -0.5000000), wk =   0.0625000
        k(   22) = (   0.2500000  -0.5000000  -0.2500000), wk =   0.0625000
        k(   23) = (   0.2500000  -0.2500000   0.0000000), wk =   0.0625000
        k(   24) = (   0.2500000  -0.2500000   0.2500000), wk =   0.0625000
        k(   25) = (   0.2500000  -0.2500000  -0.5000000), wk =   0.0625000
        k(   26) = (   0.2500000  -0.2500000  -0.2500000), wk =   0.0625000
        k(   27) = (  -0.5000000   0.0000000   0.0000000), wk =   0.0312500
        k(   28) = (  -0.5000000   0.0000000   0.2500000), wk =   0.0625000
        k(   29) = (  -0.5000000   0.0000000  -0.5000000), wk =   0.0312500
        k(   30) = (  -0.5000000   0.2500000  -0.0000000), wk =   0.0625000
        k(   31) = (  -0.5000000   0.2500000   0.2500000), wk =   0.0625000
        k(   32) = (  -0.5000000   0.2500000  -0.5000000), wk =   0.0625000
        k(   33) = (  -0.5000000   0.2500000  -0.2500000), wk =   0.0625000
        k(   34) = (  -0.5000000  -0.5000000   0.0000000), wk =   0.0312500
        k(   35) = (  -0.5000000  -0.5000000   0.2500000), wk =   0.0625000
        k(   36) = (  -0.5000000  -0.5000000  -0.5000000), wk =   0.0312500

     Dense  grid:    59909 G-vectors     FFT dimensions: (  54,  60,  60)

     Smooth grid:    42891 G-vectors     FFT dimensions: (  50,  54,  50)

     Largest allocated arrays     est. size (Mb)     dimensions
        Kohn-Sham Wavefunctions         0.33 Mb     (     338,   64)
        NL pseudopotentials             1.30 Mb     (     338,  252)
        Each V/rho on FFT grid          0.20 Mb     (   12960)
        Each G-vector array             0.03 Mb     (    3744)
        G-vector shells                 0.03 Mb     (    3720)
     Largest temporary arrays     est. size (Mb)     dimensions
        Auxiliary wavefunctions         1.32 Mb     (     338,  256)
        Each subspace H/S matrix        1.00 Mb     (     256,  256)
        Each <psi_i|beta_j> matrix      0.25 Mb     (     252,   64)
        Arrays for rho mixing           1.58 Mb     (   12960,    8)

     Check: negative/imaginary core charge=   -0.000003    0.000000

     Initial potential from superposition of free atoms

     starting charge  126.77837, renormalised to  128.00000
     Starting wfc are   92 randomized atomic wfcs

     total cpu time spent up to now is       18.1 secs

     Self-consistent Calculation

     iteration #  1     ecut=    40.00 Ry     beta=0.30
     Davidson diagonalization with overlap
     ethr =  1.00E-02,  avg # of iterations =  2.0

     total cpu time spent up to now is       54.9 secs

     total energy              =   -1059.91735250 Ry
     Harris-Foulkes estimate   =   -1060.56169901 Ry
     estimated scf accuracy    <       3.31364468 Ry

     iteration #  2     ecut=    40.00 Ry     beta=0.30
     Davidson diagonalization with overlap
     ethr =  2.59E-03,  avg # of iterations =  1.5

     total cpu time spent up to now is       85.3 secs

     total energy              =   -1059.43872639 Ry
     Harris-Foulkes estimate   =   -1060.02157195 Ry
     estimated scf accuracy    <       1.42579031 Ry

     iteration #  3     ecut=    40.00 Ry     beta=0.30
     Davidson diagonalization with overlap
     ethr =  1.11E-03,  avg # of iterations =  2.0

     total cpu time spent up to now is      125.5 secs

     total energy              =   -1059.66105363 Ry
     Harris-Foulkes estimate   =   -1059.70568830 Ry
     estimated scf accuracy    <       0.17209220 Ry

     iteration #  4     ecut=    40.00 Ry     beta=0.30
     Davidson diagonalization with overlap
     ethr =  1.34E-04,  avg # of iterations =  2.0

     total cpu time spent up to now is      163.0 secs

     total energy              =   -1059.61675460 Ry
     Harris-Foulkes estimate   =   -1059.67933435 Ry
     estimated scf accuracy    <       0.10917380 Ry

     iteration #  5     ecut=    40.00 Ry     beta=0.30
     Davidson diagonalization with overlap
     ethr =  8.53E-05,  avg # of iterations =  2.0

     total cpu time spent up to now is      203.0 secs

     total energy              =   -1059.63321838 Ry
     Harris-Foulkes estimate   =   -1059.63464837 Ry
     estimated scf accuracy    <       0.01604489 Ry

     iteration #  6     ecut=    40.00 Ry     beta=0.30
     Davidson diagonalization with overlap
     ethr =  1.25E-05,  avg # of iterations =  1.0

     total cpu time spent up to now is      233.2 secs

     total energy              =   -1059.62982271 Ry
     Harris-Foulkes estimate   =   -1059.63352671 Ry
     estimated scf accuracy    <       0.00960475 Ry

     iteration #  7     ecut=    40.00 Ry     beta=0.30
     Davidson diagonalization with overlap
     ethr =  7.50E-06,  avg # of iterations =  2.0

     total cpu time spent up to now is      267.8 secs

     total energy              =   -1059.63045639 Ry
     Harris-Foulkes estimate   =   -1059.63075319 Ry
     estimated scf accuracy    <       0.00133786 Ry

     iteration #  8     ecut=    40.00 Ry     beta=0.30
     Davidson diagonalization with overlap
     ethr =  1.05E-06,  avg # of iterations =  2.0

     total cpu time spent up to now is      304.9 secs

     total energy              =   -1059.63035697 Ry
     Harris-Foulkes estimate   =   -1059.63054653 Ry
     estimated scf accuracy    <       0.00041541 Ry

     iteration #  9     ecut=    40.00 Ry     beta=0.30
     Davidson diagonalization with overlap
     ethr =  3.25E-07,  avg # of iterations =  3.0

     total cpu time spent up to now is      349.4 secs

     total energy              =   -1059.63042283 Ry
     Harris-Foulkes estimate   =   -1059.63045412 Ry
     estimated scf accuracy    <       0.00015138 Ry

     iteration # 10     ecut=    40.00 Ry     beta=0.30
     Davidson diagonalization with overlap
     ethr =  1.18E-07,  avg # of iterations =  2.0

     total cpu time spent up to now is      390.3 secs

     total energy              =   -1059.63041034 Ry
     Harris-Foulkes estimate   =   -1059.63042819 Ry
     estimated scf accuracy    <       0.00005712 Ry

     iteration # 11     ecut=    40.00 Ry     beta=0.30
     Davidson diagonalization with overlap
     ethr =  4.46E-08,  avg # of iterations =  2.0

     total cpu time spent up to now is      432.3 secs

     total energy              =   -1059.63041417 Ry
     Harris-Foulkes estimate   =   -1059.63041657 Ry
     estimated scf accuracy    <       0.00000929 Ry

     iteration # 12     ecut=    40.00 Ry     beta=0.30
     Davidson diagonalization with overlap
     ethr =  7.26E-09,  avg # of iterations =  2.0

     total cpu time spent up to now is      470.0 secs

     total energy              =   -1059.63041319 Ry
     Harris-Foulkes estimate   =   -1059.63041465 Ry
     estimated scf accuracy    <       0.00000332 Ry

     iteration # 13     ecut=    40.00 Ry     beta=0.30
     Davidson diagonalization with overlap
     ethr =  2.59E-09,  avg # of iterations =  2.6

     total cpu time spent up to now is      511.5 secs

     total energy              =   -1059.63041369 Ry
     Harris-Foulkes estimate   =   -1059.63041376 Ry
     estimated scf accuracy    <       0.00000028 Ry

     iteration # 14     ecut=    40.00 Ry     beta=0.30
     Davidson diagonalization with overlap
     ethr =  2.22E-10,  avg # of iterations =  2.6

     total cpu time spent up to now is      553.5 secs

     total energy              =   -1059.63041370 Ry
     Harris-Foulkes estimate   =   -1059.63041376 Ry
     estimated scf accuracy    <       0.00000023 Ry

     iteration # 15     ecut=    40.00 Ry     beta=0.30
     Davidson diagonalization with overlap
     ethr =  1.76E-10,  avg # of iterations =  2.0

     total cpu time spent up to now is      588.7 secs

     total energy              =   -1059.63041370 Ry
     Harris-Foulkes estimate   =   -1059.63041371 Ry
     estimated scf accuracy    <       0.00000007 Ry

     iteration # 16     ecut=    40.00 Ry     beta=0.30
     Davidson diagonalization with overlap
     ethr =  5.66E-11,  avg # of iterations =  2.0

     total cpu time spent up to now is      624.9 secs

     total energy              =   -1059.63041369 Ry
     Harris-Foulkes estimate   =   -1059.63041370 Ry
     estimated scf accuracy    <       0.00000003 Ry

     iteration # 17     ecut=    40.00 Ry     beta=0.30
     Davidson diagonalization with overlap
     ethr =  2.03E-11,  avg # of iterations =  2.0

     total cpu time spent up to now is      661.6 secs

     total energy              =   -1059.63041369 Ry
     Harris-Foulkes estimate   =   -1059.63041369 Ry
     estimated scf accuracy    <          6.8E-09 Ry

     iteration # 18     ecut=    40.00 Ry     beta=0.30
     Davidson diagonalization with overlap
     ethr =  5.28E-12,  avg # of iterations =  2.3

     total cpu time spent up to now is      700.4 secs

     total energy              =   -1059.63041369 Ry
     Harris-Foulkes estimate   =   -1059.63041369 Ry
     estimated scf accuracy    <          1.4E-09 Ry

     iteration # 19     ecut=    40.00 Ry     beta=0.30
     Davidson diagonalization with overlap
     ethr =  1.07E-12,  avg # of iterations =  1.9

     total cpu time spent up to now is      733.8 secs

     total energy              =   -1059.63041369 Ry
     Harris-Foulkes estimate   =   -1059.63041369 Ry
     estimated scf accuracy    <          8.6E-10 Ry

     iteration # 20     ecut=    40.00 Ry     beta=0.30
     Davidson diagonalization with overlap
     ethr =  6.68E-13,  avg # of iterations =  2.0

     total cpu time spent up to now is      770.4 secs

     total energy              =   -1059.63041369 Ry
     Harris-Foulkes estimate   =   -1059.63041369 Ry
     estimated scf accuracy    <          1.2E-10 Ry

     iteration # 21     ecut=    40.00 Ry     beta=0.30
     Davidson diagonalization with overlap
     ethr =  1.00E-13,  avg # of iterations =  2.0

     total cpu time spent up to now is      808.0 secs

     End of self-consistent calculation

          k = 0.0000 0.0000 0.0000 (  5361 PWs)   bands (ev):

   -65.3787 -65.2468 -64.8872 -64.5914 -32.3633 -32.3423 -32.3281 -32.2458
   -32.2112 -32.1762 -31.9039 -31.8564 -31.8386 -31.5887 -31.5673 -31.5409
   -29.5565 -29.0066 -28.9429 -28.3468 -11.6912 -11.4095 -11.1595 -11.1196
   -10.5808 -10.4561 -10.3193 -10.2258 -10.0777 -10.0205  -9.8229  -9.6750
    -8.5662  -7.8984  -7.7440  -7.6629  -7.4039  -6.6463  -6.3657  -6.3201
     3.3156   3.9107   4.0226   4.8065   4.9805   5.1065   5.1799   6.0627
     6.1951   6.2520   6.3029   6.4176   6.4651   6.5619   6.5727   6.8522
     6.9286   6.9844   7.1138   7.2375   7.3279   7.7120   7.8184   7.8518

     occupation numbers 
     1.0000   1.0000   1.0000   1.0000   1.0000   1.0000   1.0000   1.0000
     1.0000   1.0000   1.0000   1.0000   1.0000   1.0000   1.0000   1.0000
     1.0000   1.0000   1.0000   1.0000   1.0000   1.0000   1.0000   1.0000
     1.0000   1.0000   1.0000   1.0000   1.0000   1.0000   1.0000   1.0000
     1.0000   1.0000   1.0000   1.0000   1.0000   1.0000   1.0000   1.0000
     1.0000   1.0000   1.0000   1.0000   1.0000   1.0000   1.0000   1.0000
     1.0000   1.0000   1.0000   1.0000   1.0000   1.0000   1.0000   1.0000
     1.0000   1.0000   1.0000   1.0000   1.0000   1.0000   1.0000   1.0000

          k = 0.1693 0.1808-0.1757 (  5363 PWs)   bands (ev):

   -65.3787 -65.2468 -64.8872 -64.5914 -32.3633 -32.3423 -32.3281 -32.2458
   -32.2111 -32.1761 -31.9040 -31.8565 -31.8388 -31.5887 -31.5674 -31.5409
   -29.5546 -28.9988 -28.9520 -28.3477 -11.5696 -11.3184 -11.0857 -11.0426
   -10.6534 -10.5000 -10.4647 -10.3087 -10.2240 -10.1545  -9.8964  -9.6828
    -8.3266  -7.8402  -7.5479  -7.4772  -7.3986  -6.7320  -6.5195  -6.4664
     3.5390   4.1985   4.2960   4.8230   5.0342   5.1949   5.3049   5.8655
     6.0323   6.1073   6.1962   6.2925   6.4123   6.4869   6.5850   6.7103
     6.8177   6.9652   7.0548   7.1335   7.3362   7.4366   7.5681   7.7406

     occupation numbers 
     1.0000   1.0000   1.0000   1.0000   1.0000   1.0000   1.0000   1.0000
     1.0000   1.0000   1.0000   1.0000   1.0000   1.0000   1.0000   1.0000
     1.0000   1.0000   1.0000   1.0000   1.0000   1.0000   1.0000   1.0000
     1.0000   1.0000   1.0000   1.0000   1.0000   1.0000   1.0000   1.0000
     1.0000   1.0000   1.0000   1.0000   1.0000   1.0000   1.0000   1.0000
     1.0000   1.0000   1.0000   1.0000   1.0000   1.0000   1.0000   1.0000
     1.0000   1.0000   1.0000   1.0000   1.0000   1.0000   1.0000   1.0000
     1.0000   1.0000   1.0000   1.0000   1.0000   1.0000   1.0000   1.0000

          k =-0.3385-0.3616 0.3514 (  5358 PWs)   bands (ev):

   -65.3787 -65.2468 -64.8872 -64.5914 -32.3633 -32.3422 -32.3281 -32.2458
   -32.2110 -32.1759 -31.9041 -31.8565 -31.8389 -31.5888 -31.5675 -31.5409
   -29.5527 -28.9848 -28.9672 -28.3486 -11.4016 -11.1691 -10.9735 -10.9368
   -10.7674 -10.6934 -10.5750 -10.5089 -10.3618 -10.1811  -9.9395  -9.6850
    -8.0618  -7.8457  -7.4732  -7.2504  -7.0847  -6.8698  -6.7786  -6.6959
     3.9449   4.4391   4.6550   4.7953   5.1418   5.2843   5.4887   5.6390
     5.7702   5.8662   6.0597   6.1623   6.1898   6.3904   6.6113   6.6512
     6.7459   6.8209   6.9880   7.1506   7.2482   7.3209   7.4349   7.5822

     occupation numbers 
     1.0000   1.0000   1.0000   1.0000   1.0000   1.0000   1.0000   1.0000
     1.0000   1.0000   1.0000   1.0000   1.0000   1.0000   1.0000   1.0000
     1.0000   1.0000   1.0000   1.0000   1.0000   1.0000   1.0000   1.0000
     1.0000   1.0000   1.0000   1.0000   1.0000   1.0000   1.0000   1.0000
     1.0000   1.0000   1.0000   1.0000   1.0000   1.0000   1.0000   1.0000
     1.0000   1.0000   1.0000   1.0000   1.0000   1.0000   1.0000   1.0000
     1.0000   1.0000   1.0000   1.0000   1.0000   1.0000   1.0000   1.0000
     1.0000   1.0000   1.0000   1.0000   1.0000   1.0000   1.0000   1.0000

          k = 0.1676-0.1833 0.1716 (  5355 PWs)   bands (ev):

   -65.3787 -65.2468 -64.8872 -64.5914 -32.3633 -32.3423 -32.3281 -32.2458
   -32.2111 -32.1762 -31.9039 -31.8564 -31.8387 -31.5888 -31.5673 -31.5409
   -29.5556 -29.0060 -28.9427 -28.3483 -11.6305 -11.3227 -11.1557 -11.1039
   -10.5890 -10.4625 -10.3246 -10.2593 -10.1713 -10.0431  -9.9684  -9.8255
    -8.3469  -7.8880  -7.6001  -7.4504  -7.3636  -6.7079  -6.5263  -6.4647
     3.5724   4.1501   4.2915   4.8170   4.9636   5.1774   5.3064   5.8473
     5.9774   6.1551   6.2765   6.3237   6.4179   6.4667   6.5984   6.7382
     6.8398   7.0240   7.1149   7.1433   7.2503   7.3224   7.5822   7.7442

     occupation numbers 
     1.0000   1.0000   1.0000   1.0000   1.0000   1.0000   1.0000   1.0000
     1.0000   1.0000   1.0000   1.0000   1.0000   1.0000   1.0000   1.0000
     1.0000   1.0000   1.0000   1.0000   1.0000   1.0000   1.0000   1.0000
     1.0000   1.0000   1.0000   1.0000   1.0000   1.0000   1.0000   1.0000
     1.0000   1.0000   1.0000   1.0000   1.0000   1.0000   1.0000   1.0000
     1.0000   1.0000   1.0000   1.0000   1.0000   1.0000   1.0000   1.0000
     1.0000   1.0000   1.0000   1.0000   1.0000   1.0000   1.0000   1.0000
     1.0000   1.0000   1.0000   1.0000   1.0000   1.0000   1.0000   1.0000

          k = 0.3369-0.0024-0.0041 (  5355 PWs)   bands (ev):

   -65.3787 -65.2468 -64.8872 -64.5914 -32.3633 -32.3423 -32.3281 -32.2458
   -32.2112 -32.1762 -31.9039 -31.8563 -31.8387 -31.5888 -31.5673 -31.5409
   -29.5552 -28.9984 -28.9518 -28.3472 -11.6065 -11.4148 -11.0814 -11.0161
   -10.6188 -10.4678 -10.4371 -10.3220 -10.1694 -10.0917  -9.8396  -9.7663
    -8.3173  -7.8137  -7.6974  -7.5499  -7.4114  -6.7939  -6.4479  -6.3304
     3.6049   4.1399   4.3217   4.8931   5.0388   5.1524   5.3061   5.8690
     6.0150   6.0850   6.1863   6.2173   6.3702   6.4636   6.5640   6.6768
     6.7788   6.9032   7.0915   7.1729   7.2724   7.3247   7.7181   7.7815

     occupation numbers 
     1.0000   1.0000   1.0000   1.0000   1.0000   1.0000   1.0000   1.0000
     1.0000   1.0000   1.0000   1.0000   1.0000   1.0000   1.0000   1.0000
     1.0000   1.0000   1.0000   1.0000   1.0000   1.0000   1.0000   1.0000
     1.0000   1.0000   1.0000   1.0000   1.0000   1.0000   1.0000   1.0000
     1.0000   1.0000   1.0000   1.0000   1.0000   1.0000   1.0000   1.0000
     1.0000   1.0000   1.0000   1.0000   1.0000   1.0000   1.0000   1.0000
     1.0000   1.0000   1.0000   1.0000   1.0000   1.0000   1.0000   1.0000
     1.0000   1.0000   1.0000   1.0000   1.0000   1.0000   1.0000   1.0000

          k =-0.1710-0.5449 0.5229 (  5361 PWs)   bands (ev):

   -65.3787 -65.2468 -64.8872 -64.5914 -32.3633 -32.3422 -32.3281 -32.2458
   -32.2111 -32.1761 -31.9040 -31.8564 -31.8388 -31.5888 -31.5674 -31.5410
   -29.5533 -28.9843 -28.9672 -28.3481 -11.4528 -11.3224 -10.9904 -10.8928
   -10.6937 -10.6848 -10.5050 -10.4708 -10.2755 -10.1643  -9.8979  -9.7600
    -8.1016  -7.7814  -7.5552  -7.4853  -7.2432  -6.8280  -6.6462  -6.4794
     3.9725   4.4653   4.6526   4.7744   5.0926   5.4003   5.4601   5.6436
     5.6926   5.8315   5.9427   6.0808   6.2700   6.3754   6.4816   6.5743
     6.7548   6.8576   7.0431   7.1936   7.2592   7.3649   7.4735   7.5907

     occupation numbers 
     1.0000   1.0000   1.0000   1.0000   1.0000   1.0000   1.0000   1.0000
     1.0000   1.0000   1.0000   1.0000   1.0000   1.0000   1.0000   1.0000
     1.0000   1.0000   1.0000   1.0000   1.0000   1.0000   1.0000   1.0000
     1.0000   1.0000   1.0000   1.0000   1.0000   1.0000   1.0000   1.0000
     1.0000   1.0000   1.0000   1.0000   1.0000   1.0000   1.0000   1.0000
     1.0000   1.0000   1.0000   1.0000   1.0000   1.0000   1.0000   1.0000
     1.0000   1.0000   1.0000   1.0000   1.0000   1.0000   1.0000   1.0000
     1.0000   1.0000   1.0000   1.0000   1.0000   1.0000   1.0000   1.0000

          k =-0.0017-0.3641 0.3472 (  5357 PWs)   bands (ev):

   -65.3787 -65.2468 -64.8872 -64.5914 -32.3633 -32.3423 -32.3281 -32.2458
   -32.2110 -32.1760 -31.9040 -31.8565 -31.8389 -31.5888 -31.5674 -31.5409
   -29.5537 -28.9981 -28.9518 -28.3492 -11.4921 -11.1823 -11.1096 -11.0189
   -10.6769 -10.5670 -10.5153 -10.3688 -10.2613 -10.1717  -9.9790  -9.7795
    -8.1424  -7.9181  -7.4710  -7.2650  -7.0803  -6.8157  -6.7328  -6.6933
     3.9298   4.4703   4.6110   4.7042   5.0965   5.2950   5.3510   5.5286
     5.8319   5.9822   6.1031   6.2527   6.3417   6.3941   6.5746   6.6822
     6.7616   6.8684   6.9119   7.0835   7.2202   7.3442   7.4063   7.6442

     occupation numbers 
     1.0000   1.0000   1.0000   1.0000   1.0000   1.0000   1.0000   1.0000
     1.0000   1.0000   1.0000   1.0000   1.0000   1.0000   1.0000   1.0000
     1.0000   1.0000   1.0000   1.0000   1.0000   1.0000   1.0000   1.0000
     1.0000   1.0000   1.0000   1.0000   1.0000   1.0000   1.0000   1.0000
     1.0000   1.0000   1.0000   1.0000   1.0000   1.0000   1.0000   1.0000
     1.0000   1.0000   1.0000   1.0000   1.0000   1.0000   1.0000   1.0000
     1.0000   1.0000   1.0000   1.0000   1.0000   1.0000   1.0000   1.0000
     1.0000   1.0000   1.0000   1.0000   1.0000   1.0000   1.0000   1.0000

          k =-0.3352 0.3665-0.3431 (  5352 PWs)   bands (ev):

   -65.3787 -65.2468 -64.8872 -64.5914 -32.3634 -32.3424 -32.3281 -32.2459
   -32.2110 -32.1761 -31.9040 -31.8564 -31.8389 -31.5889 -31.5674 -31.5409
   -29.5547 -29.0054 -28.9424 -28.3499 -11.5680 -11.1959 -11.1572 -11.0752
   -10.6141 -10.5088 -10.3583 -10.3154 -10.2248 -10.1342 -10.0164  -9.9367
    -8.1611  -7.8796  -7.4628  -7.2721  -7.0807  -6.8261  -6.7543  -6.7014
     4.1055   4.2874   4.6012   4.7294   4.9968   5.3130   5.4017   5.6899
     5.7733   5.7862   6.2073   6.2592   6.3508   6.4536   6.5095   6.6260
     6.7686   6.8635   7.0026   7.1153   7.1907   7.3276   7.3443   7.6225

     occupation numbers 
     1.0000   1.0000   1.0000   1.0000   1.0000   1.0000   1.0000   1.0000
     1.0000   1.0000   1.0000   1.0000   1.0000   1.0000   1.0000   1.0000
     1.0000   1.0000   1.0000   1.0000   1.0000   1.0000   1.0000   1.0000
     1.0000   1.0000   1.0000   1.0000   1.0000   1.0000   1.0000   1.0000
     1.0000   1.0000   1.0000   1.0000   1.0000   1.0000   1.0000   1.0000
     1.0000   1.0000   1.0000   1.0000   1.0000   1.0000   1.0000   1.0000
     1.0000   1.0000   1.0000   1.0000   1.0000   1.0000   1.0000   1.0000
     1.0000   1.0000   1.0000   1.0000   1.0000   1.0000   1.0000   1.0000

          k =-0.1659 0.5473-0.5188 (  5341 PWs)   bands (ev):

   -65.3787 -65.2468 -64.8872 -64.5914 -32.3633 -32.3423 -32.3281 -32.2459
   -32.2111 -32.1761 -31.9040 -31.8563 -31.8388 -31.5889 -31.5674 -31.5410
   -29.5543 -28.9977 -28.9517 -28.3487 -11.5313 -11.3270 -11.1065 -10.9908
   -10.6300 -10.4902 -10.4332 -10.3362 -10.2404 -10.1563  -9.9568  -9.8695
    -8.1318  -7.8142  -7.6057  -7.4394  -7.2389  -6.7988  -6.6484  -6.4801
     4.0379   4.4370   4.5869   4.7768   5.0138   5.2866   5.4969   5.5811
     5.6926   5.8292   6.0431   6.2082   6.3179   6.3696   6.5071   6.6056
     6.7542   6.8857   7.0290   7.1271   7.2569   7.2923   7.4792   7.6020

     occupation numbers 
     1.0000   1.0000   1.0000   1.0000   1.0000   1.0000   1.0000   1.0000
     1.0000   1.0000   1.0000   1.0000   1.0000   1.0000   1.0000   1.0000
     1.0000   1.0000   1.0000   1.0000   1.0000   1.0000   1.0000   1.0000
     1.0000   1.0000   1.0000   1.0000   1.0000   1.0000   1.0000   1.0000
     1.0000   1.0000   1.0000   1.0000   1.0000   1.0000   1.0000   1.0000
     1.0000   1.0000   1.0000   1.0000   1.0000   1.0000   1.0000   1.0000
     1.0000   1.0000   1.0000   1.0000   1.0000   1.0000   1.0000   1.0000
     1.0000   1.0000   1.0000   1.0000   1.0000   1.0000   1.0000   1.0000

          k =-0.6737 0.0049 0.0082 (  5362 PWs)   bands (ev):

   -65.3787 -65.2468 -64.8872 -64.5914 -32.3633 -32.3423 -32.3281 -32.2459
   -32.2113 -32.1762 -31.9040 -31.8563 -31.8387 -31.5889 -31.5674 -31.5410
   -29.5539 -28.9838 -28.9672 -28.3476 -11.5028 -11.4202 -11.0015 -10.8580
   -10.6878 -10.6051 -10.4904 -10.4548 -10.2255 -10.1085  -9.8432  -9.8147
    -8.1053  -7.8643  -7.6700  -7.5115  -7.3398  -6.8116  -6.5536  -6.3392
     4.0365   4.3644   4.5744   5.0945   5.1633   5.2577   5.4049   5.4572
     5.6321   5.8062   5.9579   6.2540   6.2618   6.3587   6.4487   6.4988
     6.6252   6.7798   6.9365   7.2153   7.2946   7.3677   7.6204   7.7316

     occupation numbers 
     1.0000   1.0000   1.0000   1.0000   1.0000   1.0000   1.0000   1.0000
     1.0000   1.0000   1.0000   1.0000   1.0000   1.0000   1.0000   1.0000
     1.0000   1.0000   1.0000   1.0000   1.0000   1.0000   1.0000   1.0000
     1.0000   1.0000   1.0000   1.0000   1.0000   1.0000   1.0000   1.0000
     1.0000   1.0000   1.0000   1.0000   1.0000   1.0000   1.0000   1.0000
     1.0000   1.0000   1.0000   1.0000   1.0000   1.0000   1.0000   1.0000
     1.0000   1.0000   1.0000   1.0000   1.0000   1.0000   1.0000   1.0000
     1.0000   1.0000   1.0000   1.0000   1.0000   1.0000   1.0000   1.0000

          k =-0.1717 0.1824 0.1748 (  5358 PWs)   bands (ev):

   -65.3786 -65.2468 -64.8872 -64.5914 -32.3632 -32.3422 -32.3279 -32.2459
   -32.2114 -32.1764 -31.9039 -31.8564 -31.8387 -31.5887 -31.5673 -31.5409
   -29.5550 -28.9984 -28.9525 -28.3466 -11.6378 -11.3314 -11.1348 -11.0647
   -10.5905 -10.5155 -10.3625 -10.3262 -10.2418 -10.0968  -9.8210  -9.6728
    -8.3511  -7.8564  -7.6597  -7.5143  -7.3948  -6.7286  -6.4539  -6.4496
     3.5555   4.1439   4.3439   4.8143   5.0088   5.1069   5.3342   5.8719
     6.0461   6.0770   6.1548   6.3561   6.4327   6.4809   6.5854   6.7608
     6.8796   6.9837   7.0865   7.1386   7.2484   7.4438   7.5335   7.6795

     occupation numbers 
     1.0000   1.0000   1.0000   1.0000   1.0000   1.0000   1.0000   1.0000
     1.0000   1.0000   1.0000   1.0000   1.0000   1.0000   1.0000   1.0000
     1.0000   1.0000   1.0000   1.0000   1.0000   1.0000   1.0000   1.0000
     1.0000   1.0000   1.0000   1.0000   1.0000   1.0000   1.0000   1.0000
     1.0000   1.0000   1.0000   1.0000   1.0000   1.0000   1.0000   1.0000
     1.0000   1.0000   1.0000   1.0000   1.0000   1.0000   1.0000   1.0000
     1.0000   1.0000   1.0000   1.0000   1.0000   1.0000   1.0000   1.0000
     1.0000   1.0000   1.0000   1.0000   1.0000   1.0000   1.0000   1.0000

          k =-0.0024 0.3632-0.0009 (  5368 PWs)   bands (ev):

   -65.3786 -65.2468 -64.8872 -64.5914 -32.3632 -32.3422 -32.3279 -32.2459
   -32.2113 -32.1763 -31.9039 -31.8565 -31.8388 -31.5887 -31.5673 -31.5409
   -29.5534 -29.0087 -28.9430 -28.3475 -11.5530 -11.2178 -11.1631 -11.0565
   -10.7550 -10.5484 -10.4971 -10.2943 -10.2065 -10.0296  -9.8941  -9.6816
    -8.2603  -7.9729  -7.5805  -7.4143  -7.2932  -6.6761  -6.6481  -6.4746
     3.6746   4.2567   4.3708   4.9088   4.9746   5.1161   5.2722   5.7530
     5.9417   6.1339   6.2665   6.3335   6.4176   6.5097   6.6308   6.7367
     6.8614   6.9088   6.9982   7.0759   7.1428   7.2278   7.5755   7.7595

     occupation numbers 
     1.0000   1.0000   1.0000   1.0000   1.0000   1.0000   1.0000   1.0000
     1.0000   1.0000   1.0000   1.0000   1.0000   1.0000   1.0000   1.0000
     1.0000   1.0000   1.0000   1.0000   1.0000   1.0000   1.0000   1.0000
     1.0000   1.0000   1.0000   1.0000   1.0000   1.0000   1.0000   1.0000
     1.0000   1.0000   1.0000   1.0000   1.0000   1.0000   1.0000   1.0000
     1.0000   1.0000   1.0000   1.0000   1.0000   1.0000   1.0000   1.0000
     1.0000   1.0000   1.0000   1.0000   1.0000   1.0000   1.0000   1.0000
     1.0000   1.0000   1.0000   1.0000   1.0000   1.0000   1.0000   1.0000

          k =-0.5103-0.1792 0.5262 (  5363 PWs)   bands (ev):

   -65.3786 -65.2468 -64.8872 -64.5914 -32.3632 -32.3422 -32.3279 -32.2459
   -32.2112 -32.1761 -31.9040 -31.8566 -31.8389 -31.5888 -31.5675 -31.5410
   -29.5515 -29.0011 -28.9518 -28.3484 -11.3527 -11.1278 -11.0893 -10.9436
   -10.8864 -10.7595 -10.6279 -10.3451 -10.2012 -10.1567  -9.9372  -9.6846
    -8.0340  -7.9506  -7.5230  -7.4315  -7.2026  -6.7545  -6.6898  -6.5382
     4.1093   4.4342   4.6611   4.7747   5.0902   5.2595   5.4379   5.5136
     5.8092   5.8944   6.0904   6.1429   6.2961   6.3303   6.5134   6.5876
     6.7656   6.8981   6.9718   7.0760   7.1640   7.3589   7.4212   7.5723

     occupation numbers 
     1.0000   1.0000   1.0000   1.0000   1.0000   1.0000   1.0000   1.0000
     1.0000   1.0000   1.0000   1.0000   1.0000   1.0000   1.0000   1.0000
     1.0000   1.0000   1.0000   1.0000   1.0000   1.0000   1.0000   1.0000
     1.0000   1.0000   1.0000   1.0000   1.0000   1.0000   1.0000   1.0000
     1.0000   1.0000   1.0000   1.0000   1.0000   1.0000   1.0000   1.0000
     1.0000   1.0000   1.0000   1.0000   1.0000   1.0000   1.0000   1.0000
     1.0000   1.0000   1.0000   1.0000   1.0000   1.0000   1.0000   1.0000
     1.0000   1.0000   1.0000   1.0000   1.0000   1.0000   1.0000   1.0000

          k =-0.3410 0.0016 0.3505 (  5363 PWs)   bands (ev):

   -65.3786 -65.2468 -64.8872 -64.5914 -32.3632 -32.3421 -32.3279 -32.2459
   -32.2113 -32.1763 -31.9040 -31.8565 -31.8388 -31.5888 -31.5674 -31.5410
   -29.5531 -28.9835 -28.9687 -28.3475 -11.4877 -11.2893 -11.0659 -10.9420
   -10.7047 -10.5504 -10.5316 -10.4934 -10.2839 -10.0901  -9.8917  -9.6821
    -8.2032  -7.7744  -7.6256  -7.4804  -7.2779  -6.8359  -6.6391  -6.3743
     3.8653   4.3798   4.6173   4.7928   5.0394   5.3197   5.4350   5.6341
     5.6798   5.9702   6.1170   6.1775   6.3632   6.4561   6.5601   6.6169
     6.7590   6.8546   7.0220   7.0527   7.2238   7.3590   7.4082   7.6741

     occupation numbers 
     1.0000   1.0000   1.0000   1.0000   1.0000   1.0000   1.0000   1.0000
     1.0000   1.0000   1.0000   1.0000   1.0000   1.0000   1.0000   1.0000
     1.0000   1.0000   1.0000   1.0000   1.0000   1.0000   1.0000   1.0000
     1.0000   1.0000   1.0000   1.0000   1.0000   1.0000   1.0000   1.0000
     1.0000   1.0000   1.0000   1.0000   1.0000   1.0000   1.0000   1.0000
     1.0000   1.0000   1.0000   1.0000   1.0000   1.0000   1.0000   1.0000
     1.0000   1.0000   1.0000   1.0000   1.0000   1.0000   1.0000   1.0000
     1.0000   1.0000   1.0000   1.0000   1.0000   1.0000   1.0000   1.0000

          k =-0.0041-0.0009 0.3464 (  5365 PWs)   bands (ev):

   -65.3786 -65.2468 -64.8872 -64.5914 -32.3632 -32.3421 -32.3279 -32.2459
   -32.2113 -32.1763 -31.9040 -31.8564 -31.8388 -31.5888 -31.5673 -31.5409
   -29.5543 -28.9981 -28.9523 -28.3483 -11.5595 -11.2895 -11.1180 -11.0575
   -10.6082 -10.5460 -10.3963 -10.3143 -10.2348 -10.0819  -9.9314  -9.7878
    -8.3477  -7.8479  -7.6292  -7.4417  -7.2814  -6.7229  -6.6357  -6.3760
     3.6175   4.2164   4.3115   4.8721   5.0129   5.2380   5.3909   5.8022
     6.0042   6.0557   6.1907   6.2536   6.4052   6.4324   6.5165   6.6011
     6.8371   6.9304   7.0168   7.1332   7.2880   7.3711   7.6640   7.7844

     occupation numbers 
     1.0000   1.0000   1.0000   1.0000   1.0000   1.0000   1.0000   1.0000
     1.0000   1.0000   1.0000   1.0000   1.0000   1.0000   1.0000   1.0000
     1.0000   1.0000   1.0000   1.0000   1.0000   1.0000   1.0000   1.0000
     1.0000   1.0000   1.0000   1.0000   1.0000   1.0000   1.0000   1.0000
     1.0000   1.0000   1.0000   1.0000   1.0000   1.0000   1.0000   1.0000
     1.0000   1.0000   1.0000   1.0000   1.0000   1.0000   1.0000   1.0000
     1.0000   1.0000   1.0000   1.0000   1.0000   1.0000   1.0000   1.0000
     1.0000   1.0000   1.0000   1.0000   1.0000   1.0000   1.0000   1.0000

          k = 0.1651 0.1800 0.1707 (  5359 PWs)   bands (ev):

   -65.3786 -65.2468 -64.8872 -64.5914 -32.3632 -32.3422 -32.3279 -32.2459
   -32.2114 -32.1764 -31.9039 -31.8563 -31.8387 -31.5888 -31.5673 -31.5409
   -29.5542 -29.0087 -28.9428 -28.3472 -11.5768 -11.3344 -11.1380 -11.0532
   -10.6519 -10.5228 -10.4731 -10.2833 -10.1559 -10.0239  -9.8553  -9.7852
    -8.3273  -7.8504  -7.5979  -7.4954  -7.4134  -6.7085  -6.5057  -6.4558
     3.5342   4.1783   4.2704   4.9029   4.9597   5.1102   5.3375   5.9465
     6.0219   6.1547   6.2285   6.2561   6.3930   6.4648   6.5584   6.6933
     6.7824   6.9800   7.0632   7.1749   7.3168   7.3673   7.6806   7.7810

     occupation numbers 
     1.0000   1.0000   1.0000   1.0000   1.0000   1.0000   1.0000   1.0000
     1.0000   1.0000   1.0000   1.0000   1.0000   1.0000   1.0000   1.0000
     1.0000   1.0000   1.0000   1.0000   1.0000   1.0000   1.0000   1.0000
     1.0000   1.0000   1.0000   1.0000   1.0000   1.0000   1.0000   1.0000
     1.0000   1.0000   1.0000   1.0000   1.0000   1.0000   1.0000   1.0000
     1.0000   1.0000   1.0000   1.0000   1.0000   1.0000   1.0000   1.0000
     1.0000   1.0000   1.0000   1.0000   1.0000   1.0000   1.0000   1.0000
     1.0000   1.0000   1.0000   1.0000   1.0000   1.0000   1.0000   1.0000

          k =-0.3427-0.3625 0.6978 (  5355 PWs)   bands (ev):

   -65.3786 -65.2468 -64.8872 -64.5914 -32.3632 -32.3422 -32.3279 -32.2459
   -32.2113 -32.1762 -31.9040 -31.8564 -31.8388 -31.5888 -31.5674 -31.5410
   -29.5523 -29.0012 -28.9516 -28.3481 -11.4218 -11.2131 -11.0453 -10.9508
   -10.7728 -10.7048 -10.5848 -10.3679 -10.2338 -10.1587  -9.8996  -9.7754
    -8.0810  -7.8409  -7.5131  -7.3459  -7.2674  -6.8256  -6.6526  -6.5856
     3.8583   4.4212   4.6335   4.8128   5.0505   5.2857   5.4179   5.6370
     5.8132   5.9369   6.0304   6.1615   6.2463   6.4995   6.5961   6.6251
     6.7783   6.8537   7.0194   7.0416   7.1774   7.3704   7.5458   7.6359

     occupation numbers 
     1.0000   1.0000   1.0000   1.0000   1.0000   1.0000   1.0000   1.0000
     1.0000   1.0000   1.0000   1.0000   1.0000   1.0000   1.0000   1.0000
     1.0000   1.0000   1.0000   1.0000   1.0000   1.0000   1.0000   1.0000
     1.0000   1.0000   1.0000   1.0000   1.0000   1.0000   1.0000   1.0000
     1.0000   1.0000   1.0000   1.0000   1.0000   1.0000   1.0000   1.0000
     1.0000   1.0000   1.0000   1.0000   1.0000   1.0000   1.0000   1.0000
     1.0000   1.0000   1.0000   1.0000   1.0000   1.0000   1.0000   1.0000
     1.0000   1.0000   1.0000   1.0000   1.0000   1.0000   1.0000   1.0000

          k =-0.1734-0.1817 0.5221 (  5354 PWs)   bands (ev):

   -65.3786 -65.2468 -64.8872 -64.5914 -32.3632 -32.3421 -32.3279 -32.2459
   -32.2112 -32.1762 -31.9041 -31.8565 -31.8389 -31.5888 -31.5675 -31.5410
   -29.5524 -28.9831 -28.9686 -28.3492 -11.4017 -11.1364 -11.0595 -10.9215
   -10.7430 -10.6713 -10.5528 -10.4997 -10.2891 -10.1849  -9.9610  -9.7705
    -8.1402  -7.7900  -7.4692  -7.4155  -7.0590  -6.8523  -6.7794  -6.5431
     3.9919   4.5000   4.6488   4.7677   5.2313   5.2772   5.5047   5.5984
     5.7672   5.8086   5.9560   6.1545   6.2562   6.3304   6.4601   6.5620
     6.7551   6.8717   7.0134   7.0385   7.2868   7.3585   7.4459   7.6699

     occupation numbers 
     1.0000   1.0000   1.0000   1.0000   1.0000   1.0000   1.0000   1.0000
     1.0000   1.0000   1.0000   1.0000   1.0000   1.0000   1.0000   1.0000
     1.0000   1.0000   1.0000   1.0000   1.0000   1.0000   1.0000   1.0000
     1.0000   1.0000   1.0000   1.0000   1.0000   1.0000   1.0000   1.0000
     1.0000   1.0000   1.0000   1.0000   1.0000   1.0000   1.0000   1.0000
     1.0000   1.0000   1.0000   1.0000   1.0000   1.0000   1.0000   1.0000
     1.0000   1.0000   1.0000   1.0000   1.0000   1.0000   1.0000   1.0000
     1.0000   1.0000   1.0000   1.0000   1.0000   1.0000   1.0000   1.0000

          k =-0.5069 0.5489-0.1683 (  5390 PWs)   bands (ev):

   -65.3786 -65.2468 -64.8872 -64.5914 -32.3633 -32.3422 -32.3279 -32.2459
   -32.2112 -32.1762 -31.9040 -31.8564 -31.8389 -31.5889 -31.5674 -31.5410
   -29.5534 -28.9974 -28.9522 -28.3498 -11.4977 -11.1541 -11.1184 -11.0116
   -10.7298 -10.5305 -10.4496 -10.3216 -10.2363 -10.1867 -10.0375  -9.8729
    -8.1854  -7.8218  -7.4597  -7.4122  -7.0591  -6.8383  -6.7687  -6.5432
     4.0617   4.4703   4.5522   4.7718   5.1609   5.2883   5.4327   5.5443
     5.7407   5.9186   6.0735   6.1917   6.2474   6.3198   6.4426   6.5762
     6.7763   6.8581   7.0508   7.1115   7.2535   7.3036   7.4682   7.6109

     occupation numbers 
     1.0000   1.0000   1.0000   1.0000   1.0000   1.0000   1.0000   1.0000
     1.0000   1.0000   1.0000   1.0000   1.0000   1.0000   1.0000   1.0000
     1.0000   1.0000   1.0000   1.0000   1.0000   1.0000   1.0000   1.0000
     1.0000   1.0000   1.0000   1.0000   1.0000   1.0000   1.0000   1.0000
     1.0000   1.0000   1.0000   1.0000   1.0000   1.0000   1.0000   1.0000
     1.0000   1.0000   1.0000   1.0000   1.0000   1.0000   1.0000   1.0000
     1.0000   1.0000   1.0000   1.0000   1.0000   1.0000   1.0000   1.0000
     1.0000   1.0000   1.0000   1.0000   1.0000   1.0000   1.0000   1.0000

          k =-0.3376 0.7297-0.3440 (  5368 PWs)   bands (ev):

   -65.3786 -65.2468 -64.8872 -64.5914 -32.3632 -32.3422 -32.3279 -32.2459
   -32.2113 -32.1763 -31.9039 -31.8563 -31.8388 -31.5889 -31.5673 -31.5410
   -29.5533 -29.0081 -28.9426 -28.3488 -11.4870 -11.2982 -11.1203 -11.0487
   -10.7031 -10.5472 -10.5061 -10.2600 -10.1252 -10.0305  -9.9603  -9.9334
    -8.1967  -7.8120  -7.6631  -7.4779  -7.1246  -6.8117  -6.7377  -6.3786
     3.8779   4.3604   4.5064   4.8492   5.0356   5.2588   5.4258   5.5744
     5.7708   5.8812   6.1339   6.3176   6.4121   6.4608   6.5328   6.6319
     6.7682   6.8600   6.9454   7.1031   7.1681   7.2625   7.6161   7.6794

     occupation numbers 
     1.0000   1.0000   1.0000   1.0000   1.0000   1.0000   1.0000   1.0000
     1.0000   1.0000   1.0000   1.0000   1.0000   1.0000   1.0000   1.0000
     1.0000   1.0000   1.0000   1.0000   1.0000   1.0000   1.0000   1.0000
     1.0000   1.0000   1.0000   1.0000   1.0000   1.0000   1.0000   1.0000
     1.0000   1.0000   1.0000   1.0000   1.0000   1.0000   1.0000   1.0000
     1.0000   1.0000   1.0000   1.0000   1.0000   1.0000   1.0000   1.0000
     1.0000   1.0000   1.0000   1.0000   1.0000   1.0000   1.0000   1.0000
     1.0000   1.0000   1.0000   1.0000   1.0000   1.0000   1.0000   1.0000

          k =-0.8454 0.1873 0.1831 (  5361 PWs)   bands (ev):

   -65.3786 -65.2468 -64.8872 -64.5914 -32.3632 -32.3422 -32.3279 -32.2459
   -32.2114 -32.1763 -31.9039 -31.8563 -31.8387 -31.5889 -31.5674 -31.5410
   -29.5529 -29.0009 -28.9514 -28.3476 -11.4637 -11.3328 -11.0518 -10.9396
   -10.7095 -10.6891 -10.4981 -10.3371 -10.2008 -10.1485  -9.8688  -9.8247
    -8.1014  -7.7743  -7.6059  -7.5264  -7.2628  -6.7978  -6.6352  -6.4610
     3.9396   4.4444   4.6333   4.8582   5.0846   5.2719   5.4866   5.6096
     5.7155   5.7983   6.0117   6.1151   6.2473   6.3929   6.4767   6.5945
     6.7440   6.8531   7.0425   7.1906   7.2544   7.3259   7.5644   7.6153

     occupation numbers 
     1.0000   1.0000   1.0000   1.0000   1.0000   1.0000   1.0000   1.0000
     1.0000   1.0000   1.0000   1.0000   1.0000   1.0000   1.0000   1.0000
     1.0000   1.0000   1.0000   1.0000   1.0000   1.0000   1.0000   1.0000
     1.0000   1.0000   1.0000   1.0000   1.0000   1.0000   1.0000   1.0000
     1.0000   1.0000   1.0000   1.0000   1.0000   1.0000   1.0000   1.0000
     1.0000   1.0000   1.0000   1.0000   1.0000   1.0000   1.0000   1.0000
     1.0000   1.0000   1.0000   1.0000   1.0000   1.0000   1.0000   1.0000
     1.0000   1.0000   1.0000   1.0000   1.0000   1.0000   1.0000   1.0000

          k =-0.6762 0.3681 0.0074 (  5357 PWs)   bands (ev):

   -65.3786 -65.2468 -64.8872 -64.5914 -32.3632 -32.3421 -32.3279 -32.2459
   -32.2113 -32.1763 -31.9040 -31.8563 -31.8388 -31.5889 -31.5674 -31.5410
   -29.5530 -28.9827 -28.9686 -28.3487 -11.4594 -11.2200 -11.0899 -10.8842
   -10.6390 -10.5971 -10.5368 -10.4851 -10.2706 -10.2365  -9.9335  -9.8409
    -8.0946  -7.7924  -7.4637  -7.3576  -7.2026  -6.8295  -6.6660  -6.6426
     4.1449   4.5720   4.7200   4.8410   5.1669   5.2717   5.3302   5.5451
     5.6854   5.7158   5.9820   6.0308   6.2257   6.3669   6.5246   6.6653
     6.7050   6.8663   7.0243   7.0851   7.2305   7.3633   7.4559   7.5322

     occupation numbers 
     1.0000   1.0000   1.0000   1.0000   1.0000   1.0000   1.0000   1.0000
     1.0000   1.0000   1.0000   1.0000   1.0000   1.0000   1.0000   1.0000
     1.0000   1.0000   1.0000   1.0000   1.0000   1.0000   1.0000   1.0000
     1.0000   1.0000   1.0000   1.0000   1.0000   1.0000   1.0000   1.0000
     1.0000   1.0000   1.0000   1.0000   1.0000   1.0000   1.0000   1.0000
     1.0000   1.0000   1.0000   1.0000   1.0000   1.0000   1.0000   1.0000
     1.0000   1.0000   1.0000   1.0000   1.0000   1.0000   1.0000   1.0000
     1.0000   1.0000   1.0000   1.0000   1.0000   1.0000   1.0000   1.0000

          k =-0.3393 0.3657 0.0033 (  5365 PWs)   bands (ev):

   -65.3786 -65.2468 -64.8872 -64.5914 -32.3632 -32.3422 -32.3279 -32.2459
   -32.2113 -32.1763 -31.9040 -31.8564 -31.8388 -31.5888 -31.5673 -31.5410
   -29.5541 -28.9977 -28.9524 -28.3481 -11.5789 -11.2204 -11.1489 -11.0218
   -10.6875 -10.4966 -10.3870 -10.3417 -10.2400 -10.1827  -9.9368  -9.7923
    -8.1716  -7.8457  -7.5176  -7.3864  -7.2967  -6.8058  -6.6589  -6.5147
     3.9542   4.4449   4.5545   4.7521   4.9700   5.1845   5.4070   5.6082
     5.7885   6.0039   6.1298   6.2438   6.3419   6.4956   6.5721   6.6894
     6.8187   6.8850   6.9764   7.0981   7.1971   7.2478   7.3491   7.6240

     occupation numbers 
     1.0000   1.0000   1.0000   1.0000   1.0000   1.0000   1.0000   1.0000
     1.0000   1.0000   1.0000   1.0000   1.0000   1.0000   1.0000   1.0000
     1.0000   1.0000   1.0000   1.0000   1.0000   1.0000   1.0000   1.0000
     1.0000   1.0000   1.0000   1.0000   1.0000   1.0000   1.0000   1.0000
     1.0000   1.0000   1.0000   1.0000   1.0000   1.0000   1.0000   1.0000
     1.0000   1.0000   1.0000   1.0000   1.0000   1.0000   1.0000   1.0000
     1.0000   1.0000   1.0000   1.0000   1.0000   1.0000   1.0000   1.0000
     1.0000   1.0000   1.0000   1.0000   1.0000   1.0000   1.0000   1.0000

          k =-0.1700 0.5465-0.1724 (  5387 PWs)   bands (ev):

   -65.3786 -65.2468 -64.8872 -64.5914 -32.3633 -32.3422 -32.3279 -32.2459
   -32.2112 -32.1762 -31.9040 -31.8565 -31.8389 -31.5888 -31.5674 -31.5410
   -29.5525 -29.0081 -28.9428 -28.3491 -11.4642 -11.1666 -11.1268 -11.0501
   -10.7971 -10.6467 -10.5122 -10.2725 -10.1877 -10.0362  -9.9965  -9.8120
    -8.0886  -7.9707  -7.5035  -7.4364  -7.2038  -6.7314  -6.6898  -6.5387
     4.2193   4.4001   4.5423   4.7680   4.9948   5.2596   5.3883   5.5673
     5.8222   5.8464   6.0836   6.2795   6.3257   6.4004   6.5322   6.5788
     6.7904   6.8787   6.9402   7.0896   7.1497   7.2759   7.3642   7.6491

     occupation numbers 
     1.0000   1.0000   1.0000   1.0000   1.0000   1.0000   1.0000   1.0000
     1.0000   1.0000   1.0000   1.0000   1.0000   1.0000   1.0000   1.0000
     1.0000   1.0000   1.0000   1.0000   1.0000   1.0000   1.0000   1.0000
     1.0000   1.0000   1.0000   1.0000   1.0000   1.0000   1.0000   1.0000
     1.0000   1.0000   1.0000   1.0000   1.0000   1.0000   1.0000   1.0000
     1.0000   1.0000   1.0000   1.0000   1.0000   1.0000   1.0000   1.0000
     1.0000   1.0000   1.0000   1.0000   1.0000   1.0000   1.0000   1.0000
     1.0000   1.0000   1.0000   1.0000   1.0000   1.0000   1.0000   1.0000

          k =-0.6778 0.0040 0.3546 (  5370 PWs)   bands (ev):

   -65.3786 -65.2468 -64.8872 -64.5914 -32.3632 -32.3422 -32.3279 -32.2459
   -32.2113 -32.1762 -31.9040 -31.8564 -31.8388 -31.5889 -31.5674 -31.5410
   -29.5521 -29.0008 -28.9516 -28.3479 -11.3903 -11.2958 -11.0930 -10.9349
   -10.8405 -10.6946 -10.5370 -10.3229 -10.1723 -10.0992  -9.9027  -9.7683
    -8.0731  -7.8685  -7.6816  -7.5307  -7.1256  -6.7985  -6.7162  -6.3792
     4.2636   4.4440   4.6675   4.7838   5.0744   5.3532   5.3940   5.5094
     5.5737   5.6940   6.1264   6.1928   6.3283   6.3523   6.5324   6.5958
     6.7314   6.8488   6.8862   7.0323   7.1834   7.2967   7.5263   7.5964

     occupation numbers 
     1.0000   1.0000   1.0000   1.0000   1.0000   1.0000   1.0000   1.0000
     1.0000   1.0000   1.0000   1.0000   1.0000   1.0000   1.0000   1.0000
     1.0000   1.0000   1.0000   1.0000   1.0000   1.0000   1.0000   1.0000
     1.0000   1.0000   1.0000   1.0000   1.0000   1.0000   1.0000   1.0000
     1.0000   1.0000   1.0000   1.0000   1.0000   1.0000   1.0000   1.0000
     1.0000   1.0000   1.0000   1.0000   1.0000   1.0000   1.0000   1.0000
     1.0000   1.0000   1.0000   1.0000   1.0000   1.0000   1.0000   1.0000
     1.0000   1.0000   1.0000   1.0000   1.0000   1.0000   1.0000   1.0000

          k =-0.5086 0.1848 0.1790 (  5361 PWs)   bands (ev):

   -65.3786 -65.2468 -64.8872 -64.5914 -32.3632 -32.3421 -32.3279 -32.2459
   -32.2114 -32.1764 -31.9040 -31.8564 -31.8387 -31.5889 -31.5674 -31.5410
   -29.5537 -28.9830 -28.9687 -28.3470 -11.5414 -11.3334 -11.0898 -10.9044
   -10.6271 -10.5314 -10.5076 -10.4799 -10.2798 -10.1394  -9.8249  -9.7543
    -8.1394  -7.7716  -7.6370  -7.4628  -7.3666  -6.8210  -6.5556  -6.4580
     4.0028   4.4199   4.6774   4.8109   5.0442   5.1878   5.5247   5.5925
     5.7374   5.8555   5.9443   6.1435   6.2855   6.4216   6.4970   6.6611
     6.7365   6.9042   7.0243   7.1082   7.2394   7.3454   7.4533   7.5693

     occupation numbers 
     1.0000   1.0000   1.0000   1.0000   1.0000   1.0000   1.0000   1.0000
     1.0000   1.0000   1.0000   1.0000   1.0000   1.0000   1.0000   1.0000
     1.0000   1.0000   1.0000   1.0000   1.0000   1.0000   1.0000   1.0000
     1.0000   1.0000   1.0000   1.0000   1.0000   1.0000   1.0000   1.0000
     1.0000   1.0000   1.0000   1.0000   1.0000   1.0000   1.0000   1.0000
     1.0000   1.0000   1.0000   1.0000   1.0000   1.0000   1.0000   1.0000
     1.0000   1.0000   1.0000   1.0000   1.0000   1.0000   1.0000   1.0000
     1.0000   1.0000   1.0000   1.0000   1.0000   1.0000   1.0000   1.0000

          k = 0.3434-0.3648-0.3497 (  5362 PWs)   bands (ev):

   -65.3786 -65.2468 -64.8872 -64.5914 -32.3631 -32.3420 -32.3276 -32.2460
   -32.2116 -32.1766 -31.9040 -31.8564 -31.8387 -31.5888 -31.5673 -31.5410
   -29.5535 -28.9821 -28.9703 -28.3463 -11.5834 -11.2110 -11.1433 -10.9292
   -10.6468 -10.5772 -10.4944 -10.4907 -10.2951 -10.1403  -9.8197  -9.6715
    -8.1748  -7.7776  -7.4934  -7.4588  -7.3336  -6.8238  -6.6230  -6.5554
     4.0126   4.3948   4.5813   4.8646   4.9841   5.1911   5.5123   5.5997
     5.7883   5.9631   6.0724   6.1095   6.2256   6.4327   6.6439   6.7360
     6.8138   6.9053   7.0101   7.1488   7.1698   7.2412   7.3727   7.4869

     occupation numbers 
     1.0000   1.0000   1.0000   1.0000   1.0000   1.0000   1.0000   1.0000
     1.0000   1.0000   1.0000   1.0000   1.0000   1.0000   1.0000   1.0000
     1.0000   1.0000   1.0000   1.0000   1.0000   1.0000   1.0000   1.0000
     1.0000   1.0000   1.0000   1.0000   1.0000   1.0000   1.0000   1.0000
     1.0000   1.0000   1.0000   1.0000   1.0000   1.0000   1.0000   1.0000
     1.0000   1.0000   1.0000   1.0000   1.0000   1.0000   1.0000   1.0000
     1.0000   1.0000   1.0000   1.0000   1.0000   1.0000   1.0000   1.0000
     1.0000   1.0000   1.0000   1.0000   1.0000   1.0000   1.0000   1.0000

          k = 0.5127-0.1840-0.5253 (  5376 PWs)   bands (ev):

   -65.3786 -65.2468 -64.8872 -64.5914 -32.3631 -32.3421 -32.3277 -32.2460
   -32.2115 -32.1765 -31.9040 -31.8565 -31.8388 -31.5888 -31.5674 -31.5410
   -29.5519 -29.0008 -28.9523 -28.3473 -11.4711 -11.1562 -11.0904 -11.0562
   -10.8018 -10.6913 -10.5172 -10.3629 -10.1820 -10.1234  -9.8858  -9.6809
    -8.1073  -7.9091  -7.5115  -7.4872  -7.3526  -6.7444  -6.5896  -6.5104
     4.1425   4.4901   4.5765   4.7526   5.0170   5.1969   5.4585   5.6113
     5.7279   5.8786   6.0747   6.1825   6.2971   6.4616   6.5134   6.6189
     6.7812   6.8962   6.9787   7.0505   7.1714   7.2965   7.3969   7.5414

     occupation numbers 
     1.0000   1.0000   1.0000   1.0000   1.0000   1.0000   1.0000   1.0000
     1.0000   1.0000   1.0000   1.0000   1.0000   1.0000   1.0000   1.0000
     1.0000   1.0000   1.0000   1.0000   1.0000   1.0000   1.0000   1.0000
     1.0000   1.0000   1.0000   1.0000   1.0000   1.0000   1.0000   1.0000
     1.0000   1.0000   1.0000   1.0000   1.0000   1.0000   1.0000   1.0000
     1.0000   1.0000   1.0000   1.0000   1.0000   1.0000   1.0000   1.0000
     1.0000   1.0000   1.0000   1.0000   1.0000   1.0000   1.0000   1.0000
     1.0000   1.0000   1.0000   1.0000   1.0000   1.0000   1.0000   1.0000

          k = 0.0049-0.7264 0.0017 (  5392 PWs)   bands (ev):

   -65.3786 -65.2468 -64.8872 -64.5914 -32.3631 -32.3421 -32.3277 -32.2460
   -32.2114 -32.1763 -31.9040 -31.8566 -31.8389 -31.5888 -31.5674 -31.5410
   -29.5503 -29.0108 -28.9431 -28.3483 -11.3043 -11.1829 -11.0074 -10.9834
   -10.9468 -10.8825 -10.6458 -10.2931 -10.1266 -10.0302  -9.9350  -9.6845
    -8.0840  -7.9812  -7.5730  -7.5452  -7.2904  -6.6797  -6.6205  -6.4230
     4.3501   4.4436   4.6600   4.6687   5.0406   5.1742   5.3726   5.5202
     5.9253   5.9517   6.1197   6.1501   6.2750   6.3124   6.4369   6.5160
     6.6156   6.7742   6.9653   7.0397   7.1374   7.3969   7.4666   7.6796

     occupation numbers 
     1.0000   1.0000   1.0000   1.0000   1.0000   1.0000   1.0000   1.0000
     1.0000   1.0000   1.0000   1.0000   1.0000   1.0000   1.0000   1.0000
     1.0000   1.0000   1.0000   1.0000   1.0000   1.0000   1.0000   1.0000
     1.0000   1.0000   1.0000   1.0000   1.0000   1.0000   1.0000   1.0000
     1.0000   1.0000   1.0000   1.0000   1.0000   1.0000   1.0000   1.0000
     1.0000   1.0000   1.0000   1.0000   1.0000   1.0000   1.0000   1.0000
     1.0000   1.0000   1.0000   1.0000   1.0000   1.0000   1.0000   1.0000
     1.0000   1.0000   1.0000   1.0000   1.0000   1.0000   1.0000   1.0000

          k = 0.5110-0.5481-0.1781 (  5381 PWs)   bands (ev):

   -65.3786 -65.2468 -64.8872 -64.5914 -32.3631 -32.3420 -32.3277 -32.2460
   -32.2115 -32.1765 -31.9040 -31.8564 -31.8388 -31.5888 -31.5674 -31.5410
   -29.5528 -28.9817 -28.9702 -28.3481 -11.5059 -11.1625 -11.1149 -10.9140
   -10.7448 -10.5624 -10.5105 -10.4886 -10.2803 -10.1268  -9.9144  -9.7742
    -8.1872  -7.7746  -7.4954  -7.4380  -7.2574  -6.8227  -6.6466  -6.5143
     4.0233   4.4505   4.6430   4.8460   5.0693   5.3014   5.4655   5.5725
     5.7246   5.8443   6.0000   6.1825   6.2565   6.3341   6.4951   6.5931
     6.7438   6.9312   7.0568   7.0942   7.2473   7.3470   7.4240   7.5472

     occupation numbers 
     1.0000   1.0000   1.0000   1.0000   1.0000   1.0000   1.0000   1.0000
     1.0000   1.0000   1.0000   1.0000   1.0000   1.0000   1.0000   1.0000
     1.0000   1.0000   1.0000   1.0000   1.0000   1.0000   1.0000   1.0000
     1.0000   1.0000   1.0000   1.0000   1.0000   1.0000   1.0000   1.0000
     1.0000   1.0000   1.0000   1.0000   1.0000   1.0000   1.0000   1.0000
     1.0000   1.0000   1.0000   1.0000   1.0000   1.0000   1.0000   1.0000
     1.0000   1.0000   1.0000   1.0000   1.0000   1.0000   1.0000   1.0000
     1.0000   1.0000   1.0000   1.0000   1.0000   1.0000   1.0000   1.0000

          k = 0.6803-0.3672-0.3538 (  5359 PWs)   bands (ev):

   -65.3786 -65.2468 -64.8872 -64.5914 -32.3631 -32.3420 -32.3277 -32.2460
   -32.2116 -32.1765 -31.9039 -31.8564 -31.8387 -31.5888 -31.5673 -31.5410
   -29.5527 -29.0009 -28.9521 -28.3470 -11.5094 -11.2122 -11.0967 -11.0355
   -10.6914 -10.6501 -10.5407 -10.3469 -10.2244 -10.1280  -9.8310  -9.7641
    -8.1446  -7.8779  -7.5274  -7.3860  -7.2764  -6.7379  -6.6474  -6.6117
     3.8675   4.5432   4.5655   4.8043   5.0209   5.1835   5.4338   5.5516
     5.8426   5.9336   6.0717   6.2252   6.3458   6.4492   6.5535   6.6968
     6.7594   6.8679   6.9835   7.0499   7.1658   7.3345   7.5266   7.6038

     occupation numbers 
     1.0000   1.0000   1.0000   1.0000   1.0000   1.0000   1.0000   1.0000
     1.0000   1.0000   1.0000   1.0000   1.0000   1.0000   1.0000   1.0000
     1.0000   1.0000   1.0000   1.0000   1.0000   1.0000   1.0000   1.0000
     1.0000   1.0000   1.0000   1.0000   1.0000   1.0000   1.0000   1.0000
     1.0000   1.0000   1.0000   1.0000   1.0000   1.0000   1.0000   1.0000
     1.0000   1.0000   1.0000   1.0000   1.0000   1.0000   1.0000   1.0000
     1.0000   1.0000   1.0000   1.0000   1.0000   1.0000   1.0000   1.0000
     1.0000   1.0000   1.0000   1.0000   1.0000   1.0000   1.0000   1.0000

          k = 0.1725-0.9097 0.1733 (  5370 PWs)   bands (ev):

   -65.3786 -65.2468 -64.8872 -64.5914 -32.3631 -32.3421 -32.3277 -32.2459
   -32.2115 -32.1764 -31.9040 -31.8564 -31.8388 -31.5888 -31.5674 -31.5410
   -29.5510 -29.0108 -28.9429 -28.3480 -11.3615 -11.1577 -11.1470 -10.9522
   -10.8732 -10.7723 -10.6381 -10.2860 -10.1471 -10.0297  -9.9085  -9.7952
    -8.0589  -7.9206  -7.5648  -7.4756  -7.2232  -6.7326  -6.6769  -6.5137
     4.0455   4.4270   4.7055   4.8257   5.1137   5.1861   5.3994   5.5173
     5.6944   5.9540   6.1025   6.1331   6.2762   6.3477   6.5267   6.6731
     6.7624   6.8904   6.9862   7.0770   7.1654   7.2648   7.4542   7.6698

     occupation numbers 
     1.0000   1.0000   1.0000   1.0000   1.0000   1.0000   1.0000   1.0000
     1.0000   1.0000   1.0000   1.0000   1.0000   1.0000   1.0000   1.0000
     1.0000   1.0000   1.0000   1.0000   1.0000   1.0000   1.0000   1.0000
     1.0000   1.0000   1.0000   1.0000   1.0000   1.0000   1.0000   1.0000
     1.0000   1.0000   1.0000   1.0000   1.0000   1.0000   1.0000   1.0000
     1.0000   1.0000   1.0000   1.0000   1.0000   1.0000   1.0000   1.0000
     1.0000   1.0000   1.0000   1.0000   1.0000   1.0000   1.0000   1.0000
     1.0000   1.0000   1.0000   1.0000   1.0000   1.0000   1.0000   1.0000

          k = 0.3417-0.7289-0.0024 (  5382 PWs)   bands (ev):

   -65.3786 -65.2468 -64.8872 -64.5914 -32.3632 -32.3420 -32.3277 -32.2460
   -32.2114 -32.1763 -31.9040 -31.8565 -31.8389 -31.5888 -31.5674 -31.5410
   -29.5512 -29.0005 -28.9521 -28.3490 -11.3684 -11.0819 -11.0646 -10.9847
   -10.8922 -10.7823 -10.5302 -10.3774 -10.1772 -10.1220  -9.9701  -9.7887
    -8.1102  -7.8006  -7.5728  -7.4940  -7.1845  -6.8147  -6.6888  -6.4250
     4.2879   4.4474   4.6180   4.8363   5.1202   5.2324   5.3827   5.5457
     5.7170   5.8460   6.0664   6.1361   6.3007   6.3501   6.3850   6.5931
     6.6630   6.8473   6.9447   7.0709   7.2028   7.2986   7.5123   7.6022

     occupation numbers 
     1.0000   1.0000   1.0000   1.0000   1.0000   1.0000   1.0000   1.0000
     1.0000   1.0000   1.0000   1.0000   1.0000   1.0000   1.0000   1.0000
     1.0000   1.0000   1.0000   1.0000   1.0000   1.0000   1.0000   1.0000
     1.0000   1.0000   1.0000   1.0000   1.0000   1.0000   1.0000   1.0000
     1.0000   1.0000   1.0000   1.0000   1.0000   1.0000   1.0000   1.0000
     1.0000   1.0000   1.0000   1.0000   1.0000   1.0000   1.0000   1.0000
     1.0000   1.0000   1.0000   1.0000   1.0000   1.0000   1.0000   1.0000
     1.0000   1.0000   1.0000   1.0000   1.0000   1.0000   1.0000   1.0000

          k = 0.0082 0.0017-0.6928 (  5358 PWs)   bands (ev):

   -65.3786 -65.2468 -64.8872 -64.5914 -32.3632 -32.3420 -32.3277 -32.2460
   -32.2114 -32.1764 -31.9041 -31.8564 -31.8389 -31.5888 -31.5674 -31.5410
   -29.5520 -28.9813 -28.9702 -28.3498 -11.4225 -11.1173 -11.0157 -10.8988
   -10.8640 -10.6192 -10.5062 -10.4861 -10.2632 -10.1309 -10.0163  -9.8459
    -8.1894  -7.7911  -7.5275  -7.4493  -7.0249  -6.8481  -6.7801  -6.4307
     4.0766   4.4246   4.5553   5.0572   5.2199   5.3989   5.4646   5.5411
     5.6983   5.8094   5.9206   6.0655   6.1794   6.2385   6.4021   6.4905
     6.6935   6.8135   7.0049   7.1106   7.3053   7.4087   7.5521   7.7219

     occupation numbers 
     1.0000   1.0000   1.0000   1.0000   1.0000   1.0000   1.0000   1.0000
     1.0000   1.0000   1.0000   1.0000   1.0000   1.0000   1.0000   1.0000
     1.0000   1.0000   1.0000   1.0000   1.0000   1.0000   1.0000   1.0000
     1.0000   1.0000   1.0000   1.0000   1.0000   1.0000   1.0000   1.0000
     1.0000   1.0000   1.0000   1.0000   1.0000   1.0000   1.0000   1.0000
     1.0000   1.0000   1.0000   1.0000   1.0000   1.0000   1.0000   1.0000
     1.0000   1.0000   1.0000   1.0000   1.0000   1.0000   1.0000   1.0000
     1.0000   1.0000   1.0000   1.0000   1.0000   1.0000   1.0000   1.0000

          k = 0.1775 0.1825-0.8685 (  5354 PWs)   bands (ev):

   -65.3786 -65.2468 -64.8872 -64.5914 -32.3631 -32.3420 -32.3277 -32.2460
   -32.2115 -32.1764 -31.9040 -31.8564 -31.8388 -31.5888 -31.5674 -31.5410
   -29.5519 -29.0007 -28.9519 -28.3487 -11.4101 -11.1644 -11.0545 -11.0224
   -10.7485 -10.7125 -10.5492 -10.3486 -10.2046 -10.1247  -9.9399  -9.8702
    -8.1336  -7.7970  -7.5266  -7.4450  -7.0885  -6.8207  -6.7589  -6.5191
     3.9578   4.4754   4.6333   4.8700   5.1502   5.2557   5.4450   5.6384
     5.7500   5.8481   5.9875   6.0926   6.2264   6.4014   6.4568   6.5496
     6.7871   6.8522   6.9822   7.1146   7.2382   7.3693   7.4992   7.6987

     occupation numbers 
     1.0000   1.0000   1.0000   1.0000   1.0000   1.0000   1.0000   1.0000
     1.0000   1.0000   1.0000   1.0000   1.0000   1.0000   1.0000   1.0000
     1.0000   1.0000   1.0000   1.0000   1.0000   1.0000   1.0000   1.0000
     1.0000   1.0000   1.0000   1.0000   1.0000   1.0000   1.0000   1.0000
     1.0000   1.0000   1.0000   1.0000   1.0000   1.0000   1.0000   1.0000
     1.0000   1.0000   1.0000   1.0000   1.0000   1.0000   1.0000   1.0000
     1.0000   1.0000   1.0000   1.0000   1.0000   1.0000   1.0000   1.0000
     1.0000   1.0000   1.0000   1.0000   1.0000   1.0000   1.0000   1.0000

          k =-0.3303-0.3599-0.3414 (  5346 PWs)   bands (ev):

   -65.3786 -65.2468 -64.8872 -64.5914 -32.3631 -32.3421 -32.3277 -32.2459
   -32.2116 -32.1765 -31.9039 -31.8563 -31.8387 -31.5888 -31.5673 -31.5410
   -29.5518 -29.0109 -28.9427 -28.3476 -11.4222 -11.1981 -11.1290 -10.9522
   -10.7957 -10.7077 -10.6189 -10.2791 -10.2134 -10.0262  -9.9283  -9.8368
    -8.0665  -7.8213  -7.5822  -7.3631  -7.1375  -6.8153  -6.7388  -6.6181
     3.8637   4.4811   4.6955   4.7383   5.1239   5.2680   5.4349   5.6093
     5.7052   5.9461   6.0547   6.1083   6.3500   6.3596   6.5756   6.6324
     6.7757   6.8947   6.9049   7.0679   7.2189   7.3840   7.5690   7.6708

     occupation numbers 
     1.0000   1.0000   1.0000   1.0000   1.0000   1.0000   1.0000   1.0000
     1.0000   1.0000   1.0000   1.0000   1.0000   1.0000   1.0000   1.0000
     1.0000   1.0000   1.0000   1.0000   1.0000   1.0000   1.0000   1.0000
     1.0000   1.0000   1.0000   1.0000   1.0000   1.0000   1.0000   1.0000
     1.0000   1.0000   1.0000   1.0000   1.0000   1.0000   1.0000   1.0000
     1.0000   1.0000   1.0000   1.0000   1.0000   1.0000   1.0000   1.0000
     1.0000   1.0000   1.0000   1.0000   1.0000   1.0000   1.0000   1.0000
     1.0000   1.0000   1.0000   1.0000   1.0000   1.0000   1.0000   1.0000

     highest occupied level (ev):     7.8518

!    total energy              =   -1059.63041369 Ry
     Harris-Foulkes estimate   =   -1059.63041369 Ry
     estimated scf accuracy    <          3.8E-11 Ry

     The total energy is the sum of the following terms:

     one-electron contribution =    -478.54534472 Ry
     hartree contribution      =     289.05062497 Ry
     xc contribution           =    -173.07989106 Ry
     ewald contribution        =    -697.05580288 Ry

     convergence has been achieved in  21 iterations

     Forces acting on atoms (Ry/au):

     atom    1 type  1   force =   0.64563638E-01  0.29968202E-01  0.12499154E-01
     atom    2 type  3   force =  -0.58690491E-01 -0.65437298E-01 -0.28030445E-01
     atom    3 type  2   force =  -0.58718112E-02 -0.47004326E-01  0.64057782E-01
     atom    4 type  3   force =   0.29068562E-02  0.29114938E-01 -0.31422947E-01
     atom    5 type  2   force =  -0.22157002E-01 -0.25232789E-01 -0.43872580E-01
     atom    6 type  3   force =  -0.10055785E-02 -0.10396091E+00  0.11597324E-01
     atom    7 type  2   force =   0.48052065E-01  0.22674879E-01  0.92454514E-02
     atom    8 type  3   force =  -0.19143611E-01  0.20980318E-01 -0.42203894E-01
     atom    9 type  1   force =  -0.83757516E-02 -0.24995973E-01  0.32154518E-02
     atom   10 type  3   force =   0.17912711E-01  0.57964280E-02  0.32299772E-01
     atom   11 type  1   force =   0.29915754E-01  0.13675809E-01  0.44911148E-01
     atom   12 type  3   force =   0.12681944E-01  0.29632863E-01 -0.75924703E-03
     atom   13 type  2   force =   0.16901897E-01  0.53176085E-01  0.63853258E-02
     atom   14 type  3   force =  -0.60911550E-01  0.53562768E-01  0.49100300E-01
     atom   15 type  1   force =  -0.25508711E-01 -0.44505881E-02  0.15762899E-01
     atom   16 type  3   force =   0.87296404E-02  0.12499597E-01 -0.10278549E+00
     The non-local contrib.  to forces
     atom    1 type  1   force =  -0.31139755E-02  0.24024914E-01 -0.20829743E-01
     atom    2 type  3   force =  -0.28484718E-01 -0.25567329E+00  0.22027599E-01
     atom    3 type  2   force =  -0.18120059E+00 -0.16699696E-01  0.52817554E+00
     atom    4 type  3   force =   0.16637493E-01  0.61636296E-01 -0.28020028E-01
     atom    5 type  2   force =   0.12966500E+00  0.97044468E-01  0.29077697E-01
     atom    6 type  3   force =  -0.76844178E-01 -0.22635234E+00  0.58029351E-01
     atom    7 type  2   force =   0.26465734E+00 -0.13443789E+00  0.39321266E-02
     atom    8 type  3   force =  -0.94258376E-02  0.44072006E-01 -0.12853376E+00
     atom    9 type  1   force =   0.24657446E-01 -0.30618184E-01  0.23948928E-01
     atom   10 type  3   force =   0.33921011E-01  0.32617764E-01  0.89587567E-01
     atom   11 type  1   force =   0.37943447E-01  0.12620541E-01 -0.14487901E-02
     atom   12 type  3   force =  -0.36261241E-01  0.73244429E-01  0.25658219E-01
     atom   13 type  2   force =  -0.27028216E+00 -0.22354811E-01  0.29800567E+00
     atom   14 type  3   force =  -0.12949661E+00  0.14256631E+00  0.14287693E+00
     atom   15 type  1   force =   0.51409905E-02  0.18880204E-01  0.46940871E-02
     atom   16 type  3   force =   0.13315336E+00  0.86491439E-01  0.27412450E-01
     The ionic contribution  to forces
     atom    1 type  1   force =   0.29721299E+01  0.15808984E+01  0.26607215E+00
     atom    2 type  3   force =  -0.35348794E+01  0.58820716E+00 -0.22582255E+01
     atom    3 type  2   force =  -0.33519351E+01 -0.30776409E+01  0.43492865E+01
     atom    4 type  3   force =   0.67255121E-01  0.17002099E+01 -0.13440930E+01
     atom    5 type  2   force =  -0.18524988E+00  0.94508044E-01 -0.35909892E+01
     atom    6 type  3   force =   0.21027979E+01 -0.13605571E+01  0.13825155E+01
     atom    7 type  2   force =   0.42439347E+01 -0.84934920E+00 -0.30704462E+00
     atom    8 type  3   force =  -0.78399690E+00  0.58413765E+00  0.11197950E+01
     atom    9 type  1   force =   0.10239587E+01 -0.16013235E+01 -0.58564016E+00
     atom   10 type  3   force =  -0.36886543E+00 -0.57618339E-01  0.83928855E+00
     atom   11 type  1   force =   0.64129648E+00  0.12708660E+01  0.80646953E+00
     atom   12 type  3   force =   0.22296368E+01  0.91015456E-01 -0.95402237E+00
     atom   13 type  2   force =  -0.27609078E+01  0.21808634E+01  0.40925641E+01
     atom   14 type  3   force =  -0.35761138E+00 -0.32319425E+00  0.37831521E+00
     atom   15 type  1   force =  -0.98905600E+00  0.53162611E+00  0.30358673E+00
     atom   16 type  3   force =  -0.94850780E+00 -0.13526489E+01 -0.44978785E+01
     The local contribution  to forces
     atom    1 type  1   force =  -0.29033270E+01 -0.15751146E+01 -0.23189309E+00
     atom    2 type  3   force =   0.35036481E+01 -0.40013046E+00  0.22076984E+01
     atom    3 type  2   force =   0.35272626E+01  0.30473367E+01 -0.48133982E+01
     atom    4 type  3   force =  -0.80661942E-01 -0.17323530E+01  0.13400000E+01
     atom    5 type  2   force =   0.33428603E-01 -0.21677868E+00  0.35180373E+01
     atom    6 type  3   force =  -0.20271777E+01  0.14804581E+01 -0.14288216E+01
     atom    7 type  2   force =  -0.44605424E+01  0.10064609E+01  0.31235442E+00
     atom    8 type  3   force =   0.77379639E+00 -0.60675435E+00 -0.10347299E+01
     atom    9 type  1   force =  -0.10576402E+01  0.16076714E+01  0.56451896E+00
     atom   10 type  3   force =   0.35341391E+00  0.30989045E-01 -0.89537243E+00
     atom   11 type  1   force =  -0.64971027E+00 -0.12699528E+01 -0.75904097E+00
     atom   12 type  3   force =  -0.21804527E+01 -0.13392779E+00  0.92783758E+00
     atom   13 type  2   force =   0.30480892E+01 -0.21053338E+01 -0.43841898E+01
     atom   14 type  3   force =   0.42445049E+00  0.23591958E+00 -0.47087820E+00
     atom   15 type  1   force =   0.95731670E+00 -0.55594293E+00 -0.29202254E+00
     atom   16 type  3   force =   0.82452179E+00  0.12793240E+01  0.43661749E+01
     The core correction contribution to forces
     atom    1 type  1   force =  -0.11250261E-02  0.15731985E-03 -0.85036217E-03
     atom    2 type  3   force =   0.10242217E-02  0.21615087E-02  0.46645782E-03
     atom    3 type  2   force =   0.00000000E+00  0.00000000E+00  0.00000000E+00
     atom    4 type  3   force =  -0.32555337E-03 -0.37774922E-03  0.68801548E-03
     atom    5 type  2   force =   0.00000000E+00  0.00000000E+00  0.00000000E+00
     atom    6 type  3   force =   0.21927550E-03  0.24892313E-02 -0.12671092E-03
     atom    7 type  2   force =   0.00000000E+00  0.00000000E+00  0.00000000E+00
     atom    8 type  3   force =   0.48312760E-03 -0.47486144E-03  0.12670394E-02
     atom    9 type  1   force =   0.65303588E-03 -0.72568917E-03  0.38724229E-03
     atom   10 type  3   force =  -0.55659690E-03 -0.19225589E-03 -0.12059034E-02
     atom   11 type  1   force =   0.38597342E-03  0.13714682E-03 -0.10703956E-02
     atom   12 type  3   force =  -0.23922729E-03 -0.69891826E-03 -0.23302606E-03
     atom   13 type  2   force =   0.00000000E+00  0.00000000E+00  0.00000000E+00
     atom   14 type  3   force =   0.17482793E-02 -0.17293893E-02 -0.12141042E-02
     atom   15 type  1   force =   0.10909592E-02  0.98729212E-03 -0.49624743E-03
     atom   16 type  3   force =  -0.43737070E-03 -0.67025279E-03  0.15031868E-02
     The Hubbard contrib.    to forces
     atom    1 type  1   force =   0.00000000E+00  0.00000000E+00  0.00000000E+00
     atom    2 type  3   force =   0.00000000E+00  0.00000000E+00  0.00000000E+00
     atom    3 type  2   force =   0.00000000E+00  0.00000000E+00  0.00000000E+00
     atom    4 type  3   force =   0.00000000E+00  0.00000000E+00  0.00000000E+00
     atom    5 type  2   force =   0.00000000E+00  0.00000000E+00  0.00000000E+00
     atom    6 type  3   force =   0.00000000E+00  0.00000000E+00  0.00000000E+00
     atom    7 type  2   force =   0.00000000E+00  0.00000000E+00  0.00000000E+00
     atom    8 type  3   force =   0.00000000E+00  0.00000000E+00  0.00000000E+00
     atom    9 type  1   force =   0.00000000E+00  0.00000000E+00  0.00000000E+00
     atom   10 type  3   force =   0.00000000E+00  0.00000000E+00  0.00000000E+00
     atom   11 type  1   force =   0.00000000E+00  0.00000000E+00  0.00000000E+00
     atom   12 type  3   force =   0.00000000E+00  0.00000000E+00  0.00000000E+00
     atom   13 type  2   force =   0.00000000E+00  0.00000000E+00  0.00000000E+00
     atom   14 type  3   force =   0.00000000E+00  0.00000000E+00  0.00000000E+00
     atom   15 type  1   force =   0.00000000E+00  0.00000000E+00  0.00000000E+00
     atom   16 type  3   force =   0.00000000E+00  0.00000000E+00  0.00000000E+00
     The SCF correction term to forces
     atom    1 type  1   force =   0.23967601E-06  0.20191344E-05 -0.10322465E-05
     atom    2 type  3   force =   0.18344783E-05 -0.24326273E-05  0.13386941E-05
     atom    3 type  2   force =   0.17616697E-05 -0.65253184E-06 -0.72968616E-05
     atom    4 type  3   force =   0.22660251E-05 -0.74497052E-06  0.89067136E-06
     atom    5 type  2   force =  -0.19038374E-06 -0.68320331E-05  0.37602163E-06
     atom    6 type  3   force =  -0.38149297E-06  0.98468278E-06 -0.50951542E-06
     atom    7 type  2   force =   0.30015017E-05  0.83704150E-06  0.22857854E-05
     atom    8 type  3   force =   0.13783867E-06 -0.33389759E-06 -0.35335816E-05
     atom    9 type  1   force =  -0.41533323E-05 -0.27116718E-06 -0.75672872E-06
     atom   10 type  3   force =   0.34233864E-06  0.17642706E-08  0.75698448E-06
     atom   11 type  1   force =   0.65465435E-06  0.46820417E-05  0.54295484E-06
     atom   12 type  3   force =  -0.12109544E-05 -0.52383067E-06 -0.88412451E-06
     atom   13 type  2   force =   0.31574027E-05  0.10993952E-05  0.40438194E-05
     atom   14 type  3   force =  -0.17982316E-05  0.30288167E-06 -0.76919097E-06
     atom   15 type  1   force =  -0.83534808E-06 -0.14787091E-05 -0.35427940E-06
     atom   16 type  3   force =   0.18989549E-06  0.30621947E-05  0.12165933E-05

     Total force =     0.267433     Total SCF correction =     0.000016


     entering subroutine stress ...

          total   stress  (Ry/bohr**3)                   (kbar)     P=   54.59
   0.0000862889  -0.0000374061  -0.0000749281         12.69     -5.50    -11.02
  -0.0000374061   0.0006088774  -0.0000691399         -5.50     89.57    -10.17
  -0.0000749281  -0.0000691399   0.0004180795        -11.02    -10.17     61.50

     kinetic stress (kbar)  20826.73     -8.97      2.76
                               -8.97  20945.59     -9.88
                                2.76     -9.88  20893.08

     local   stress (kbar)    183.46   -526.13   -362.57
                             -526.13  -7816.13     21.23
                             -362.57     21.23  -3855.65

     nonloc. stress (kbar)   5262.23      0.19      1.74
                                0.19   5273.11      1.10
                                1.74      1.10   5272.21

     hartree stress (kbar)   9770.83    225.37    145.81
                              225.37  12778.22      1.43
                              145.81      1.43  11312.84

     exc-cor stress (kbar)  -5295.13      0.39      0.38
                                0.39  -5289.39      0.04
                                0.38      0.04  -5292.51

     corecor stress (kbar)  -1048.58      0.04     -0.01
                                0.04  -1049.12      0.02
                               -0.01      0.02  -1048.88

     ewald   stress (kbar) -29686.84    303.61    200.87
                              303.61 -24752.72    -24.12
                              200.87    -24.12 -27219.60

     hubbard stress (kbar)      0.00      0.00      0.00
                                0.00      0.00      0.00
                                0.00      0.00      0.00

     london  stress (kbar)      0.00      0.00      0.00
                                0.00      0.00      0.00
                                0.00      0.00      0.00

     XDM     stress (kbar)      0.00      0.00      0.00
                                0.00      0.00      0.00
                                0.00      0.00      0.00

     dft-nl  stress (kbar)      0.00      0.00      0.00
                                0.00      0.00      0.00
                                0.00      0.00      0.00



     Writing output data file mix.dummy4439.save

     init_run     :     14.80s CPU     16.55s WALL (       1 calls)
     electrons    :    717.42s CPU    790.00s WALL (       1 calls)
     forces       :      5.37s CPU      5.88s WALL (       1 calls)
     stress       :      9.48s CPU      9.85s WALL (       1 calls)

     Called by init_run:
     wfcinit      :     12.62s CPU     13.96s WALL (       1 calls)
     potinit      :      0.64s CPU      0.65s WALL (       1 calls)

     Called by electrons:
     c_bands      :    631.63s CPU    697.35s WALL (      21 calls)
     sum_band     :     79.43s CPU     85.97s WALL (      21 calls)
     v_of_rho     :      0.72s CPU      0.79s WALL (      22 calls)
     v_h          :      0.05s CPU      0.06s WALL (      22 calls)
     v_xc         :      0.73s CPU      0.80s WALL (      24 calls)
     newd         :      4.54s CPU      4.61s WALL (      22 calls)
     mix_rho      :      1.21s CPU      1.32s WALL (      21 calls)

     Called by c_bands:
     init_us_2    :      3.59s CPU      3.65s WALL (    1620 calls)
     cegterg      :    605.57s CPU    669.75s WALL (     756 calls)

     Called by sum_band:
     sum_band:bec :      0.82s CPU      0.88s WALL (     756 calls)
     addusdens    :      4.25s CPU      4.31s WALL (      21 calls)

     Called by *egterg:
     h_psi        :    314.52s CPU    336.49s WALL (    2338 calls)
     s_psi        :     28.28s CPU     30.81s WALL (    2338 calls)
     g_psi        :      0.30s CPU      0.32s WALL (    1546 calls)
     cdiaghg      :     81.82s CPU     94.44s WALL (    2302 calls)
     cegterg:over :     91.54s CPU    102.11s WALL (    1546 calls)
     cegterg:upda :     10.22s CPU     14.08s WALL (    1546 calls)
     cegterg:last :      6.18s CPU      8.16s WALL (     756 calls)

     Called by h_psi:
     h_psi:vloc   :    203.56s CPU    209.14s WALL (    2338 calls)
     h_psi:vnl    :    110.53s CPU    126.87s WALL (    2338 calls)
     add_vuspsi   :     28.43s CPU     33.43s WALL (    2338 calls)

     General routines
     calbec       :    115.71s CPU    132.71s WALL (    3166 calls)
     fft          :      1.69s CPU      1.75s WALL (     373 calls)
     ffts         :      0.75s CPU      0.84s WALL (     563 calls)
     fftw         :    230.87s CPU    237.06s WALL (  279078 calls)
     interpolate  :      0.16s CPU      0.17s WALL (      43 calls)

     Parallel routines
     fft_scatter  :     89.59s CPU     92.89s WALL (  280014 calls)

     PWSCF        : 12m29.75s CPU    13m46.53s WALL


   This run was terminated on:   3:58:48   8Dec2017            

=------------------------------------------------------------------------------=
   JOB DONE.
=------------------------------------------------------------------------------=
