
     Program PWSCF v.5.1 starts on 18Aug2017 at 20: 9:11 

     This program is part of the open-source Quantum ESPRESSO suite
     for quantum simulation of materials; please cite
         "P. Giannozzi et al., J. Phys.:Condens. Matter 21 395502 (2009);
          URL http://www.quantum-espresso.org", 
     in publications or presentations arising from this work. More details at
     http://www.quantum-espresso.org/quote

     Parallel version (MPI), running on     8 processors
     R & G space division:  proc/nbgrp/npool/nimage =       8
     Reading input from /tmp/mix222.03.25247/mix222.03.t
Warning: card &IONS ignored
Warning: card   ION_DYNAMICS='BFGS', ignored
Warning: card / ignored
Warning: card &CELL ignored
Warning: card  CELL_DYNAMICS = 'BFGS' ignored
Warning: card / ignored
     Message from routine read_cards :
     DEPRECATED: no units specified in CELL_PARAMETERS card

     Current dimensions of program PWSCF are:
     Max number of different atomic species (ntypx) = 10
     Max number of k-points (npk) =  40000
     Max angular momentum in pseudopotentials (lmaxx) =  3
 kfg - two_fermi_energies  F

     Subspace diagonalization in iterative solution of the eigenvalue problem:
     a serial algorithm will be used


     Parallelization info
     --------------------
     sticks:   dense  smooth     PW     G-vecs:    dense   smooth      PW
     Min         252     202     58                 7499     5367     835
     Max         253     203     59                 7501     5385     836
     Sum        2023    1623    467                60005    43003    6685



     bravais-lattice index     =            0
     lattice parameter (alat)  =    12.098855544  a.u.
     unit-cell volume          =    1255.9733 (a.u.)^3
     number of atoms/cell      =           16
     number of atomic types    =            3
     number of electrons       =       128.00
     number of Kohn-Sham states=           77
     kinetic-energy cutoff     =      40.0000  Ry
     charge density cutoff     =     200.0000  Ry
     convergence threshold     =      1.0E-10
     mixing beta               =       0.3000
     number of iterations used =            8  local-TF  mixing
     Exchange-correlation      = SLA  PW   PSX  PSC ( 1  4 10  8 0)
     A smooth kinetic-energy cutoff is imposed at      39.5000 Ry
     height of the smooth step-function =             800.0000 Ry
     width of the smooth step-function  =               1.0000 Ry


     celldm(1)=  12.098856  celldm(2)=   0.000000  celldm(3)=   0.000000
     celldm(4)=   0.000000  celldm(5)=   0.000000  celldm(6)=   0.000000

     crystal axes: (cart. coord. in units of alat)
               a(1) = (  -0.006557123307   0.707832060601   0.706350322517 )  
               a(2) = (   0.703570979050   0.001226546694   0.708913852111 )  
               a(3) = (   0.700098911921   0.707753416154  -0.006922411248 )  

     reciprocal axes: (cart. coord. in units 2 pi/alat)
               b(1) = ( -0.707514  0.706718  0.700959 )  
               b(2) = (  0.711853 -0.697256  0.705327 )  
               b(3) = (  0.706359  0.707333 -0.702260 )  


     PseudoPot. # 1 for Ca read from file:
     /users/kfg/psuedo/gbrv_1.5/ca.pbesol.UPF
     MD5 check sum: 0533207b58cddeaa036efa5b63902087
     Pseudo is Ultrasoft + core correction, Zval = 10.0
     Generated by new atomic code, or converted to UPF format
     Using radial grid of  845 points,  6 beta functions with: 
                l(1) =   0
                l(2) =   0
                l(3) =   1
                l(4) =   1
                l(5) =   2
                l(6) =   2
     Q(r) pseudized with  8 coefficients,  rinner =    1.500   1.500   1.500
                                                       1.500   1.500

     PseudoPot. # 2 for Mg read from file:
     /users/kfg/psuedo/gbrv_1.5/mg.pbesol.UPF
     MD5 check sum: 4059f37963cf5867752dbf5ab2400678
     Pseudo is Ultrasoft, Zval = 10.0
     Generated by new atomic code, or converted to UPF format
     Using radial grid of  821 points,  7 beta functions with: 
                l(1) =   0
                l(2) =   0
                l(3) =   0
                l(4) =   1
                l(5) =   1
                l(6) =   2
                l(7) =   2
     Q(r) pseudized with  8 coefficients,  rinner =    1.200   1.200   1.200
                                                       1.200   1.200

     PseudoPot. # 3 for O  read from file:
     /users/kfg/psuedo/gbrv_1.5/o.pbesol.UPF
     MD5 check sum: 501638753501ef6325af9037351f7734
     Pseudo is Ultrasoft + core correction, Zval =  6.0
     Generated by new atomic code, or converted to UPF format
     Using radial grid of  737 points,  5 beta functions with: 
                l(1) =   0
                l(2) =   0
                l(3) =   1
                l(4) =   1
                l(5) =   2
     Q(r) pseudized with  8 coefficients,  rinner =    0.900   0.900   0.900
                                                       0.900   0.900

     atomic species   valence    mass     pseudopotential
        Ca            10.00    40.07800     Ca( 1.00)
        Mg            10.00    40.07800     Mg( 1.00)
        O              6.00    15.99940     O ( 1.00)

     No symmetry found


                                    s                        frac. trans.

      isym =  1     identity                                     

 cryst.   s( 1) = (     1          0          0      )
                  (     0          1          0      )
                  (     0          0          1      )

 cart.    s( 1) = (  1.0000000 -0.0000000  0.0000000 )
                  ( -0.0000000  1.0000000 -0.0000000 )
                  ( -0.0000000  0.0000000  1.0000000 )


     point group C_1 (1)    
     there are  1 classes
     the character table:

       E    
A      1.00

     the symmetry operations in each class:
     E        1

   Cartesian axes

     site n.     atom                  positions (alat units)
         1           Ca  tau(   1) = (   -0.01586326492    0.01678338232    0.00416536118  )
         2           O   tau(   2) = (    0.33933417397    0.34264119030    0.33788057760  )
         3           Mg  tau(   3) = (    0.34856139005    0.36438225271   -0.00125283116  )
         4           O   tau(   4) = (    0.71488876679    0.73150340206    0.37179926329  )
         5           Ca  tau(   5) = (    0.33351023783   -0.00734178664    0.34695807226  )
         6           O   tau(   6) = (    0.67641040630    0.36952103850    0.69990078944  )
         7           Mg  tau(   7) = (    0.68563973221    0.34012402135    0.33056646084  )
         8           O   tau(   8) = (    1.02683544871    0.71827158006    0.71425556367  )
         9           Ca  tau(   9) = (    0.02043660427    0.36885215899    0.35908986332  )
        10           O   tau(  10) = (    0.32436208812    0.69118998918    0.69585091131  )
        11           Mg  tau(  11) = (    0.33863970846    0.70139718490    0.35121353534  )
        12           O   tau(  12) = (    0.69159762083    1.05811126751    0.68262061302  )
        13           Mg  tau(  13) = (    0.34992488352    0.37531278872    0.70994289079  )
        14           O   tau(  14) = (    0.69474875942    0.70056826108    1.05094197626  )
        15           Mg  tau(  15) = (    0.68140579579    0.72042295056    0.68171785255  )
        16           O   tau(  16) = (    1.04927317799    1.06055250409    1.05804592042  )

   Crystallographic axes

     site n.     atom                  positions (cryst. coord.)
         1           Ca  tau(   1) = (    0.02600436096   -0.02005668883   -0.00225889070  )
         2           O   tau(   2) = (    0.23890755709    0.24096379159    0.24477339787  )
         3           Mg  tau(   3) = (    0.01002527010   -0.00682671141    0.50482895630  )
         4           O   tau(   4) = (    0.27178898704    0.26109089748    0.76128520307  )
         5           Ca  tau(   5) = (    0.00205162449    0.48724827111   -0.01326962862  )
         6           O   tau(   6) = (    0.27317919433    0.71751302273    0.24765120060  )
         7           Mg  tau(   7) = (   -0.01301442135    0.48407883049    0.49274548563  )
         8           O   tau(   8) = (    0.28177898168    0.73392072078    0.73177915212  )
         9           Ca  tau(   9) = (    0.49792278191    0.01063921472    0.02316258797  )
        10           O   tau(  10) = (    0.74674899270    0.23976421376    0.22934969330  )
        11           Mg  tau(  11) = (    0.50228421971   -0.00027118134    0.48867958159  )
        12           O   tau(  12) = (    0.73696069838    0.23601237560    0.75757653069  )
        13           Mg  tau(  13) = (    0.51530462621    0.48814784185    0.01407964548  )
        14           O   tau(  14) = (    0.74022728090    0.74734135603    0.24824325316  )
        15           Mg  tau(  15) = (    0.50488821974    0.46357569519    0.51215335186  )
        16           O   tau(  16) = (    0.74878322761    0.75372024099    0.74830476829  )

     number of k points=    36  gaussian smearing, width (Ry)=  0.0050
                       cart. coord. in units 2pi/alat
        k(    1) = (   0.0000000   0.0000000   0.0000000), wk =   0.0312500
        k(    2) = (   0.1765898   0.1768332  -0.1755649), wk =   0.0625000
        k(    3) = (  -0.3531797  -0.3536665   0.3511298), wk =   0.0312500
        k(    4) = (   0.1779633  -0.1743140   0.1763317), wk =   0.0625000
        k(    5) = (   0.3545532   0.0025193   0.0007668), wk =   0.0625000
        k(    6) = (  -0.1752163  -0.5279804   0.5274614), wk =   0.0625000
        k(    7) = (   0.0013735  -0.3511472   0.3518965), wk =   0.0625000
        k(    8) = (  -0.3559267   0.3486279  -0.3526633), wk =   0.0312500
        k(    9) = (  -0.1793368   0.5254611  -0.5282282), wk =   0.0625000
        k(   10) = (  -0.7091063  -0.0050385  -0.0015336), wk =   0.0312500
        k(   11) = (  -0.1768786   0.1766796   0.1752398), wk =   0.0625000
        k(   12) = (  -0.0002888   0.3535128  -0.0003251), wk =   0.0625000
        k(   13) = (  -0.5300582  -0.1769869   0.5263696), wk =   0.0625000
        k(   14) = (  -0.3534684  -0.0001536   0.3508047), wk =   0.0625000
        k(   15) = (   0.0010847   0.0023656   0.3515715), wk =   0.0625000
        k(   16) = (   0.1776746   0.1791989   0.1760066), wk =   0.0625000
        k(   17) = (  -0.3520949  -0.3513008   0.7027012), wk =   0.0625000
        k(   18) = (  -0.1755051  -0.1744676   0.5271364), wk =   0.0625000
        k(   19) = (  -0.5328053   0.5253075  -0.1774235), wk =   0.0625000
        k(   20) = (  -0.3562154   0.7021407  -0.3529884), wk =   0.0625000
        k(   21) = (  -0.8859849   0.1716411   0.1737062), wk =   0.0625000
        k(   22) = (  -0.7093951   0.3484743  -0.0018587), wk =   0.0625000
        k(   23) = (  -0.3548419   0.3509936  -0.0010919), wk =   0.0625000
        k(   24) = (  -0.1782521   0.5278268  -0.1766567), wk =   0.0625000
        k(   25) = (  -0.7080216  -0.0026729   0.3500379), wk =   0.0625000
        k(   26) = (  -0.5314318   0.1741603   0.1744730), wk =   0.0625000
        k(   27) = (   0.3537572  -0.3533592  -0.3504796), wk =   0.0312500
        k(   28) = (   0.5303470  -0.1765260  -0.5260445), wk =   0.0625000
        k(   29) = (   0.0005775  -0.7070256   0.0006501), wk =   0.0312500
        k(   30) = (   0.5317205  -0.5276731  -0.1741480), wk =   0.0625000
        k(   31) = (   0.7083103  -0.3508399  -0.3497128), wk =   0.0625000
        k(   32) = (   0.1785409  -0.8813396   0.1769818), wk =   0.0625000
        k(   33) = (   0.3551307  -0.7045064   0.0014169), wk =   0.0625000
        k(   34) = (  -0.0021695  -0.0047313  -0.7031430), wk =   0.0312500
        k(   35) = (   0.1744203   0.1721019  -0.8787079), wk =   0.0625000
        k(   36) = (  -0.3553492  -0.3583977  -0.3520132), wk =   0.0312500

                       cryst. coord.
        k(    1) = (   0.0000000   0.0000000   0.0000000), wk =   0.0312500
        k(    2) = (   0.0000000  -0.0000000   0.2500000), wk =   0.0625000
        k(    3) = (   0.0000000   0.0000000  -0.5000000), wk =   0.0312500
        k(    4) = (  -0.0000000   0.2500000   0.0000000), wk =   0.0625000
        k(    5) = (  -0.0000000   0.2500000   0.2500000), wk =   0.0625000
        k(    6) = (   0.0000000   0.2500000  -0.5000000), wk =   0.0625000
        k(    7) = (  -0.0000000   0.2500000  -0.2500000), wk =   0.0625000
        k(    8) = (   0.0000000  -0.5000000  -0.0000000), wk =   0.0312500
        k(    9) = (   0.0000000  -0.5000000   0.2500000), wk =   0.0625000
        k(   10) = (   0.0000000  -0.5000000  -0.5000000), wk =   0.0312500
        k(   11) = (   0.2500000  -0.0000000   0.0000000), wk =   0.0625000
        k(   12) = (   0.2500000  -0.0000000   0.2500000), wk =   0.0625000
        k(   13) = (   0.2500000   0.0000000  -0.5000000), wk =   0.0625000
        k(   14) = (   0.2500000   0.0000000  -0.2500000), wk =   0.0625000
        k(   15) = (   0.2500000   0.2500000   0.0000000), wk =   0.0625000
        k(   16) = (   0.2500000   0.2500000   0.2500000), wk =   0.0625000
        k(   17) = (   0.2500000   0.2500000  -0.5000000), wk =   0.0625000
        k(   18) = (   0.2500000   0.2500000  -0.2500000), wk =   0.0625000
        k(   19) = (   0.2500000  -0.5000000  -0.0000000), wk =   0.0625000
        k(   20) = (   0.2500000  -0.5000000   0.2500000), wk =   0.0625000
        k(   21) = (   0.2500000  -0.5000000  -0.5000000), wk =   0.0625000
        k(   22) = (   0.2500000  -0.5000000  -0.2500000), wk =   0.0625000
        k(   23) = (   0.2500000  -0.2500000  -0.0000000), wk =   0.0625000
        k(   24) = (   0.2500000  -0.2500000   0.2500000), wk =   0.0625000
        k(   25) = (   0.2500000  -0.2500000  -0.5000000), wk =   0.0625000
        k(   26) = (   0.2500000  -0.2500000  -0.2500000), wk =   0.0625000
        k(   27) = (  -0.5000000   0.0000000  -0.0000000), wk =   0.0312500
        k(   28) = (  -0.5000000   0.0000000   0.2500000), wk =   0.0625000
        k(   29) = (  -0.5000000   0.0000000  -0.5000000), wk =   0.0312500
        k(   30) = (  -0.5000000   0.2500000  -0.0000000), wk =   0.0625000
        k(   31) = (  -0.5000000   0.2500000   0.2500000), wk =   0.0625000
        k(   32) = (  -0.5000000   0.2500000  -0.5000000), wk =   0.0625000
        k(   33) = (  -0.5000000   0.2500000  -0.2500000), wk =   0.0625000
        k(   34) = (  -0.5000000  -0.5000000  -0.0000000), wk =   0.0312500
        k(   35) = (  -0.5000000  -0.5000000   0.2500000), wk =   0.0625000
        k(   36) = (  -0.5000000  -0.5000000  -0.5000000), wk =   0.0312500

     Dense  grid:    60005 G-vectors     FFT dimensions: (  60,  60,  60)

     Smooth grid:    43003 G-vectors     FFT dimensions: (  50,  50,  50)

     Largest allocated arrays     est. size (Mb)     dimensions
        Kohn-Sham Wavefunctions         0.81 Mb     (     686,   77)
        NL pseudopotentials             2.65 Mb     (     686,  253)
        Each V/rho on FFT grid          0.44 Mb     (   28800)
        Each G-vector array             0.06 Mb     (    7501)
        G-vector shells                 0.05 Mb     (    7207)
     Largest temporary arrays     est. size (Mb)     dimensions
        Auxiliary wavefunctions         3.22 Mb     (     686,  308)
        Each subspace H/S matrix        1.45 Mb     (     308,  308)
        Each <psi_i|beta_j> matrix      0.30 Mb     (     253,   77)
        Arrays for rho mixing           3.52 Mb     (   28800,    8)

     Check: negative/imaginary core charge=   -0.000003    0.000000

     Initial potential from superposition of free atoms

     starting charge  126.48332, renormalised to  128.00000
     Starting wfc are   87 randomized atomic wfcs

     total cpu time spent up to now is       19.8 secs

     Self-consistent Calculation

     iteration #  1     ecut=    40.00 Ry     beta=0.30
     Davidson diagonalization with overlap
     ethr =  1.00E-02,  avg # of iterations =  3.3

     total cpu time spent up to now is       80.3 secs

     total energy              =   -1110.21386765 Ry
     Harris-Foulkes estimate   =   -1110.80955652 Ry
     estimated scf accuracy    <       3.14672222 Ry

     iteration #  2     ecut=    40.00 Ry     beta=0.30
     Davidson diagonalization with overlap
     ethr =  2.46E-03,  avg # of iterations =  1.0

     total cpu time spent up to now is      117.2 secs

     total energy              =   -1109.76089036 Ry
     Harris-Foulkes estimate   =   -1110.30267154 Ry
     estimated scf accuracy    <       1.37841625 Ry

     iteration #  3     ecut=    40.00 Ry     beta=0.30
     Davidson diagonalization with overlap
     ethr =  1.08E-03,  avg # of iterations =  2.0

     total cpu time spent up to now is      164.1 secs

     total energy              =   -1109.90259880 Ry
     Harris-Foulkes estimate   =   -1109.97045518 Ry
     estimated scf accuracy    <       0.20739752 Ry

     iteration #  4     ecut=    40.00 Ry     beta=0.30
     Davidson diagonalization with overlap
     ethr =  1.62E-04,  avg # of iterations =  3.9

     total cpu time spent up to now is      218.2 secs

     total energy              =   -1109.86232058 Ry
     Harris-Foulkes estimate   =   -1109.91615386 Ry
     estimated scf accuracy    <       0.09230106 Ry

     iteration #  5     ecut=    40.00 Ry     beta=0.30
     Davidson diagonalization with overlap
     ethr =  7.21E-05,  avg # of iterations =  4.0

     total cpu time spent up to now is      280.3 secs

     total energy              =   -1109.87512137 Ry
     Harris-Foulkes estimate   =   -1109.87690511 Ry
     estimated scf accuracy    <       0.01161427 Ry

     iteration #  6     ecut=    40.00 Ry     beta=0.30
     Davidson diagonalization with overlap
     ethr =  9.07E-06,  avg # of iterations =  5.2

     total cpu time spent up to now is      341.7 secs

     total energy              =   -1109.87407186 Ry
     Harris-Foulkes estimate   =   -1109.87574001 Ry
     estimated scf accuracy    <       0.00537712 Ry

     iteration #  7     ecut=    40.00 Ry     beta=0.30
     Davidson diagonalization with overlap
     ethr =  4.20E-06,  avg # of iterations =  4.8

     total cpu time spent up to now is      406.4 secs

     total energy              =   -1109.87424471 Ry
     Harris-Foulkes estimate   =   -1109.87452658 Ry
     estimated scf accuracy    <       0.00071548 Ry

     iteration #  8     ecut=    40.00 Ry     beta=0.30
     Davidson diagonalization with overlap
     ethr =  5.59E-07,  avg # of iterations =  2.0

     total cpu time spent up to now is      453.6 secs

     total energy              =   -1109.87433902 Ry
     Harris-Foulkes estimate   =   -1109.87435924 Ry
     estimated scf accuracy    <       0.00009177 Ry

     iteration #  9     ecut=    40.00 Ry     beta=0.30
     Davidson diagonalization with overlap
     ethr =  7.17E-08,  avg # of iterations =  1.0

     total cpu time spent up to now is      491.7 secs

     total energy              =   -1109.87432294 Ry
     Harris-Foulkes estimate   =   -1109.87434289 Ry
     estimated scf accuracy    <       0.00004355 Ry

     iteration # 10     ecut=    40.00 Ry     beta=0.30
     Davidson diagonalization with overlap
     ethr =  3.40E-08,  avg # of iterations =  2.0

     total cpu time spent up to now is      538.1 secs

     total energy              =   -1109.87432573 Ry
     Harris-Foulkes estimate   =   -1109.87432855 Ry
     estimated scf accuracy    <       0.00001096 Ry

     iteration # 11     ecut=    40.00 Ry     beta=0.30
     Davidson diagonalization with overlap
     ethr =  8.56E-09,  avg # of iterations =  1.0

     total cpu time spent up to now is      575.2 secs

     total energy              =   -1109.87432489 Ry
     Harris-Foulkes estimate   =   -1109.87432626 Ry
     estimated scf accuracy    <       0.00000256 Ry

     iteration # 12     ecut=    40.00 Ry     beta=0.30
     Davidson diagonalization with overlap
     ethr =  2.00E-09,  avg # of iterations =  2.0

     total cpu time spent up to now is      624.4 secs

     total energy              =   -1109.87432523 Ry
     Harris-Foulkes estimate   =   -1109.87432527 Ry
     estimated scf accuracy    <       0.00000032 Ry

     iteration # 13     ecut=    40.00 Ry     beta=0.30
     Davidson diagonalization with overlap
     ethr =  2.47E-10,  avg # of iterations =  2.0

     total cpu time spent up to now is      671.7 secs

     total energy              =   -1109.87432520 Ry
     Harris-Foulkes estimate   =   -1109.87432529 Ry
     estimated scf accuracy    <       0.00000024 Ry

     iteration # 14     ecut=    40.00 Ry     beta=0.30
     Davidson diagonalization with overlap
     ethr =  1.89E-10,  avg # of iterations =  2.0

     total cpu time spent up to now is      718.0 secs

     total energy              =   -1109.87432523 Ry
     Harris-Foulkes estimate   =   -1109.87432523 Ry
     estimated scf accuracy    <       0.00000002 Ry

     iteration # 15     ecut=    40.00 Ry     beta=0.30
     Davidson diagonalization with overlap
     ethr =  1.73E-11,  avg # of iterations =  2.1

     total cpu time spent up to now is      766.7 secs

     total energy              =   -1109.87432523 Ry
     Harris-Foulkes estimate   =   -1109.87432523 Ry
     estimated scf accuracy    <       0.00000001 Ry

     iteration # 16     ecut=    40.00 Ry     beta=0.30
     Davidson diagonalization with overlap
     ethr =  1.00E-11,  avg # of iterations =  2.0

     total cpu time spent up to now is      814.1 secs

     total energy              =   -1109.87432523 Ry
     Harris-Foulkes estimate   =   -1109.87432523 Ry
     estimated scf accuracy    <          9.8E-10 Ry

     iteration # 17     ecut=    40.00 Ry     beta=0.30
     Davidson diagonalization with overlap
     ethr =  7.69E-13,  avg # of iterations =  1.0

     total cpu time spent up to now is      851.2 secs

     total energy              =   -1109.87432523 Ry
     Harris-Foulkes estimate   =   -1109.87432523 Ry
     estimated scf accuracy    <          4.9E-10 Ry

     iteration # 18     ecut=    40.00 Ry     beta=0.30
     Davidson diagonalization with overlap
     ethr =  3.85E-13,  avg # of iterations =  2.0

     total cpu time spent up to now is      899.4 secs

     End of self-consistent calculation

          k = 0.0000 0.0000 0.0000 (  5349 PWs)   bands (ev):

   -66.2013 -66.0979 -65.8002 -65.6616 -65.2531 -33.1812 -33.1600 -33.1435
   -33.0709 -33.0532 -33.0457 -32.7752 -32.7670 -32.7442 -32.6534 -32.6193
   -32.6121 -32.2331 -32.2222 -32.2094 -29.8585 -29.2629 -28.8637 -11.9145
   -11.6021 -11.5124 -11.4388 -10.9290 -10.5652 -10.5404 -10.3933 -10.2255
    -9.0069  -8.3344  -8.2014  -8.1661  -7.6788  -7.5602  -7.3012  -6.9749
     2.7919   3.5084   3.5461   3.6778   4.3643   4.4340   4.4747   5.6428
     5.6864   5.8244   5.8836   5.9384   6.0403   6.0543   6.0806   6.2502
     6.3801   6.4197   6.4810   6.5410   6.5968   7.0110   7.1161   7.1417
    10.5485  12.3995  12.5351  12.7367  14.0007  14.1463  14.2072  14.4008
    14.8804  14.9327  15.2917  15.5045  15.5932

     occupation numbers 
     1.0000   1.0000   1.0000   1.0000   1.0000   1.0000   1.0000   1.0000
     1.0000   1.0000   1.0000   1.0000   1.0000   1.0000   1.0000   1.0000
     1.0000   1.0000   1.0000   1.0000   1.0000   1.0000   1.0000   1.0000
     1.0000   1.0000   1.0000   1.0000   1.0000   1.0000   1.0000   1.0000
     1.0000   1.0000   1.0000   1.0000   1.0000   1.0000   1.0000   1.0000
     1.0000   1.0000   1.0000   1.0000   1.0000   1.0000   1.0000   1.0000
     1.0000   1.0000   1.0000   1.0000   1.0000   1.0000   1.0000   1.0000
     1.0000   1.0000   1.0000   1.0000   1.0000   1.0000   1.0000   1.0000
     0.0000   0.0000   0.0000   0.0000   0.0000   0.0000   0.0000   0.0000
     0.0000   0.0000   0.0000   0.0000   0.0000

          k = 0.1766 0.1768-0.1756 (  5348 PWs)   bands (ev):

   -66.2013 -66.0979 -65.8002 -65.6616 -65.2531 -33.1812 -33.1600 -33.1435
   -33.0709 -33.0532 -33.0457 -32.7752 -32.7669 -32.7440 -32.6535 -32.6194
   -32.6121 -32.2331 -32.2223 -32.2095 -29.8583 -29.2627 -28.8635 -11.9144
   -11.6039 -11.5420 -11.4384 -10.9323 -10.5608 -10.5424 -10.3925 -10.2261
    -8.8465  -8.3719  -8.2451  -8.1905  -7.7155  -7.5433  -7.3106  -6.9852
     3.0574   3.6807   3.8618   3.9183   4.3019   4.4305   4.5776   5.2648
     5.4946   5.5759   5.6742   5.8025   5.9226   5.9956   6.0726   6.2534
     6.2950   6.3457   6.4412   6.5722   6.6244   6.6695   7.0046   7.0592
    11.3285  12.5799  12.7096  13.0520  13.7292  14.3607  14.5353  14.6835
    14.9580  15.0783  15.4653  15.5704  15.6923

     occupation numbers 
     1.0000   1.0000   1.0000   1.0000   1.0000   1.0000   1.0000   1.0000
     1.0000   1.0000   1.0000   1.0000   1.0000   1.0000   1.0000   1.0000
     1.0000   1.0000   1.0000   1.0000   1.0000   1.0000   1.0000   1.0000
     1.0000   1.0000   1.0000   1.0000   1.0000   1.0000   1.0000   1.0000
     1.0000   1.0000   1.0000   1.0000   1.0000   1.0000   1.0000   1.0000
     1.0000   1.0000   1.0000   1.0000   1.0000   1.0000   1.0000   1.0000
     1.0000   1.0000   1.0000   1.0000   1.0000   1.0000   1.0000   1.0000
     1.0000   1.0000   1.0000   1.0000   1.0000   1.0000   1.0000   1.0000
     0.0000   0.0000   0.0000   0.0000   0.0000   0.0000   0.0000   0.0000
     0.0000   0.0000   0.0000   0.0000   0.0000

          k =-0.3532-0.3537 0.3511 (  5372 PWs)   bands (ev):

   -66.2013 -66.0979 -65.8002 -65.6616 -65.2531 -33.1812 -33.1600 -33.1436
   -33.0709 -33.0532 -33.0456 -32.7752 -32.7668 -32.7438 -32.6536 -32.6195
   -32.6122 -32.2332 -32.2223 -32.2096 -29.8581 -29.2625 -28.8634 -11.9143
   -11.6130 -11.5658 -11.4346 -10.9347 -10.5560 -10.5441 -10.3921 -10.2268
    -8.6613  -8.3966  -8.2778  -8.2108  -7.8311  -7.5258  -7.3126  -6.9800
     3.4737   3.9463   4.0947   4.1908   4.4517   4.5232   4.7463   4.8458
     5.0762   5.2951   5.3491   5.6382   5.7373   5.7782   5.8994   5.9977
     6.1782   6.3113   6.4948   6.6459   6.6886   6.8247   6.8990   6.9500
    12.3714  12.7551  12.9139  12.9911  13.3483  14.5302  14.9453  15.0577
    15.1071  15.3933  15.5565  15.8117  15.8802

     occupation numbers 
     1.0000   1.0000   1.0000   1.0000   1.0000   1.0000   1.0000   1.0000
     1.0000   1.0000   1.0000   1.0000   1.0000   1.0000   1.0000   1.0000
     1.0000   1.0000   1.0000   1.0000   1.0000   1.0000   1.0000   1.0000
     1.0000   1.0000   1.0000   1.0000   1.0000   1.0000   1.0000   1.0000
     1.0000   1.0000   1.0000   1.0000   1.0000   1.0000   1.0000   1.0000
     1.0000   1.0000   1.0000   1.0000   1.0000   1.0000   1.0000   1.0000
     1.0000   1.0000   1.0000   1.0000   1.0000   1.0000   1.0000   1.0000
     1.0000   1.0000   1.0000   1.0000   1.0000   1.0000   1.0000   1.0000
     0.0000   0.0000   0.0000   0.0000   0.0000   0.0000   0.0000   0.0000
     0.0000   0.0000   0.0000   0.0000   0.0000

          k = 0.1780-0.1743 0.1763 (  5349 PWs)   bands (ev):

   -66.2013 -66.0979 -65.8002 -65.6616 -65.2531 -33.1811 -33.1598 -33.1434
   -33.0709 -33.0535 -33.0457 -32.7752 -32.7669 -32.7440 -32.6535 -32.6194
   -32.6122 -32.2331 -32.2223 -32.2094 -29.8573 -29.2625 -28.8654 -11.7973
   -11.5657 -11.4913 -11.3631 -10.9822 -10.7016 -10.6370 -10.4977 -10.3556
    -8.7506  -8.2937  -8.1149  -7.9881  -7.7564  -7.5669  -7.3971  -7.1164
     3.0478   3.7110   3.8219   3.9629   4.3715   4.4458   4.5334   5.3952
     5.4934   5.6267   5.6724   5.8246   5.8477   5.8936   6.0637   6.1929
     6.2621   6.3573   6.3863   6.5356   6.6510   6.7202   7.0552   7.0989
    11.3282  12.6650  12.9554  13.1035  13.7009  14.1703  14.2644  14.5835
    14.9238  15.0163  15.3112  15.4048  15.8221

     occupation numbers 
     1.0000   1.0000   1.0000   1.0000   1.0000   1.0000   1.0000   1.0000
     1.0000   1.0000   1.0000   1.0000   1.0000   1.0000   1.0000   1.0000
     1.0000   1.0000   1.0000   1.0000   1.0000   1.0000   1.0000   1.0000
     1.0000   1.0000   1.0000   1.0000   1.0000   1.0000   1.0000   1.0000
     1.0000   1.0000   1.0000   1.0000   1.0000   1.0000   1.0000   1.0000
     1.0000   1.0000   1.0000   1.0000   1.0000   1.0000   1.0000   1.0000
     1.0000   1.0000   1.0000   1.0000   1.0000   1.0000   1.0000   1.0000
     1.0000   1.0000   1.0000   1.0000   1.0000   1.0000   1.0000   1.0000
     0.0000   0.0000   0.0000   0.0000   0.0000   0.0000   0.0000   0.0000
     0.0000   0.0000   0.0000   0.0000   0.0000

          k = 0.3546 0.0025 0.0008 (  5369 PWs)   bands (ev):

   -66.2013 -66.0979 -65.8002 -65.6616 -65.2531 -33.1811 -33.1598 -33.1434
   -33.0709 -33.0535 -33.0456 -32.7753 -32.7671 -32.7442 -32.6534 -32.6194
   -32.6120 -32.2332 -32.2223 -32.2095 -29.8572 -29.2624 -28.8654 -11.7966
   -11.5636 -11.5008 -11.3674 -10.9875 -10.6956 -10.6369 -10.4928 -10.3566
    -8.7080  -8.3216  -8.1259  -7.9939  -7.7304  -7.5799  -7.4082  -7.1121
     3.1452   3.7671   3.8297   3.9959   4.3465   4.4875   4.6306   5.2782
     5.4936   5.5852   5.7036   5.7625   5.8432   5.9599   6.0353   6.1204
     6.2435   6.3319   6.4597   6.5202   6.5944   6.6212   6.8862   7.0174
    11.4947  12.6054  13.0651  13.3169  13.8650  14.1550  14.4248  14.5725
    14.7796  15.0162  15.4539  15.6042  15.7353

     occupation numbers 
     1.0000   1.0000   1.0000   1.0000   1.0000   1.0000   1.0000   1.0000
     1.0000   1.0000   1.0000   1.0000   1.0000   1.0000   1.0000   1.0000
     1.0000   1.0000   1.0000   1.0000   1.0000   1.0000   1.0000   1.0000
     1.0000   1.0000   1.0000   1.0000   1.0000   1.0000   1.0000   1.0000
     1.0000   1.0000   1.0000   1.0000   1.0000   1.0000   1.0000   1.0000
     1.0000   1.0000   1.0000   1.0000   1.0000   1.0000   1.0000   1.0000
     1.0000   1.0000   1.0000   1.0000   1.0000   1.0000   1.0000   1.0000
     1.0000   1.0000   1.0000   1.0000   1.0000   1.0000   1.0000   1.0000
     0.0000   0.0000   0.0000   0.0000   0.0000   0.0000   0.0000   0.0000
     0.0000   0.0000   0.0000   0.0000   0.0000

          k =-0.1752-0.5280 0.5275 (  5371 PWs)   bands (ev):

   -66.2013 -66.0979 -65.8002 -65.6616 -65.2531 -33.1812 -33.1598 -33.1434
   -33.0709 -33.0535 -33.0455 -32.7753 -32.7670 -32.7440 -32.6535 -32.6195
   -32.6120 -32.2332 -32.2224 -32.2096 -29.8570 -29.2622 -28.8652 -11.7968
   -11.5636 -11.5327 -11.3650 -10.9896 -10.6973 -10.6305 -10.4916 -10.3540
    -8.5178  -8.3693  -8.1639  -8.0177  -7.8180  -7.5608  -7.4099  -7.1119
     3.5709   3.9581   4.1094   4.2516   4.3769   4.5668   4.6976   4.9228
     5.1097   5.3185   5.4897   5.6515   5.7348   5.8508   5.9329   6.0587
     6.2714   6.3111   6.3777   6.4303   6.4987   6.6438   6.7899   6.8954
    12.3568  12.8930  13.2425  13.5213  13.6618  14.1221  14.4200  14.7731
    14.9953  15.2555  15.4887  15.5720  15.8883

     occupation numbers 
     1.0000   1.0000   1.0000   1.0000   1.0000   1.0000   1.0000   1.0000
     1.0000   1.0000   1.0000   1.0000   1.0000   1.0000   1.0000   1.0000
     1.0000   1.0000   1.0000   1.0000   1.0000   1.0000   1.0000   1.0000
     1.0000   1.0000   1.0000   1.0000   1.0000   1.0000   1.0000   1.0000
     1.0000   1.0000   1.0000   1.0000   1.0000   1.0000   1.0000   1.0000
     1.0000   1.0000   1.0000   1.0000   1.0000   1.0000   1.0000   1.0000
     1.0000   1.0000   1.0000   1.0000   1.0000   1.0000   1.0000   1.0000
     1.0000   1.0000   1.0000   1.0000   1.0000   1.0000   1.0000   1.0000
     0.0000   0.0000   0.0000   0.0000   0.0000   0.0000   0.0000   0.0000
     0.0000   0.0000   0.0000   0.0000   0.0000

          k = 0.0014-0.3511 0.3519 (  5356 PWs)   bands (ev):

   -66.2013 -66.0979 -65.8002 -65.6616 -65.2531 -33.1811 -33.1598 -33.1434
   -33.0709 -33.0535 -33.0456 -32.7752 -32.7669 -32.7438 -32.6536 -32.6196
   -32.6122 -32.2332 -32.2223 -32.2095 -29.8571 -29.2623 -28.8653 -11.7977
   -11.5643 -11.5227 -11.3632 -10.9850 -10.7042 -10.6293 -10.4958 -10.3531
    -8.5717  -8.3408  -8.1649  -8.0195  -7.7897  -7.5658  -7.4003  -7.1203
     3.3990   3.9234   4.1292   4.1766   4.3474   4.4702   4.7667   4.9762
     5.1278   5.3376   5.4593   5.6793   5.7994   5.9296   6.0501   6.1273
     6.1808   6.2328   6.3269   6.5163   6.5565   6.7526   6.8397   7.0014
    12.1668  12.8545  13.1232  13.4500  13.6110  14.1020  14.4112  14.8080
    14.9443  15.1033  15.2047  15.5311  15.9699

     occupation numbers 
     1.0000   1.0000   1.0000   1.0000   1.0000   1.0000   1.0000   1.0000
     1.0000   1.0000   1.0000   1.0000   1.0000   1.0000   1.0000   1.0000
     1.0000   1.0000   1.0000   1.0000   1.0000   1.0000   1.0000   1.0000
     1.0000   1.0000   1.0000   1.0000   1.0000   1.0000   1.0000   1.0000
     1.0000   1.0000   1.0000   1.0000   1.0000   1.0000   1.0000   1.0000
     1.0000   1.0000   1.0000   1.0000   1.0000   1.0000   1.0000   1.0000
     1.0000   1.0000   1.0000   1.0000   1.0000   1.0000   1.0000   1.0000
     1.0000   1.0000   1.0000   1.0000   1.0000   1.0000   1.0000   1.0000
     0.0000   0.0000   0.0000   0.0000   0.0000   0.0000   0.0000   0.0000
     0.0000   0.0000   0.0000   0.0000   0.0000

          k =-0.3559 0.3486-0.3527 (  5368 PWs)   bands (ev):

   -66.2013 -66.0979 -65.8002 -65.6616 -65.2531 -33.1810 -33.1595 -33.1433
   -33.0709 -33.0538 -33.0456 -32.7752 -32.7669 -32.7437 -32.6536 -32.6196
   -32.6123 -32.2332 -32.2224 -32.2095 -29.8561 -29.2621 -28.8672 -11.6307
   -11.5335 -11.4367 -11.2487 -11.1232 -10.8650 -10.7446 -10.6479 -10.3878
    -8.4434  -8.3039  -7.9681  -7.9405  -7.6786  -7.5864  -7.5056  -7.3614
     3.4452   3.9945   4.1193   4.1752   4.4916   4.6017   4.8638   5.0185
     5.0428   5.2813   5.3879   5.5053   5.6649   5.7278   5.7449   6.0829
     6.1804   6.2300   6.4532   6.6334   6.7013   6.8261   6.9568   7.0534
    12.4078  12.8844  13.0742  13.5728  13.7318  14.1567  14.2230  14.3534
    14.9371  15.0207  15.1952  15.3616  15.7843

     occupation numbers 
     1.0000   1.0000   1.0000   1.0000   1.0000   1.0000   1.0000   1.0000
     1.0000   1.0000   1.0000   1.0000   1.0000   1.0000   1.0000   1.0000
     1.0000   1.0000   1.0000   1.0000   1.0000   1.0000   1.0000   1.0000
     1.0000   1.0000   1.0000   1.0000   1.0000   1.0000   1.0000   1.0000
     1.0000   1.0000   1.0000   1.0000   1.0000   1.0000   1.0000   1.0000
     1.0000   1.0000   1.0000   1.0000   1.0000   1.0000   1.0000   1.0000
     1.0000   1.0000   1.0000   1.0000   1.0000   1.0000   1.0000   1.0000
     1.0000   1.0000   1.0000   1.0000   1.0000   1.0000   1.0000   1.0000
     0.0000   0.0000   0.0000   0.0000   0.0000   0.0000   0.0000   0.0000
     0.0000   0.0000   0.0000   0.0000   0.0000

          k =-0.1793 0.5255-0.5282 (  5367 PWs)   bands (ev):

   -66.2013 -66.0979 -65.8002 -65.6616 -65.2531 -33.1811 -33.1595 -33.1433
   -33.0709 -33.0538 -33.0455 -32.7753 -32.7670 -32.7439 -32.6535 -32.6195
   -32.6121 -32.2332 -32.2224 -32.2095 -29.8560 -29.2620 -28.8672 -11.6357
   -11.5220 -11.4494 -11.2494 -11.1273 -10.8636 -10.7447 -10.6422 -10.3894
    -8.4477  -8.2984  -7.9708  -7.9146  -7.6875  -7.5633  -7.5365  -7.3622
     3.5439   3.9406   4.1227   4.2443   4.3989   4.6544   4.8684   5.0240
     5.1686   5.2879   5.3651   5.4947   5.6889   5.7837   5.9738   6.0498
     6.1675   6.2621   6.3338   6.4597   6.6068   6.6845   6.8090   6.9640
    12.4173  12.9731  13.2956  13.7696  13.8741  14.1806  14.2895  14.4996
    14.6516  14.9321  15.0736  15.3396  15.8391

     occupation numbers 
     1.0000   1.0000   1.0000   1.0000   1.0000   1.0000   1.0000   1.0000
     1.0000   1.0000   1.0000   1.0000   1.0000   1.0000   1.0000   1.0000
     1.0000   1.0000   1.0000   1.0000   1.0000   1.0000   1.0000   1.0000
     1.0000   1.0000   1.0000   1.0000   1.0000   1.0000   1.0000   1.0000
     1.0000   1.0000   1.0000   1.0000   1.0000   1.0000   1.0000   1.0000
     1.0000   1.0000   1.0000   1.0000   1.0000   1.0000   1.0000   1.0000
     1.0000   1.0000   1.0000   1.0000   1.0000   1.0000   1.0000   1.0000
     1.0000   1.0000   1.0000   1.0000   1.0000   1.0000   1.0000   1.0000
     0.0000   0.0000   0.0000   0.0000   0.0000   0.0000   0.0000   0.0000
     0.0000   0.0000   0.0000   0.0000   0.0000

          k =-0.7091-0.0050-0.0015 (  5388 PWs)   bands (ev):

   -66.2013 -66.0979 -65.8002 -65.6616 -65.2531 -33.1811 -33.1595 -33.1433
   -33.0709 -33.0538 -33.0455 -32.7753 -32.7671 -32.7441 -32.6534 -32.6194
   -32.6119 -32.2332 -32.2225 -32.2096 -29.8559 -29.2619 -28.8671 -11.6407
   -11.5089 -11.4618 -11.2519 -11.1319 -10.8600 -10.7463 -10.6373 -10.3910
    -8.4381  -8.3036  -7.9884  -7.8695  -7.6829  -7.5961  -7.5429  -7.3522
     3.6786   3.8497   4.0752   4.1742   4.6329   4.7682   4.8221   5.0565
     5.2303   5.2864   5.3436   5.6292   5.6322   5.8288   5.9223   6.0092
     6.0925   6.2049   6.2723   6.3690   6.5057   6.6581   6.7385   6.8668
    12.5793  12.8903  13.1532  13.9935  14.0232  14.0926  14.5912  14.6561
    14.7501  14.9633  15.2143  15.3901  15.4445

     occupation numbers 
     1.0000   1.0000   1.0000   1.0000   1.0000   1.0000   1.0000   1.0000
     1.0000   1.0000   1.0000   1.0000   1.0000   1.0000   1.0000   1.0000
     1.0000   1.0000   1.0000   1.0000   1.0000   1.0000   1.0000   1.0000
     1.0000   1.0000   1.0000   1.0000   1.0000   1.0000   1.0000   1.0000
     1.0000   1.0000   1.0000   1.0000   1.0000   1.0000   1.0000   1.0000
     1.0000   1.0000   1.0000   1.0000   1.0000   1.0000   1.0000   1.0000
     1.0000   1.0000   1.0000   1.0000   1.0000   1.0000   1.0000   1.0000
     1.0000   1.0000   1.0000   1.0000   1.0000   1.0000   1.0000   1.0000
     0.0000   0.0000   0.0000   0.0000   0.0000   0.0000   0.0000   0.0000
     0.0000   0.0000   0.0000   0.0000   0.0000

          k =-0.1769 0.1767 0.1752 (  5356 PWs)   bands (ev):

   -66.2013 -66.0979 -65.8002 -65.6616 -65.2531 -33.1811 -33.1600 -33.1434
   -33.0709 -33.0531 -33.0456 -32.7753 -32.7671 -32.7443 -32.6534 -32.6193
   -32.6121 -32.2332 -32.2223 -32.2094 -29.8577 -29.2613 -28.8663 -11.8106
   -11.5987 -11.4579 -11.3633 -10.9494 -10.6665 -10.5716 -10.5444 -10.4415
    -8.7565  -8.3115  -8.0696  -7.9714  -7.6795  -7.6522  -7.4057  -7.1251
     3.0581   3.7025   3.8071   3.9840   4.2650   4.4632   4.5473   5.3395
     5.4491   5.5648   5.7178   5.8583   5.9171   6.0442   6.1048   6.2109
     6.2671   6.3630   6.4875   6.5398   6.6053   6.6655   6.9356   7.0849
    11.3331  12.6996  12.7750  13.1199  13.8431  14.1353  14.3535  14.5504
    14.9044  15.0089  15.3862  15.4769  15.6735

     occupation numbers 
     1.0000   1.0000   1.0000   1.0000   1.0000   1.0000   1.0000   1.0000
     1.0000   1.0000   1.0000   1.0000   1.0000   1.0000   1.0000   1.0000
     1.0000   1.0000   1.0000   1.0000   1.0000   1.0000   1.0000   1.0000
     1.0000   1.0000   1.0000   1.0000   1.0000   1.0000   1.0000   1.0000
     1.0000   1.0000   1.0000   1.0000   1.0000   1.0000   1.0000   1.0000
     1.0000   1.0000   1.0000   1.0000   1.0000   1.0000   1.0000   1.0000
     1.0000   1.0000   1.0000   1.0000   1.0000   1.0000   1.0000   1.0000
     1.0000   1.0000   1.0000   1.0000   1.0000   1.0000   1.0000   1.0000
     0.0000   0.0000   0.0000   0.0000   0.0000   0.0000   0.0000   0.0000
     0.0000   0.0000   0.0000   0.0000   0.0000

          k =-0.0003 0.3535-0.0003 (  5361 PWs)   bands (ev):

   -66.2013 -66.0979 -65.8002 -65.6616 -65.2531 -33.1812 -33.1600 -33.1434
   -33.0709 -33.0531 -33.0456 -32.7752 -32.7670 -32.7441 -32.6535 -32.6194
   -32.6121 -32.2331 -32.2223 -32.2095 -29.8576 -29.2612 -28.8662 -11.8123
   -11.5892 -11.4684 -11.3653 -10.9480 -10.6703 -10.5701 -10.5455 -10.4402
    -8.7422  -8.3208  -8.0572  -7.9813  -7.6908  -7.6429  -7.4108  -7.1224
     3.1562   3.7784   3.8520   4.0041   4.3057   4.5496   4.6124   5.2629
     5.4082   5.5542   5.7214   5.7269   5.8441   5.9842   6.0033   6.1825
     6.2631   6.3242   6.4297   6.5083   6.6100   6.6333   6.9185   7.0113
    11.5128  12.7163  12.9128  13.2467  13.9613  14.1442  14.4349  14.5802
    14.9424  15.0643  15.3216  15.4896  15.6546

     occupation numbers 
     1.0000   1.0000   1.0000   1.0000   1.0000   1.0000   1.0000   1.0000
     1.0000   1.0000   1.0000   1.0000   1.0000   1.0000   1.0000   1.0000
     1.0000   1.0000   1.0000   1.0000   1.0000   1.0000   1.0000   1.0000
     1.0000   1.0000   1.0000   1.0000   1.0000   1.0000   1.0000   1.0000
     1.0000   1.0000   1.0000   1.0000   1.0000   1.0000   1.0000   1.0000
     1.0000   1.0000   1.0000   1.0000   1.0000   1.0000   1.0000   1.0000
     1.0000   1.0000   1.0000   1.0000   1.0000   1.0000   1.0000   1.0000
     1.0000   1.0000   1.0000   1.0000   1.0000   1.0000   1.0000   1.0000
     0.0000   0.0000   0.0000   0.0000   0.0000   0.0000   0.0000   0.0000
     0.0000   0.0000   0.0000   0.0000   0.0000

          k =-0.5301-0.1770 0.5264 (  5366 PWs)   bands (ev):

   -66.2013 -66.0979 -65.8002 -65.6616 -65.2531 -33.1812 -33.1600 -33.1435
   -33.0709 -33.0531 -33.0456 -32.7753 -32.7670 -32.7439 -32.6536 -32.6196
   -32.6121 -32.2332 -32.2224 -32.2096 -29.8574 -29.2610 -28.8660 -11.8118
   -11.5949 -11.4979 -11.3606 -10.9533 -10.6621 -10.5732 -10.5465 -10.4315
    -8.5841  -8.3373  -8.1145  -7.9953  -7.7891  -7.6038  -7.4121  -7.1223
     3.5869   3.9856   4.1702   4.2622   4.3601   4.4643   4.7557   4.9001
     5.1384   5.2730   5.4210   5.6283   5.7492   5.7924   5.9839   6.0950
     6.1937   6.2666   6.3923   6.5421   6.5847   6.6437   6.7954   6.8206
    12.3898  12.8931  13.1368  13.5018  13.7053  14.0234  14.6627  14.7981
    14.9928  15.2652  15.5073  15.6898  15.9364

     occupation numbers 
     1.0000   1.0000   1.0000   1.0000   1.0000   1.0000   1.0000   1.0000
     1.0000   1.0000   1.0000   1.0000   1.0000   1.0000   1.0000   1.0000
     1.0000   1.0000   1.0000   1.0000   1.0000   1.0000   1.0000   1.0000
     1.0000   1.0000   1.0000   1.0000   1.0000   1.0000   1.0000   1.0000
     1.0000   1.0000   1.0000   1.0000   1.0000   1.0000   1.0000   1.0000
     1.0000   1.0000   1.0000   1.0000   1.0000   1.0000   1.0000   1.0000
     1.0000   1.0000   1.0000   1.0000   1.0000   1.0000   1.0000   1.0000
     1.0000   1.0000   1.0000   1.0000   1.0000   1.0000   1.0000   1.0000
     0.0000   0.0000   0.0000   0.0000   0.0000   0.0000   0.0000   0.0000
     0.0000   0.0000   0.0000   0.0000   0.0000

          k =-0.3535-0.0002 0.3508 (  5357 PWs)   bands (ev):

   -66.2013 -66.0979 -65.8002 -65.6616 -65.2531 -33.1812 -33.1600 -33.1435
   -33.0709 -33.0531 -33.0455 -32.7753 -32.7670 -32.7441 -32.6535 -32.6195
   -32.6122 -32.2332 -32.2223 -32.2095 -29.8575 -29.2611 -28.8661 -11.8102
   -11.6034 -11.4869 -11.3607 -10.9553 -10.6579 -10.5738 -10.5456 -10.4329
    -8.5857  -8.3488  -8.1237  -8.0093  -7.7350  -7.6261  -7.4002  -7.1325
     3.4415   3.9012   4.0574   4.1813   4.2840   4.4350   4.7642   4.9430
     5.2424   5.3136   5.5779   5.7195   5.8567   5.9096   6.0319   6.0965
     6.1385   6.3414   6.3761   6.4535   6.6296   6.6856   6.8239   6.9121
    12.1535  12.8439  13.0130  13.4524  13.7078  14.0488  14.5426  14.7799
    14.9515  15.1690  15.2877  15.5904  15.9947

     occupation numbers 
     1.0000   1.0000   1.0000   1.0000   1.0000   1.0000   1.0000   1.0000
     1.0000   1.0000   1.0000   1.0000   1.0000   1.0000   1.0000   1.0000
     1.0000   1.0000   1.0000   1.0000   1.0000   1.0000   1.0000   1.0000
     1.0000   1.0000   1.0000   1.0000   1.0000   1.0000   1.0000   1.0000
     1.0000   1.0000   1.0000   1.0000   1.0000   1.0000   1.0000   1.0000
     1.0000   1.0000   1.0000   1.0000   1.0000   1.0000   1.0000   1.0000
     1.0000   1.0000   1.0000   1.0000   1.0000   1.0000   1.0000   1.0000
     1.0000   1.0000   1.0000   1.0000   1.0000   1.0000   1.0000   1.0000
     0.0000   0.0000   0.0000   0.0000   0.0000   0.0000   0.0000   0.0000
     0.0000   0.0000   0.0000   0.0000   0.0000

          k = 0.0011 0.0024 0.3516 (  5359 PWs)   bands (ev):

   -66.2013 -66.0979 -65.8002 -65.6616 -65.2531 -33.1811 -33.1598 -33.1433
   -33.0709 -33.0535 -33.0457 -32.7752 -32.7670 -32.7440 -32.6535 -32.6194
   -32.6123 -32.2331 -32.2223 -32.2094 -29.8567 -29.2642 -28.8641 -11.8089
   -11.5394 -11.4752 -11.4196 -11.0559 -10.7203 -10.6292 -10.4480 -10.2270
    -8.7323  -8.3240  -8.1605  -8.0920  -7.7479  -7.6340  -7.3133  -7.0479
     3.1367   3.6741   3.8752   3.9910   4.3294   4.5700   4.6165   5.3105
     5.4070   5.5747   5.7313   5.8223   5.9256   5.9930   6.0473   6.1206
     6.2417   6.3163   6.3591   6.4432   6.5697   6.6044   6.9789   7.0177
    11.5363  12.8581  13.0545  13.1312  13.7305  14.1394  14.2733  14.5790
    14.8438  15.0735  15.3107  15.5367  15.9894

     occupation numbers 
     1.0000   1.0000   1.0000   1.0000   1.0000   1.0000   1.0000   1.0000
     1.0000   1.0000   1.0000   1.0000   1.0000   1.0000   1.0000   1.0000
     1.0000   1.0000   1.0000   1.0000   1.0000   1.0000   1.0000   1.0000
     1.0000   1.0000   1.0000   1.0000   1.0000   1.0000   1.0000   1.0000
     1.0000   1.0000   1.0000   1.0000   1.0000   1.0000   1.0000   1.0000
     1.0000   1.0000   1.0000   1.0000   1.0000   1.0000   1.0000   1.0000
     1.0000   1.0000   1.0000   1.0000   1.0000   1.0000   1.0000   1.0000
     1.0000   1.0000   1.0000   1.0000   1.0000   1.0000   1.0000   1.0000
     0.0000   0.0000   0.0000   0.0000   0.0000   0.0000   0.0000   0.0000
     0.0000   0.0000   0.0000   0.0000   0.0000

          k = 0.1777 0.1792 0.1760 (  5364 PWs)   bands (ev):

   -66.2013 -66.0979 -65.8002 -65.6616 -65.2531 -33.1811 -33.1598 -33.1433
   -33.0709 -33.0535 -33.0457 -32.7752 -32.7671 -32.7442 -32.6534 -32.6193
   -32.6120 -32.2331 -32.2224 -32.2095 -29.8568 -29.2642 -28.8642 -11.8057
   -11.5360 -11.4652 -11.4290 -11.0508 -10.7132 -10.6369 -10.4479 -10.2282
    -8.7869  -8.2954  -8.1490  -8.0947  -7.7560  -7.6420  -7.3063  -7.0302
     3.0745   3.7488   3.8333   3.9602   4.2965   4.5031   4.6001   5.3973
     5.5122   5.6019   5.6787   5.7508   5.8270   5.8739   6.0951   6.2093
     6.2669   6.3235   6.4029   6.4760   6.6516   6.7087   6.9754   7.0772
    11.3526  12.8418  12.9839  13.0548  13.7833  14.1012  14.3533  14.4931
    14.8797  15.0482  15.3922  15.5906  15.9077

     occupation numbers 
     1.0000   1.0000   1.0000   1.0000   1.0000   1.0000   1.0000   1.0000
     1.0000   1.0000   1.0000   1.0000   1.0000   1.0000   1.0000   1.0000
     1.0000   1.0000   1.0000   1.0000   1.0000   1.0000   1.0000   1.0000
     1.0000   1.0000   1.0000   1.0000   1.0000   1.0000   1.0000   1.0000
     1.0000   1.0000   1.0000   1.0000   1.0000   1.0000   1.0000   1.0000
     1.0000   1.0000   1.0000   1.0000   1.0000   1.0000   1.0000   1.0000
     1.0000   1.0000   1.0000   1.0000   1.0000   1.0000   1.0000   1.0000
     1.0000   1.0000   1.0000   1.0000   1.0000   1.0000   1.0000   1.0000
     0.0000   0.0000   0.0000   0.0000   0.0000   0.0000   0.0000   0.0000
     0.0000   0.0000   0.0000   0.0000   0.0000

          k =-0.3521-0.3513 0.7027 (  5372 PWs)   bands (ev):

   -66.2013 -66.0979 -65.8002 -65.6616 -65.2531 -33.1811 -33.1598 -33.1433
   -33.0710 -33.0535 -33.0457 -32.7752 -32.7670 -32.7440 -32.6535 -32.6194
   -32.6120 -32.2332 -32.2224 -32.2096 -29.8566 -29.2640 -28.8640 -11.8046
   -11.5404 -11.4977 -11.4260 -11.0523 -10.7089 -10.6336 -10.4461 -10.2288
    -8.5926  -8.3544  -8.1862  -8.1454  -7.8075  -7.6001  -7.3350  -7.0270
     3.4727   3.9681   4.1088   4.2141   4.3196   4.5799   4.7044   4.7820
     5.2084   5.4231   5.5575   5.6013   5.7721   5.8574   5.9511   6.0260
     6.2305   6.3404   6.3860   6.4547   6.5870   6.7068   6.7898   6.9456
    12.1578  13.0333  13.2063  13.2882  13.6848  14.2955  14.4779  14.7924
    14.8592  15.0558  15.2433  15.6982  15.9324

     occupation numbers 
     1.0000   1.0000   1.0000   1.0000   1.0000   1.0000   1.0000   1.0000
     1.0000   1.0000   1.0000   1.0000   1.0000   1.0000   1.0000   1.0000
     1.0000   1.0000   1.0000   1.0000   1.0000   1.0000   1.0000   1.0000
     1.0000   1.0000   1.0000   1.0000   1.0000   1.0000   1.0000   1.0000
     1.0000   1.0000   1.0000   1.0000   1.0000   1.0000   1.0000   1.0000
     1.0000   1.0000   1.0000   1.0000   1.0000   1.0000   1.0000   1.0000
     1.0000   1.0000   1.0000   1.0000   1.0000   1.0000   1.0000   1.0000
     1.0000   1.0000   1.0000   1.0000   1.0000   1.0000   1.0000   1.0000
     0.0000   0.0000   0.0000   0.0000   0.0000   0.0000   0.0000   0.0000
     0.0000   0.0000   0.0000   0.0000   0.0000

          k =-0.1755-0.1745 0.5271 (  5373 PWs)   bands (ev):

   -66.2013 -66.0979 -65.8002 -65.6616 -65.2531 -33.1811 -33.1598 -33.1434
   -33.0710 -33.0535 -33.0456 -32.7752 -32.7669 -32.7438 -32.6536 -32.6196
   -32.6123 -32.2332 -32.2224 -32.2095 -29.8565 -29.2639 -28.8640 -11.8078
   -11.5465 -11.5032 -11.4183 -11.0576 -10.7151 -10.6255 -10.4462 -10.2275
    -8.5231  -8.3819  -8.2117  -8.1089  -7.8475  -7.6004  -7.3200  -7.0474
     3.5723   3.9275   4.1012   4.2412   4.3347   4.4766   4.8290   5.0289
     5.1688   5.3374   5.4101   5.6329   5.7707   5.8060   5.9189   6.0366
     6.1535   6.2760   6.3844   6.5106   6.5726   6.6472   6.7834   6.8975
    12.4265  13.0832  13.2717  13.3283  13.6253  14.1803  14.4614  14.5747
    14.9499  15.1369  15.2848  15.5656  16.2091

     occupation numbers 
     1.0000   1.0000   1.0000   1.0000   1.0000   1.0000   1.0000   1.0000
     1.0000   1.0000   1.0000   1.0000   1.0000   1.0000   1.0000   1.0000
     1.0000   1.0000   1.0000   1.0000   1.0000   1.0000   1.0000   1.0000
     1.0000   1.0000   1.0000   1.0000   1.0000   1.0000   1.0000   1.0000
     1.0000   1.0000   1.0000   1.0000   1.0000   1.0000   1.0000   1.0000
     1.0000   1.0000   1.0000   1.0000   1.0000   1.0000   1.0000   1.0000
     1.0000   1.0000   1.0000   1.0000   1.0000   1.0000   1.0000   1.0000
     1.0000   1.0000   1.0000   1.0000   1.0000   1.0000   1.0000   1.0000
     0.0000   0.0000   0.0000   0.0000   0.0000   0.0000   0.0000   0.0000
     0.0000   0.0000   0.0000   0.0000   0.0000

          k =-0.5328 0.5253-0.1774 (  5360 PWs)   bands (ev):

   -66.2013 -66.0979 -65.8002 -65.6616 -65.2531 -33.1810 -33.1596 -33.1432
   -33.0710 -33.0538 -33.0456 -32.7752 -32.7669 -32.7437 -32.6536 -32.6196
   -32.6124 -32.2332 -32.2224 -32.2095 -29.8555 -29.2637 -28.8659 -11.6228
   -11.4976 -11.4370 -11.3518 -11.1995 -10.8730 -10.6678 -10.5455 -10.3727
    -8.4071  -8.2469  -8.1683  -7.9266  -7.8423  -7.6217  -7.4056  -7.2165
     3.5421   3.8755   4.1438   4.2879   4.4161   4.6038   4.8106   5.0705
     5.1477   5.3132   5.4245   5.5004   5.6613   5.8430   5.8843   6.0878
     6.1886   6.3135   6.3394   6.4142   6.5454   6.7018   6.7914   6.9874
    12.4740  13.1795  13.3706  13.6162  13.7391  14.0257  14.1800  14.4138
    14.6776  15.0671  15.3039  15.5454  15.8738

     occupation numbers 
     1.0000   1.0000   1.0000   1.0000   1.0000   1.0000   1.0000   1.0000
     1.0000   1.0000   1.0000   1.0000   1.0000   1.0000   1.0000   1.0000
     1.0000   1.0000   1.0000   1.0000   1.0000   1.0000   1.0000   1.0000
     1.0000   1.0000   1.0000   1.0000   1.0000   1.0000   1.0000   1.0000
     1.0000   1.0000   1.0000   1.0000   1.0000   1.0000   1.0000   1.0000
     1.0000   1.0000   1.0000   1.0000   1.0000   1.0000   1.0000   1.0000
     1.0000   1.0000   1.0000   1.0000   1.0000   1.0000   1.0000   1.0000
     1.0000   1.0000   1.0000   1.0000   1.0000   1.0000   1.0000   1.0000
     0.0000   0.0000   0.0000   0.0000   0.0000   0.0000   0.0000   0.0000
     0.0000   0.0000   0.0000   0.0000   0.0000

          k =-0.3562 0.7021-0.3530 (  5357 PWs)   bands (ev):

   -66.2013 -66.0979 -65.8002 -65.6616 -65.2531 -33.1810 -33.1596 -33.1432
   -33.0710 -33.0538 -33.0457 -32.7752 -32.7670 -32.7439 -32.6535 -32.6195
   -32.6121 -32.2332 -32.2224 -32.2095 -29.8556 -29.2638 -28.8659 -11.6201
   -11.4906 -11.4325 -11.3560 -11.1968 -10.8666 -10.6766 -10.5483 -10.3716
    -8.4928  -8.2547  -8.1052  -7.9318  -7.8027  -7.6650  -7.3862  -7.2028
     3.4365   3.9353   4.1317   4.1905   4.3632   4.6052   4.7776   5.0491
     5.2336   5.3436   5.4495   5.5548   5.7113   5.8589   5.9298   6.1230
     6.1901   6.2188   6.3110   6.4918   6.5618   6.7830   6.8509   6.9560
    12.2094  13.1155  13.4230  13.5731  13.8171  13.9085  14.1882  14.3922
    14.8305  15.0118  15.1844  15.6192  15.8717

     occupation numbers 
     1.0000   1.0000   1.0000   1.0000   1.0000   1.0000   1.0000   1.0000
     1.0000   1.0000   1.0000   1.0000   1.0000   1.0000   1.0000   1.0000
     1.0000   1.0000   1.0000   1.0000   1.0000   1.0000   1.0000   1.0000
     1.0000   1.0000   1.0000   1.0000   1.0000   1.0000   1.0000   1.0000
     1.0000   1.0000   1.0000   1.0000   1.0000   1.0000   1.0000   1.0000
     1.0000   1.0000   1.0000   1.0000   1.0000   1.0000   1.0000   1.0000
     1.0000   1.0000   1.0000   1.0000   1.0000   1.0000   1.0000   1.0000
     1.0000   1.0000   1.0000   1.0000   1.0000   1.0000   1.0000   1.0000
     0.0000   0.0000   0.0000   0.0000   0.0000   0.0000   0.0000   0.0000
     0.0000   0.0000   0.0000   0.0000   0.0000

          k =-0.8860 0.1716 0.1737 (  5368 PWs)   bands (ev):

   -66.2013 -66.0979 -65.8002 -65.6616 -65.2531 -33.1811 -33.1596 -33.1432
   -33.0709 -33.0538 -33.0456 -32.7753 -32.7671 -32.7442 -32.6534 -32.6194
   -32.6119 -32.2332 -32.2225 -32.2095 -29.8555 -29.2637 -28.8659 -11.6181
   -11.4885 -11.4471 -11.3589 -11.1976 -10.8629 -10.6756 -10.5439 -10.3727
    -8.4253  -8.2682  -8.1605  -7.9009  -7.8187  -7.6692  -7.4092  -7.1851
     3.6322   3.9542   4.1600   4.2290   4.3502   4.6604   4.8940   4.9690
     5.1654   5.3171   5.3521   5.5368   5.7262   5.7965   5.8919   6.0188
     6.0982   6.2889   6.3777   6.4692   6.5717   6.6726   6.7881   6.8555
    12.4883  13.0607  13.5133  13.7143  13.9332  14.0458  14.1994  14.3490
    14.4845  15.1182  15.4362  15.6918  15.8115

     occupation numbers 
     1.0000   1.0000   1.0000   1.0000   1.0000   1.0000   1.0000   1.0000
     1.0000   1.0000   1.0000   1.0000   1.0000   1.0000   1.0000   1.0000
     1.0000   1.0000   1.0000   1.0000   1.0000   1.0000   1.0000   1.0000
     1.0000   1.0000   1.0000   1.0000   1.0000   1.0000   1.0000   1.0000
     1.0000   1.0000   1.0000   1.0000   1.0000   1.0000   1.0000   1.0000
     1.0000   1.0000   1.0000   1.0000   1.0000   1.0000   1.0000   1.0000
     1.0000   1.0000   1.0000   1.0000   1.0000   1.0000   1.0000   1.0000
     1.0000   1.0000   1.0000   1.0000   1.0000   1.0000   1.0000   1.0000
     0.0000   0.0000   0.0000   0.0000   0.0000   0.0000   0.0000   0.0000
     0.0000   0.0000   0.0000   0.0000   0.0000

          k =-0.7094 0.3485-0.0019 (  5363 PWs)   bands (ev):

   -66.2013 -66.0979 -65.8002 -65.6616 -65.2531 -33.1810 -33.1596 -33.1432
   -33.0709 -33.0538 -33.0455 -32.7753 -32.7670 -32.7440 -32.6536 -32.6195
   -32.6122 -32.2332 -32.2225 -32.2095 -29.8554 -29.2637 -28.8658 -11.6200
   -11.4977 -11.4542 -11.3512 -11.1987 -10.8687 -10.6678 -10.5417 -10.3739
    -8.3145  -8.2704  -8.2037  -7.9487  -7.8472  -7.6266  -7.4149  -7.2049
     3.8277   3.9341   4.1151   4.2588   4.4081   4.6310   4.8553   4.9953
     5.0259   5.1800   5.4092   5.6219   5.7705   5.8256   5.9416   6.0226
     6.1073   6.2833   6.3135   6.4451   6.5041   6.5567   6.7141   6.8510
    12.7629  13.2940  13.4689  13.6526  13.9469  14.1042  14.2253  14.3597
    14.6660  14.7472  15.3206  15.5533  15.8164

     occupation numbers 
     1.0000   1.0000   1.0000   1.0000   1.0000   1.0000   1.0000   1.0000
     1.0000   1.0000   1.0000   1.0000   1.0000   1.0000   1.0000   1.0000
     1.0000   1.0000   1.0000   1.0000   1.0000   1.0000   1.0000   1.0000
     1.0000   1.0000   1.0000   1.0000   1.0000   1.0000   1.0000   1.0000
     1.0000   1.0000   1.0000   1.0000   1.0000   1.0000   1.0000   1.0000
     1.0000   1.0000   1.0000   1.0000   1.0000   1.0000   1.0000   1.0000
     1.0000   1.0000   1.0000   1.0000   1.0000   1.0000   1.0000   1.0000
     1.0000   1.0000   1.0000   1.0000   1.0000   1.0000   1.0000   1.0000
     0.0000   0.0000   0.0000   0.0000   0.0000   0.0000   0.0000   0.0000
     0.0000   0.0000   0.0000   0.0000   0.0000

          k =-0.3548 0.3510-0.0011 (  5369 PWs)   bands (ev):

   -66.2013 -66.0979 -65.8002 -65.6616 -65.2531 -33.1811 -33.1597 -33.1433
   -33.0709 -33.0535 -33.0455 -32.7753 -32.7671 -32.7440 -32.6535 -32.6195
   -32.6122 -32.2332 -32.2223 -32.2094 -29.8565 -29.2608 -28.8680 -11.6419
   -11.5497 -11.4358 -11.2836 -11.0666 -10.7547 -10.7252 -10.6638 -10.5103
    -8.5092  -8.2785  -7.9352  -7.8417  -7.6403  -7.6020  -7.5682  -7.3961
     3.4169   3.9279   4.0487   4.2327   4.3255   4.5637   4.7082   5.0490
     5.1934   5.2833   5.5485   5.6173   5.7641   5.8963   5.9937   6.1270
     6.2385   6.2663   6.3560   6.4080   6.6630   6.7567   6.7742   7.0349
    12.1627  12.9877  13.2169  13.4147  13.7758  13.9780  14.4151  14.6912
    14.9080  15.0459  15.2678  15.4159  15.8026

     occupation numbers 
     1.0000   1.0000   1.0000   1.0000   1.0000   1.0000   1.0000   1.0000
     1.0000   1.0000   1.0000   1.0000   1.0000   1.0000   1.0000   1.0000
     1.0000   1.0000   1.0000   1.0000   1.0000   1.0000   1.0000   1.0000
     1.0000   1.0000   1.0000   1.0000   1.0000   1.0000   1.0000   1.0000
     1.0000   1.0000   1.0000   1.0000   1.0000   1.0000   1.0000   1.0000
     1.0000   1.0000   1.0000   1.0000   1.0000   1.0000   1.0000   1.0000
     1.0000   1.0000   1.0000   1.0000   1.0000   1.0000   1.0000   1.0000
     1.0000   1.0000   1.0000   1.0000   1.0000   1.0000   1.0000   1.0000
     0.0000   0.0000   0.0000   0.0000   0.0000   0.0000   0.0000   0.0000
     0.0000   0.0000   0.0000   0.0000   0.0000

          k =-0.1783 0.5278-0.1767 (  5377 PWs)   bands (ev):

   -66.2013 -66.0979 -65.8002 -65.6616 -65.2531 -33.1811 -33.1597 -33.1433
   -33.0709 -33.0535 -33.0456 -32.7753 -32.7670 -32.7438 -32.6536 -32.6196
   -32.6122 -32.2332 -32.2224 -32.2095 -29.8564 -29.2608 -28.8680 -11.6469
   -11.5386 -11.4472 -11.2817 -11.0607 -10.7627 -10.7288 -10.6637 -10.5073
    -8.4754  -8.2975  -7.9392  -7.8596  -7.6509  -7.6051  -7.5404  -7.3989
     3.5579   3.9792   4.1315   4.3230   4.3617   4.5835   4.8127   4.9814
     5.1724   5.3182   5.3889   5.5467   5.6523   5.7734   5.9140   6.0448
     6.2113   6.2537   6.3618   6.4621   6.5163   6.7811   6.8217   6.9308
    12.4362  13.0663  13.2606  13.5378  13.7119  14.0617  14.4381  14.7464
    14.8737  15.0492  15.2647  15.4749  15.7947

     occupation numbers 
     1.0000   1.0000   1.0000   1.0000   1.0000   1.0000   1.0000   1.0000
     1.0000   1.0000   1.0000   1.0000   1.0000   1.0000   1.0000   1.0000
     1.0000   1.0000   1.0000   1.0000   1.0000   1.0000   1.0000   1.0000
     1.0000   1.0000   1.0000   1.0000   1.0000   1.0000   1.0000   1.0000
     1.0000   1.0000   1.0000   1.0000   1.0000   1.0000   1.0000   1.0000
     1.0000   1.0000   1.0000   1.0000   1.0000   1.0000   1.0000   1.0000
     1.0000   1.0000   1.0000   1.0000   1.0000   1.0000   1.0000   1.0000
     1.0000   1.0000   1.0000   1.0000   1.0000   1.0000   1.0000   1.0000
     0.0000   0.0000   0.0000   0.0000   0.0000   0.0000   0.0000   0.0000
     0.0000   0.0000   0.0000   0.0000   0.0000

          k =-0.7080-0.0027 0.3500 (  5374 PWs)   bands (ev):

   -66.2013 -66.0979 -65.8002 -65.6616 -65.2531 -33.1811 -33.1597 -33.1433
   -33.0709 -33.0535 -33.0455 -32.7753 -32.7671 -32.7440 -32.6535 -32.6195
   -32.6120 -32.2332 -32.2224 -32.2096 -29.8563 -29.2607 -28.8679 -11.6445
   -11.5438 -11.4580 -11.2801 -11.0579 -10.7665 -10.7258 -10.6591 -10.5082
    -8.4372  -8.2871  -7.9901  -7.8520  -7.6793  -7.5861  -7.5284  -7.4022
     3.8037   3.9788   4.2168   4.2654   4.3651   4.6789   4.7755   4.9343
     5.0335   5.2376   5.3883   5.5853   5.6983   5.8017   5.9307   6.0325
     6.1656   6.2570   6.3947   6.4319   6.5223   6.6134   6.6540   6.8204
    12.7469  13.1536  13.3972  13.6327  13.8695  13.9994  14.2730  14.5443
    14.7503  15.1741  15.3892  15.5683  15.7399

     occupation numbers 
     1.0000   1.0000   1.0000   1.0000   1.0000   1.0000   1.0000   1.0000
     1.0000   1.0000   1.0000   1.0000   1.0000   1.0000   1.0000   1.0000
     1.0000   1.0000   1.0000   1.0000   1.0000   1.0000   1.0000   1.0000
     1.0000   1.0000   1.0000   1.0000   1.0000   1.0000   1.0000   1.0000
     1.0000   1.0000   1.0000   1.0000   1.0000   1.0000   1.0000   1.0000
     1.0000   1.0000   1.0000   1.0000   1.0000   1.0000   1.0000   1.0000
     1.0000   1.0000   1.0000   1.0000   1.0000   1.0000   1.0000   1.0000
     1.0000   1.0000   1.0000   1.0000   1.0000   1.0000   1.0000   1.0000
     0.0000   0.0000   0.0000   0.0000   0.0000   0.0000   0.0000   0.0000
     0.0000   0.0000   0.0000   0.0000   0.0000

          k =-0.5314 0.1742 0.1745 (  5372 PWs)   bands (ev):

   -66.2013 -66.0979 -65.8002 -65.6616 -65.2531 -33.1811 -33.1597 -33.1433
   -33.0708 -33.0535 -33.0454 -32.7753 -32.7672 -32.7442 -32.6535 -32.6194
   -32.6120 -32.2332 -32.2224 -32.2095 -29.8564 -29.2608 -28.8680 -11.6397
   -11.5545 -11.4461 -11.2819 -11.0647 -10.7553 -10.7250 -10.6601 -10.5112
    -8.4287  -8.3255  -7.9857  -7.7893  -7.7053  -7.6036  -7.5333  -7.3944
     3.6095   3.9065   4.0819   4.2461   4.2959   4.5763   4.8464   5.0455
     5.2009   5.3549   5.3750   5.5604   5.7631   5.8714   5.9664   6.0379
     6.1327   6.2678   6.3986   6.5349   6.5689   6.6196   6.7291   6.9158
    12.4393  12.9543  13.2167  13.5866  13.8570  14.0379  14.4524  14.6203
    14.9160  15.1124  15.3307  15.6105  15.6882

     occupation numbers 
     1.0000   1.0000   1.0000   1.0000   1.0000   1.0000   1.0000   1.0000
     1.0000   1.0000   1.0000   1.0000   1.0000   1.0000   1.0000   1.0000
     1.0000   1.0000   1.0000   1.0000   1.0000   1.0000   1.0000   1.0000
     1.0000   1.0000   1.0000   1.0000   1.0000   1.0000   1.0000   1.0000
     1.0000   1.0000   1.0000   1.0000   1.0000   1.0000   1.0000   1.0000
     1.0000   1.0000   1.0000   1.0000   1.0000   1.0000   1.0000   1.0000
     1.0000   1.0000   1.0000   1.0000   1.0000   1.0000   1.0000   1.0000
     1.0000   1.0000   1.0000   1.0000   1.0000   1.0000   1.0000   1.0000
     0.0000   0.0000   0.0000   0.0000   0.0000   0.0000   0.0000   0.0000
     0.0000   0.0000   0.0000   0.0000   0.0000

          k = 0.3538-0.3534-0.3505 (  5376 PWs)   bands (ev):

   -66.2013 -66.0979 -65.8002 -65.6616 -65.2531 -33.1811 -33.1599 -33.1434
   -33.0708 -33.0531 -33.0454 -32.7754 -32.7672 -32.7443 -32.6535 -32.6194
   -32.6122 -32.2332 -32.2223 -32.2094 -29.8569 -29.2596 -28.8689 -11.7001
   -11.5447 -11.3736 -11.3028 -10.9918 -10.7946 -10.7122 -10.6811 -10.5378
    -8.5268  -8.2116  -7.9647  -7.8116  -7.7093  -7.5655  -7.5097  -7.4675
     3.6043   3.7503   4.0654   4.2533   4.4402   4.4739   4.8105   4.9207
     5.1913   5.3657   5.4237   5.5623   5.6228   5.7635   5.9954   6.0804
     6.2073   6.2723   6.5427   6.6334   6.6810   6.7457   6.7925   7.0074
    12.4739  12.7227  13.0427  13.4124  13.6398  14.2264  14.5175  14.7197
    14.8473  14.9554  15.4599  15.4928  15.5501

     occupation numbers 
     1.0000   1.0000   1.0000   1.0000   1.0000   1.0000   1.0000   1.0000
     1.0000   1.0000   1.0000   1.0000   1.0000   1.0000   1.0000   1.0000
     1.0000   1.0000   1.0000   1.0000   1.0000   1.0000   1.0000   1.0000
     1.0000   1.0000   1.0000   1.0000   1.0000   1.0000   1.0000   1.0000
     1.0000   1.0000   1.0000   1.0000   1.0000   1.0000   1.0000   1.0000
     1.0000   1.0000   1.0000   1.0000   1.0000   1.0000   1.0000   1.0000
     1.0000   1.0000   1.0000   1.0000   1.0000   1.0000   1.0000   1.0000
     1.0000   1.0000   1.0000   1.0000   1.0000   1.0000   1.0000   1.0000
     0.0000   0.0000   0.0000   0.0000   0.0000   0.0000   0.0000   0.0000
     0.0000   0.0000   0.0000   0.0000   0.0000

          k = 0.5303-0.1765-0.5260 (  5368 PWs)   bands (ev):

   -66.2013 -66.0979 -65.8002 -65.6616 -65.2531 -33.1811 -33.1599 -33.1434
   -33.0708 -33.0531 -33.0455 -32.7753 -32.7671 -32.7441 -32.6535 -32.6195
   -32.6121 -32.2332 -32.2223 -32.2095 -29.8568 -29.2595 -28.8688 -11.7049
   -11.5322 -11.3837 -11.2989 -10.9961 -10.7949 -10.7152 -10.6788 -10.5382
    -8.5602  -8.1925  -7.9263  -7.8045  -7.7166  -7.5725  -7.5274  -7.4615
     3.6285   3.9202   4.1022   4.2210   4.3304   4.6445   4.8012   4.9901
     5.1492   5.3300   5.4166   5.5787   5.6860   5.7915   5.9324   6.0940
     6.1548   6.2958   6.4010   6.5027   6.6200   6.7053   6.7311   6.8675
    12.4609  12.9863  13.1300  13.4942  13.9215  14.2972  14.5437  14.6037
    14.8304  14.9166  15.1578  15.3322  15.7491

     occupation numbers 
     1.0000   1.0000   1.0000   1.0000   1.0000   1.0000   1.0000   1.0000
     1.0000   1.0000   1.0000   1.0000   1.0000   1.0000   1.0000   1.0000
     1.0000   1.0000   1.0000   1.0000   1.0000   1.0000   1.0000   1.0000
     1.0000   1.0000   1.0000   1.0000   1.0000   1.0000   1.0000   1.0000
     1.0000   1.0000   1.0000   1.0000   1.0000   1.0000   1.0000   1.0000
     1.0000   1.0000   1.0000   1.0000   1.0000   1.0000   1.0000   1.0000
     1.0000   1.0000   1.0000   1.0000   1.0000   1.0000   1.0000   1.0000
     1.0000   1.0000   1.0000   1.0000   1.0000   1.0000   1.0000   1.0000
     0.0000   0.0000   0.0000   0.0000   0.0000   0.0000   0.0000   0.0000
     0.0000   0.0000   0.0000   0.0000   0.0000

          k = 0.0006-0.7070 0.0007 (  5390 PWs)   bands (ev):

   -66.2013 -66.0979 -65.8002 -65.6616 -65.2531 -33.1812 -33.1599 -33.1434
   -33.0709 -33.0531 -33.0455 -32.7753 -32.7671 -32.7439 -32.6536 -32.6196
   -32.6121 -32.2332 -32.2224 -32.2096 -29.8568 -29.2595 -28.8687 -11.7095
   -11.5192 -11.3933 -11.2944 -11.0011 -10.7961 -10.7196 -10.6762 -10.5388
    -8.5642  -8.2198  -7.8643  -7.8005  -7.7248  -7.5878  -7.5398  -7.4538
     3.7105   3.9406   4.0424   4.2113   4.6218   4.7890   4.8763   4.9598
     5.0659   5.2712   5.3660   5.5491   5.6421   5.8284   5.9483   6.0269
     6.1064   6.1880   6.2903   6.3152   6.5419   6.7292   6.7756   6.8240
    12.5758  12.9525  13.1286  13.6520  13.9214  14.4706  14.5792  14.8040
    14.9984  15.0336  15.0866  15.3439  15.4506

     occupation numbers 
     1.0000   1.0000   1.0000   1.0000   1.0000   1.0000   1.0000   1.0000
     1.0000   1.0000   1.0000   1.0000   1.0000   1.0000   1.0000   1.0000
     1.0000   1.0000   1.0000   1.0000   1.0000   1.0000   1.0000   1.0000
     1.0000   1.0000   1.0000   1.0000   1.0000   1.0000   1.0000   1.0000
     1.0000   1.0000   1.0000   1.0000   1.0000   1.0000   1.0000   1.0000
     1.0000   1.0000   1.0000   1.0000   1.0000   1.0000   1.0000   1.0000
     1.0000   1.0000   1.0000   1.0000   1.0000   1.0000   1.0000   1.0000
     1.0000   1.0000   1.0000   1.0000   1.0000   1.0000   1.0000   1.0000
     0.0000   0.0000   0.0000   0.0000   0.0000   0.0000   0.0000   0.0000
     0.0000   0.0000   0.0000   0.0000   0.0000

          k = 0.5317-0.5277-0.1741 (  5361 PWs)   bands (ev):

   -66.2013 -66.0979 -65.8002 -65.6616 -65.2531 -33.1811 -33.1598 -33.1433
   -33.0709 -33.0534 -33.0455 -32.7753 -32.7671 -32.7441 -32.6536 -32.6195
   -32.6123 -32.2332 -32.2224 -32.2094 -29.8559 -29.2625 -28.8667 -11.6484
   -11.5369 -11.4049 -11.3582 -11.1424 -10.8046 -10.6981 -10.5761 -10.4085
    -8.4428  -8.2690  -8.0895  -7.8951  -7.8034  -7.6802  -7.4128  -7.2315
     3.6073   3.8478   4.0604   4.2561   4.4083   4.5656   4.8167   4.9427
     5.1713   5.4084   5.4869   5.5800   5.7322   5.8536   5.9803   6.0531
     6.1415   6.2868   6.3918   6.4149   6.5213   6.6845   6.7405   6.9545
    12.4787  13.0712  13.3940  13.6018  13.7112  13.8556  14.3287  14.6007
    14.8676  15.1392  15.2627  15.4449  15.8128

     occupation numbers 
     1.0000   1.0000   1.0000   1.0000   1.0000   1.0000   1.0000   1.0000
     1.0000   1.0000   1.0000   1.0000   1.0000   1.0000   1.0000   1.0000
     1.0000   1.0000   1.0000   1.0000   1.0000   1.0000   1.0000   1.0000
     1.0000   1.0000   1.0000   1.0000   1.0000   1.0000   1.0000   1.0000
     1.0000   1.0000   1.0000   1.0000   1.0000   1.0000   1.0000   1.0000
     1.0000   1.0000   1.0000   1.0000   1.0000   1.0000   1.0000   1.0000
     1.0000   1.0000   1.0000   1.0000   1.0000   1.0000   1.0000   1.0000
     1.0000   1.0000   1.0000   1.0000   1.0000   1.0000   1.0000   1.0000
     0.0000   0.0000   0.0000   0.0000   0.0000   0.0000   0.0000   0.0000
     0.0000   0.0000   0.0000   0.0000   0.0000

          k = 0.7083-0.3508-0.3497 (  5359 PWs)   bands (ev):

   -66.2013 -66.0979 -65.8002 -65.6616 -65.2531 -33.1811 -33.1597 -33.1432
   -33.0709 -33.0534 -33.0456 -32.7753 -32.7672 -32.7443 -32.6535 -32.6194
   -32.6120 -32.2332 -32.2224 -32.2095 -29.8560 -29.2626 -28.8668 -11.6488
   -11.5318 -11.3897 -11.3650 -11.1394 -10.7982 -10.7118 -10.5757 -10.4092
    -8.5366  -8.2370  -8.0457  -7.8704  -7.7870  -7.7405  -7.4024  -7.2111
     3.4676   3.9092   4.1186   4.1707   4.3324   4.6677   4.6982   4.9152
     5.1759   5.4073   5.5567   5.6395   5.7619   5.9282   6.0104   6.0646
     6.1344   6.2707   6.2960   6.5101   6.6049   6.6936   6.8277   6.9086
    12.2208  13.1429  13.3116  13.5264  13.7033  13.9424  14.2959  14.5431
    14.8330  15.0140  15.3684  15.5358  15.8325

     occupation numbers 
     1.0000   1.0000   1.0000   1.0000   1.0000   1.0000   1.0000   1.0000
     1.0000   1.0000   1.0000   1.0000   1.0000   1.0000   1.0000   1.0000
     1.0000   1.0000   1.0000   1.0000   1.0000   1.0000   1.0000   1.0000
     1.0000   1.0000   1.0000   1.0000   1.0000   1.0000   1.0000   1.0000
     1.0000   1.0000   1.0000   1.0000   1.0000   1.0000   1.0000   1.0000
     1.0000   1.0000   1.0000   1.0000   1.0000   1.0000   1.0000   1.0000
     1.0000   1.0000   1.0000   1.0000   1.0000   1.0000   1.0000   1.0000
     1.0000   1.0000   1.0000   1.0000   1.0000   1.0000   1.0000   1.0000
     0.0000   0.0000   0.0000   0.0000   0.0000   0.0000   0.0000   0.0000
     0.0000   0.0000   0.0000   0.0000   0.0000

          k = 0.1785-0.8813 0.1770 (  5366 PWs)   bands (ev):

   -66.2013 -66.0979 -65.8002 -65.6616 -65.2531 -33.1811 -33.1598 -33.1432
   -33.0709 -33.0535 -33.0456 -32.7752 -32.7671 -32.7440 -32.6535 -32.6195
   -32.6120 -32.2332 -32.2225 -32.2096 -29.8559 -29.2625 -28.8667 -11.6511
   -11.5173 -11.4099 -11.3642 -11.1379 -10.7930 -10.7170 -10.5771 -10.4073
    -8.4951  -8.2775  -8.0215  -7.9147  -7.7885  -7.7120  -7.4190  -7.1993
     3.6515   3.9969   4.1494   4.2324   4.3750   4.6935   4.8340   4.9705
     5.0348   5.2610   5.4484   5.5253   5.7183   5.8229   5.8735   6.0283
     6.1508   6.2864   6.3547   6.4699   6.5413   6.6350   6.7907   6.9183
    12.4766  13.2096  13.3507  13.5262  13.8665  14.1169  14.2524  14.5416
    14.7527  15.0889  15.4203  15.5599  15.7328

     occupation numbers 
     1.0000   1.0000   1.0000   1.0000   1.0000   1.0000   1.0000   1.0000
     1.0000   1.0000   1.0000   1.0000   1.0000   1.0000   1.0000   1.0000
     1.0000   1.0000   1.0000   1.0000   1.0000   1.0000   1.0000   1.0000
     1.0000   1.0000   1.0000   1.0000   1.0000   1.0000   1.0000   1.0000
     1.0000   1.0000   1.0000   1.0000   1.0000   1.0000   1.0000   1.0000
     1.0000   1.0000   1.0000   1.0000   1.0000   1.0000   1.0000   1.0000
     1.0000   1.0000   1.0000   1.0000   1.0000   1.0000   1.0000   1.0000
     1.0000   1.0000   1.0000   1.0000   1.0000   1.0000   1.0000   1.0000
     0.0000   0.0000   0.0000   0.0000   0.0000   0.0000   0.0000   0.0000
     0.0000   0.0000   0.0000   0.0000   0.0000

          k = 0.3551-0.7045 0.0014 (  5370 PWs)   bands (ev):

   -66.2013 -66.0979 -65.8002 -65.6616 -65.2531 -33.1811 -33.1598 -33.1433
   -33.0709 -33.0534 -33.0456 -32.7752 -32.7670 -32.7438 -32.6536 -32.6196
   -32.6123 -32.2332 -32.2224 -32.2095 -29.8559 -29.2625 -28.8667 -11.6504
   -11.5238 -11.4250 -11.3567 -11.1398 -10.7987 -10.7042 -10.5776 -10.4066
    -8.4382  -8.2425  -8.0750  -7.9298  -7.8341  -7.6643  -7.4153  -7.2228
     3.8881   3.9351   4.1227   4.2470   4.3979   4.6563   4.8379   4.9549
     5.0227   5.1316   5.4326   5.5830   5.7704   5.8845   5.9021   5.9697
     6.1837   6.2193   6.3562   6.4247   6.5015   6.6267   6.7084   6.8269
    12.7473  13.3320  13.4379  13.5455  13.7664  14.1241  14.3650  14.6302
    14.7020  14.9564  15.2020  15.4366  15.8412

     occupation numbers 
     1.0000   1.0000   1.0000   1.0000   1.0000   1.0000   1.0000   1.0000
     1.0000   1.0000   1.0000   1.0000   1.0000   1.0000   1.0000   1.0000
     1.0000   1.0000   1.0000   1.0000   1.0000   1.0000   1.0000   1.0000
     1.0000   1.0000   1.0000   1.0000   1.0000   1.0000   1.0000   1.0000
     1.0000   1.0000   1.0000   1.0000   1.0000   1.0000   1.0000   1.0000
     1.0000   1.0000   1.0000   1.0000   1.0000   1.0000   1.0000   1.0000
     1.0000   1.0000   1.0000   1.0000   1.0000   1.0000   1.0000   1.0000
     1.0000   1.0000   1.0000   1.0000   1.0000   1.0000   1.0000   1.0000
     0.0000   0.0000   0.0000   0.0000   0.0000   0.0000   0.0000   0.0000
     0.0000   0.0000   0.0000   0.0000   0.0000

          k =-0.0022-0.0047-0.7031 (  5382 PWs)   bands (ev):

   -66.2013 -66.0979 -65.8002 -65.6616 -65.2531 -33.1810 -33.1596 -33.1432
   -33.0710 -33.0538 -33.0456 -32.7752 -32.7669 -32.7438 -32.6537 -32.6196
   -32.6124 -32.2332 -32.2224 -32.2095 -29.8550 -29.2654 -28.8646 -11.6628
   -11.4592 -11.4009 -11.3522 -11.2743 -10.9130 -10.7420 -10.4678 -10.2257
    -8.4443  -8.3213  -8.0821  -7.9851  -7.9141  -7.7029  -7.3261  -7.1254
     3.6830   3.7833   4.0509   4.2678   4.4773   4.6835   4.8357   5.0944
     5.2953   5.4610   5.4730   5.5644   5.7503   5.8103   5.9278   5.9797
     6.0175   6.0892   6.1484   6.3110   6.5900   6.6750   6.8222   6.8529
    12.6072  13.0489  13.5531  13.7827  14.0307  14.0690  14.3303  14.4621
    14.5508  15.0733  15.1115  15.1360  15.6432

     occupation numbers 
     1.0000   1.0000   1.0000   1.0000   1.0000   1.0000   1.0000   1.0000
     1.0000   1.0000   1.0000   1.0000   1.0000   1.0000   1.0000   1.0000
     1.0000   1.0000   1.0000   1.0000   1.0000   1.0000   1.0000   1.0000
     1.0000   1.0000   1.0000   1.0000   1.0000   1.0000   1.0000   1.0000
     1.0000   1.0000   1.0000   1.0000   1.0000   1.0000   1.0000   1.0000
     1.0000   1.0000   1.0000   1.0000   1.0000   1.0000   1.0000   1.0000
     1.0000   1.0000   1.0000   1.0000   1.0000   1.0000   1.0000   1.0000
     1.0000   1.0000   1.0000   1.0000   1.0000   1.0000   1.0000   1.0000
     0.0000   0.0000   0.0000   0.0000   0.0000   0.0000   0.0000   0.0000
     0.0000   0.0000   0.0000   0.0000   0.0000

          k = 0.1744 0.1721-0.8787 (  5370 PWs)   bands (ev):

   -66.2013 -66.0979 -65.8002 -65.6616 -65.2531 -33.1810 -33.1596 -33.1431
   -33.0710 -33.0538 -33.0457 -32.7752 -32.7670 -32.7440 -32.6535 -32.6194
   -32.6121 -32.2332 -32.2225 -32.2095 -29.8550 -29.2655 -28.8646 -11.6564
   -11.4608 -11.4015 -11.3525 -11.2713 -10.9003 -10.7516 -10.4689 -10.2268
    -8.4753  -8.3038  -8.0982  -8.0176  -7.8576  -7.7326  -7.3190  -7.1062
     3.6343   3.9378   4.1397   4.1782   4.3201   4.7564   4.8805   5.0268
     5.1581   5.2316   5.4627   5.5599   5.7310   5.8079   5.8526   6.0105
     6.0920   6.2908   6.3440   6.4470   6.5559   6.6294   6.7894   6.9373
    12.5156  13.1422  13.5052  13.7713  13.9298  14.1044  14.2035  14.4459
    14.5889  14.7264  15.0795  15.3790  16.1100

     occupation numbers 
     1.0000   1.0000   1.0000   1.0000   1.0000   1.0000   1.0000   1.0000
     1.0000   1.0000   1.0000   1.0000   1.0000   1.0000   1.0000   1.0000
     1.0000   1.0000   1.0000   1.0000   1.0000   1.0000   1.0000   1.0000
     1.0000   1.0000   1.0000   1.0000   1.0000   1.0000   1.0000   1.0000
     1.0000   1.0000   1.0000   1.0000   1.0000   1.0000   1.0000   1.0000
     1.0000   1.0000   1.0000   1.0000   1.0000   1.0000   1.0000   1.0000
     1.0000   1.0000   1.0000   1.0000   1.0000   1.0000   1.0000   1.0000
     1.0000   1.0000   1.0000   1.0000   1.0000   1.0000   1.0000   1.0000
     0.0000   0.0000   0.0000   0.0000   0.0000   0.0000   0.0000   0.0000
     0.0000   0.0000   0.0000   0.0000   0.0000

          k =-0.3553-0.3584-0.3520 (  5378 PWs)   bands (ev):

   -66.2013 -66.0979 -65.8002 -65.6616 -65.2531 -33.1810 -33.1596 -33.1431
   -33.0710 -33.0538 -33.0457 -32.7752 -32.7671 -32.7442 -32.6534 -32.6193
   -32.6119 -32.2332 -32.2225 -32.2095 -29.8551 -29.2655 -28.8647 -11.6500
   -11.4570 -11.3984 -11.3608 -11.2718 -10.8855 -10.7607 -10.4700 -10.2278
    -8.4869  -8.3214  -8.1376  -7.9689  -7.8188  -7.7825  -7.3219  -7.0815
     3.6153   3.9177   4.0925   4.3555   4.4272   4.6823   4.8214   4.9787
     5.0763   5.3357   5.3942   5.5051   5.5503   5.6026   5.7907   6.0097
     6.2095   6.2422   6.4778   6.5968   6.6271   6.8014   6.8705   6.9622
    12.5862  12.7627  13.5472  13.8092  13.9161  13.9569  14.0126  14.2034
    14.8415  15.0113  15.2456  15.5567  16.0093

     occupation numbers 
     1.0000   1.0000   1.0000   1.0000   1.0000   1.0000   1.0000   1.0000
     1.0000   1.0000   1.0000   1.0000   1.0000   1.0000   1.0000   1.0000
     1.0000   1.0000   1.0000   1.0000   1.0000   1.0000   1.0000   1.0000
     1.0000   1.0000   1.0000   1.0000   1.0000   1.0000   1.0000   1.0000
     1.0000   1.0000   1.0000   1.0000   1.0000   1.0000   1.0000   1.0000
     1.0000   1.0000   1.0000   1.0000   1.0000   1.0000   1.0000   1.0000
     1.0000   1.0000   1.0000   1.0000   1.0000   1.0000   1.0000   1.0000
     1.0000   1.0000   1.0000   1.0000   1.0000   1.0000   1.0000   1.0000
     0.0000   0.0000   0.0000   0.0000   0.0000   0.0000   0.0000   0.0000
     0.0000   0.0000   0.0000   0.0000   0.0000

     the Fermi energy is     8.5937 ev

!    total energy              =   -1109.87432523 Ry
     Harris-Foulkes estimate   =   -1109.87432523 Ry
     estimated scf accuracy    <          8.6E-11 Ry

     The total energy is the sum of the following terms:

     one-electron contribution =    -548.47426513 Ry
     hartree contribution      =     317.50202024 Ry
     xc contribution           =    -177.49521792 Ry
     ewald contribution        =    -701.40686242 Ry
     smearing contrib. (-TS)   =      -0.00000000 Ry

     convergence has been achieved in  18 iterations

     Forces acting on atoms (Ry/au):

     atom    1 type  1   force =  -0.15626677E-01 -0.37608815E-02 -0.11550426E-01
     atom    2 type  3   force =   0.12176514E+00  0.59935260E-01 -0.18601451E-01
     atom    3 type  2   force =  -0.14099291E-01  0.67517168E-02 -0.33525991E-01
     atom    4 type  3   force =  -0.11444372E+00 -0.71715615E-01 -0.29365992E-01
     atom    5 type  1   force =   0.72514559E-01 -0.16296660E-01  0.25210909E-01
     atom    6 type  3   force =   0.14225497E-01  0.13311478E-01 -0.37346565E-01
     atom    7 type  2   force =   0.25090914E-01 -0.10577731E-01  0.23980181E-01
     atom    8 type  3   force =   0.93432930E-02 -0.21410874E-01  0.20507807E-01
     atom    9 type  1   force =  -0.11021098E+00 -0.12692291E-01 -0.44015402E-01
     atom   10 type  3   force =   0.49532301E-01  0.24010108E-01 -0.34814852E-01
     atom   11 type  2   force =  -0.11712023E-01  0.44380050E-01 -0.12796053E-01
     atom   12 type  3   force =  -0.23288004E-01 -0.55711948E-02  0.10985016E+00
     atom   13 type  2   force =  -0.54887407E-03 -0.41773287E-01  0.17054966E-01
     atom   14 type  3   force =   0.17115138E-01  0.92670536E-01 -0.11112060E-01
     atom   15 type  2   force =   0.27757206E-01 -0.20654033E-01  0.32330783E-01
     atom   16 type  3   force =  -0.47414483E-01 -0.36606580E-01  0.41939883E-02
     The non-local contrib.  to forces
     atom    1 type  1   force =  -0.81868032E-02 -0.18335191E-01  0.13826513E-01
     atom    2 type  3   force =   0.24824275E+00  0.20911866E+00 -0.12257941E+00
     atom    3 type  2   force =  -0.43955579E-01 -0.11044904E+00  0.13797209E-01
     atom    4 type  3   force =  -0.21700704E+00 -0.17976281E+00  0.28837003E-01
     atom    5 type  1   force =   0.39077395E-01  0.46514009E-02  0.45462306E-03
     atom    6 type  3   force =  -0.47445706E-01  0.57012409E-02 -0.11687310E+00
     atom    7 type  2   force =   0.16200792E-01  0.15924291E+00 -0.18832584E-02
     atom    8 type  3   force =   0.68062646E-01 -0.12169043E+00  0.92160033E-01
     atom    9 type  1   force =  -0.28239032E-01 -0.70041033E-02 -0.27958387E-01
     atom   10 type  3   force =   0.15032463E+00 -0.57644477E-01 -0.11188387E+00
     atom   11 type  2   force =   0.13706159E+00 -0.10011094E+00  0.40674731E-01
     atom   12 type  3   force =  -0.99110852E-01 -0.56475995E-01  0.29647040E+00
     atom   13 type  2   force =  -0.14958151E+00 -0.14831996E+00 -0.91536867E-01
     atom   14 type  3   force =   0.10312316E+00  0.25387263E+00 -0.63557367E-02
     atom   15 type  2   force =  -0.13658450E+00 -0.11129605E-01  0.21077199E+00
     atom   16 type  3   force =  -0.19685117E+00 -0.60032463E-01  0.11239983E-01
     The ionic contribution  to forces
     atom    1 type  1   force =  -0.10762384E+01  0.89927154E-01  0.28572929E+00
     atom    2 type  3   force =   0.16992955E+01 -0.28812968E+00  0.41152355E+00
     atom    3 type  2   force =  -0.99310416E+00 -0.29255727E+00 -0.16363385E+01
     atom    4 type  3   force =  -0.17447941E+01 -0.14332157E+01 -0.24286147E+01
     atom    5 type  1   force =   0.21291180E+01 -0.90821542E+00  0.65970896E+00
     atom    6 type  3   force =   0.15892584E+01 -0.57306547E+00 -0.42557570E+00
     atom    7 type  2   force =   0.12917774E+01  0.10580191E+01  0.87054186E+00
     atom    8 type  3   force =   0.86342712E+00  0.28730529E+00 -0.38531341E+00
     atom    9 type  1   force =  -0.28378265E+01  0.10177681E+00 -0.17265577E+01
     atom   10 type  3   force =  -0.42995725E+00  0.22099231E+01  0.28214855E+00
     atom   11 type  2   force =   0.13769270E+01  0.14740744E+01 -0.69621068E+00
     atom   12 type  3   force =  -0.20801894E+00  0.13421619E+01  0.11880609E+01
     atom   13 type  2   force =  -0.24437882E+00 -0.24086840E+01  0.72531752E+00
     atom   14 type  3   force =  -0.96530764E+00  0.90229733E+00  0.21459784E+00
     atom   15 type  2   force =  -0.35123275E+00 -0.96116758E+00  0.22388653E+01
     atom   16 type  3   force =  -0.98944965E-01 -0.60044996E+00  0.42211697E+00
     The local contribution  to forces
     atom    1 type  1   force =   0.10687851E+01 -0.75119643E-01 -0.31171092E+00
     atom    2 type  3   force =  -0.18228053E+01  0.14082289E+00 -0.30823762E+00
     atom    3 type  2   force =   0.10229673E+01  0.40975291E+00  0.15890178E+01
     atom    4 type  3   force =   0.18444442E+01  0.15392703E+01  0.23702265E+01
     atom    5 type  1   force =  -0.20958977E+01  0.88694299E+00 -0.63437964E+00
     atom    6 type  3   force =  -0.15274221E+01  0.58115486E+00  0.50389210E+00
     atom    7 type  2   force =  -0.12828887E+01 -0.12278353E+01 -0.84468688E+00
     atom    8 type  3   force =  -0.92191491E+00 -0.18781273E+00  0.31442979E+00
     atom    9 type  1   force =   0.27547205E+01 -0.10751829E+00  0.17103965E+01
     atom   10 type  3   force =   0.33075136E+00 -0.21279947E+01 -0.20621470E+00
     atom   11 type  2   force =  -0.15256954E+01 -0.13295874E+01  0.64274248E+00
     atom   12 type  3   force =   0.28312133E+00 -0.12916561E+01 -0.13716489E+01
     atom   13 type  2   force =   0.39340110E+00  0.25152277E+01 -0.61673066E+00
     atom   14 type  3   force =   0.88011792E+00 -0.10608093E+01 -0.21978986E+00
     atom   15 type  2   force =   0.51556764E+00  0.95165106E+00 -0.24172980E+01
     atom   16 type  3   force =   0.24670620E+00  0.62279402E+00 -0.42901813E+00
     The core correction contribution to forces
     atom    1 type  1   force =   0.13846171E-04 -0.23877722E-03  0.60525172E-03
     atom    2 type  3   force =  -0.29716338E-02 -0.18776185E-02  0.69252612E-03
     atom    3 type  2   force =   0.00000000E+00  0.00000000E+00  0.00000000E+00
     atom    4 type  3   force =   0.29140356E-02  0.19968820E-02  0.18262726E-03
     atom    5 type  1   force =   0.22230792E-03  0.32699651E-03 -0.57497151E-03
     atom    6 type  3   force =  -0.16247184E-03 -0.47899434E-03  0.12146842E-02
     atom    7 type  2   force =   0.00000000E+00  0.00000000E+00  0.00000000E+00
     atom    8 type  3   force =  -0.23027864E-03  0.78769079E-03 -0.77086177E-03
     atom    9 type  1   force =   0.11351528E-02  0.55434575E-04  0.10666687E-03
     atom   10 type  3   force =  -0.15861179E-02 -0.27025709E-03  0.11368107E-02
     atom   11 type  2   force =   0.00000000E+00  0.00000000E+00  0.00000000E+00
     atom   12 type  3   force =   0.72051053E-03  0.40069387E-03 -0.30361792E-02
     atom   13 type  2   force =   0.00000000E+00  0.00000000E+00  0.00000000E+00
     atom   14 type  3   force =  -0.82102859E-03 -0.26947828E-02  0.43597346E-03
     atom   15 type  2   force =   0.00000000E+00  0.00000000E+00  0.00000000E+00
     atom   16 type  3   force =   0.16805866E-02  0.10840586E-02 -0.14425188E-03
     The Hubbard contrib.    to forces
     atom    1 type  1   force =   0.00000000E+00  0.00000000E+00  0.00000000E+00
     atom    2 type  3   force =   0.00000000E+00  0.00000000E+00  0.00000000E+00
     atom    3 type  2   force =   0.00000000E+00  0.00000000E+00  0.00000000E+00
     atom    4 type  3   force =   0.00000000E+00  0.00000000E+00  0.00000000E+00
     atom    5 type  1   force =   0.00000000E+00  0.00000000E+00  0.00000000E+00
     atom    6 type  3   force =   0.00000000E+00  0.00000000E+00  0.00000000E+00
     atom    7 type  2   force =   0.00000000E+00  0.00000000E+00  0.00000000E+00
     atom    8 type  3   force =   0.00000000E+00  0.00000000E+00  0.00000000E+00
     atom    9 type  1   force =   0.00000000E+00  0.00000000E+00  0.00000000E+00
     atom   10 type  3   force =   0.00000000E+00  0.00000000E+00  0.00000000E+00
     atom   11 type  2   force =   0.00000000E+00  0.00000000E+00  0.00000000E+00
     atom   12 type  3   force =   0.00000000E+00  0.00000000E+00  0.00000000E+00
     atom   13 type  2   force =   0.00000000E+00  0.00000000E+00  0.00000000E+00
     atom   14 type  3   force =   0.00000000E+00  0.00000000E+00  0.00000000E+00
     atom   15 type  2   force =   0.00000000E+00  0.00000000E+00  0.00000000E+00
     atom   16 type  3   force =   0.00000000E+00  0.00000000E+00  0.00000000E+00
     The SCF correction term to forces
     atom    1 type  1   force =  -0.56870989E-07  0.59943750E-05 -0.72380377E-06
     atom    2 type  3   force =   0.41711602E-05  0.14238880E-05 -0.65641055E-06
     atom    3 type  2   force =  -0.65065706E-05  0.55346683E-05 -0.27004249E-05
     atom    4 type  3   force =  -0.42328310E-06 -0.39088766E-05  0.24875135E-05
     atom    5 type  1   force =  -0.50633489E-05 -0.22156702E-05  0.17723651E-05
     atom    6 type  3   force =  -0.22608257E-05  0.26364705E-06 -0.47199197E-05
     atom    7 type  2   force =   0.17664215E-05 -0.40089111E-05  0.82973478E-05
     atom    8 type  3   force =  -0.91330348E-06 -0.27879546E-06  0.20910698E-05
     atom    9 type  1   force =  -0.74028218E-06 -0.17249853E-05 -0.26417053E-05
     atom   10 type  3   force =   0.56675845E-07 -0.30947187E-05 -0.17959302E-05
     atom   11 type  2   force =  -0.47684507E-05  0.43602795E-05 -0.27423916E-05
     atom   12 type  3   force =   0.31557258E-06 -0.11953677E-05  0.37889156E-05
     atom   13 type  2   force =   0.10731789E-04  0.33646891E-05  0.48085946E-05
     atom   14 type  3   force =   0.30877799E-05  0.51204087E-05 -0.44039057E-06
     atom   15 type  2   force =   0.71886075E-05 -0.74908071E-05 -0.86464181E-05
     atom   16 type  3   force =  -0.47565870E-05 -0.18182909E-05 -0.74093194E-06

     Total force =     0.316435     Total SCF correction =     0.000028


     entering subroutine stress ...

          total   stress  (Ry/bohr**3)                   (kbar)     P=  -20.35
   0.0000150086  -0.0000354419  -0.0000010561          2.21     -5.21     -0.16
  -0.0000354419  -0.0000861481   0.0000445694         -5.21    -12.67      6.56
  -0.0000010561   0.0000445694  -0.0003438175         -0.16      6.56    -50.58

     kinetic stress (kbar)  20462.43    -20.62     -5.76
                              -20.62  20447.13      3.96
                               -5.76      3.96  20383.39

     local   stress (kbar)  -4541.18    367.07    559.72
                              367.07  -4436.15    461.83
                              559.72    461.83  -3667.30

     nonloc. stress (kbar)   5271.66      0.86     -0.37
                                0.86   5274.75     -1.81
                               -0.37     -1.81   5280.59

     hartree stress (kbar)  12482.11    -89.88   -190.60
                              -89.88  12462.42   -188.68
                             -190.60   -188.68  12242.69

     exc-cor stress (kbar)  -5673.69     -0.62     -0.46
                               -0.62  -5673.95     -0.27
                               -0.46     -0.27  -5675.10

     corecor stress (kbar)   -849.76      0.08      0.04
                                0.08   -849.74      0.01
                                0.04      0.01   -849.51

     ewald   stress (kbar) -27149.36   -262.10   -362.73
                             -262.10 -27237.13   -268.47
                             -362.73   -268.47 -27765.34

     hubbard stress (kbar)      0.00      0.00      0.00
                                0.00      0.00      0.00
                                0.00      0.00      0.00

     london  stress (kbar)      0.00      0.00      0.00
                                0.00      0.00      0.00
                                0.00      0.00      0.00

     XDM     stress (kbar)      0.00      0.00      0.00
                                0.00      0.00      0.00
                                0.00      0.00      0.00

     dft-nl  stress (kbar)      0.00      0.00      0.00
                                0.00      0.00      0.00
                                0.00      0.00      0.00



     Writing output data file mix222.033.save

     init_run     :     18.53s CPU     19.50s WALL (       1 calls)
     electrons    :    836.34s CPU    879.68s WALL (       1 calls)
     forces       :      7.84s CPU      7.44s WALL (       1 calls)
     stress       :     16.05s CPU     15.97s WALL (       1 calls)

     Called by init_run:
     wfcinit      :     15.71s CPU     16.60s WALL (       1 calls)
     potinit      :      0.85s CPU      0.87s WALL (       1 calls)

     Called by electrons:
     c_bands      :    727.91s CPU    770.41s WALL (      18 calls)
     sum_band     :     99.99s CPU    100.59s WALL (      18 calls)
     v_of_rho     :      1.04s CPU      1.08s WALL (      19 calls)
     v_h          :      0.06s CPU      0.05s WALL (      19 calls)
     v_xc         :      1.08s CPU      1.12s WALL (      21 calls)
     newd         :      6.38s CPU      6.49s WALL (      19 calls)
     mix_rho      :      1.26s CPU      1.34s WALL (      18 calls)

     Called by c_bands:
     init_us_2    :      3.94s CPU      4.21s WALL (    1404 calls)
     cegterg      :    706.45s CPU    747.81s WALL (     648 calls)

     Called by sum_band:
     sum_band:bec :      0.82s CPU      0.91s WALL (     648 calls)
     addusdens    :      6.18s CPU      6.29s WALL (      18 calls)

     Called by *egterg:
     h_psi        :    393.99s CPU    396.46s WALL (    2244 calls)
     s_psi        :     47.61s CPU     40.91s WALL (    2244 calls)
     g_psi        :      0.55s CPU      0.57s WALL (    1560 calls)
     cdiaghg      :    109.51s CPU    145.56s WALL (    2208 calls)
     cegterg:over :     76.01s CPU     78.19s WALL (    1560 calls)
     cegterg:upda :     23.23s CPU     23.71s WALL (    1560 calls)
     cegterg:last :     12.86s CPU     11.14s WALL (     648 calls)

     Called by h_psi:
     h_psi:vloc   :    274.07s CPU    281.79s WALL (    2244 calls)
     h_psi:vnl    :    119.29s CPU    113.92s WALL (    2244 calls)
     add_vuspsi   :     48.86s CPU     44.06s WALL (    2244 calls)

     General routines
     calbec       :    103.49s CPU    101.34s WALL (    2964 calls)
     fft          :      1.15s CPU      1.20s WALL (     325 calls)
     ffts         :      0.80s CPU      0.84s WALL (     484 calls)
     fftw         :    313.63s CPU    322.34s WALL (  285124 calls)
     interpolate  :      0.17s CPU      0.17s WALL (      37 calls)

     Parallel routines
     fft_scatter  :    107.37s CPU    110.80s WALL (  285933 calls)

     PWSCF        : 14m40.83s CPU    15m25.21s WALL


   This run was terminated on:  20:24:36  18Aug2017            

=------------------------------------------------------------------------------=
   JOB DONE.
=------------------------------------------------------------------------------=
