
     Program PWSCF v.5.1 starts on 29Nov2017 at 17: 1:29 

     This program is part of the open-source Quantum ESPRESSO suite
     for quantum simulation of materials; please cite
         "P. Giannozzi et al., J. Phys.:Condens. Matter 21 395502 (2009);
          URL http://www.quantum-espresso.org", 
     in publications or presentations arising from this work. More details at
     http://www.quantum-espresso.org/quote

     Parallel version (MPI), running on    16 processors
     R & G space division:  proc/nbgrp/npool/nimage =      16
     Reading input from /tmp/mix222.ordered.relax.up.relaxed.19472/mix222.ordered.relax.up.relaxed.t
Warning: card &IONS ignored
Warning: card   ION_DYNAMICS='BFGS', ignored
Warning: card / ignored
Warning: card &CELL ignored
Warning: card  CELL_DYNAMICS = 'BFGS' ignored
Warning: card / ignored
     Message from routine read_cards :
     DEPRECATED: no units specified in CELL_PARAMETERS card

     Current dimensions of program PWSCF are:
     Max number of different atomic species (ntypx) = 10
     Max number of k-points (npk) =  40000
     Max angular momentum in pseudopotentials (lmaxx) =  3
 kfg - two_fermi_energies  F

     Subspace diagonalization in iterative solution of the eigenvalue problem:
     a serial algorithm will be used

     Found symmetry operation: I + (  0.0000 -0.5000  0.0000)
     This is a supercell, fractional translations are disabled

     Parallelization info
     --------------------
     sticks:   dense  smooth     PW     G-vecs:    dense   smooth      PW
     Min         124      99     28                 3679     2626     401
     Max         125     100     29                 3682     2636     404
     Sum        1993    1597    451                58887    42087    6423



     bravais-lattice index     =            0
     lattice parameter (alat)  =    12.038237362  a.u.
     unit-cell volume          =    1233.8656 (a.u.)^3
     number of atoms/cell      =           16
     number of atomic types    =            3
     number of electrons       =       128.00
     number of Kohn-Sham states=           77
     kinetic-energy cutoff     =      40.0000  Ry
     charge density cutoff     =     200.0000  Ry
     convergence threshold     =      1.0E-10
     mixing beta               =       0.3000
     number of iterations used =            8  local-TF  mixing
     Exchange-correlation      = SLA  PW   PSX  PSC ( 1  4 10  8 0)
     A smooth kinetic-energy cutoff is imposed at      39.5000 Ry
     height of the smooth step-function =             800.0000 Ry
     width of the smooth step-function  =               1.0000 Ry


     celldm(1)=  12.038237  celldm(2)=   0.000000  celldm(3)=   0.000000
     celldm(4)=   0.000000  celldm(5)=   0.000000  celldm(6)=   0.000000

     crystal axes: (cart. coord. in units of alat)
               a(1) = (  -0.000000000000   0.707106781187   0.707106781187 )  
               a(2) = (   0.707106781187  -0.000000000000   0.707106781187 )  
               a(3) = (   0.707208997812   0.707208997812  -0.000102216625 )  

     reciprocal axes: (cart. coord. in units 2 pi/alat)
               b(1) = ( -0.707056  0.707158  0.707056 )  
               b(2) = (  0.707158 -0.707056  0.707056 )  
               b(3) = (  0.706953  0.706953 -0.706953 )  


     PseudoPot. # 1 for Ca read from file:
     /users/kfg/psuedo/gbrv_1.5/ca.pbesol.UPF
     MD5 check sum: 0533207b58cddeaa036efa5b63902087
     Pseudo is Ultrasoft + core correction, Zval = 10.0
     Generated by new atomic code, or converted to UPF format
     Using radial grid of  845 points,  6 beta functions with: 
                l(1) =   0
                l(2) =   0
                l(3) =   1
                l(4) =   1
                l(5) =   2
                l(6) =   2
     Q(r) pseudized with  8 coefficients,  rinner =    1.500   1.500   1.500
                                                       1.500   1.500

     PseudoPot. # 2 for Mg read from file:
     /users/kfg/psuedo/gbrv_1.5/mg.pbesol.UPF
     MD5 check sum: 4059f37963cf5867752dbf5ab2400678
     Pseudo is Ultrasoft, Zval = 10.0
     Generated by new atomic code, or converted to UPF format
     Using radial grid of  821 points,  7 beta functions with: 
                l(1) =   0
                l(2) =   0
                l(3) =   0
                l(4) =   1
                l(5) =   1
                l(6) =   2
                l(7) =   2
     Q(r) pseudized with  8 coefficients,  rinner =    1.200   1.200   1.200
                                                       1.200   1.200

     PseudoPot. # 3 for O  read from file:
     /users/kfg/psuedo/gbrv_1.5/o.pbesol.UPF
     MD5 check sum: 501638753501ef6325af9037351f7734
     Pseudo is Ultrasoft + core correction, Zval =  6.0
     Generated by new atomic code, or converted to UPF format
     Using radial grid of  737 points,  5 beta functions with: 
                l(1) =   0
                l(2) =   0
                l(3) =   1
                l(4) =   1
                l(5) =   2
     Q(r) pseudized with  8 coefficients,  rinner =    0.900   0.900   0.900
                                                       0.900   0.900

     atomic species   valence    mass     pseudopotential
        Ca            10.00    40.07800     Ca( 1.00)
        Mg            10.00    40.07800     Mg( 1.00)
        O              6.00    15.99940     O ( 1.00)

     12 Sym. Ops., with inversion, found


                                    s                        frac. trans.

      isym =  1     identity                                     

 cryst.   s( 1) = (     1          0          0      )
                  (     0          1          0      )
                  (     0          0          1      )

 cart.    s( 1) = (  1.0000000  0.0000000 -0.0000000 )
                  (  0.0000000  1.0000000 -0.0000000 )
                  (  0.0000000  0.0000000  1.0000000 )


      isym =  2     180 deg rotation - cart. axis [1,-1,0]       

 cryst.   s( 2) = (     0         -1          0      )
                  (    -1          0          0      )
                  (     0          0         -1      )

 cart.    s( 2) = ( -0.0000000 -1.0000000  0.0000000 )
                  ( -1.0000000 -0.0000000  0.0000000 )
                  ( -0.0000000 -0.0000000 -1.0000000 )


      isym =  3     180 deg rotation - cart. axis [1,0,1]        

 cryst.   s( 3) = (    -1          1          0      )
                  (     0          1          0      )
                  (     0          1         -1      )

 cart.    s( 3) = ( -0.0000000 -0.0000000  1.0000000 )
                  ( -0.0000000 -1.0000000  0.0000000 )
                  (  1.0000000 -0.0000000  0.0000000 )


      isym =  4     180 deg rotation - cart. axis [0,1,1]        

 cryst.   s( 4) = (     1          0          0      )
                  (     1         -1          0      )
                  (     1          0         -1      )

 cart.    s( 4) = ( -1.0000000 -0.0000000  0.0000000 )
                  ( -0.0000000 -0.0000000  1.0000000 )
                  ( -0.0000000  1.0000000  0.0000000 )


      isym =  5     120 deg rotation - cart. axis [1,1,-1]       

 cryst.   s( 5) = (    -1          1          0      )
                  (    -1          0          0      )
                  (    -1          0          1      )

 cart.    s( 5) = (  0.0000000  1.0000000 -0.0000000 )
                  (  0.0000000  0.0000000 -1.0000000 )
                  ( -1.0000000  0.0000000 -0.0000000 )


      isym =  6     120 deg rotation - cart. axis [-1,-1,1]      

 cryst.   s( 6) = (     0         -1          0      )
                  (     1         -1          0      )
                  (     0         -1          1      )

 cart.    s( 6) = (  0.0000000  0.0000000 -1.0000000 )
                  (  1.0000000  0.0000000 -0.0000000 )
                  (  0.0000000 -1.0000000 -0.0000000 )


      isym =  7     inversion                                    

 cryst.   s( 7) = (    -1          0          0      )
                  (     0         -1          0      )
                  (     0          0         -1      )

 cart.    s( 7) = ( -1.0000000 -0.0000000  0.0000000 )
                  ( -0.0000000 -1.0000000  0.0000000 )
                  ( -0.0000000 -0.0000000 -1.0000000 )


      isym =  8     inv. 180 deg rotation - cart. axis [1,-1,0]  

 cryst.   s( 8) = (     0          1          0      )
                  (     1          0          0      )
                  (     0          0          1      )

 cart.    s( 8) = (  0.0000000  1.0000000 -0.0000000 )
                  (  1.0000000  0.0000000 -0.0000000 )
                  (  0.0000000  0.0000000  1.0000000 )


      isym =  9     inv. 180 deg rotation - cart. axis [1,0,1]   

 cryst.   s( 9) = (     1         -1          0      )
                  (     0         -1          0      )
                  (     0         -1          1      )

 cart.    s( 9) = (  0.0000000  0.0000000 -1.0000000 )
                  (  0.0000000  1.0000000 -0.0000000 )
                  ( -1.0000000  0.0000000 -0.0000000 )


      isym = 10     inv. 180 deg rotation - cart. axis [0,1,1]   

 cryst.   s(10) = (    -1          0          0      )
                  (    -1          1          0      )
                  (    -1          0          1      )

 cart.    s(10) = (  1.0000000  0.0000000 -0.0000000 )
                  (  0.0000000  0.0000000 -1.0000000 )
                  (  0.0000000 -1.0000000 -0.0000000 )


      isym = 11     inv. 120 deg rotation - cart. axis [1,1,-1]  

 cryst.   s(11) = (     1         -1          0      )
                  (     1          0          0      )
                  (     1          0         -1      )

 cart.    s(11) = ( -0.0000000 -1.0000000  0.0000000 )
                  ( -0.0000000 -0.0000000  1.0000000 )
                  (  1.0000000 -0.0000000  0.0000000 )


      isym = 12     inv. 120 deg rotation - cart. axis [-1,-1,1] 

 cryst.   s(12) = (     0          1          0      )
                  (    -1          1          0      )
                  (     0          1         -1      )

 cart.    s(12) = ( -0.0000000 -0.0000000  1.0000000 )
                  ( -1.0000000 -0.0000000  0.0000000 )
                  ( -0.0000000  1.0000000  0.0000000 )


     point group D_3d (-3m) 
     there are  6 classes
     the character table:

       E     2C3   3C2'  i     2S6   3s_d 
A_1g   1.00  1.00  1.00  1.00  1.00  1.00
A_2g   1.00  1.00 -1.00  1.00  1.00 -1.00
E_g    2.00 -1.00  0.00  2.00 -1.00  0.00
A_1u   1.00  1.00  1.00 -1.00 -1.00 -1.00
A_2u   1.00  1.00 -1.00 -1.00 -1.00  1.00
E_u    2.00 -1.00  0.00 -2.00  1.00  0.00

     the symmetry operations in each class:
     E        1
     3C2'     2    4    3
     2C3      5    6
     i        7
     3s_d     8   10    9
     2S6     11   12

   Cartesian axes

     site n.     atom                  positions (alat units)
         1           Mg  tau(   1) = (    0.00000000000    0.00000000000   -0.00000000000  )
         2           O   tau(   2) = (    0.34277703683    0.34277703683    0.36432974507  )
         3           Ca  tau(   3) = (    0.35360449891    0.35360449891   -0.00005110831  )
         4           O   tau(   4) = (    0.71798535865    0.71798535865    0.34267481525  )
         5           Mg  tau(   5) = (    0.35355339059    0.00000000000    0.35355339059  )
         6           O   tau(   6) = (    0.69633042035    0.34277703187    0.71788314203  )
         7           Ca  tau(   7) = (    0.70715788950    0.35360449891    0.35350228228  )
         8           O   tau(   8) = (    1.07153874712    0.71798535865    0.69622820372  )
         9           Mg  tau(   9) = (    0.00000000000    0.35355339059    0.35355339059  )
        10           O   tau(  10) = (    0.34277703187    0.69633042035    0.71788314203  )
        11           Ca  tau(  11) = (    0.35360449891    0.70715788950    0.35350228228  )
        12           O   tau(  12) = (    0.71798535865    1.07153874712    0.69622820372  )
        13           Mg  tau(  13) = (    0.35355339059    0.35355339059    0.70710678119  )
        14           O   tau(  14) = (    0.69633042035    0.69633042035    1.07143653050  )
        15           Ca  tau(  15) = (    0.70715788950    0.70715788950    0.70705567287  )
        16           O   tau(  16) = (    1.07153874217    1.07153874217    1.04978160068  )

   Crystallographic axes

     site n.     atom                  positions (cryst. coord.)
         1           Mg  tau(   1) = (    0.00000000000    0.00000000000    0.00000000000  )
         2           O   tau(   2) = (    0.25763644700    0.25763644700    0.22709066000  )
         3           Ca  tau(   3) = (    0.00000000000    0.00000000000    0.50000000000  )
         4           O   tau(   4) = (    0.24236355000    0.24236355000    0.77290935300  )
         5           Mg  tau(   5) = (    0.00000000000    0.50000000000    0.00000000000  )
         6           O   tau(   6) = (    0.25763645300    0.75763645000    0.22709064700  )
         7           Ca  tau(   7) = (   -0.00000000000    0.50000000000    0.50000000000  )
         8           O   tau(   8) = (    0.24236355000    0.74236354700    0.77290935300  )
         9           Mg  tau(   9) = (    0.50000000000    0.00000000000    0.00000000000  )
        10           O   tau(  10) = (    0.75763645000    0.25763645300    0.22709064700  )
        11           Ca  tau(  11) = (    0.50000000000   -0.00000000000    0.50000000000  )
        12           O   tau(  12) = (    0.74236354700    0.24236355000    0.77290935300  )
        13           Mg  tau(  13) = (    0.50000000000    0.50000000000    0.00000000000  )
        14           O   tau(  14) = (    0.75763645000    0.75763645000    0.22709064700  )
        15           Ca  tau(  15) = (    0.50000000000    0.50000000000    0.50000000000  )
        16           O   tau(  16) = (    0.74236355300    0.74236355300    0.77290934000  )

     number of k points=    13  gaussian smearing, width (Ry)=  0.0050
                       cart. coord. in units 2pi/alat
        k(    1) = (   0.0000000   0.0000000   0.0000000), wk =   0.0312500
        k(    2) = (   0.1767384   0.1767384  -0.1767384), wk =   0.0625000
        k(    3) = (  -0.3534767  -0.3534767   0.3534767), wk =   0.0312500
        k(    4) = (   0.1767895  -0.1767639   0.1767639), wk =   0.1875000
        k(    5) = (   0.3535278  -0.0000255   0.0000255), wk =   0.1875000
        k(    6) = (  -0.1766873  -0.5302407   0.5302407), wk =   0.1875000
        k(    7) = (   0.0000511  -0.3535023   0.3535023), wk =   0.1875000
        k(    8) = (  -0.3535789   0.3535278  -0.3535278), wk =   0.0937500
        k(    9) = (  -0.1768406   0.5302662  -0.5302662), wk =   0.1875000
        k(   10) = (  -0.7070557   0.0000511  -0.0000511), wk =   0.0937500
        k(   11) = (  -0.5303429   0.5303173  -0.1767639), wk =   0.3750000
        k(   12) = (  -0.3536045   0.7070557  -0.3535023), wk =   0.1875000
        k(   13) = (  -0.7070812   0.3535789  -0.0000255), wk =   0.1875000

                       cryst. coord.
        k(    1) = (   0.0000000   0.0000000   0.0000000), wk =   0.0312500
        k(    2) = (   0.0000000   0.0000000   0.2500000), wk =   0.0625000
        k(    3) = (   0.0000000   0.0000000  -0.5000000), wk =   0.0312500
        k(    4) = (   0.0000000   0.2500000   0.0000000), wk =   0.1875000
        k(    5) = (   0.0000000   0.2500000   0.2500000), wk =   0.1875000
        k(    6) = (   0.0000000   0.2500000  -0.5000000), wk =   0.1875000
        k(    7) = (   0.0000000   0.2500000  -0.2500000), wk =   0.1875000
        k(    8) = (   0.0000000  -0.5000000  -0.0000000), wk =   0.0937500
        k(    9) = (   0.0000000  -0.5000000   0.2500000), wk =   0.1875000
        k(   10) = (   0.0000000  -0.5000000  -0.5000000), wk =   0.0937500
        k(   11) = (   0.2500000  -0.5000000  -0.0000000), wk =   0.3750000
        k(   12) = (   0.2500000  -0.5000000   0.2500000), wk =   0.1875000
        k(   13) = (   0.2500000  -0.5000000  -0.2500000), wk =   0.1875000

     Dense  grid:    58887 G-vectors     FFT dimensions: (  60,  60,  60)

     Smooth grid:    42087 G-vectors     FFT dimensions: (  50,  50,  50)

     Largest allocated arrays     est. size (Mb)     dimensions
        Kohn-Sham Wavefunctions         0.40 Mb     (     338,   77)
        NL pseudopotentials             1.30 Mb     (     338,  252)
        Each V/rho on FFT grid          0.22 Mb     (   14400)
        Each G-vector array             0.03 Mb     (    3682)
        G-vector shells                 0.02 Mb     (    2420)
     Largest temporary arrays     est. size (Mb)     dimensions
        Auxiliary wavefunctions         1.59 Mb     (     338,  308)
        Each subspace H/S matrix        1.45 Mb     (     308,  308)
        Each <psi_i|beta_j> matrix      0.30 Mb     (     252,   77)
        Arrays for rho mixing           1.76 Mb     (   14400,    8)

     Check: negative/imaginary core charge=   -0.000003    0.000000

     Initial potential from superposition of free atoms

     starting charge  126.77837, renormalised to  128.00000
     Starting wfc are   92 randomized atomic wfcs

     total cpu time spent up to now is        4.4 secs

     per-process dynamical memory:    25.8 Mb

     Self-consistent Calculation

     iteration #  1     ecut=    40.00 Ry     beta=0.30
     Davidson diagonalization with overlap
     ethr =  1.00E-02,  avg # of iterations =  2.7

     total cpu time spent up to now is       14.7 secs

     total energy              =   -1060.06535941 Ry
     Harris-Foulkes estimate   =   -1060.63638541 Ry
     estimated scf accuracy    <       2.90829863 Ry

     iteration #  2     ecut=    40.00 Ry     beta=0.30
     Davidson diagonalization with overlap
     ethr =  2.27E-03,  avg # of iterations =  1.2

     total cpu time spent up to now is       22.1 secs

     total energy              =   -1059.67115772 Ry
     Harris-Foulkes estimate   =   -1060.15498246 Ry
     estimated scf accuracy    <       1.19431346 Ry

     iteration #  3     ecut=    40.00 Ry     beta=0.30
     Davidson diagonalization with overlap
     ethr =  9.33E-04,  avg # of iterations =  2.5

     total cpu time spent up to now is       32.4 secs

     total energy              =   -1059.84018138 Ry
     Harris-Foulkes estimate   =   -1059.87573676 Ry
     estimated scf accuracy    <       0.12670684 Ry

     iteration #  4     ecut=    40.00 Ry     beta=0.30
     Davidson diagonalization with overlap
     ethr =  9.90E-05,  avg # of iterations =  2.5

     total cpu time spent up to now is       42.6 secs

     total energy              =   -1059.81371608 Ry
     Harris-Foulkes estimate   =   -1059.85056438 Ry
     estimated scf accuracy    <       0.06562952 Ry

     iteration #  5     ecut=    40.00 Ry     beta=0.30
     Davidson diagonalization with overlap
     ethr =  5.13E-05,  avg # of iterations =  2.5

     total cpu time spent up to now is       53.5 secs

     total energy              =   -1059.82322512 Ry
     Harris-Foulkes estimate   =   -1059.82428749 Ry
     estimated scf accuracy    <       0.00817519 Ry

     iteration #  6     ecut=    40.00 Ry     beta=0.30
     Davidson diagonalization with overlap
     ethr =  6.39E-06,  avg # of iterations =  7.8

     total cpu time spent up to now is       69.4 secs

     total energy              =   -1059.82237701 Ry
     Harris-Foulkes estimate   =   -1059.82351873 Ry
     estimated scf accuracy    <       0.00412289 Ry

     iteration #  7     ecut=    40.00 Ry     beta=0.30
     Davidson diagonalization with overlap
     ethr =  3.22E-06,  avg # of iterations =  2.8

     total cpu time spent up to now is       79.2 secs

     total energy              =   -1059.82243214 Ry
     Harris-Foulkes estimate   =   -1059.82267647 Ry
     estimated scf accuracy    <       0.00052648 Ry

     iteration #  8     ecut=    40.00 Ry     beta=0.30
     Davidson diagonalization with overlap
     ethr =  4.11E-07,  avg # of iterations =  4.3

     total cpu time spent up to now is       92.8 secs

     total energy              =   -1059.82254725 Ry
     Harris-Foulkes estimate   =   -1059.82259503 Ry
     estimated scf accuracy    <       0.00011153 Ry

     iteration #  9     ecut=    40.00 Ry     beta=0.30
     Davidson diagonalization with overlap
     ethr =  8.71E-08,  avg # of iterations =  2.0

     total cpu time spent up to now is      102.4 secs

     total energy              =   -1059.82256985 Ry
     Harris-Foulkes estimate   =   -1059.82257036 Ry
     estimated scf accuracy    <       0.00000231 Ry

     iteration # 10     ecut=    40.00 Ry     beta=0.30
     Davidson diagonalization with overlap
     ethr =  1.80E-09,  avg # of iterations =  2.0

     total cpu time spent up to now is      112.5 secs

     total energy              =   -1059.82257013 Ry
     Harris-Foulkes estimate   =   -1059.82257020 Ry
     estimated scf accuracy    <       0.00000048 Ry

     iteration # 11     ecut=    40.00 Ry     beta=0.30
     Davidson diagonalization with overlap
     ethr =  3.72E-10,  avg # of iterations =  1.8

     total cpu time spent up to now is      120.6 secs

     total energy              =   -1059.82257015 Ry
     Harris-Foulkes estimate   =   -1059.82257016 Ry
     estimated scf accuracy    <       0.00000011 Ry

     iteration # 12     ecut=    40.00 Ry     beta=0.30
     Davidson diagonalization with overlap
     ethr =  8.96E-11,  avg # of iterations =  2.0

     total cpu time spent up to now is      130.4 secs

     total energy              =   -1059.82257018 Ry
     Harris-Foulkes estimate   =   -1059.82257017 Ry
     estimated scf accuracy    <          8.5E-09 Ry

     iteration # 13     ecut=    40.00 Ry     beta=0.30
     Davidson diagonalization with overlap
     ethr =  6.68E-12,  avg # of iterations =  2.9

     total cpu time spent up to now is      141.6 secs

     total energy              =   -1059.82257019 Ry
     Harris-Foulkes estimate   =   -1059.82257018 Ry
     estimated scf accuracy    <          5.2E-10 Ry

     iteration # 14     ecut=    40.00 Ry     beta=0.30
     Davidson diagonalization with overlap
     ethr =  4.07E-13,  avg # of iterations =  2.0

     total cpu time spent up to now is      150.6 secs

     total energy              =   -1059.82257020 Ry
     Harris-Foulkes estimate   =   -1059.82257019 Ry
     estimated scf accuracy    <          4.4E-10 Ry

     iteration # 15     ecut=    40.00 Ry     beta=0.30
     Davidson diagonalization with overlap
     ethr =  3.42E-13,  avg # of iterations =  1.8

     total cpu time spent up to now is      158.8 secs

     End of self-consistent calculation

          k = 0.0000 0.0000 0.0000 (  5209 PWs)   bands (ev):

   -64.3685 -64.3663 -64.3663 -64.3663 -31.3677 -31.3619 -31.3619 -31.3619
   -31.3401 -31.3401 -31.3401 -31.3163 -31.3163 -31.3163 -31.3092 -31.3092
   -29.2891 -29.1424 -29.1424 -29.1424 -11.3823 -11.3823 -11.3823 -11.0994
   -10.4085 -10.4085 -10.4085 -10.2818 -10.2818 -10.2818 -10.0794 -10.0794
    -8.3044  -7.5311  -7.5311  -7.5311  -6.8585  -6.8585  -6.8585  -6.6127
     4.1622   4.1622   4.1622   4.3981   5.3524   5.3524   5.3524   6.7780
     6.7781   6.7781   6.8254   6.8254   6.8510   6.8510   6.8510   6.9337
     6.9337   6.9337   7.1095   7.1095   7.1095   7.7930   7.7930   7.9289
    12.2998  12.2998  12.2998  12.3050  14.4543  15.1214  15.1214  15.6597
    16.1195  16.1195  16.1195  16.7749  16.7749

     occupation numbers 
     1.0000   1.0000   1.0000   1.0000   1.0000   1.0000   1.0000   1.0000
     1.0000   1.0000   1.0000   1.0000   1.0000   1.0000   1.0000   1.0000
     1.0000   1.0000   1.0000   1.0000   1.0000   1.0000   1.0000   1.0000
     1.0000   1.0000   1.0000   1.0000   1.0000   1.0000   1.0000   1.0000
     1.0000   1.0000   1.0000   1.0000   1.0000   1.0000   1.0000   1.0000
     1.0000   1.0000   1.0000   1.0000   1.0000   1.0000   1.0000   1.0000
     1.0000   1.0000   1.0000   1.0000   1.0000   1.0000   1.0000   1.0000
     1.0000   1.0000   1.0000   1.0000   1.0000   1.0000   1.0000   1.0000
     0.0000   0.0000   0.0000   0.0000   0.0000   0.0000   0.0000   0.0000
     0.0000   0.0000   0.0000   0.0000   0.0000

          k = 0.1767 0.1767-0.1767 (  5264 PWs)   bands (ev):

   -64.3685 -64.3663 -64.3663 -64.3663 -31.3681 -31.3619 -31.3619 -31.3619
   -31.3401 -31.3401 -31.3401 -31.3163 -31.3163 -31.3163 -31.3092 -31.3092
   -29.2883 -29.1422 -29.1422 -29.1422 -11.3797 -11.3797 -11.3797 -11.1607
   -10.4041 -10.4041 -10.4041 -10.2816 -10.2816 -10.2816 -10.0796 -10.0796
    -8.0555  -7.5992  -7.5992  -7.5992  -6.8193  -6.7957  -6.7957  -6.7957
     4.4143   4.4143   4.4143   4.7699   5.1802   5.1802   5.1802   6.5114
     6.5114   6.5114   6.5481   6.5481   6.5482   6.9398   6.9398   7.1128
     7.1128   7.1128   7.2243   7.2605   7.2605   7.2605   7.6536   7.6536
    12.6039  12.6039  12.6039  13.0999  14.1270  15.1931  15.1931  15.4888
    16.1140  16.1140  16.1140  16.8701  16.8701

     occupation numbers 
     1.0000   1.0000   1.0000   1.0000   1.0000   1.0000   1.0000   1.0000
     1.0000   1.0000   1.0000   1.0000   1.0000   1.0000   1.0000   1.0000
     1.0000   1.0000   1.0000   1.0000   1.0000   1.0000   1.0000   1.0000
     1.0000   1.0000   1.0000   1.0000   1.0000   1.0000   1.0000   1.0000
     1.0000   1.0000   1.0000   1.0000   1.0000   1.0000   1.0000   1.0000
     1.0000   1.0000   1.0000   1.0000   1.0000   1.0000   1.0000   1.0000
     1.0000   1.0000   1.0000   1.0000   1.0000   1.0000   1.0000   1.0000
     1.0000   1.0000   1.0000   1.0000   1.0000   1.0000   1.0000   1.0000
     0.0000   0.0000   0.0000   0.0000   0.0000   0.0000   0.0000   0.0000
     0.0000   0.0000   0.0000   0.0000   0.0000

          k =-0.3535-0.3535 0.3535 (  5252 PWs)   bands (ev):

   -64.3685 -64.3663 -64.3663 -64.3663 -31.3686 -31.3619 -31.3619 -31.3619
   -31.3402 -31.3402 -31.3402 -31.3163 -31.3163 -31.3163 -31.3092 -31.3092
   -29.2875 -29.1420 -29.1420 -29.1420 -11.3773 -11.3773 -11.3773 -11.2175
   -10.3994 -10.3994 -10.3994 -10.2815 -10.2815 -10.2815 -10.0798 -10.0798
    -7.6680  -7.6596  -7.6596  -7.6596  -7.1687  -6.7407  -6.7407  -6.7407
     4.7570   4.7570   4.7570   5.0788   5.0788   5.0788   5.4797   6.0051
     6.0051   6.0051   6.2554   6.4133   6.4133   6.4133   7.1360   7.1360
     7.2097   7.2097   7.2097   7.4194   7.4194   7.4194   7.4327   7.4327
    12.8954  12.8954  12.8954  13.8614  14.4704  14.5888  15.2635  15.2635
    16.1726  16.1726  16.1726  17.0269  17.0845

     occupation numbers 
     1.0000   1.0000   1.0000   1.0000   1.0000   1.0000   1.0000   1.0000
     1.0000   1.0000   1.0000   1.0000   1.0000   1.0000   1.0000   1.0000
     1.0000   1.0000   1.0000   1.0000   1.0000   1.0000   1.0000   1.0000
     1.0000   1.0000   1.0000   1.0000   1.0000   1.0000   1.0000   1.0000
     1.0000   1.0000   1.0000   1.0000   1.0000   1.0000   1.0000   1.0000
     1.0000   1.0000   1.0000   1.0000   1.0000   1.0000   1.0000   1.0000
     1.0000   1.0000   1.0000   1.0000   1.0000   1.0000   1.0000   1.0000
     1.0000   1.0000   1.0000   1.0000   1.0000   1.0000   1.0000   1.0000
     0.0000   0.0000   0.0000   0.0000   0.0000   0.0000   0.0000   0.0000
     0.0000   0.0000   0.0000   0.0000   0.0000

          k = 0.1768-0.1768 0.1768 (  5268 PWs)   bands (ev):

   -64.3682 -64.3666 -64.3663 -64.3663 -31.3669 -31.3628 -31.3619 -31.3619
   -31.3376 -31.3376 -31.3356 -31.3188 -31.3188 -31.3153 -31.3138 -31.3103
   -29.2678 -29.1641 -29.1423 -29.1423 -11.2803 -11.2803 -11.2386 -11.0250
   -10.5289 -10.4653 -10.4653 -10.3790 -10.3790 -10.3339 -10.2528 -10.1097
    -8.0374  -7.4409  -7.4409  -7.3799  -7.0384  -6.8979  -6.8979  -6.7288
     4.4353   4.4353   4.5483   4.6501   5.3080   5.3080   5.4106   6.2945
     6.2945   6.5640   6.5640   6.6071   6.7488   6.7701   6.8054   6.9842
     7.0734   7.0734   7.0942   7.1363   7.3501   7.3501   7.6906   7.7602
    12.7275  12.8290  12.8290  13.0870  14.3697  14.7836  15.4044  15.5353
    15.5595  15.5595  16.2152  16.4517  16.6576

     occupation numbers 
     1.0000   1.0000   1.0000   1.0000   1.0000   1.0000   1.0000   1.0000
     1.0000   1.0000   1.0000   1.0000   1.0000   1.0000   1.0000   1.0000
     1.0000   1.0000   1.0000   1.0000   1.0000   1.0000   1.0000   1.0000
     1.0000   1.0000   1.0000   1.0000   1.0000   1.0000   1.0000   1.0000
     1.0000   1.0000   1.0000   1.0000   1.0000   1.0000   1.0000   1.0000
     1.0000   1.0000   1.0000   1.0000   1.0000   1.0000   1.0000   1.0000
     1.0000   1.0000   1.0000   1.0000   1.0000   1.0000   1.0000   1.0000
     1.0000   1.0000   1.0000   1.0000   1.0000   1.0000   1.0000   1.0000
     0.0000   0.0000   0.0000   0.0000   0.0000   0.0000   0.0000   0.0000
     0.0000   0.0000   0.0000   0.0000   0.0000

          k = 0.3535-0.0000 0.0000 (  5297 PWs)   bands (ev):

   -64.3682 -64.3666 -64.3663 -64.3663 -31.3670 -31.3629 -31.3619 -31.3619
   -31.3376 -31.3376 -31.3356 -31.3188 -31.3188 -31.3153 -31.3138 -31.3103
   -29.2675 -29.1639 -29.1424 -29.1424 -11.2843 -11.2843 -11.2272 -11.0436
   -10.5479 -10.4542 -10.4542 -10.3795 -10.3795 -10.3311 -10.2528 -10.1097
    -7.9751  -7.5295  -7.3990  -7.3990  -6.9581  -6.9581  -6.8570  -6.7758
     4.4925   4.4925   4.5297   4.7068   5.0930   5.4843   5.4843   6.2870
     6.2870   6.5558   6.5558   6.6488   6.7687   6.8449   6.8968   6.9050
     6.9050   6.9950   7.1326   7.1809   7.1809   7.2553   7.6294   7.7229
    12.5901  13.0340  13.0340  13.2206  14.3338  14.6751  15.4757  15.6178
    15.7070  15.7070  16.0533  16.1615  16.4843

     occupation numbers 
     1.0000   1.0000   1.0000   1.0000   1.0000   1.0000   1.0000   1.0000
     1.0000   1.0000   1.0000   1.0000   1.0000   1.0000   1.0000   1.0000
     1.0000   1.0000   1.0000   1.0000   1.0000   1.0000   1.0000   1.0000
     1.0000   1.0000   1.0000   1.0000   1.0000   1.0000   1.0000   1.0000
     1.0000   1.0000   1.0000   1.0000   1.0000   1.0000   1.0000   1.0000
     1.0000   1.0000   1.0000   1.0000   1.0000   1.0000   1.0000   1.0000
     1.0000   1.0000   1.0000   1.0000   1.0000   1.0000   1.0000   1.0000
     1.0000   1.0000   1.0000   1.0000   1.0000   1.0000   1.0000   1.0000
     0.0000   0.0000   0.0000   0.0000   0.0000   0.0000   0.0000   0.0000
     0.0000   0.0000   0.0000   0.0000   0.0000

          k =-0.1767-0.5302 0.5302 (  5270 PWs)   bands (ev):

   -64.3682 -64.3666 -64.3663 -64.3663 -31.3676 -31.3628 -31.3619 -31.3619
   -31.3377 -31.3377 -31.3357 -31.3188 -31.3188 -31.3153 -31.3138 -31.3103
   -29.2666 -29.1638 -29.1422 -29.1422 -11.2802 -11.2802 -11.2247 -11.1153
   -10.5348 -10.4545 -10.4545 -10.3764 -10.3764 -10.3189 -10.2526 -10.1099
    -7.6127  -7.5828  -7.5012  -7.5012  -7.1191  -6.8592  -6.8592  -6.7941
     4.7561   4.7561   4.8176   5.0896   5.1530   5.3157   5.3157   6.1347
     6.1347   6.3108   6.3637   6.3637   6.3940   6.5273   7.0107   7.0808
     7.0961   7.0961   7.0966   7.0966   7.2628   7.3667   7.3688   7.4023
    12.9549  13.3456  13.3456  13.9730  14.2108  14.7434  15.4253  15.5253
    15.5349  16.0250  16.0250  16.1015  16.1588

     occupation numbers 
     1.0000   1.0000   1.0000   1.0000   1.0000   1.0000   1.0000   1.0000
     1.0000   1.0000   1.0000   1.0000   1.0000   1.0000   1.0000   1.0000
     1.0000   1.0000   1.0000   1.0000   1.0000   1.0000   1.0000   1.0000
     1.0000   1.0000   1.0000   1.0000   1.0000   1.0000   1.0000   1.0000
     1.0000   1.0000   1.0000   1.0000   1.0000   1.0000   1.0000   1.0000
     1.0000   1.0000   1.0000   1.0000   1.0000   1.0000   1.0000   1.0000
     1.0000   1.0000   1.0000   1.0000   1.0000   1.0000   1.0000   1.0000
     1.0000   1.0000   1.0000   1.0000   1.0000   1.0000   1.0000   1.0000
     0.0000   0.0000   0.0000   0.0000   0.0000   0.0000   0.0000   0.0000
     0.0000   0.0000   0.0000   0.0000   0.0000

          k = 0.0001-0.3535 0.3535 (  5288 PWs)   bands (ev):

   -64.3682 -64.3666 -64.3663 -64.3663 -31.3674 -31.3627 -31.3619 -31.3619
   -31.3377 -31.3377 -31.3357 -31.3188 -31.3188 -31.3153 -31.3138 -31.3103
   -29.2669 -29.1640 -29.1422 -29.1422 -11.2761 -11.2761 -11.2359 -11.0986
   -10.5160 -10.4656 -10.4656 -10.3761 -10.3761 -10.3208 -10.2526 -10.1100
    -7.7040  -7.5286  -7.5286  -7.5075  -7.0123  -6.9313  -6.8135  -6.8135
     4.7958   4.7958   4.7990   4.9948   4.9948   5.0468   5.6244   6.0234
     6.0771   6.0771   6.4580   6.5291   6.7183   6.7183   6.8819   6.9701
     6.9701   6.9868   7.0454   7.3171   7.3171   7.4057   7.4819   7.4909
    13.0725  13.1458  13.1458  13.8058  14.2895  14.6828  15.4645  15.5683
    15.6347  15.7324  15.7324  16.3198  16.3989

     occupation numbers 
     1.0000   1.0000   1.0000   1.0000   1.0000   1.0000   1.0000   1.0000
     1.0000   1.0000   1.0000   1.0000   1.0000   1.0000   1.0000   1.0000
     1.0000   1.0000   1.0000   1.0000   1.0000   1.0000   1.0000   1.0000
     1.0000   1.0000   1.0000   1.0000   1.0000   1.0000   1.0000   1.0000
     1.0000   1.0000   1.0000   1.0000   1.0000   1.0000   1.0000   1.0000
     1.0000   1.0000   1.0000   1.0000   1.0000   1.0000   1.0000   1.0000
     1.0000   1.0000   1.0000   1.0000   1.0000   1.0000   1.0000   1.0000
     1.0000   1.0000   1.0000   1.0000   1.0000   1.0000   1.0000   1.0000
     0.0000   0.0000   0.0000   0.0000   0.0000   0.0000   0.0000   0.0000
     0.0000   0.0000   0.0000   0.0000   0.0000

          k =-0.3536 0.3535-0.3535 (  5252 PWs)   bands (ev):

   -64.3674 -64.3674 -64.3663 -64.3663 -31.3649 -31.3649 -31.3620 -31.3620
   -31.3342 -31.3342 -31.3247 -31.3247 -31.3223 -31.3223 -31.3128 -31.3128
   -29.2162 -29.2162 -29.1423 -29.1423 -11.1261 -11.1261 -10.9141 -10.9141
   -10.7161 -10.7161 -10.6502 -10.6502 -10.3973 -10.3973 -10.1819 -10.1819
    -7.5186  -7.5186  -7.3385  -7.3385  -7.0238  -7.0238  -6.9521  -6.9521
     4.9712   4.9712   5.1026   5.1026   5.1478   5.1478   5.7716   5.7716
     5.7739   5.7739   6.3328   6.3328   6.4333   6.4333   6.7660   6.7660
     7.3034   7.3034   7.3478   7.3478   7.3634   7.3634   7.4348   7.4348
    13.5702  13.5702  13.8861  13.8861  14.4119  14.4119  14.4571  14.4571
    15.4778  15.4778  16.1717  16.1717  16.5997

     occupation numbers 
     1.0000   1.0000   1.0000   1.0000   1.0000   1.0000   1.0000   1.0000
     1.0000   1.0000   1.0000   1.0000   1.0000   1.0000   1.0000   1.0000
     1.0000   1.0000   1.0000   1.0000   1.0000   1.0000   1.0000   1.0000
     1.0000   1.0000   1.0000   1.0000   1.0000   1.0000   1.0000   1.0000
     1.0000   1.0000   1.0000   1.0000   1.0000   1.0000   1.0000   1.0000
     1.0000   1.0000   1.0000   1.0000   1.0000   1.0000   1.0000   1.0000
     1.0000   1.0000   1.0000   1.0000   1.0000   1.0000   1.0000   1.0000
     1.0000   1.0000   1.0000   1.0000   1.0000   1.0000   1.0000   1.0000
     0.0000   0.0000   0.0000   0.0000   0.0000   0.0000   0.0000   0.0000
     0.0000   0.0000   0.0000   0.0000   0.0000

          k =-0.1768 0.5303-0.5303 (  5270 PWs)   bands (ev):

   -64.3674 -64.3674 -64.3663 -64.3663 -31.3652 -31.3648 -31.3619 -31.3619
   -31.3342 -31.3342 -31.3248 -31.3247 -31.3223 -31.3223 -31.3128 -31.3128
   -29.2162 -29.2157 -29.1423 -29.1423 -11.1318 -11.1318 -10.9315 -10.8771
   -10.7406 -10.7320 -10.6421 -10.6421 -10.3932 -10.3932 -10.1821 -10.1817
    -7.6600  -7.2920  -7.2920  -7.2899  -7.2001  -7.0154  -7.0154  -6.8884
     4.8097   4.8097   4.9450   4.9562   5.5014   5.5014   5.5592   5.8548
     5.8548   6.1419   6.2049   6.3739   6.3739   6.6718   6.9995   7.0395
     7.0635   7.0635   7.1343   7.1576   7.1576   7.2269   7.3717   7.5318
    13.3159  13.6293  14.0237  14.0237  14.3059  14.6674  14.6674  14.8615
    15.2355  15.4311  16.0910  16.2760  16.2762

     occupation numbers 
     1.0000   1.0000   1.0000   1.0000   1.0000   1.0000   1.0000   1.0000
     1.0000   1.0000   1.0000   1.0000   1.0000   1.0000   1.0000   1.0000
     1.0000   1.0000   1.0000   1.0000   1.0000   1.0000   1.0000   1.0000
     1.0000   1.0000   1.0000   1.0000   1.0000   1.0000   1.0000   1.0000
     1.0000   1.0000   1.0000   1.0000   1.0000   1.0000   1.0000   1.0000
     1.0000   1.0000   1.0000   1.0000   1.0000   1.0000   1.0000   1.0000
     1.0000   1.0000   1.0000   1.0000   1.0000   1.0000   1.0000   1.0000
     1.0000   1.0000   1.0000   1.0000   1.0000   1.0000   1.0000   1.0000
     0.0000   0.0000   0.0000   0.0000   0.0000   0.0000   0.0000   0.0000
     0.0000   0.0000   0.0000   0.0000   0.0000

          k =-0.7071 0.0001-0.0001 (  5290 PWs)   bands (ev):

   -64.3674 -64.3674 -64.3663 -64.3663 -31.3651 -31.3651 -31.3619 -31.3619
   -31.3343 -31.3343 -31.3247 -31.3247 -31.3223 -31.3223 -31.3128 -31.3128
   -29.2157 -29.2157 -29.1424 -29.1424 -11.1371 -11.1371 -10.8943 -10.8943
   -10.7573 -10.7573 -10.6345 -10.6345 -10.3889 -10.3889 -10.1819 -10.1819
    -7.5453  -7.5453  -7.1883  -7.1883  -7.1359  -7.1359  -6.9501  -6.9501
     4.7422   4.7422   4.8136   4.8136   5.7689   5.7689   5.8494   5.8494
     5.9694   5.9694   6.4869   6.4869   6.6493   6.6493   6.7294   6.7294
     6.8144   6.8144   6.9550   6.9550   7.3624   7.3624   7.4320   7.4320
    13.3633  13.3633  14.1742  14.1742  14.5393  14.5393  14.9399  14.9399
    15.1529  15.1529  16.1057  16.1057  16.2642

     occupation numbers 
     1.0000   1.0000   1.0000   1.0000   1.0000   1.0000   1.0000   1.0000
     1.0000   1.0000   1.0000   1.0000   1.0000   1.0000   1.0000   1.0000
     1.0000   1.0000   1.0000   1.0000   1.0000   1.0000   1.0000   1.0000
     1.0000   1.0000   1.0000   1.0000   1.0000   1.0000   1.0000   1.0000
     1.0000   1.0000   1.0000   1.0000   1.0000   1.0000   1.0000   1.0000
     1.0000   1.0000   1.0000   1.0000   1.0000   1.0000   1.0000   1.0000
     1.0000   1.0000   1.0000   1.0000   1.0000   1.0000   1.0000   1.0000
     1.0000   1.0000   1.0000   1.0000   1.0000   1.0000   1.0000   1.0000
     0.0000   0.0000   0.0000   0.0000   0.0000   0.0000   0.0000   0.0000
     0.0000   0.0000   0.0000   0.0000   0.0000

          k =-0.5303 0.5303-0.1768 (  5269 PWs)   bands (ev):

   -64.3676 -64.3668 -64.3668 -64.3660 -31.3656 -31.3636 -31.3633 -31.3613
   -31.3344 -31.3309 -31.3308 -31.3260 -31.3210 -31.3162 -31.3162 -31.3126
   -29.2310 -29.1795 -29.1791 -29.1270 -11.1256 -11.0540 -11.0335 -10.9143
   -10.7560 -10.6803 -10.6549 -10.6340 -10.3520 -10.2974 -10.2970 -10.1817
    -7.5902  -7.4354  -7.3436  -7.2633  -7.0959  -7.0049  -6.9729  -6.9457
     4.8126   4.8529   4.9486   4.9577   5.2896   5.4158   5.7525   5.7938
     6.0746   6.0753   6.2429   6.3433   6.5821   6.6132   6.8041   6.8603
     7.0508   7.0618   7.1206   7.1671   7.1917   7.3082   7.4314   7.5529
    13.3322  13.6456  14.0124  14.0714  14.1333  14.7083  14.7410  14.8772
    15.2519  15.4867  15.6710  16.1458  16.1485

     occupation numbers 
     1.0000   1.0000   1.0000   1.0000   1.0000   1.0000   1.0000   1.0000
     1.0000   1.0000   1.0000   1.0000   1.0000   1.0000   1.0000   1.0000
     1.0000   1.0000   1.0000   1.0000   1.0000   1.0000   1.0000   1.0000
     1.0000   1.0000   1.0000   1.0000   1.0000   1.0000   1.0000   1.0000
     1.0000   1.0000   1.0000   1.0000   1.0000   1.0000   1.0000   1.0000
     1.0000   1.0000   1.0000   1.0000   1.0000   1.0000   1.0000   1.0000
     1.0000   1.0000   1.0000   1.0000   1.0000   1.0000   1.0000   1.0000
     1.0000   1.0000   1.0000   1.0000   1.0000   1.0000   1.0000   1.0000
     0.0000   0.0000   0.0000   0.0000   0.0000   0.0000   0.0000   0.0000
     0.0000   0.0000   0.0000   0.0000   0.0000

          k =-0.3536 0.7071-0.3535 (  5288 PWs)   bands (ev):

   -64.3676 -64.3668 -64.3668 -64.3660 -31.3654 -31.3635 -31.3635 -31.3613
   -31.3344 -31.3308 -31.3308 -31.3260 -31.3211 -31.3162 -31.3162 -31.3125
   -29.2315 -29.1793 -29.1793 -29.1270 -11.1264 -11.0470 -11.0470 -10.8693
   -10.7552 -10.6700 -10.6628 -10.6628 -10.3540 -10.2974 -10.2974 -10.1816
    -7.7384  -7.2937  -7.2937  -7.2313  -7.1043  -7.1043  -7.0339  -6.8620
     4.7897   4.8518   4.8518   4.9305   5.3633   5.3633   5.6048   5.6414
     6.0093   6.2698   6.3270   6.5325   6.5325   6.6761   6.6761   6.8943
     7.0052   7.1327   7.1327   7.3337   7.3494   7.3494   7.4183   7.4716
    13.3825  13.3825  13.8798  13.9453  14.1418  14.6423  14.6423  14.8266
    15.2276  15.8116  15.8116  16.1401  16.1667

     occupation numbers 
     1.0000   1.0000   1.0000   1.0000   1.0000   1.0000   1.0000   1.0000
     1.0000   1.0000   1.0000   1.0000   1.0000   1.0000   1.0000   1.0000
     1.0000   1.0000   1.0000   1.0000   1.0000   1.0000   1.0000   1.0000
     1.0000   1.0000   1.0000   1.0000   1.0000   1.0000   1.0000   1.0000
     1.0000   1.0000   1.0000   1.0000   1.0000   1.0000   1.0000   1.0000
     1.0000   1.0000   1.0000   1.0000   1.0000   1.0000   1.0000   1.0000
     1.0000   1.0000   1.0000   1.0000   1.0000   1.0000   1.0000   1.0000
     1.0000   1.0000   1.0000   1.0000   1.0000   1.0000   1.0000   1.0000
     0.0000   0.0000   0.0000   0.0000   0.0000   0.0000   0.0000   0.0000
     0.0000   0.0000   0.0000   0.0000   0.0000

          k =-0.7071 0.3536-0.0000 (  5268 PWs)   bands (ev):

   -64.3676 -64.3668 -64.3668 -64.3660 -31.3659 -31.3634 -31.3634 -31.3613
   -31.3345 -31.3309 -31.3309 -31.3260 -31.3210 -31.3162 -31.3162 -31.3126
   -29.2306 -29.1793 -29.1793 -29.1269 -11.1248 -11.0419 -11.0419 -10.9535
   -10.7567 -10.6499 -10.6499 -10.6447 -10.3499 -10.2970 -10.2970 -10.1818
    -7.4694  -7.4694  -7.2904  -7.2788  -7.2478  -6.9809  -6.9531  -6.9531
     4.9022   4.9022   4.9898   4.9914   5.1629   5.6533   5.6533   5.8630
     6.0480   6.1330   6.1413   6.1413   6.7364   6.7364   6.7678   6.8959
     6.9491   7.0545   7.0545   7.1539   7.2164   7.2840   7.2840   7.3649
    13.6196  13.6196  14.0357  14.1089  14.2698  14.9059  14.9705  14.9705
    15.3358  15.3865  15.3865  15.8235  15.9903

     occupation numbers 
     1.0000   1.0000   1.0000   1.0000   1.0000   1.0000   1.0000   1.0000
     1.0000   1.0000   1.0000   1.0000   1.0000   1.0000   1.0000   1.0000
     1.0000   1.0000   1.0000   1.0000   1.0000   1.0000   1.0000   1.0000
     1.0000   1.0000   1.0000   1.0000   1.0000   1.0000   1.0000   1.0000
     1.0000   1.0000   1.0000   1.0000   1.0000   1.0000   1.0000   1.0000
     1.0000   1.0000   1.0000   1.0000   1.0000   1.0000   1.0000   1.0000
     1.0000   1.0000   1.0000   1.0000   1.0000   1.0000   1.0000   1.0000
     1.0000   1.0000   1.0000   1.0000   1.0000   1.0000   1.0000   1.0000
     0.0000   0.0000   0.0000   0.0000   0.0000   0.0000   0.0000   0.0000
     0.0000   0.0000   0.0000   0.0000   0.0000

     the Fermi energy is     9.5588 ev

!    total energy              =   -1059.82257020 Ry
     Harris-Foulkes estimate   =   -1059.82257020 Ry
     estimated scf accuracy    <          9.8E-11 Ry

     The total energy is the sum of the following terms:

     one-electron contribution =    -461.01308636 Ry
     hartree contribution      =     281.24931540 Ry
     xc contribution           =    -172.93644691 Ry
     ewald contribution        =    -707.12235234 Ry
     smearing contrib. (-TS)   =      -0.00000000 Ry

     convergence has been achieved in  15 iterations

     Forces acting on atoms (Ry/au):

     atom    1 type  2   force =   0.00000000E+00  0.00000000E+00  0.00000000E+00
     atom    2 type  3   force =   0.10581701E-05  0.10581701E-05 -0.10581701E-05
     atom    3 type  1   force =  -0.74358396E-30 -0.74358396E-30  0.74358396E-30
     atom    4 type  3   force =  -0.10896995E-05 -0.10896995E-05  0.10920188E-05
     atom    5 type  2   force =   0.00000000E+00  0.00000000E+00  0.00000000E+00
     atom    6 type  3   force =   0.10896995E-05  0.10920188E-05 -0.10896995E-05
     atom    7 type  1   force =   0.00000000E+00  0.00000000E+00  0.00000000E+00
     atom    8 type  3   force =  -0.10920188E-05 -0.10896995E-05  0.10896995E-05
     atom    9 type  2   force =   0.14878129E-29 -0.44621487E-29  0.14871679E-29
     atom   10 type  3   force =   0.10920188E-05  0.10896995E-05 -0.10896995E-05
     atom   11 type  1   force =  -0.74358396E-30 -0.74358396E-30  0.74358396E-30
     atom   12 type  3   force =  -0.10896995E-05 -0.10920188E-05  0.10896995E-05
     atom   13 type  2   force =   0.74374519E-30  0.74374519E-30  0.14874904E-29
     atom   14 type  3   force =   0.10896995E-05  0.10896995E-05 -0.10920188E-05
     atom   15 type  1   force =   0.00000000E+00  0.00000000E+00  0.00000000E+00
     atom   16 type  3   force =  -0.10581701E-05 -0.10581701E-05  0.10581701E-05
     The non-local contrib.  to forces
     atom    1 type  2   force =  -0.10279305E-25 -0.10279305E-25  0.10279305E-25
     atom    2 type  3   force =  -0.10043528E-01 -0.10043528E-01  0.10043528E-01
     atom    3 type  1   force =  -0.12182880E-25 -0.24368401E-25 -0.26416650E-29
     atom    4 type  3   force =   0.10043518E-01  0.10043518E-01 -0.10043454E-01
     atom    5 type  2   force =  -0.24371043E-25  0.24371043E-25  0.00000000E+00
     atom    6 type  3   force =  -0.10043518E-01 -0.10043454E-01  0.10043518E-01
     atom    7 type  1   force =   0.52833301E-29 -0.24365759E-25  0.48736802E-25
     atom    8 type  3   force =   0.10043454E-01  0.10043518E-01 -0.10043518E-01
     atom    9 type  2   force =  -0.60932009E-26  0.60923204E-26 -0.60923204E-26
     atom   10 type  3   force =  -0.10043454E-01 -0.10043518E-01  0.10043518E-01
     atom   11 type  1   force =  -0.60949620E-26  0.18276081E-25 -0.18276081E-25
     atom   12 type  3   force =   0.10043518E-01  0.10043454E-01 -0.10043518E-01
     atom   13 type  2   force =   0.12181118E-25  0.36552161E-25 -0.12181118E-25
     atom   14 type  3   force =  -0.10043518E-01 -0.10043518E-01  0.10043454E-01
     atom   15 type  1   force =  -0.12182880E-25 -0.12182880E-25  0.12182880E-25
     atom   16 type  3   force =   0.10043528E-01  0.10043528E-01 -0.10043528E-01
     The ionic contribution  to forces
     atom    1 type  2   force =   0.12121174E-13  0.11504807E-13  0.78473675E-13
     atom    2 type  3   force =   0.11090548E+01  0.11090548E+01 -0.11090548E+01
     atom    3 type  1   force =  -0.37124500E-13 -0.37380356E-13  0.54523894E-13
     atom    4 type  3   force =  -0.11090551E+01 -0.11090551E+01  0.11090550E+01
     atom    5 type  2   force =   0.35232880E-14 -0.20712199E-13 -0.42678716E-13
     atom    6 type  3   force =   0.11090551E+01  0.11090550E+01 -0.11090551E+01
     atom    7 type  1   force =  -0.31844055E-14 -0.63781515E-13 -0.11671536E-13
     atom    8 type  3   force =  -0.11090550E+01 -0.11090551E+01  0.11090551E+01
     atom    9 type  2   force =  -0.20171115E-13  0.40643721E-14 -0.42844432E-13
     atom   10 type  3   force =   0.11090550E+01  0.11090551E+01 -0.11090551E+01
     atom   11 type  1   force =  -0.62889658E-13 -0.22925488E-14 -0.12503328E-13
     atom   12 type  3   force =  -0.11090551E+01 -0.11090550E+01  0.11090551E+01
     atom   13 type  2   force =  -0.10226054E-14 -0.40623858E-15 -0.13129104E-13
     atom   14 type  3   force =   0.11090551E+01  0.11090551E+01 -0.11090550E+01
     atom   15 type  1   force =   0.30328082E-13  0.30583938E-13 -0.15789687E-13
     atom   16 type  3   force =  -0.11090548E+01 -0.11090548E+01  0.11090548E+01
     The local contribution  to forces
     atom    1 type  2   force =  -0.32586370E-15 -0.23762599E-15  0.53436404E-15
     atom    2 type  3   force =  -0.10992704E+01 -0.10992704E+01  0.10992701E+01
     atom    3 type  1   force =  -0.13013109E-13 -0.12979884E-13 -0.59854737E-14
     atom    4 type  3   force =   0.10992705E+01  0.10992705E+01 -0.10992704E+01
     atom    5 type  2   force =   0.14360540E-12  0.82059579E-14  0.14530832E-12
     atom    6 type  3   force =  -0.10992705E+01 -0.10992704E+01  0.10992705E+01
     atom    7 type  1   force =  -0.44822789E-13 -0.14410258E-13  0.22746087E-13
     atom    8 type  3   force =   0.10992704E+01  0.10992705E+01 -0.10992705E+01
     atom    9 type  2   force =   0.83531248E-14  0.14427686E-12  0.14521206E-12
     atom   10 type  3   force =  -0.10992704E+01 -0.10992705E+01  0.10992705E+01
     atom   11 type  1   force =  -0.14472332E-13 -0.44974128E-13  0.22779287E-13
     atom   12 type  3   force =   0.10992705E+01  0.10992704E+01 -0.10992705E+01
     atom   13 type  2   force =   0.15886718E-12  0.15955598E-12  0.30125821E-12
     atom   14 type  3   force =  -0.10992705E+01 -0.10992705E+01  0.10992704E+01
     atom   15 type  1   force =  -0.41115729E-13 -0.41432188E-13  0.96583445E-13
     atom   16 type  3   force =   0.10992704E+01  0.10992704E+01 -0.10992701E+01
     The core correction contribution to forces
     atom    1 type  2   force =   0.00000000E+00  0.00000000E+00  0.00000000E+00
     atom    2 type  3   force =   0.26114667E-03  0.26114667E-03 -0.26114762E-03
     atom    3 type  1   force =   0.20752272E-15  0.19439344E-15 -0.84333460E-15
     atom    4 type  3   force =  -0.26114670E-03 -0.26114670E-03  0.26114603E-03
     atom    5 type  2   force =   0.00000000E+00  0.00000000E+00  0.00000000E+00
     atom    6 type  3   force =   0.26114670E-03  0.26114603E-03 -0.26114670E-03
     atom    7 type  1   force =  -0.91844162E-15 -0.12772627E-15 -0.13499127E-15
     atom    8 type  3   force =  -0.26114603E-03 -0.26114670E-03  0.26114670E-03
     atom    9 type  2   force =   0.00000000E+00  0.00000000E+00  0.00000000E+00
     atom   10 type  3   force =   0.26114603E-03  0.26114670E-03 -0.26114670E-03
     atom   11 type  1   force =  -0.75996837E-16 -0.94802420E-15 -0.75579375E-16
     atom   12 type  3   force =  -0.26114670E-03 -0.26114603E-03  0.26114670E-03
     atom   13 type  2   force =   0.00000000E+00  0.00000000E+00  0.00000000E+00
     atom   14 type  3   force =   0.26114670E-03  0.26114670E-03 -0.26114603E-03
     atom   15 type  1   force =  -0.51723648E-15 -0.50791613E-15  0.10668902E-14
     atom   16 type  3   force =  -0.26114667E-03 -0.26114667E-03  0.26114762E-03
     The Hubbard contrib.    to forces
     atom    1 type  2   force =   0.00000000E+00  0.00000000E+00  0.00000000E+00
     atom    2 type  3   force =   0.00000000E+00  0.00000000E+00  0.00000000E+00
     atom    3 type  1   force =   0.00000000E+00  0.00000000E+00  0.00000000E+00
     atom    4 type  3   force =   0.00000000E+00  0.00000000E+00  0.00000000E+00
     atom    5 type  2   force =   0.00000000E+00  0.00000000E+00  0.00000000E+00
     atom    6 type  3   force =   0.00000000E+00  0.00000000E+00  0.00000000E+00
     atom    7 type  1   force =   0.00000000E+00  0.00000000E+00  0.00000000E+00
     atom    8 type  3   force =   0.00000000E+00  0.00000000E+00  0.00000000E+00
     atom    9 type  2   force =   0.00000000E+00  0.00000000E+00  0.00000000E+00
     atom   10 type  3   force =   0.00000000E+00  0.00000000E+00  0.00000000E+00
     atom   11 type  1   force =   0.00000000E+00  0.00000000E+00  0.00000000E+00
     atom   12 type  3   force =   0.00000000E+00  0.00000000E+00  0.00000000E+00
     atom   13 type  2   force =   0.00000000E+00  0.00000000E+00  0.00000000E+00
     atom   14 type  3   force =   0.00000000E+00  0.00000000E+00  0.00000000E+00
     atom   15 type  1   force =   0.00000000E+00  0.00000000E+00  0.00000000E+00
     atom   16 type  3   force =   0.00000000E+00  0.00000000E+00  0.00000000E+00
     The SCF correction term to forces
     atom    1 type  2   force =  -0.15727612E-14 -0.45476079E-16  0.75558154E-15
     atom    2 type  3   force =  -0.10574815E-05 -0.10574815E-05  0.10589336E-05
     atom    3 type  1   force =   0.54478625E-15  0.36878759E-15 -0.16829343E-15
     atom    4 type  3   force =   0.10660920E-05  0.10660920E-05 -0.11630776E-05
     atom    5 type  2   force =  -0.18867638E-14 -0.81241410E-16  0.28839715E-14
     atom    6 type  3   force =  -0.10675531E-05 -0.11630762E-05  0.10660905E-05
     atom    7 type  1   force =   0.24937455E-15  0.66986070E-15 -0.25428050E-15
     atom    8 type  3   force =   0.11630762E-05  0.10675531E-05 -0.10660905E-05
     atom    9 type  2   force =   0.48864772E-17  0.33967209E-14  0.37208097E-15
     atom   10 type  3   force =  -0.11630762E-05 -0.10675531E-05  0.10660905E-05
     atom   11 type  1   force =   0.61867555E-15  0.17226545E-15 -0.34964565E-15
     atom   12 type  3   force =   0.10675531E-05  0.11630762E-05 -0.10660905E-05
     atom   13 type  2   force =  -0.61446493E-15  0.13024994E-14  0.20034395E-14
     atom   14 type  3   force =  -0.10660920E-05 -0.10660920E-05  0.11630776E-05
     atom   15 type  1   force =   0.78020346E-15  0.49741033E-15 -0.75083646E-15
     atom   16 type  3   force =   0.10574815E-05  0.10574815E-05 -0.10589336E-05

     Total force =     0.000005     Total SCF correction =     0.000005
     SCF correction compared to forces is large: reduce conv_thr to get better values


     entering subroutine stress ...

          total   stress  (Ry/bohr**3)                   (kbar)     P=    0.38
   0.0000025576   0.0000030539  -0.0000030539          0.38      0.45     -0.45
   0.0000030539   0.0000025576  -0.0000030539          0.45      0.38     -0.45
  -0.0000030539  -0.0000030539   0.0000025576         -0.45     -0.45      0.38

     kinetic stress (kbar)  21213.02     22.21    -22.21
                               22.21  21213.02    -22.21
                              -22.21    -22.21  21213.02

     local   stress (kbar)  -3194.29    597.40   -597.40
                              597.40  -3194.29   -597.40
                             -597.40   -597.40  -3194.29

     nonloc. stress (kbar)   5354.32     -1.19      1.19
                               -1.19   5354.32      1.19
                                1.19      1.19   5354.32

     hartree stress (kbar)  11177.12   -348.60    348.60
                             -348.60  11177.12    348.60
                              348.60    348.60  11177.12

     exc-cor stress (kbar)  -5381.02      0.06     -0.06
                                0.06  -5381.02     -0.06
                               -0.06     -0.06  -5381.02

     corecor stress (kbar)  -1067.05     -0.11      0.11
                               -0.11  -1067.05      0.11
                                0.11      0.11  -1067.05

     ewald   stress (kbar) -28101.73   -269.32    269.32
                             -269.32 -28101.73    269.32
                              269.32    269.32 -28101.73

     hubbard stress (kbar)      0.00      0.00      0.00
                                0.00      0.00      0.00
                                0.00      0.00      0.00

     london  stress (kbar)      0.00      0.00      0.00
                                0.00      0.00      0.00
                                0.00      0.00      0.00

     XDM     stress (kbar)      0.00      0.00      0.00
                                0.00      0.00      0.00
                                0.00      0.00      0.00

     dft-nl  stress (kbar)      0.00      0.00      0.00
                                0.00      0.00      0.00
                                0.00      0.00      0.00



     Writing output data file mix222.ordered.relax.up.relaxed.save

     init_run     :      4.33s CPU      3.89s WALL (       1 calls)
     electrons    :    177.13s CPU    154.42s WALL (       1 calls)
     forces       :      2.57s CPU      2.11s WALL (       1 calls)
     stress       :      4.08s CPU      4.01s WALL (       1 calls)

     Called by init_run:
     wfcinit      :      3.17s CPU      2.69s WALL (       1 calls)
     potinit      :      0.26s CPU      0.27s WALL (       1 calls)

     Called by electrons:
     c_bands      :    156.41s CPU    134.85s WALL (      15 calls)
     sum_band     :     17.20s CPU     16.03s WALL (      15 calls)
     v_of_rho     :      0.38s CPU      0.39s WALL (      16 calls)
     v_h          :      0.00s CPU      0.02s WALL (      16 calls)
     v_xc         :      0.41s CPU      0.41s WALL (      18 calls)
     newd         :      2.76s CPU      2.77s WALL (      16 calls)
     mix_rho      :      0.48s CPU      0.50s WALL (      15 calls)

     Called by c_bands:
     init_us_2    :      0.93s CPU      0.99s WALL (     429 calls)
     cegterg      :    153.13s CPU    131.37s WALL (     195 calls)

     Called by sum_band:
     sum_band:bec :      0.46s CPU      0.49s WALL (     195 calls)
     addusdens    :      3.05s CPU      3.05s WALL (      15 calls)

     Called by *egterg:
     h_psi        :     59.46s CPU     53.31s WALL (     740 calls)
     s_psi        :     10.63s CPU      7.18s WALL (     740 calls)
     g_psi        :      0.19s CPU      0.23s WALL (     532 calls)
     cdiaghg      :     53.56s CPU     47.24s WALL (     727 calls)
     cegterg:over :     13.04s CPU     10.58s WALL (     532 calls)
     cegterg:upda :      6.04s CPU      3.54s WALL (     532 calls)
     cegterg:last :      3.28s CPU      1.84s WALL (     195 calls)

     Called by h_psi:
     h_psi:vloc   :     36.50s CPU     36.84s WALL (     740 calls)
     h_psi:vnl    :     22.84s CPU     16.35s WALL (     740 calls)
     add_vuspsi   :     10.66s CPU      7.04s WALL (     740 calls)

     General routines
     calbec       :     18.00s CPU     13.69s WALL (     961 calls)
     fft          :      0.47s CPU      0.50s WALL (     277 calls)
     ffts         :      0.34s CPU      0.35s WALL (     383 calls)
     fftw         :     41.20s CPU     41.62s WALL (   86635 calls)
     interpolate  :      0.11s CPU      0.11s WALL (      31 calls)

     Parallel routines
     fft_scatter  :     16.43s CPU     16.65s WALL (   87295 calls)

     PWSCF        :  3m 9.20s CPU     2m45.99s WALL


   This run was terminated on:  17: 4:15  29Nov2017            

=------------------------------------------------------------------------------=
   JOB DONE.
=------------------------------------------------------------------------------=
