
     Program PWSCF v.5.1 starts on  3Oct2017 at 16:13:52 

     This program is part of the open-source Quantum ESPRESSO suite
     for quantum simulation of materials; please cite
         "P. Giannozzi et al., J. Phys.:Condens. Matter 21 395502 (2009);
          URL http://www.quantum-espresso.org", 
     in publications or presentations arising from this work. More details at
     http://www.quantum-espresso.org/quote

     Parallel version (MPI), running on     8 processors
     R & G space division:  proc/nbgrp/npool/nimage =       8
     Reading input from /tmp/mix222.ordered.972/mix222.ordered.t
Warning: card &IONS ignored
Warning: card   ION_DYNAMICS='BFGS', ignored
Warning: card / ignored
Warning: card &CELL ignored
Warning: card  CELL_DYNAMICS = 'BFGS' ignored
Warning: card / ignored
     Message from routine read_cards :
     DEPRECATED: no units specified in CELL_PARAMETERS card

     Current dimensions of program PWSCF are:
     Max number of different atomic species (ntypx) = 10
     Max number of k-points (npk) =  40000
     Max angular momentum in pseudopotentials (lmaxx) =  3
 kfg - two_fermi_energies  F

     Subspace diagonalization in iterative solution of the eigenvalue problem:
     a serial algorithm will be used

     Found symmetry operation: I + (  0.0000 -0.5000  0.0000)
     This is a supercell, fractional translations are disabled

     Parallelization info
     --------------------
     sticks:   dense  smooth     PW     G-vecs:    dense   smooth      PW
     Min         246     198     56                 7326     5205     787
     Max         248     199     58                 7329     5219     788
     Sum        1981    1585    451                58623    41703    6303



     bravais-lattice index     =            0
     lattice parameter (alat)  =    12.008941945  a.u.
     unit-cell volume          =    1224.6141 (a.u.)^3
     number of atoms/cell      =           16
     number of atomic types    =            3
     number of electrons       =       128.00
     number of Kohn-Sham states=           77
     kinetic-energy cutoff     =      40.0000  Ry
     charge density cutoff     =     200.0000  Ry
     convergence threshold     =      1.0E-10
     mixing beta               =       0.3000
     number of iterations used =            8  local-TF  mixing
     Exchange-correlation      = SLA  PW   PSX  PSC ( 1  4 10  8 0)
     A smooth kinetic-energy cutoff is imposed at      39.5000 Ry
     height of the smooth step-function =             800.0000 Ry
     width of the smooth step-function  =               1.0000 Ry


     celldm(1)=  12.008942  celldm(2)=   0.000000  celldm(3)=   0.000000
     celldm(4)=   0.000000  celldm(5)=   0.000000  celldm(6)=   0.000000

     crystal axes: (cart. coord. in units of alat)
               a(1) = (   0.000000000000   0.707106781187   0.707106781187 )  
               a(2) = (   0.707106781187   0.000000000000   0.707106781187 )  
               a(3) = (   0.707106781187   0.707106781187   0.000000000000 )  

     reciprocal axes: (cart. coord. in units 2 pi/alat)
               b(1) = ( -0.707107  0.707107  0.707107 )  
               b(2) = (  0.707107 -0.707107  0.707107 )  
               b(3) = (  0.707107  0.707107 -0.707107 )  


     PseudoPot. # 1 for Ca read from file:
     /users/kfg/psuedo/gbrv_1.5/ca.pbesol.UPF
     MD5 check sum: 0533207b58cddeaa036efa5b63902087
     Pseudo is Ultrasoft + core correction, Zval = 10.0
     Generated by new atomic code, or converted to UPF format
     Using radial grid of  845 points,  6 beta functions with: 
                l(1) =   0
                l(2) =   0
                l(3) =   1
                l(4) =   1
                l(5) =   2
                l(6) =   2
     Q(r) pseudized with  8 coefficients,  rinner =    1.500   1.500   1.500
                                                       1.500   1.500

     PseudoPot. # 2 for Mg read from file:
     /users/kfg/psuedo/gbrv_1.5/mg.pbesol.UPF
     MD5 check sum: 4059f37963cf5867752dbf5ab2400678
     Pseudo is Ultrasoft, Zval = 10.0
     Generated by new atomic code, or converted to UPF format
     Using radial grid of  821 points,  7 beta functions with: 
                l(1) =   0
                l(2) =   0
                l(3) =   0
                l(4) =   1
                l(5) =   1
                l(6) =   2
                l(7) =   2
     Q(r) pseudized with  8 coefficients,  rinner =    1.200   1.200   1.200
                                                       1.200   1.200

     PseudoPot. # 3 for O  read from file:
     /users/kfg/psuedo/gbrv_1.5/o.pbesol.UPF
     MD5 check sum: 501638753501ef6325af9037351f7734
     Pseudo is Ultrasoft + core correction, Zval =  6.0
     Generated by new atomic code, or converted to UPF format
     Using radial grid of  737 points,  5 beta functions with: 
                l(1) =   0
                l(2) =   0
                l(3) =   1
                l(4) =   1
                l(5) =   2
     Q(r) pseudized with  8 coefficients,  rinner =    0.900   0.900   0.900
                                                       0.900   0.900

     atomic species   valence    mass     pseudopotential
        Ca            10.00    40.07800     Ca( 1.00)
        Mg            10.00    40.07800     Mg( 1.00)
        O              6.00    15.99940     O ( 1.00)

     12 Sym. Ops., with inversion, found


                                    s                        frac. trans.

      isym =  1     identity                                     

 cryst.   s( 1) = (     1          0          0      )
                  (     0          1          0      )
                  (     0          0          1      )

 cart.    s( 1) = (  1.0000000  0.0000000  0.0000000 )
                  (  0.0000000  1.0000000  0.0000000 )
                  (  0.0000000  0.0000000  1.0000000 )


      isym =  2     180 deg rotation - cart. axis [1,-1,0]       

 cryst.   s( 2) = (     0         -1          0      )
                  (    -1          0          0      )
                  (     0          0         -1      )

 cart.    s( 2) = (  0.0000000 -1.0000000  0.0000000 )
                  ( -1.0000000  0.0000000  0.0000000 )
                  (  0.0000000  0.0000000 -1.0000000 )


      isym =  3     180 deg rotation - cart. axis [1,0,1]        

 cryst.   s( 3) = (    -1          1          0      )
                  (     0          1          0      )
                  (     0          1         -1      )

 cart.    s( 3) = (  0.0000000  0.0000000  1.0000000 )
                  (  0.0000000 -1.0000000  0.0000000 )
                  (  1.0000000  0.0000000  0.0000000 )


      isym =  4     180 deg rotation - cart. axis [0,1,1]        

 cryst.   s( 4) = (     1          0          0      )
                  (     1         -1          0      )
                  (     1          0         -1      )

 cart.    s( 4) = ( -1.0000000  0.0000000  0.0000000 )
                  (  0.0000000  0.0000000  1.0000000 )
                  (  0.0000000  1.0000000  0.0000000 )


      isym =  5     120 deg rotation - cart. axis [1,1,-1]       

 cryst.   s( 5) = (    -1          1          0      )
                  (    -1          0          0      )
                  (    -1          0          1      )

 cart.    s( 5) = (  0.0000000  1.0000000  0.0000000 )
                  (  0.0000000  0.0000000 -1.0000000 )
                  ( -1.0000000  0.0000000  0.0000000 )


      isym =  6     120 deg rotation - cart. axis [-1,-1,1]      

 cryst.   s( 6) = (     0         -1          0      )
                  (     1         -1          0      )
                  (     0         -1          1      )

 cart.    s( 6) = (  0.0000000  0.0000000 -1.0000000 )
                  (  1.0000000  0.0000000  0.0000000 )
                  (  0.0000000 -1.0000000  0.0000000 )


      isym =  7     inversion                                    

 cryst.   s( 7) = (    -1          0          0      )
                  (     0         -1          0      )
                  (     0          0         -1      )

 cart.    s( 7) = ( -1.0000000  0.0000000  0.0000000 )
                  (  0.0000000 -1.0000000  0.0000000 )
                  (  0.0000000  0.0000000 -1.0000000 )


      isym =  8     inv. 180 deg rotation - cart. axis [1,-1,0]  

 cryst.   s( 8) = (     0          1          0      )
                  (     1          0          0      )
                  (     0          0          1      )

 cart.    s( 8) = (  0.0000000  1.0000000  0.0000000 )
                  (  1.0000000  0.0000000  0.0000000 )
                  (  0.0000000  0.0000000  1.0000000 )


      isym =  9     inv. 180 deg rotation - cart. axis [1,0,1]   

 cryst.   s( 9) = (     1         -1          0      )
                  (     0         -1          0      )
                  (     0         -1          1      )

 cart.    s( 9) = (  0.0000000  0.0000000 -1.0000000 )
                  (  0.0000000  1.0000000  0.0000000 )
                  ( -1.0000000  0.0000000  0.0000000 )


      isym = 10     inv. 180 deg rotation - cart. axis [0,1,1]   

 cryst.   s(10) = (    -1          0          0      )
                  (    -1          1          0      )
                  (    -1          0          1      )

 cart.    s(10) = (  1.0000000  0.0000000  0.0000000 )
                  (  0.0000000  0.0000000 -1.0000000 )
                  (  0.0000000 -1.0000000  0.0000000 )


      isym = 11     inv. 120 deg rotation - cart. axis [1,1,-1]  

 cryst.   s(11) = (     1         -1          0      )
                  (     1          0          0      )
                  (     1          0         -1      )

 cart.    s(11) = (  0.0000000 -1.0000000  0.0000000 )
                  (  0.0000000  0.0000000  1.0000000 )
                  (  1.0000000  0.0000000  0.0000000 )


      isym = 12     inv. 120 deg rotation - cart. axis [-1,-1,1] 

 cryst.   s(12) = (     0          1          0      )
                  (    -1          1          0      )
                  (     0          1         -1      )

 cart.    s(12) = (  0.0000000  0.0000000  1.0000000 )
                  ( -1.0000000  0.0000000  0.0000000 )
                  (  0.0000000  1.0000000  0.0000000 )


     point group D_3d (-3m) 
     there are  6 classes
     the character table:

       E     2C3   3C2'  i     2S6   3s_d 
A_1g   1.00  1.00  1.00  1.00  1.00  1.00
A_2g   1.00  1.00 -1.00  1.00  1.00 -1.00
E_g    2.00 -1.00  0.00  2.00 -1.00  0.00
A_1u   1.00  1.00  1.00 -1.00 -1.00 -1.00
A_2u   1.00  1.00 -1.00 -1.00 -1.00  1.00
E_u    2.00 -1.00  0.00 -2.00  1.00  0.00

     the symmetry operations in each class:
     E        1
     3C2'     2    4    3
     2C3      5    6
     i        7
     3s_d     8   10    9
     2S6     11   12

   Cartesian axes

     site n.     atom                  positions (alat units)
         1           Ca  tau(   1) = (    0.00000000000    0.00000000000    0.00000000000  )
         2           O   tau(   2) = (    0.35355339059    0.35355339059    0.35355339059  )
         3           Mg  tau(   3) = (    0.35355339059    0.35355339059    0.00000000000  )
         4           O   tau(   4) = (    0.70710678119    0.70710678119    0.35355339059  )
         5           Ca  tau(   5) = (    0.35355339059    0.00000000000    0.35355339059  )
         6           O   tau(   6) = (    0.70710678119    0.35355339059    0.70710678119  )
         7           Mg  tau(   7) = (    0.70710678119    0.35355339059    0.35355339059  )
         8           O   tau(   8) = (    1.06066017178    0.70710678119    0.70710678119  )
         9           Ca  tau(   9) = (    0.00000000000    0.35355339059    0.35355339059  )
        10           O   tau(  10) = (    0.35355339059    0.70710678119    0.70710678119  )
        11           Mg  tau(  11) = (    0.35355339059    0.70710678119    0.35355339059  )
        12           O   tau(  12) = (    0.70710678119    1.06066017178    0.70710678119  )
        13           Ca  tau(  13) = (    0.35355339059    0.35355339059    0.70710678119  )
        14           O   tau(  14) = (    0.70710678119    0.70710678119    1.06066017178  )
        15           Mg  tau(  15) = (    0.70710678119    0.70710678119    0.70710678119  )
        16           O   tau(  16) = (    1.06066017178    1.06066017178    1.06066017178  )

   Crystallographic axes

     site n.     atom                  positions (cryst. coord.)
         1           Ca  tau(   1) = (    0.00000000000    0.00000000000    0.00000000000  )
         2           O   tau(   2) = (    0.25000000000    0.25000000000    0.25000000000  )
         3           Mg  tau(   3) = (    0.00000000000    0.00000000000    0.50000000000  )
         4           O   tau(   4) = (    0.25000000000    0.25000000000    0.75000000000  )
         5           Ca  tau(   5) = (    0.00000000000    0.50000000000    0.00000000000  )
         6           O   tau(   6) = (    0.25000000000    0.75000000000    0.25000000000  )
         7           Mg  tau(   7) = (    0.00000000000    0.50000000000    0.50000000000  )
         8           O   tau(   8) = (    0.25000000000    0.75000000000    0.75000000000  )
         9           Ca  tau(   9) = (    0.50000000000    0.00000000000    0.00000000000  )
        10           O   tau(  10) = (    0.75000000000    0.25000000000    0.25000000000  )
        11           Mg  tau(  11) = (    0.50000000000    0.00000000000    0.50000000000  )
        12           O   tau(  12) = (    0.75000000000    0.25000000000    0.75000000000  )
        13           Ca  tau(  13) = (    0.50000000000    0.50000000000    0.00000000000  )
        14           O   tau(  14) = (    0.75000000000    0.75000000000    0.25000000000  )
        15           Mg  tau(  15) = (    0.50000000000    0.50000000000    0.50000000000  )
        16           O   tau(  16) = (    0.75000000000    0.75000000000    0.75000000000  )

     number of k points=    13  gaussian smearing, width (Ry)=  0.0050
                       cart. coord. in units 2pi/alat
        k(    1) = (   0.0000000   0.0000000   0.0000000), wk =   0.0312500
        k(    2) = (   0.1767767   0.1767767  -0.1767767), wk =   0.0625000
        k(    3) = (  -0.3535534  -0.3535534   0.3535534), wk =   0.0312500
        k(    4) = (   0.3535534   0.0000000   0.0000000), wk =   0.1875000
        k(    5) = (  -0.1767767  -0.5303301   0.5303301), wk =   0.1875000
        k(    6) = (   0.0000000  -0.3535534   0.3535534), wk =   0.1875000
        k(    7) = (  -0.7071068   0.0000000   0.0000000), wk =   0.0937500
        k(    8) = (  -0.7071068   0.3535534   0.0000000), wk =   0.1875000
        k(    9) = (   0.1767767  -0.1767767   0.1767767), wk =   0.1875000
        k(   10) = (  -0.3535534   0.3535534  -0.3535534), wk =   0.0937500
        k(   11) = (  -0.1767767   0.5303301  -0.5303301), wk =   0.1875000
        k(   12) = (  -0.1767767   0.5303301   0.5303301), wk =   0.3750000
        k(   13) = (   0.0000000   0.3535534   0.3535534), wk =   0.1875000

                       cryst. coord.
        k(    1) = (   0.0000000   0.0000000   0.0000000), wk =   0.0312500
        k(    2) = (   0.0000000   0.0000000   0.2500000), wk =   0.0625000
        k(    3) = (   0.0000000   0.0000000  -0.5000000), wk =   0.0312500
        k(    4) = (   0.0000000   0.2500000   0.2500000), wk =   0.1875000
        k(    5) = (   0.0000000   0.2500000  -0.5000000), wk =   0.1875000
        k(    6) = (   0.0000000   0.2500000  -0.2500000), wk =   0.1875000
        k(    7) = (   0.0000000  -0.5000000  -0.5000000), wk =   0.0937500
        k(    8) = (   0.2500000  -0.5000000  -0.2500000), wk =   0.1875000
        k(    9) = (   0.0000000   0.2500000   0.0000000), wk =   0.1875000
        k(   10) = (   0.0000000  -0.5000000   0.0000000), wk =   0.0937500
        k(   11) = (   0.0000000  -0.5000000   0.2500000), wk =   0.1875000
        k(   12) = (   0.7500000   0.2500000   0.2500000), wk =   0.3750000
        k(   13) = (   0.5000000   0.2500000   0.2500000), wk =   0.1875000

     Dense  grid:    58623 G-vectors     FFT dimensions: (  60,  60,  60)

     Smooth grid:    41703 G-vectors     FFT dimensions: (  50,  50,  50)

     Largest allocated arrays     est. size (Mb)     dimensions
        Kohn-Sham Wavefunctions         0.78 Mb     (     668,   77)
        NL pseudopotentials             2.57 Mb     (     668,  252)
        Each V/rho on FFT grid          0.44 Mb     (   28800)
        Each G-vector array             0.06 Mb     (    7329)
        G-vector shells                 0.00 Mb     (     477)
     Largest temporary arrays     est. size (Mb)     dimensions
        Auxiliary wavefunctions         3.14 Mb     (     668,  308)
        Each subspace H/S matrix        1.45 Mb     (     308,  308)
        Each <psi_i|beta_j> matrix      0.30 Mb     (     252,   77)
        Arrays for rho mixing           3.52 Mb     (   28800,    8)

     Check: negative/imaginary core charge=   -0.000003    0.000000

     Initial potential from superposition of free atoms

     starting charge  126.77837, renormalised to  128.00000
     Starting wfc are   92 randomized atomic wfcs

     total cpu time spent up to now is        8.8 secs

     Self-consistent Calculation

     iteration #  1     ecut=    40.00 Ry     beta=0.30
     Davidson diagonalization with overlap
     ethr =  1.00E-02,  avg # of iterations =  2.8

     total cpu time spent up to now is       32.1 secs

     total energy              =   -1060.04121418 Ry
     Harris-Foulkes estimate   =   -1060.63336455 Ry
     estimated scf accuracy    <       3.06728624 Ry

     iteration #  2     ecut=    40.00 Ry     beta=0.30
     Davidson diagonalization with overlap
     ethr =  2.40E-03,  avg # of iterations =  1.1

     total cpu time spent up to now is       52.5 secs

     total energy              =   -1059.62397518 Ry
     Harris-Foulkes estimate   =   -1060.13421920 Ry
     estimated scf accuracy    <       1.29595833 Ry

     iteration #  3     ecut=    40.00 Ry     beta=0.30
     Davidson diagonalization with overlap
     ethr =  1.01E-03,  avg # of iterations =  2.1

     total cpu time spent up to now is       74.5 secs

     total energy              =   -1059.77968433 Ry
     Harris-Foulkes estimate   =   -1059.83263121 Ry
     estimated scf accuracy    <       0.17907612 Ry

     iteration #  4     ecut=    40.00 Ry     beta=0.30
     Davidson diagonalization with overlap
     ethr =  1.40E-04,  avg # of iterations =  2.8

     total cpu time spent up to now is       97.2 secs

     total energy              =   -1059.74244585 Ry
     Harris-Foulkes estimate   =   -1059.79244436 Ry
     estimated scf accuracy    <       0.08577295 Ry

     iteration #  5     ecut=    40.00 Ry     beta=0.30
     Davidson diagonalization with overlap
     ethr =  6.70E-05,  avg # of iterations =  3.2

     total cpu time spent up to now is      127.8 secs

     total energy              =   -1059.75705854 Ry
     Harris-Foulkes estimate   =   -1059.75826346 Ry
     estimated scf accuracy    <       0.01194448 Ry

     iteration #  6     ecut=    40.00 Ry     beta=0.30
     Davidson diagonalization with overlap
     ethr =  9.33E-06,  avg # of iterations =  4.9

     total cpu time spent up to now is      150.9 secs

     total energy              =   -1059.75558985 Ry
     Harris-Foulkes estimate   =   -1059.75735354 Ry
     estimated scf accuracy    <       0.00465318 Ry

     iteration #  7     ecut=    40.00 Ry     beta=0.30
     Davidson diagonalization with overlap
     ethr =  3.64E-06,  avg # of iterations =  3.8

     total cpu time spent up to now is      183.7 secs

     total energy              =   -1059.75610618 Ry
     Harris-Foulkes estimate   =   -1059.75616600 Ry
     estimated scf accuracy    <       0.00020666 Ry

     iteration #  8     ecut=    40.00 Ry     beta=0.30
     Davidson diagonalization with overlap
     ethr =  1.61E-07,  avg # of iterations =  2.1

     total cpu time spent up to now is      203.1 secs

     total energy              =   -1059.75613188 Ry
     Harris-Foulkes estimate   =   -1059.75613359 Ry
     estimated scf accuracy    <       0.00000928 Ry

     iteration #  9     ecut=    40.00 Ry     beta=0.30
     Davidson diagonalization with overlap
     ethr =  7.25E-09,  avg # of iterations =  2.0

     total cpu time spent up to now is      225.2 secs

     total energy              =   -1059.75613344 Ry
     Harris-Foulkes estimate   =   -1059.75613332 Ry
     estimated scf accuracy    <       0.00000052 Ry

     iteration # 10     ecut=    40.00 Ry     beta=0.30
     Davidson diagonalization with overlap
     ethr =  4.09E-10,  avg # of iterations =  2.0

     total cpu time spent up to now is      247.7 secs

     total energy              =   -1059.75613350 Ry
     Harris-Foulkes estimate   =   -1059.75613352 Ry
     estimated scf accuracy    <       0.00000035 Ry

     iteration # 11     ecut=    40.00 Ry     beta=0.30
     Davidson diagonalization with overlap
     ethr =  2.77E-10,  avg # of iterations =  2.0

     total cpu time spent up to now is      265.9 secs

     total energy              =   -1059.75613358 Ry
     Harris-Foulkes estimate   =   -1059.75613355 Ry
     estimated scf accuracy    <          8.0E-09 Ry

     iteration # 12     ecut=    40.00 Ry     beta=0.30
     Davidson diagonalization with overlap
     ethr =  6.25E-12,  avg # of iterations =  2.0

     total cpu time spent up to now is      285.0 secs

     total energy              =   -1059.75613360 Ry
     Harris-Foulkes estimate   =   -1059.75613358 Ry
     estimated scf accuracy    <          1.2E-09 Ry

     iteration # 13     ecut=    40.00 Ry     beta=0.30
     Davidson diagonalization with overlap
     ethr =  9.41E-13,  avg # of iterations =  2.7

     total cpu time spent up to now is      308.6 secs

     End of self-consistent calculation

          k = 0.0000 0.0000 0.0000 (  5209 PWs)   bands (ev):

   -64.8193 -64.8171 -64.8171 -64.8171 -31.7940 -31.7940 -31.7940 -31.7934
   -31.7881 -31.7881 -31.7881 -31.7716 -31.7716 -31.7716 -31.7648 -31.7648
   -28.6225 -28.4568 -28.4568 -28.4568 -11.0847 -11.0847 -11.0847 -10.8028
    -9.8435  -9.8435  -9.8435  -9.6365  -9.6365  -9.6365  -9.4097  -9.4097
    -8.1942  -7.5697  -7.5697  -7.5697  -6.4226  -6.4226  -6.4226  -6.2800
     4.2461   4.2497   4.2497   4.2497   5.5541   5.5541   5.5541   6.7331
     6.7331   6.7483   6.7483   6.7483   6.7489   6.7489   6.7489   7.0853
     7.0853   7.0853   7.1281   7.1281   7.1281   7.8037   7.8367   7.8367
    12.2758  12.8852  12.8852  12.8852  15.4068  15.7458  15.7458  15.8332
    15.8680  15.8680  15.8680  16.6672  16.6672

     occupation numbers 
     1.0000   1.0000   1.0000   1.0000   1.0000   1.0000   1.0000   1.0000
     1.0000   1.0000   1.0000   1.0000   1.0000   1.0000   1.0000   1.0000
     1.0000   1.0000   1.0000   1.0000   1.0000   1.0000   1.0000   1.0000
     1.0000   1.0000   1.0000   1.0000   1.0000   1.0000   1.0000   1.0000
     1.0000   1.0000   1.0000   1.0000   1.0000   1.0000   1.0000   1.0000
     1.0000   1.0000   1.0000   1.0000   1.0000   1.0000   1.0000   1.0000
     1.0000   1.0000   1.0000   1.0000   1.0000   1.0000   1.0000   1.0000
     1.0000   1.0000   1.0000   1.0000   1.0000   1.0000   1.0000   1.0000
     0.0000   0.0000   0.0000   0.0000   0.0000   0.0000   0.0000   0.0000
     0.0000   0.0000   0.0000   0.0000   0.0000

          k = 0.1768 0.1768-0.1768 (  5228 PWs)   bands (ev):

   -64.8193 -64.8171 -64.8171 -64.8171 -31.7940 -31.7940 -31.7940 -31.7937
   -31.7881 -31.7881 -31.7881 -31.7716 -31.7716 -31.7716 -31.7648 -31.7648
   -28.6219 -28.4567 -28.4567 -28.4567 -11.0814 -11.0814 -11.0814 -10.8649
    -9.8400  -9.8400  -9.8400  -9.6363  -9.6363  -9.6363  -9.4099  -9.4099
    -7.9895  -7.6126  -7.6125  -7.6125  -6.4408  -6.3841  -6.3841  -6.3841
     4.5063   4.5063   4.5063   4.6239   5.3878   5.3878   5.3878   6.4563
     6.4564   6.4564   6.5656   6.5656   6.5656   6.8202   6.8202   7.0942
     7.0943   7.0943   7.0943   7.3307   7.3307   7.3307   7.7276   7.7276
    13.0409  13.2251  13.2251  13.2251  14.8722  15.8130  15.8130  15.8883
    15.9831  15.9831  15.9832  16.8512  16.8512

     occupation numbers 
     1.0000   1.0000   1.0000   1.0000   1.0000   1.0000   1.0000   1.0000
     1.0000   1.0000   1.0000   1.0000   1.0000   1.0000   1.0000   1.0000
     1.0000   1.0000   1.0000   1.0000   1.0000   1.0000   1.0000   1.0000
     1.0000   1.0000   1.0000   1.0000   1.0000   1.0000   1.0000   1.0000
     1.0000   1.0000   1.0000   1.0000   1.0000   1.0000   1.0000   1.0000
     1.0000   1.0000   1.0000   1.0000   1.0000   1.0000   1.0000   1.0000
     1.0000   1.0000   1.0000   1.0000   1.0000   1.0000   1.0000   1.0000
     1.0000   1.0000   1.0000   1.0000   1.0000   1.0000   1.0000   1.0000
     0.0000   0.0000   0.0000   0.0000   0.0000   0.0000   0.0000   0.0000
     0.0000   0.0000   0.0000   0.0000   0.0000

          k =-0.3536-0.3536 0.3536 (  5210 PWs)   bands (ev):

   -64.8193 -64.8171 -64.8171 -64.8171 -31.7940 -31.7940 -31.7940 -31.7940
   -31.7881 -31.7881 -31.7881 -31.7716 -31.7716 -31.7716 -31.7648 -31.7648
   -28.6212 -28.4566 -28.4566 -28.4566 -11.0782 -11.0782 -11.0782 -10.9224
    -9.8361  -9.8361  -9.8361  -9.6361  -9.6361  -9.6361  -9.4101  -9.4101
    -7.7405  -7.6543  -7.6543  -7.6543  -6.6502  -6.3469  -6.3469  -6.3469
     4.8514   4.8514   4.8514   5.3560   5.3667   5.3667   5.3667   5.8680
     5.8680   5.8680   6.1017   6.4505   6.4505   6.4505   6.9342   6.9342
     7.1794   7.1794   7.1794   7.4652   7.4652   7.4652   7.5919   7.5919
    13.5494  13.5494  13.5494  14.1644  14.3200  15.5004  15.8779  15.8779
    16.1769  16.1769  16.1769  17.0330  17.0330

     occupation numbers 
     1.0000   1.0000   1.0000   1.0000   1.0000   1.0000   1.0000   1.0000
     1.0000   1.0000   1.0000   1.0000   1.0000   1.0000   1.0000   1.0000
     1.0000   1.0000   1.0000   1.0000   1.0000   1.0000   1.0000   1.0000
     1.0000   1.0000   1.0000   1.0000   1.0000   1.0000   1.0000   1.0000
     1.0000   1.0000   1.0000   1.0000   1.0000   1.0000   1.0000   1.0000
     1.0000   1.0000   1.0000   1.0000   1.0000   1.0000   1.0000   1.0000
     1.0000   1.0000   1.0000   1.0000   1.0000   1.0000   1.0000   1.0000
     1.0000   1.0000   1.0000   1.0000   1.0000   1.0000   1.0000   1.0000
     0.0000   0.0000   0.0000   0.0000   0.0000   0.0000   0.0000   0.0000
     0.0000   0.0000   0.0000   0.0000   0.0000

          k = 0.3536 0.0000 0.0000 (  5201 PWs)   bands (ev):

   -64.8190 -64.8174 -64.8171 -64.8171 -31.7927 -31.7917 -31.7917 -31.7899
   -31.7888 -31.7881 -31.7881 -31.7740 -31.7740 -31.7706 -31.7691 -31.7658
   -28.5984 -28.4813 -28.4568 -28.4568 -10.9660 -10.9660 -10.9076 -10.7282
   -10.0510  -9.9224  -9.9224  -9.7901  -9.7832  -9.7832  -9.6041  -9.4437
    -7.7571  -7.4336  -7.3435  -7.3435  -6.5561  -6.5561  -6.4866  -6.4616
     4.5682   4.5877   4.5877   4.5928   5.2101   5.6942   5.6942   6.2482
     6.2482   6.5243   6.6991   6.6991   6.7519   6.7722   6.8266   6.8266
     6.9645   7.0993   7.1710   7.1904   7.1904   7.2195   7.6635   7.6748
    13.1603  13.2005  13.6416  13.6416  15.0394  15.2720  15.2779  15.8332
    15.8332  16.0953  16.2407  16.5174  16.5174

     occupation numbers 
     1.0000   1.0000   1.0000   1.0000   1.0000   1.0000   1.0000   1.0000
     1.0000   1.0000   1.0000   1.0000   1.0000   1.0000   1.0000   1.0000
     1.0000   1.0000   1.0000   1.0000   1.0000   1.0000   1.0000   1.0000
     1.0000   1.0000   1.0000   1.0000   1.0000   1.0000   1.0000   1.0000
     1.0000   1.0000   1.0000   1.0000   1.0000   1.0000   1.0000   1.0000
     1.0000   1.0000   1.0000   1.0000   1.0000   1.0000   1.0000   1.0000
     1.0000   1.0000   1.0000   1.0000   1.0000   1.0000   1.0000   1.0000
     1.0000   1.0000   1.0000   1.0000   1.0000   1.0000   1.0000   1.0000
     0.0000   0.0000   0.0000   0.0000   0.0000   0.0000   0.0000   0.0000
     0.0000   0.0000   0.0000   0.0000   0.0000

          k =-0.1768-0.5303 0.5303 (  5239 PWs)   bands (ev):

   -64.8190 -64.8174 -64.8171 -64.8171 -31.7931 -31.7917 -31.7917 -31.7899
   -31.7888 -31.7881 -31.7881 -31.7739 -31.7739 -31.7706 -31.7690 -31.7658
   -28.5976 -28.4812 -28.4567 -28.4567 -10.9607 -10.9607 -10.9037 -10.8021
   -10.0395  -9.9243  -9.9243  -9.7809  -9.7809  -9.7680  -9.6038  -9.4440
    -7.4939  -7.4802  -7.4065  -7.4065  -6.6959  -6.4943  -6.4943  -6.4454
     4.8659   4.8659   4.8813   5.0048   5.1861   5.5286   5.5286   6.0278
     6.0278   6.2676   6.4735   6.5066   6.5066   6.5555   6.9292   7.0321
     7.0321   7.0379   7.1299   7.1299   7.1782   7.3080   7.4389   7.4939
    13.6208  13.9770  14.0118  14.0118  14.7349  15.2140  15.2176  15.9221
    15.9221  15.9302  16.1552  16.5226  16.5803

     occupation numbers 
     1.0000   1.0000   1.0000   1.0000   1.0000   1.0000   1.0000   1.0000
     1.0000   1.0000   1.0000   1.0000   1.0000   1.0000   1.0000   1.0000
     1.0000   1.0000   1.0000   1.0000   1.0000   1.0000   1.0000   1.0000
     1.0000   1.0000   1.0000   1.0000   1.0000   1.0000   1.0000   1.0000
     1.0000   1.0000   1.0000   1.0000   1.0000   1.0000   1.0000   1.0000
     1.0000   1.0000   1.0000   1.0000   1.0000   1.0000   1.0000   1.0000
     1.0000   1.0000   1.0000   1.0000   1.0000   1.0000   1.0000   1.0000
     1.0000   1.0000   1.0000   1.0000   1.0000   1.0000   1.0000   1.0000
     0.0000   0.0000   0.0000   0.0000   0.0000   0.0000   0.0000   0.0000
     0.0000   0.0000   0.0000   0.0000   0.0000

          k = 0.0000-0.3536 0.3536 (  5238 PWs)   bands (ev):

   -64.8190 -64.8174 -64.8171 -64.8171 -31.7930 -31.7917 -31.7917 -31.7900
   -31.7887 -31.7881 -31.7881 -31.7740 -31.7740 -31.7706 -31.7690 -31.7658
   -28.5979 -28.4814 -28.4567 -28.4567 -10.9559 -10.9559 -10.9173 -10.7853
   -10.0155  -9.9392  -9.9392  -9.7786  -9.7786  -9.7716  -9.6038  -9.4440
    -7.5515  -7.4244  -7.4243  -7.4193  -6.6381  -6.5555  -6.4575  -6.4575
     4.8788   4.9140   4.9167   4.9168   5.1323   5.1323   5.8446   5.9092
     6.1043   6.1043   6.3706   6.5506   6.8160   6.8160   6.8731   6.8894
     6.9499   6.9499   7.0173   7.2854   7.2854   7.4511   7.4820   7.5704
    13.6911  13.8012  13.8012  13.8277  14.6851  15.3876  15.4850  15.7768
    15.7768  16.0207  16.0898  16.4120  16.4120

     occupation numbers 
     1.0000   1.0000   1.0000   1.0000   1.0000   1.0000   1.0000   1.0000
     1.0000   1.0000   1.0000   1.0000   1.0000   1.0000   1.0000   1.0000
     1.0000   1.0000   1.0000   1.0000   1.0000   1.0000   1.0000   1.0000
     1.0000   1.0000   1.0000   1.0000   1.0000   1.0000   1.0000   1.0000
     1.0000   1.0000   1.0000   1.0000   1.0000   1.0000   1.0000   1.0000
     1.0000   1.0000   1.0000   1.0000   1.0000   1.0000   1.0000   1.0000
     1.0000   1.0000   1.0000   1.0000   1.0000   1.0000   1.0000   1.0000
     1.0000   1.0000   1.0000   1.0000   1.0000   1.0000   1.0000   1.0000
     0.0000   0.0000   0.0000   0.0000   0.0000   0.0000   0.0000   0.0000
     0.0000   0.0000   0.0000   0.0000   0.0000

          k =-0.7071 0.0000 0.0000 (  5218 PWs)   bands (ev):

   -64.8182 -64.8182 -64.8171 -64.8171 -31.7910 -31.7910 -31.7884 -31.7884
   -31.7881 -31.7881 -31.7794 -31.7794 -31.7772 -31.7772 -31.7682 -31.7682
   -28.5400 -28.5400 -28.4569 -28.4569 -10.7820 -10.7820 -10.5417 -10.5417
   -10.3228 -10.3228 -10.1750 -10.1750  -9.8067  -9.8067  -9.5247  -9.5247
    -7.2786  -7.2786  -7.0303  -7.0303  -6.7877  -6.7877  -6.6663  -6.6663
     4.7172   4.7172   4.8349   4.8349   5.9200   5.9200   6.0262   6.0262
     6.1131   6.1131   6.5706   6.5706   6.5892   6.5892   6.7146   6.7146
     6.7935   6.7935   6.8743   6.8743   7.3787   7.3787   7.4035   7.4035
    14.0445  14.0445  14.2098  14.2098  14.9333  14.9333  15.4182  15.4182
    15.7074  15.7074  15.8054  15.8054  16.8818

     occupation numbers 
     1.0000   1.0000   1.0000   1.0000   1.0000   1.0000   1.0000   1.0000
     1.0000   1.0000   1.0000   1.0000   1.0000   1.0000   1.0000   1.0000
     1.0000   1.0000   1.0000   1.0000   1.0000   1.0000   1.0000   1.0000
     1.0000   1.0000   1.0000   1.0000   1.0000   1.0000   1.0000   1.0000
     1.0000   1.0000   1.0000   1.0000   1.0000   1.0000   1.0000   1.0000
     1.0000   1.0000   1.0000   1.0000   1.0000   1.0000   1.0000   1.0000
     1.0000   1.0000   1.0000   1.0000   1.0000   1.0000   1.0000   1.0000
     1.0000   1.0000   1.0000   1.0000   1.0000   1.0000   1.0000   1.0000
     0.0000   0.0000   0.0000   0.0000   0.0000   0.0000   0.0000   0.0000
     0.0000   0.0000   0.0000   0.0000   0.0000

          k =-0.7071 0.3536 0.0000 (  5220 PWs)   bands (ev):

   -64.8185 -64.8177 -64.8177 -64.8169 -31.7917 -31.7895 -31.7895 -31.7886
   -31.7875 -31.7852 -31.7852 -31.7807 -31.7759 -31.7714 -31.7714 -31.7680
   -28.5569 -28.4988 -28.4988 -28.4394 -10.7639 -10.6825 -10.6825 -10.6056
   -10.2992 -10.2211 -10.2211 -10.1954  -9.7792  -9.6647  -9.6647  -9.5275
    -7.2110  -7.2110  -7.0957  -7.0807  -6.8849  -6.6824  -6.6824  -6.6822
     4.8674   4.9126   4.9126   5.1594   5.2934   5.7114   5.7114   6.0066
     6.1161   6.2755   6.2755   6.3096   6.6892   6.6892   6.7009   6.7461
     7.0801   7.0891   7.0891   7.1047   7.1145   7.2730   7.2730   7.4022
    14.3185  14.3185  14.3659  14.7216  14.7686  14.9183  14.9183  15.0174
    15.6628  15.6628  15.8207  16.0433  16.2559

     occupation numbers 
     1.0000   1.0000   1.0000   1.0000   1.0000   1.0000   1.0000   1.0000
     1.0000   1.0000   1.0000   1.0000   1.0000   1.0000   1.0000   1.0000
     1.0000   1.0000   1.0000   1.0000   1.0000   1.0000   1.0000   1.0000
     1.0000   1.0000   1.0000   1.0000   1.0000   1.0000   1.0000   1.0000
     1.0000   1.0000   1.0000   1.0000   1.0000   1.0000   1.0000   1.0000
     1.0000   1.0000   1.0000   1.0000   1.0000   1.0000   1.0000   1.0000
     1.0000   1.0000   1.0000   1.0000   1.0000   1.0000   1.0000   1.0000
     1.0000   1.0000   1.0000   1.0000   1.0000   1.0000   1.0000   1.0000
     0.0000   0.0000   0.0000   0.0000   0.0000   0.0000   0.0000   0.0000
     0.0000   0.0000   0.0000   0.0000   0.0000

          k = 0.1768-0.1768 0.1768 (  5228 PWs)   bands (ev):

   -64.8190 -64.8175 -64.8171 -64.8171 -31.7927 -31.7916 -31.7916 -31.7900
   -31.7886 -31.7881 -31.7881 -31.7740 -31.7740 -31.7706 -31.7690 -31.7658
   -28.5986 -28.4814 -28.4568 -28.4568 -10.9614 -10.9614 -10.9213 -10.7094
   -10.0269  -9.9371  -9.9371  -9.7951  -9.7807  -9.7807  -9.6041  -9.4438
    -7.8065  -7.3659  -7.3659  -7.3473  -6.6083  -6.5148  -6.5148  -6.4263
     4.5164   4.5361   4.5361   4.6176   5.4646   5.4646   5.5600   6.3459
     6.3459   6.5070   6.6032   6.6147   6.6147   6.7373   6.7404   7.0684
     7.0684   7.0786   7.1200   7.2382   7.3394   7.3394   7.7304   7.7541
    13.0437  13.3154  13.4195  13.4195  14.9681  15.4639  15.5614  15.6768
    15.6768  16.0284  16.4347  16.4388  16.4388

     occupation numbers 
     1.0000   1.0000   1.0000   1.0000   1.0000   1.0000   1.0000   1.0000
     1.0000   1.0000   1.0000   1.0000   1.0000   1.0000   1.0000   1.0000
     1.0000   1.0000   1.0000   1.0000   1.0000   1.0000   1.0000   1.0000
     1.0000   1.0000   1.0000   1.0000   1.0000   1.0000   1.0000   1.0000
     1.0000   1.0000   1.0000   1.0000   1.0000   1.0000   1.0000   1.0000
     1.0000   1.0000   1.0000   1.0000   1.0000   1.0000   1.0000   1.0000
     1.0000   1.0000   1.0000   1.0000   1.0000   1.0000   1.0000   1.0000
     1.0000   1.0000   1.0000   1.0000   1.0000   1.0000   1.0000   1.0000
     0.0000   0.0000   0.0000   0.0000   0.0000   0.0000   0.0000   0.0000
     0.0000   0.0000   0.0000   0.0000   0.0000

          k =-0.3536 0.3536-0.3536 (  5210 PWs)   bands (ev):

   -64.8182 -64.8182 -64.8171 -64.8171 -31.7908 -31.7908 -31.7883 -31.7883
   -31.7882 -31.7882 -31.7794 -31.7794 -31.7772 -31.7772 -31.7682 -31.7682
   -28.5404 -28.5404 -28.4568 -28.4568 -10.7686 -10.7686 -10.5638 -10.5638
   -10.2780 -10.2780 -10.1976 -10.1976  -9.8119  -9.8119  -9.5248  -9.5248
    -7.2201  -7.2201  -7.1222  -7.1222  -6.7753  -6.7753  -6.6625  -6.6625
     5.0456   5.0456   5.0803   5.0803   5.2659   5.2659   5.8993   5.8993
     5.9471   5.9471   6.2662   6.2662   6.3015   6.3015   6.7389   6.7389
     7.2302   7.2302   7.4096   7.4096   7.4578   7.4578   7.4842   7.4842
    14.0812  14.0812  14.5282  14.5282  14.5612  14.5612  14.7807  14.7807
    15.9083  15.9083  16.1628  16.1628  16.7813

     occupation numbers 
     1.0000   1.0000   1.0000   1.0000   1.0000   1.0000   1.0000   1.0000
     1.0000   1.0000   1.0000   1.0000   1.0000   1.0000   1.0000   1.0000
     1.0000   1.0000   1.0000   1.0000   1.0000   1.0000   1.0000   1.0000
     1.0000   1.0000   1.0000   1.0000   1.0000   1.0000   1.0000   1.0000
     1.0000   1.0000   1.0000   1.0000   1.0000   1.0000   1.0000   1.0000
     1.0000   1.0000   1.0000   1.0000   1.0000   1.0000   1.0000   1.0000
     1.0000   1.0000   1.0000   1.0000   1.0000   1.0000   1.0000   1.0000
     1.0000   1.0000   1.0000   1.0000   1.0000   1.0000   1.0000   1.0000
     0.0000   0.0000   0.0000   0.0000   0.0000   0.0000   0.0000   0.0000
     0.0000   0.0000   0.0000   0.0000   0.0000

          k =-0.1768 0.5303-0.5303 (  5239 PWs)   bands (ev):

   -64.8182 -64.8182 -64.8171 -64.8171 -31.7911 -31.7908 -31.7884 -31.7884
   -31.7881 -31.7881 -31.7794 -31.7793 -31.7772 -31.7772 -31.7682 -31.7682
   -28.5404 -28.5399 -28.4569 -28.4569 -10.7755 -10.7755 -10.5833 -10.5209
   -10.3110 -10.2907 -10.1860 -10.1860  -9.8094  -9.8093  -9.5249  -9.5246
    -7.3609  -7.0855  -7.0848  -7.0848  -6.8571  -6.7165  -6.7165  -6.6371
     4.8659   4.8660   4.9058   4.9058   5.6493   5.6493   5.7218   6.0087
     6.0087   6.1720   6.2401   6.3554   6.3554   6.6651   6.8069   6.9178
     7.0531   7.0531   7.1464   7.1464   7.2795   7.3354   7.3788   7.5577
    13.9381  14.0333  14.4546  14.5804  14.7125  14.7125  15.1383  15.1383
    15.6225  15.9191  15.9191  16.0140  16.5303

     occupation numbers 
     1.0000   1.0000   1.0000   1.0000   1.0000   1.0000   1.0000   1.0000
     1.0000   1.0000   1.0000   1.0000   1.0000   1.0000   1.0000   1.0000
     1.0000   1.0000   1.0000   1.0000   1.0000   1.0000   1.0000   1.0000
     1.0000   1.0000   1.0000   1.0000   1.0000   1.0000   1.0000   1.0000
     1.0000   1.0000   1.0000   1.0000   1.0000   1.0000   1.0000   1.0000
     1.0000   1.0000   1.0000   1.0000   1.0000   1.0000   1.0000   1.0000
     1.0000   1.0000   1.0000   1.0000   1.0000   1.0000   1.0000   1.0000
     1.0000   1.0000   1.0000   1.0000   1.0000   1.0000   1.0000   1.0000
     0.0000   0.0000   0.0000   0.0000   0.0000   0.0000   0.0000   0.0000
     0.0000   0.0000   0.0000   0.0000   0.0000

          k =-0.1768 0.5303 0.5303 (  5239 PWs)   bands (ev):

   -64.8185 -64.8177 -64.8177 -64.8169 -31.7915 -31.7896 -31.7895 -31.7886
   -31.7875 -31.7852 -31.7851 -31.7807 -31.7759 -31.7714 -31.7714 -31.7680
   -28.5573 -28.4989 -28.4986 -28.4394 -10.7651 -10.6987 -10.6732 -10.5640
   -10.2981 -10.2529 -10.2108 -10.1993  -9.7810  -9.6652  -9.6645  -9.5274
    -7.2886  -7.1959  -7.0856  -7.0772  -6.8271  -6.7117  -6.6983  -6.6558
     4.8005   4.8433   4.9910   4.9998   5.4277   5.5582   5.8567   5.9956
     6.0773   6.1732   6.1799   6.4691   6.5079   6.6481   6.7771   6.8081
     6.9942   7.0599   7.1247   7.2087   7.2188   7.3395   7.4154   7.5676
    13.9624  14.0746  14.2572  14.7266  14.7275  14.9271  15.0658  15.1140
    15.3621  15.6960  15.7438  16.3776  16.6682

     occupation numbers 
     1.0000   1.0000   1.0000   1.0000   1.0000   1.0000   1.0000   1.0000
     1.0000   1.0000   1.0000   1.0000   1.0000   1.0000   1.0000   1.0000
     1.0000   1.0000   1.0000   1.0000   1.0000   1.0000   1.0000   1.0000
     1.0000   1.0000   1.0000   1.0000   1.0000   1.0000   1.0000   1.0000
     1.0000   1.0000   1.0000   1.0000   1.0000   1.0000   1.0000   1.0000
     1.0000   1.0000   1.0000   1.0000   1.0000   1.0000   1.0000   1.0000
     1.0000   1.0000   1.0000   1.0000   1.0000   1.0000   1.0000   1.0000
     1.0000   1.0000   1.0000   1.0000   1.0000   1.0000   1.0000   1.0000
     0.0000   0.0000   0.0000   0.0000   0.0000   0.0000   0.0000   0.0000
     0.0000   0.0000   0.0000   0.0000   0.0000

          k = 0.0000 0.3536 0.3536 (  5238 PWs)   bands (ev):

   -64.8185 -64.8177 -64.8177 -64.8169 -31.7913 -31.7896 -31.7896 -31.7886
   -31.7875 -31.7851 -31.7851 -31.7807 -31.7759 -31.7714 -31.7714 -31.7679
   -28.5577 -28.4987 -28.4987 -28.4394 -10.7664 -10.6910 -10.6910 -10.5161
   -10.2968 -10.2318 -10.2294 -10.2294  -9.7828  -9.6651  -9.6651  -9.5273
    -7.4153  -7.0774  -7.0774  -7.0578  -6.7937  -6.7937  -6.7153  -6.6203
     4.8330   4.8645   4.8645   4.9251   5.4881   5.4881   5.8001   5.8168
     5.9997   6.2756   6.2979   6.5422   6.5422   6.7342   6.7342   6.8841
     6.9290   7.0342   7.0342   7.3471   7.4277   7.4278   7.4443   7.5266
    13.9013  13.9725  13.9725  14.4696  14.7570  14.9932  14.9932  15.4412
    15.5072  15.5072  15.7741  16.2777  16.7834

     occupation numbers 
     1.0000   1.0000   1.0000   1.0000   1.0000   1.0000   1.0000   1.0000
     1.0000   1.0000   1.0000   1.0000   1.0000   1.0000   1.0000   1.0000
     1.0000   1.0000   1.0000   1.0000   1.0000   1.0000   1.0000   1.0000
     1.0000   1.0000   1.0000   1.0000   1.0000   1.0000   1.0000   1.0000
     1.0000   1.0000   1.0000   1.0000   1.0000   1.0000   1.0000   1.0000
     1.0000   1.0000   1.0000   1.0000   1.0000   1.0000   1.0000   1.0000
     1.0000   1.0000   1.0000   1.0000   1.0000   1.0000   1.0000   1.0000
     1.0000   1.0000   1.0000   1.0000   1.0000   1.0000   1.0000   1.0000
     0.0000   0.0000   0.0000   0.0000   0.0000   0.0000   0.0000   0.0000
     0.0000   0.0000   0.0000   0.0000   0.0000

     the Fermi energy is     9.4699 ev

!    total energy              =   -1059.75613362 Ry
     Harris-Foulkes estimate   =   -1059.75613360 Ry
     estimated scf accuracy    <          6.9E-11 Ry

     The total energy is the sum of the following terms:

     one-electron contribution =    -454.34129694 Ry
     hartree contribution      =     278.31359267 Ry
     xc contribution           =    -173.08844845 Ry
     ewald contribution        =    -710.63998089 Ry
     smearing contrib. (-TS)   =      -0.00000000 Ry

     convergence has been achieved in  13 iterations

     Forces acting on atoms (Ry/au):

     atom    1 type  1   force =   0.00000000E+00  0.00000000E+00  0.00000000E+00
     atom    2 type  3   force =   0.42075010E-01  0.42075010E-01 -0.42075010E-01
     atom    3 type  2   force =  -0.44624712E-29 -0.14874904E-29  0.44624712E-29
     atom    4 type  3   force =  -0.42075132E-01 -0.42075132E-01  0.42075108E-01
     atom    5 type  1   force =  -0.14874904E-29  0.14874904E-29 -0.14874904E-29
     atom    6 type  3   force =   0.42075132E-01  0.42075108E-01 -0.42075132E-01
     atom    7 type  2   force =  -0.14874904E-29  0.14874904E-29  0.00000000E+00
     atom    8 type  3   force =  -0.42075108E-01 -0.42075132E-01  0.42075132E-01
     atom    9 type  1   force =   0.74374519E-30 -0.74374519E-30  0.00000000E+00
     atom   10 type  3   force =   0.42075108E-01  0.42075132E-01 -0.42075132E-01
     atom   11 type  2   force =  -0.37187260E-30  0.37187260E-30 -0.11156178E-29
     atom   12 type  3   force =  -0.42075132E-01 -0.42075108E-01  0.42075132E-01
     atom   13 type  1   force =   0.74374519E-30  0.74374519E-30 -0.22312356E-29
     atom   14 type  3   force =   0.42075132E-01  0.42075132E-01 -0.42075108E-01
     atom   15 type  2   force =   0.00000000E+00  0.00000000E+00  0.00000000E+00
     atom   16 type  3   force =  -0.42075010E-01 -0.42075010E-01  0.42075010E-01
     The non-local contrib.  to forces
     atom    1 type  1   force =   0.00000000E+00  0.00000000E+00  0.00000000E+00
     atom    2 type  3   force =   0.12481694E+00  0.12481694E+00 -0.12481694E+00
     atom    3 type  2   force =   0.00000000E+00  0.00000000E+00  0.00000000E+00
     atom    4 type  3   force =  -0.12481732E+00 -0.12481732E+00  0.12481719E+00
     atom    5 type  1   force =   0.73113128E-25 -0.73113128E-25  0.48742085E-25
     atom    6 type  3   force =   0.12481732E+00  0.12481719E+00 -0.12481732E+00
     atom    7 type  2   force =  -0.24371043E-25 -0.24371043E-25 -0.24371043E-25
     atom    8 type  3   force =  -0.12481719E+00 -0.12481732E+00  0.12481732E+00
     atom    9 type  1   force =  -0.54834846E-25  0.18278282E-25  0.60927606E-26
     atom   10 type  3   force =   0.12481719E+00  0.12481732E+00 -0.12481732E+00
     atom   11 type  2   force =  -0.14622626E-24  0.97484170E-25 -0.48742085E-25
     atom   12 type  3   force =  -0.12481732E+00 -0.12481719E+00  0.12481732E+00
     atom   13 type  1   force =   0.00000000E+00  0.00000000E+00  0.48742085E-25
     atom   14 type  3   force =   0.12481732E+00  0.12481732E+00 -0.12481719E+00
     atom   15 type  2   force =  -0.48742085E-25  0.24371043E-25 -0.24371043E-25
     atom   16 type  3   force =  -0.12481694E+00 -0.12481694E+00  0.12481694E+00
     The ionic contribution  to forces
     atom    1 type  1   force =  -0.26353350E-13 -0.26353350E-13 -0.63123269E-13
     atom    2 type  3   force =   0.14559133E-13  0.14559133E-13  0.50157576E-14
     atom    3 type  2   force =  -0.70112949E-14 -0.70112949E-14 -0.56869178E-13
     atom    4 type  3   force =   0.50474356E-14  0.50474355E-14  0.30360331E-13
     atom    5 type  1   force =  -0.23638753E-13 -0.25233611E-13 -0.48813277E-13
     atom    6 type  3   force =   0.14923721E-13 -0.29930737E-14  0.91167173E-14
     atom    7 type  2   force =   0.33696908E-13 -0.26338427E-13  0.21441270E-13
     atom    8 type  3   force =  -0.41530178E-13 -0.14849507E-14  0.89594367E-14
     atom    9 type  1   force =  -0.25233611E-13 -0.23638753E-13 -0.48813277E-13
     atom   10 type  3   force =  -0.29930737E-14  0.14923721E-13  0.91167173E-14
     atom   11 type  2   force =  -0.26338427E-13  0.33696908E-13  0.21441270E-13
     atom   12 type  3   force =  -0.14849507E-14 -0.41530178E-13  0.89594367E-14
     atom   13 type  1   force =   0.82930147E-14  0.82930147E-14  0.41772339E-13
     atom   14 type  3   force =   0.19416900E-13  0.19416900E-13 -0.42750270E-13
     atom   15 type  2   force =   0.53106953E-13  0.53106953E-13  0.75441920E-13
     atom   16 type  3   force =   0.55395739E-14  0.55395738E-14  0.28744075E-13
     The local contribution  to forces
     atom    1 type  1   force =   0.11420112E-14  0.50839758E-15 -0.22244949E-15
     atom    2 type  3   force =  -0.81366003E-01 -0.81366003E-01  0.81366003E-01
     atom    3 type  2   force =  -0.17739168E-12 -0.17619735E-12  0.34950755E-14
     atom    4 type  3   force =   0.81366401E-01  0.81366401E-01 -0.81366490E-01
     atom    5 type  1   force =  -0.40071987E-13 -0.15872324E-14 -0.40511811E-13
     atom    6 type  3   force =  -0.81366401E-01 -0.81366490E-01  0.81366401E-01
     atom    7 type  2   force =  -0.39428706E-12 -0.17605165E-12 -0.16718763E-12
     atom    8 type  3   force =   0.81366490E-01  0.81366401E-01 -0.81366401E-01
     atom    9 type  1   force =  -0.17191307E-14 -0.40256427E-13 -0.40222831E-13
     atom   10 type  3   force =  -0.81366490E-01 -0.81366401E-01  0.81366401E-01
     atom   11 type  2   force =  -0.17726927E-12 -0.39255050E-12 -0.16608192E-12
     atom   12 type  3   force =   0.81366401E-01  0.81366490E-01 -0.81366401E-01
     atom   13 type  1   force =  -0.55486520E-13 -0.55024854E-13 -0.93102108E-13
     atom   14 type  3   force =  -0.81366401E-01 -0.81366401E-01  0.81366490E-01
     atom   15 type  2   force =  -0.34801275E-12 -0.34544119E-12 -0.33753820E-12
     atom   16 type  3   force =   0.81366003E-01  0.81366003E-01 -0.81366003E-01
     The core correction contribution to forces
     atom    1 type  1   force =   0.32713876E-15  0.31472330E-15  0.53174920E-15
     atom    2 type  3   force =  -0.13776909E-02 -0.13776909E-02  0.13776909E-02
     atom    3 type  2   force =   0.00000000E+00  0.00000000E+00  0.00000000E+00
     atom    4 type  3   force =   0.13776952E-02  0.13776952E-02 -0.13776940E-02
     atom    5 type  1   force =  -0.27596266E-15 -0.72426714E-16 -0.15020683E-15
     atom    6 type  3   force =  -0.13776952E-02 -0.13776940E-02  0.13776952E-02
     atom    7 type  2   force =   0.00000000E+00  0.00000000E+00  0.00000000E+00
     atom    8 type  3   force =   0.13776940E-02  0.13776952E-02 -0.13776952E-02
     atom    9 type  1   force =  -0.64585303E-16 -0.24129812E-15 -0.17214590E-15
     atom   10 type  3   force =  -0.13776940E-02 -0.13776952E-02  0.13776952E-02
     atom   11 type  2   force =   0.00000000E+00  0.00000000E+00  0.00000000E+00
     atom   12 type  3   force =   0.13776952E-02  0.13776940E-02 -0.13776952E-02
     atom   13 type  1   force =  -0.48713484E-15 -0.47186837E-15 -0.73682606E-15
     atom   14 type  3   force =  -0.13776952E-02 -0.13776952E-02  0.13776940E-02
     atom   15 type  2   force =   0.00000000E+00  0.00000000E+00  0.00000000E+00
     atom   16 type  3   force =   0.13776909E-02  0.13776909E-02 -0.13776909E-02
     The Hubbard contrib.    to forces
     atom    1 type  1   force =   0.00000000E+00  0.00000000E+00  0.00000000E+00
     atom    2 type  3   force =   0.00000000E+00  0.00000000E+00  0.00000000E+00
     atom    3 type  2   force =   0.00000000E+00  0.00000000E+00  0.00000000E+00
     atom    4 type  3   force =   0.00000000E+00  0.00000000E+00  0.00000000E+00
     atom    5 type  1   force =   0.00000000E+00  0.00000000E+00  0.00000000E+00
     atom    6 type  3   force =   0.00000000E+00  0.00000000E+00  0.00000000E+00
     atom    7 type  2   force =   0.00000000E+00  0.00000000E+00  0.00000000E+00
     atom    8 type  3   force =   0.00000000E+00  0.00000000E+00  0.00000000E+00
     atom    9 type  1   force =   0.00000000E+00  0.00000000E+00  0.00000000E+00
     atom   10 type  3   force =   0.00000000E+00  0.00000000E+00  0.00000000E+00
     atom   11 type  2   force =   0.00000000E+00  0.00000000E+00  0.00000000E+00
     atom   12 type  3   force =   0.00000000E+00  0.00000000E+00  0.00000000E+00
     atom   13 type  1   force =   0.00000000E+00  0.00000000E+00  0.00000000E+00
     atom   14 type  3   force =   0.00000000E+00  0.00000000E+00  0.00000000E+00
     atom   15 type  2   force =   0.00000000E+00  0.00000000E+00  0.00000000E+00
     atom   16 type  3   force =   0.00000000E+00  0.00000000E+00  0.00000000E+00
     The SCF correction term to forces
     atom    1 type  1   force =  -0.12431267E-14 -0.13619352E-14 -0.17778773E-15
     atom    2 type  3   force =   0.17596765E-05  0.17596765E-05 -0.17596765E-05
     atom    3 type  2   force =   0.79283557E-15 -0.18069487E-15 -0.19677460E-14
     atom    4 type  3   force =  -0.19087812E-05 -0.19087812E-05  0.20989398E-05
     atom    5 type  1   force =   0.23643046E-15 -0.19858126E-14  0.13441482E-14
     atom    6 type  3   force =   0.19087812E-05  0.20989398E-05 -0.19087812E-05
     atom    7 type  2   force =   0.21806475E-14 -0.18562331E-14 -0.17207510E-14
     atom    8 type  3   force =  -0.20989398E-05 -0.19087812E-05  0.19087812E-05
     atom    9 type  1   force =  -0.18716961E-14  0.22202891E-15  0.12617348E-14
     atom   10 type  3   force =   0.20989398E-05  0.19087812E-05 -0.19087812E-05
     atom   11 type  2   force =  -0.27527320E-15  0.24551618E-14 -0.27677977E-14
     atom   12 type  3   force =  -0.19087812E-05 -0.20989398E-05  0.19087812E-05
     atom   13 type  1   force =  -0.12912555E-14 -0.13482946E-14  0.20916686E-14
     atom   14 type  3   force =   0.19087812E-05  0.19087812E-05 -0.20989398E-05
     atom   15 type  2   force =   0.15988080E-14  0.23391779E-14  0.95535254E-15
     atom   16 type  3   force =  -0.17596765E-05 -0.17596765E-05  0.17596765E-05

     Total force =     0.206125     Total SCF correction =     0.000009


     entering subroutine stress ...

          total   stress  (Ry/bohr**3)                   (kbar)     P=   41.76
   0.0002838927  -0.0000404776   0.0000404776         41.76     -5.95      5.95
  -0.0000404776   0.0002838927   0.0000404776         -5.95     41.76      5.95
   0.0000404776   0.0000404776   0.0002838927          5.95      5.95     41.76

     kinetic stress (kbar)  21414.86     -3.70      3.70
                               -3.70  21414.86      3.70
                                3.70      3.70  21414.86

     local   stress (kbar)  -2959.03      0.66     -0.66
                                0.66  -2959.03     -0.66
                               -0.66     -0.66  -2959.03

     nonloc. stress (kbar)   5399.09      1.22     -1.22
                                1.22   5399.09     -1.22
                               -1.22     -1.22   5399.09

     hartree stress (kbar)  11144.01     -4.04      4.04
                               -4.04  11144.01      4.04
                                4.04      4.04  11144.01

     exc-cor stress (kbar)  -5426.71     -0.08      0.08
                               -0.08  -5426.71      0.08
                                0.08      0.08  -5426.71

     corecor stress (kbar)  -1075.58     -0.01      0.01
                               -0.01  -1075.58      0.01
                                0.01      0.01  -1075.58

     ewald   stress (kbar) -28454.88     -0.00     -0.00
                               -0.00 -28454.88     -0.00
                               -0.00     -0.00 -28454.88

     hubbard stress (kbar)      0.00      0.00      0.00
                                0.00      0.00      0.00
                                0.00      0.00      0.00

     london  stress (kbar)      0.00      0.00      0.00
                                0.00      0.00      0.00
                                0.00      0.00      0.00

     XDM     stress (kbar)      0.00      0.00      0.00
                                0.00      0.00      0.00
                                0.00      0.00      0.00

     dft-nl  stress (kbar)      0.00      0.00      0.00
                                0.00      0.00      0.00
                                0.00      0.00      0.00



     Writing output data file mix222.ordered.save

     init_run     :      7.67s CPU      8.42s WALL (       1 calls)
     electrons    :    268.25s CPU    299.84s WALL (       1 calls)
     forces       :      2.91s CPU      2.93s WALL (       1 calls)
     stress       :      6.76s CPU      6.74s WALL (       1 calls)

     Called by init_run:
     wfcinit      :      6.58s CPU      7.29s WALL (       1 calls)
     potinit      :      0.12s CPU      0.13s WALL (       1 calls)

     Called by electrons:
     c_bands      :    227.85s CPU    257.36s WALL (      13 calls)
     sum_band     :     33.93s CPU     35.70s WALL (      13 calls)
     v_of_rho     :      0.98s CPU      1.02s WALL (      14 calls)
     v_h          :      0.05s CPU      0.05s WALL (      14 calls)
     v_xc         :      1.06s CPU      1.12s WALL (      16 calls)
     newd         :      4.38s CPU      4.53s WALL (      14 calls)
     mix_rho      :      1.30s CPU      1.41s WALL (      13 calls)

     Called by c_bands:
     init_us_2    :      1.14s CPU      1.24s WALL (     377 calls)
     cegterg      :    221.59s CPU    250.66s WALL (     169 calls)

     Called by sum_band:
     sum_band:bec :      0.26s CPU      0.24s WALL (     169 calls)
     addusdens    :      4.04s CPU      4.27s WALL (      13 calls)

     Called by *egterg:
     h_psi        :    129.04s CPU    133.48s WALL (     618 calls)
     s_psi        :     13.11s CPU     11.59s WALL (     618 calls)
     g_psi        :      0.15s CPU      0.16s WALL (     436 calls)
     cdiaghg      :     33.14s CPU     55.53s WALL (     605 calls)
     cegterg:over :     24.53s CPU     25.91s WALL (     436 calls)
     cegterg:upda :      6.92s CPU      7.25s WALL (     436 calls)
     cegterg:last :      3.54s CPU      3.24s WALL (     169 calls)

     Called by h_psi:
     h_psi:vloc   :     93.66s CPU     97.52s WALL (     618 calls)
     h_psi:vnl    :     35.16s CPU     35.75s WALL (     618 calls)
     add_vuspsi   :     13.12s CPU     12.56s WALL (     618 calls)

     General routines
     calbec       :     31.63s CPU     32.82s WALL (     813 calls)
     fft          :      1.55s CPU      1.57s WALL (     245 calls)
     ffts         :      0.84s CPU      0.90s WALL (     333 calls)
     fftw         :    106.37s CPU    111.49s WALL (   76525 calls)
     interpolate  :      0.14s CPU      0.13s WALL (      27 calls)

     Parallel routines
     fft_scatter  :     50.43s CPU     52.77s WALL (   77103 calls)

     PWSCF        :  4m46.65s CPU     5m19.17s WALL


   This run was terminated on:  16:19:11   3Oct2017            

=------------------------------------------------------------------------------=
   JOB DONE.
=------------------------------------------------------------------------------=
