
     Program PWSCF v.5.1 starts on 18Aug2017 at 20: 9:23 

     This program is part of the open-source Quantum ESPRESSO suite
     for quantum simulation of materials; please cite
         "P. Giannozzi et al., J. Phys.:Condens. Matter 21 395502 (2009);
          URL http://www.quantum-espresso.org", 
     in publications or presentations arising from this work. More details at
     http://www.quantum-espresso.org/quote

     Parallel version (MPI), running on     8 processors
     R & G space division:  proc/nbgrp/npool/nimage =       8
     Reading input from /tmp/mix222.09.21296/mix222.09.t
Warning: card &IONS ignored
Warning: card   ION_DYNAMICS='BFGS', ignored
Warning: card / ignored
Warning: card &CELL ignored
Warning: card  CELL_DYNAMICS = 'BFGS' ignored
Warning: card / ignored
     Message from routine read_cards :
     DEPRECATED: no units specified in CELL_PARAMETERS card

     Current dimensions of program PWSCF are:
     Max number of different atomic species (ntypx) = 10
     Max number of k-points (npk) =  40000
     Max angular momentum in pseudopotentials (lmaxx) =  3
 kfg - two_fermi_energies  F

     Subspace diagonalization in iterative solution of the eigenvalue problem:
     a serial algorithm will be used


     Parallelization info
     --------------------
     sticks:   dense  smooth     PW     G-vecs:    dense   smooth      PW
     Min         247     199     56                 7318     5237     814
     Max         248     200     57                 7319     5247     816
     Sum        1981    1597    455                58549    41919    6523



     bravais-lattice index     =            0
     lattice parameter (alat)  =    12.085969457  a.u.
     unit-cell volume          =    1227.7034 (a.u.)^3
     number of atoms/cell      =           16
     number of atomic types    =            3
     number of electrons       =       128.00
     number of Kohn-Sham states=           77
     kinetic-energy cutoff     =      40.0000  Ry
     charge density cutoff     =     200.0000  Ry
     convergence threshold     =      1.0E-10
     mixing beta               =       0.3000
     number of iterations used =            8  local-TF  mixing
     Exchange-correlation      = SLA  PW   PSX  PSC ( 1  4 10  8 0)
     A smooth kinetic-energy cutoff is imposed at      39.5000 Ry
     height of the smooth step-function =             800.0000 Ry
     width of the smooth step-function  =               1.0000 Ry


     celldm(1)=  12.085969  celldm(2)=   0.000000  celldm(3)=   0.000000
     celldm(4)=   0.000000  celldm(5)=   0.000000  celldm(6)=   0.000000

     crystal axes: (cart. coord. in units of alat)
               a(1) = (  -0.003058481981   0.708245706339   0.705959393407 )  
               a(2) = (   0.694649923721   0.003909103516   0.708951971751 )  
               a(3) = (   0.698236704918   0.706114677476   0.002132783289 )  

     reciprocal axes: (cart. coord. in units 2 pi/alat)
               b(1) = ( -0.719840  0.709690  0.701405 )  
               b(2) = (  0.714641 -0.708825  0.714217 )  
               b(3) = (  0.718056  0.708293 -0.707476 )  


     PseudoPot. # 1 for Ca read from file:
     /users/kfg/psuedo/gbrv_1.5/ca.pbesol.UPF
     MD5 check sum: 0533207b58cddeaa036efa5b63902087
     Pseudo is Ultrasoft + core correction, Zval = 10.0
     Generated by new atomic code, or converted to UPF format
     Using radial grid of  845 points,  6 beta functions with: 
                l(1) =   0
                l(2) =   0
                l(3) =   1
                l(4) =   1
                l(5) =   2
                l(6) =   2
     Q(r) pseudized with  8 coefficients,  rinner =    1.500   1.500   1.500
                                                       1.500   1.500

     PseudoPot. # 2 for Mg read from file:
     /users/kfg/psuedo/gbrv_1.5/mg.pbesol.UPF
     MD5 check sum: 4059f37963cf5867752dbf5ab2400678
     Pseudo is Ultrasoft, Zval = 10.0
     Generated by new atomic code, or converted to UPF format
     Using radial grid of  821 points,  7 beta functions with: 
                l(1) =   0
                l(2) =   0
                l(3) =   0
                l(4) =   1
                l(5) =   1
                l(6) =   2
                l(7) =   2
     Q(r) pseudized with  8 coefficients,  rinner =    1.200   1.200   1.200
                                                       1.200   1.200

     PseudoPot. # 3 for O  read from file:
     /users/kfg/psuedo/gbrv_1.5/o.pbesol.UPF
     MD5 check sum: 501638753501ef6325af9037351f7734
     Pseudo is Ultrasoft + core correction, Zval =  6.0
     Generated by new atomic code, or converted to UPF format
     Using radial grid of  737 points,  5 beta functions with: 
                l(1) =   0
                l(2) =   0
                l(3) =   1
                l(4) =   1
                l(5) =   2
     Q(r) pseudized with  8 coefficients,  rinner =    0.900   0.900   0.900
                                                       0.900   0.900

     atomic species   valence    mass     pseudopotential
        Ca            10.00    40.07800     Ca( 1.00)
        Mg            10.00    40.07800     Mg( 1.00)
        O              6.00    15.99940     O ( 1.00)

     No symmetry found


                                    s                        frac. trans.

      isym =  1     identity                                     

 cryst.   s( 1) = (     1          0          0      )
                  (     0          1          0      )
                  (     0          0          1      )

 cart.    s( 1) = (  1.0000000  0.0000000 -0.0000000 )
                  (  0.0000000  1.0000000 -0.0000000 )
                  ( -0.0000000  0.0000000  1.0000000 )


     point group C_1 (1)    
     there are  1 classes
     the character table:

       E    
A      1.00

     the symmetry operations in each class:
     E        1

   Cartesian axes

     site n.     atom                  positions (alat units)
         1           Mg  tau(   1) = (    0.00430888303    0.00736924743   -0.02265152159  )
         2           O   tau(   2) = (    0.33099448022    0.33739806215    0.35799057607  )
         3           Ca  tau(   3) = (    0.37289235438    0.37725026223    0.00372259776  )
         4           O   tau(   4) = (    0.71440462809    0.72874283736    0.35498933862  )
         5           Ca  tau(   5) = (    0.35843254517    0.00799150916    0.35676979594  )
         6           O   tau(   6) = (    0.69914866434    0.34830476801    0.71637108601  )
         7           Mg  tau(   7) = (    0.71328195170    0.36628890765    0.37653983943  )
         8           O   tau(   8) = (    1.04740522772    0.68908063745    0.72337332926  )
         9           Mg  tau(   9) = (    0.02035406228    0.36004308409    0.36295860334  )
        10           O   tau(  10) = (    0.32818763415    0.68785705403    0.71441003625  )
        11           Ca  tau(  11) = (    0.34407997292    0.70157137434    0.37877934689  )
        12           O   tau(  12) = (    0.70333627211    1.05164750774    0.69717389131  )
        13           Ca  tau(  13) = (    0.34470062601    0.37830993480    0.71119537786  )
        14           O   tau(  14) = (    0.70231097874    0.72348242891    1.07793272470  )
        15           Mg  tau(  15) = (    0.67784363718    0.70141099208    0.69554958873  )
        16           O   tau(  16) = (    1.04541059371    1.08264702581    1.07148941519  )

   Crystallographic axes

     site n.     atom                  positions (cryst. coord.)
         1           Mg  tau(   1) = (   -0.01375971204   -0.01832230386    0.02433900432  )
         2           O   tau(   2) = (    0.25228143052    0.25306892072    0.22337950849  )
         3           Ca  tau(   3) = (    0.00191908255    0.00173843108    0.53232753338  )
         4           O   tau(   4) = (    0.25191599247    0.24753097568    0.77799939678  )
         5           Ca  tau(   5) = (   -0.00210242167    0.50529706555    0.01062898420  )
         6           O   tau(   6) = (    0.24637963536    0.76439750307    0.24191444481  )
         7           Mg  tau(   7) = (    0.01060978975    0.51903689037    0.50522331862  )
         8           O   tau(   8) = (    0.24244738340    0.77672653427    0.72839728605  )
         9           Mg  tau(   9) = (    0.49544831126    0.01856940246    0.01284685831  )
        10           O   tau(  10) = (    0.75301356232    0.25720966629    0.21743348125  )
        11           Ca  tau(  11) = (    0.51589352439    0.01913280877    0.47600937829  )
        12           O   tau(  12) = (    0.72905562356    0.25513209349    0.75667546922  )
        13           Ca  tau(  13) = (    0.51918954059    0.48612937562    0.01231505608  )
        14           O   tau(  14) = (    0.76396427274    0.75895547041    0.25412469557  )
        15           Mg  tau(  15) = (    0.49770754370    0.48401038637    0.49144951324  )
        16           O   tau(  16) = (    0.76736371896    0.74496169896    0.75944156291  )

     number of k points=    36  gaussian smearing, width (Ry)=  0.0050
                       cart. coord. in units 2pi/alat
        k(    1) = (   0.0000000   0.0000000   0.0000000), wk =   0.0312500
        k(    2) = (   0.1795140   0.1770732  -0.1768689), wk =   0.0625000
        k(    3) = (  -0.3590280  -0.3541464   0.3537378), wk =   0.0312500
        k(    4) = (   0.1786603  -0.1772063   0.1785542), wk =   0.0625000
        k(    5) = (   0.3581743  -0.0001331   0.0016853), wk =   0.0625000
        k(    6) = (  -0.1803677  -0.5313527   0.5322921), wk =   0.0625000
        k(    7) = (  -0.0008537  -0.3542795   0.3554232), wk =   0.0625000
        k(    8) = (  -0.3573205   0.3544126  -0.3571085), wk =   0.0312500
        k(    9) = (  -0.1778066   0.5314858  -0.5339774), wk =   0.0625000
        k(   10) = (  -0.7163485   0.0002663  -0.0033706), wk =   0.0312500
        k(   11) = (  -0.1799599   0.1774225   0.1753512), wk =   0.0625000
        k(   12) = (  -0.0004460   0.3544957  -0.0015177), wk =   0.0625000
        k(   13) = (  -0.5389879  -0.1767238   0.5290891), wk =   0.0625000
        k(   14) = (  -0.3594739   0.0003494   0.3522202), wk =   0.0625000
        k(   15) = (  -0.0012997   0.0002162   0.3539055), wk =   0.0625000
        k(   16) = (   0.1782143   0.1772894   0.1770365), wk =   0.0625000
        k(   17) = (  -0.3603276  -0.3539301   0.7076433), wk =   0.0625000
        k(   18) = (  -0.1808137  -0.1768570   0.5307744), wk =   0.0625000
        k(   19) = (  -0.5372805   0.5318352  -0.1817572), wk =   0.0625000
        k(   20) = (  -0.3577665   0.7089083  -0.3586262), wk =   0.0625000
        k(   21) = (  -0.8963085   0.1776888   0.1719806), wk =   0.0625000
        k(   22) = (  -0.7167945   0.3547620  -0.0048883), wk =   0.0625000
        k(   23) = (  -0.3586202   0.3546288  -0.0032030), wk =   0.0625000
        k(   24) = (  -0.1791062   0.5317020  -0.1800719), wk =   0.0625000
        k(   25) = (  -0.7176482   0.0004825   0.3505348), wk =   0.0625000
        k(   26) = (  -0.5381342   0.1775557   0.1736659), wk =   0.0625000
        k(   27) = (   0.3599199  -0.3548451  -0.3507025), wk =   0.0312500
        k(   28) = (   0.5394339  -0.1777719  -0.5275714), wk =   0.0625000
        k(   29) = (   0.0008919  -0.7089914   0.0030354), wk =   0.0312500
        k(   30) = (   0.5385802  -0.5320514  -0.1721482), wk =   0.0625000
        k(   31) = (   0.7180941  -0.3549782  -0.3490172), wk =   0.0625000
        k(   32) = (   0.1795522  -0.8861977   0.1815896), wk =   0.0625000
        k(   33) = (   0.3590662  -0.7091246   0.0047207), wk =   0.0625000
        k(   34) = (   0.0025994  -0.0004324  -0.7078109), wk =   0.0312500
        k(   35) = (   0.1821133   0.1766407  -0.8846798), wk =   0.0625000
        k(   36) = (  -0.3564286  -0.3545788  -0.3540731), wk =   0.0312500

                       cryst. coord.
        k(    1) = (   0.0000000   0.0000000   0.0000000), wk =   0.0312500
        k(    2) = (  -0.0000000   0.0000000   0.2500000), wk =   0.0625000
        k(    3) = (   0.0000000   0.0000000  -0.5000000), wk =   0.0312500
        k(    4) = (   0.0000000   0.2500000   0.0000000), wk =   0.0625000
        k(    5) = (  -0.0000000   0.2500000   0.2500000), wk =   0.0625000
        k(    6) = (  -0.0000000   0.2500000  -0.5000000), wk =   0.0625000
        k(    7) = (   0.0000000   0.2500000  -0.2500000), wk =   0.0625000
        k(    8) = (   0.0000000  -0.5000000  -0.0000000), wk =   0.0312500
        k(    9) = (   0.0000000  -0.5000000   0.2500000), wk =   0.0625000
        k(   10) = (   0.0000000  -0.5000000  -0.5000000), wk =   0.0312500
        k(   11) = (   0.2500000  -0.0000000   0.0000000), wk =   0.0625000
        k(   12) = (   0.2500000  -0.0000000   0.2500000), wk =   0.0625000
        k(   13) = (   0.2500000   0.0000000  -0.5000000), wk =   0.0625000
        k(   14) = (   0.2500000   0.0000000  -0.2500000), wk =   0.0625000
        k(   15) = (   0.2500000   0.2500000   0.0000000), wk =   0.0625000
        k(   16) = (   0.2500000   0.2500000   0.2500000), wk =   0.0625000
        k(   17) = (   0.2500000   0.2500000  -0.5000000), wk =   0.0625000
        k(   18) = (   0.2500000   0.2500000  -0.2500000), wk =   0.0625000
        k(   19) = (   0.2500000  -0.5000000   0.0000000), wk =   0.0625000
        k(   20) = (   0.2500000  -0.5000000   0.2500000), wk =   0.0625000
        k(   21) = (   0.2500000  -0.5000000  -0.5000000), wk =   0.0625000
        k(   22) = (   0.2500000  -0.5000000  -0.2500000), wk =   0.0625000
        k(   23) = (   0.2500000  -0.2500000  -0.0000000), wk =   0.0625000
        k(   24) = (   0.2500000  -0.2500000   0.2500000), wk =   0.0625000
        k(   25) = (   0.2500000  -0.2500000  -0.5000000), wk =   0.0625000
        k(   26) = (   0.2500000  -0.2500000  -0.2500000), wk =   0.0625000
        k(   27) = (  -0.5000000   0.0000000  -0.0000000), wk =   0.0312500
        k(   28) = (  -0.5000000   0.0000000   0.2500000), wk =   0.0625000
        k(   29) = (  -0.5000000   0.0000000  -0.5000000), wk =   0.0312500
        k(   30) = (  -0.5000000   0.2500000  -0.0000000), wk =   0.0625000
        k(   31) = (  -0.5000000   0.2500000   0.2500000), wk =   0.0625000
        k(   32) = (  -0.5000000   0.2500000  -0.5000000), wk =   0.0625000
        k(   33) = (  -0.5000000   0.2500000  -0.2500000), wk =   0.0625000
        k(   34) = (  -0.5000000  -0.5000000  -0.0000000), wk =   0.0312500
        k(   35) = (  -0.5000000  -0.5000000   0.2500000), wk =   0.0625000
        k(   36) = (  -0.5000000  -0.5000000  -0.5000000), wk =   0.0312500

     Dense  grid:    58549 G-vectors     FFT dimensions: (  60,  54,  60)

     Smooth grid:    41919 G-vectors     FFT dimensions: (  50,  50,  50)

     Largest allocated arrays     est. size (Mb)     dimensions
        Kohn-Sham Wavefunctions         0.78 Mb     (     668,   77)
        NL pseudopotentials             2.57 Mb     (     668,  252)
        Each V/rho on FFT grid          0.40 Mb     (   25920)
        Each G-vector array             0.06 Mb     (    7319)
        G-vector shells                 0.06 Mb     (    7234)
     Largest temporary arrays     est. size (Mb)     dimensions
        Auxiliary wavefunctions         3.14 Mb     (     668,  308)
        Each subspace H/S matrix        1.45 Mb     (     308,  308)
        Each <psi_i|beta_j> matrix      0.30 Mb     (     252,   77)
        Arrays for rho mixing           3.16 Mb     (   25920,    8)

     Check: negative/imaginary core charge=   -0.000003    0.000000

     Initial potential from superposition of free atoms

     starting charge  126.77837, renormalised to  128.00000
     Starting wfc are   92 randomized atomic wfcs

     total cpu time spent up to now is       18.7 secs

     per-process dynamical memory:    54.2 Mb

     Self-consistent Calculation

     iteration #  1     ecut=    40.00 Ry     beta=0.30
     Davidson diagonalization with overlap
     ethr =  1.00E-02,  avg # of iterations =  2.8

     total cpu time spent up to now is       65.9 secs

     total energy              =   -1059.90596463 Ry
     Harris-Foulkes estimate   =   -1060.53206649 Ry
     estimated scf accuracy    <       3.23104875 Ry

     iteration #  2     ecut=    40.00 Ry     beta=0.30
     Davidson diagonalization with overlap
     ethr =  2.52E-03,  avg # of iterations =  1.0

     total cpu time spent up to now is      101.8 secs

     total energy              =   -1059.45989436 Ry
     Harris-Foulkes estimate   =   -1060.00424445 Ry
     estimated scf accuracy    <       1.36974183 Ry

     iteration #  3     ecut=    40.00 Ry     beta=0.30
     Davidson diagonalization with overlap
     ethr =  1.07E-03,  avg # of iterations =  2.1

     total cpu time spent up to now is      146.2 secs

     total energy              =   -1059.62050520 Ry
     Harris-Foulkes estimate   =   -1059.67931871 Ry
     estimated scf accuracy    <       0.19168179 Ry

     iteration #  4     ecut=    40.00 Ry     beta=0.30
     Davidson diagonalization with overlap
     ethr =  1.50E-04,  avg # of iterations =  4.3

     total cpu time spent up to now is      200.1 secs

     total energy              =   -1059.57351391 Ry
     Harris-Foulkes estimate   =   -1059.63372850 Ry
     estimated scf accuracy    <       0.10008452 Ry

     iteration #  5     ecut=    40.00 Ry     beta=0.30
     Davidson diagonalization with overlap
     ethr =  7.82E-05,  avg # of iterations =  4.3

     total cpu time spent up to now is      259.5 secs

     total energy              =   -1059.58571426 Ry
     Harris-Foulkes estimate   =   -1059.58937229 Ry
     estimated scf accuracy    <       0.01839285 Ry

     iteration #  6     ecut=    40.00 Ry     beta=0.30
     Davidson diagonalization with overlap
     ethr =  1.44E-05,  avg # of iterations =  5.8

     total cpu time spent up to now is      319.0 secs

     total energy              =   -1059.58389357 Ry
     Harris-Foulkes estimate   =   -1059.58656345 Ry
     estimated scf accuracy    <       0.00849133 Ry

     iteration #  7     ecut=    40.00 Ry     beta=0.30
     Davidson diagonalization with overlap
     ethr =  6.63E-06,  avg # of iterations =  4.4

     total cpu time spent up to now is      373.1 secs

     total energy              =   -1059.58418106 Ry
     Harris-Foulkes estimate   =   -1059.58462198 Ry
     estimated scf accuracy    <       0.00111737 Ry

     iteration #  8     ecut=    40.00 Ry     beta=0.30
     Davidson diagonalization with overlap
     ethr =  8.73E-07,  avg # of iterations =  4.1

     total cpu time spent up to now is      429.7 secs

     total energy              =   -1059.58433154 Ry
     Harris-Foulkes estimate   =   -1059.58434455 Ry
     estimated scf accuracy    <       0.00008239 Ry

     iteration #  9     ecut=    40.00 Ry     beta=0.30
     Davidson diagonalization with overlap
     ethr =  6.44E-08,  avg # of iterations =  1.1

     total cpu time spent up to now is      465.9 secs

     total energy              =   -1059.58431268 Ry
     Harris-Foulkes estimate   =   -1059.58433382 Ry
     estimated scf accuracy    <       0.00004974 Ry

     iteration # 10     ecut=    40.00 Ry     beta=0.30
     Davidson diagonalization with overlap
     ethr =  3.89E-08,  avg # of iterations =  2.0

     total cpu time spent up to now is      510.1 secs

     total energy              =   -1059.58431811 Ry
     Harris-Foulkes estimate   =   -1059.58431879 Ry
     estimated scf accuracy    <       0.00000507 Ry

     iteration # 11     ecut=    40.00 Ry     beta=0.30
     Davidson diagonalization with overlap
     ethr =  3.96E-09,  avg # of iterations =  1.0

     total cpu time spent up to now is      546.3 secs

     total energy              =   -1059.58431757 Ry
     Harris-Foulkes estimate   =   -1059.58431832 Ry
     estimated scf accuracy    <       0.00000168 Ry

     iteration # 12     ecut=    40.00 Ry     beta=0.30
     Davidson diagonalization with overlap
     ethr =  1.32E-09,  avg # of iterations =  2.0

     total cpu time spent up to now is      591.9 secs

     total energy              =   -1059.58431779 Ry
     Harris-Foulkes estimate   =   -1059.58431781 Ry
     estimated scf accuracy    <       0.00000014 Ry

     iteration # 13     ecut=    40.00 Ry     beta=0.30
     Davidson diagonalization with overlap
     ethr =  1.13E-10,  avg # of iterations =  2.2

     total cpu time spent up to now is      637.6 secs

     total energy              =   -1059.58431781 Ry
     Harris-Foulkes estimate   =   -1059.58431781 Ry
     estimated scf accuracy    <       0.00000005 Ry

     iteration # 14     ecut=    40.00 Ry     beta=0.30
     Davidson diagonalization with overlap
     ethr =  3.77E-11,  avg # of iterations =  1.7

     total cpu time spent up to now is      675.2 secs

     total energy              =   -1059.58431780 Ry
     Harris-Foulkes estimate   =   -1059.58431781 Ry
     estimated scf accuracy    <       0.00000003 Ry

     iteration # 15     ecut=    40.00 Ry     beta=0.30
     Davidson diagonalization with overlap
     ethr =  2.22E-11,  avg # of iterations =  2.0

     total cpu time spent up to now is      719.5 secs

     total energy              =   -1059.58431781 Ry
     Harris-Foulkes estimate   =   -1059.58431781 Ry
     estimated scf accuracy    <          3.8E-09 Ry

     iteration # 16     ecut=    40.00 Ry     beta=0.30
     Davidson diagonalization with overlap
     ethr =  2.95E-12,  avg # of iterations =  2.0

     total cpu time spent up to now is      764.5 secs

     total energy              =   -1059.58431781 Ry
     Harris-Foulkes estimate   =   -1059.58431781 Ry
     estimated scf accuracy    <          8.5E-10 Ry

     iteration # 17     ecut=    40.00 Ry     beta=0.30
     Davidson diagonalization with overlap
     ethr =  6.64E-13,  avg # of iterations =  1.1

     total cpu time spent up to now is      800.0 secs

     total energy              =   -1059.58431781 Ry
     Harris-Foulkes estimate   =   -1059.58431781 Ry
     estimated scf accuracy    <          4.3E-10 Ry

     iteration # 18     ecut=    40.00 Ry     beta=0.30
     Davidson diagonalization with overlap
     ethr =  3.33E-13,  avg # of iterations =  1.4

     total cpu time spent up to now is      837.7 secs

     total energy              =   -1059.58431781 Ry
     Harris-Foulkes estimate   =   -1059.58431781 Ry
     estimated scf accuracy    <          1.9E-10 Ry

     iteration # 19     ecut=    40.00 Ry     beta=0.30
     Davidson diagonalization with overlap
     ethr =  1.50E-13,  avg # of iterations =  2.0

     total cpu time spent up to now is      880.8 secs

     End of self-consistent calculation

          k = 0.0000 0.0000 0.0000 (  5177 PWs)   bands (ev):

   -65.5460 -65.4366 -64.8811 -64.6864 -32.5226 -32.5100 -32.4906 -32.4054
   -32.4021 -32.3863 -31.8613 -31.8503 -31.8443 -31.6675 -31.6554 -31.6472
   -28.7446 -28.2163 -28.0530 -27.9688 -11.3231 -10.9461 -10.6255 -10.3187
   -10.2526 -10.0049  -9.7804  -9.6887  -9.4934  -9.4103  -9.1406  -9.0804
    -8.2289  -7.5457  -7.5027  -7.1434  -6.6024  -6.5245  -5.8806  -5.7289
     3.3660   3.4428   5.0290   5.0695   5.1597   5.2864   5.4791   6.2280
     6.2861   6.4204   6.4757   6.5762   6.7721   6.8270   7.0452   7.1392
     7.1577   7.2053   7.5717   7.7029   7.7490   7.8967   7.9262   8.0363
    11.3852  12.8151  13.0191  13.2749  14.4738  14.7385  14.9315  15.6306
    15.8627  16.1993  16.3048  16.5709  16.7304

     occupation numbers 
     1.0000   1.0000   1.0000   1.0000   1.0000   1.0000   1.0000   1.0000
     1.0000   1.0000   1.0000   1.0000   1.0000   1.0000   1.0000   1.0000
     1.0000   1.0000   1.0000   1.0000   1.0000   1.0000   1.0000   1.0000
     1.0000   1.0000   1.0000   1.0000   1.0000   1.0000   1.0000   1.0000
     1.0000   1.0000   1.0000   1.0000   1.0000   1.0000   1.0000   1.0000
     1.0000   1.0000   1.0000   1.0000   1.0000   1.0000   1.0000   1.0000
     1.0000   1.0000   1.0000   1.0000   1.0000   1.0000   1.0000   1.0000
     1.0000   1.0000   1.0000   1.0000   1.0000   1.0000   1.0000   1.0000
     0.0000   0.0000   0.0000   0.0000   0.0000   0.0000   0.0000   0.0000
     0.0000   0.0000   0.0000   0.0000   0.0000

          k = 0.1795 0.1771-0.1769 (  5232 PWs)   bands (ev):

   -65.5460 -65.4366 -64.8811 -64.6864 -32.5226 -32.5100 -32.4906 -32.4053
   -32.4021 -32.3863 -31.8614 -31.8503 -31.8443 -31.6675 -31.6555 -31.6473
   -28.7430 -28.2175 -28.0419 -27.9801 -11.2360 -10.8245 -10.5877 -10.4034
   -10.2327 -10.0503  -9.8847  -9.7402  -9.6314  -9.4775  -9.2617  -9.1514
    -7.9019  -7.4045  -7.2165  -6.9444  -6.7537  -6.6452  -6.0558  -5.8795
     3.6134   3.7897   4.9516   5.2084   5.3393   5.4894   5.5778   6.1384
     6.3291   6.4131   6.4928   6.5493   6.6760   6.7297   6.8284   6.9808
     7.0416   7.1441   7.2860   7.3529   7.5176   7.5936   7.7775   7.8602
    12.1854  13.2460  13.4819  13.7540  14.5080  14.8748  15.1612  15.4534
    15.6968  15.9749  16.3038  16.4660  16.7032

     occupation numbers 
     1.0000   1.0000   1.0000   1.0000   1.0000   1.0000   1.0000   1.0000
     1.0000   1.0000   1.0000   1.0000   1.0000   1.0000   1.0000   1.0000
     1.0000   1.0000   1.0000   1.0000   1.0000   1.0000   1.0000   1.0000
     1.0000   1.0000   1.0000   1.0000   1.0000   1.0000   1.0000   1.0000
     1.0000   1.0000   1.0000   1.0000   1.0000   1.0000   1.0000   1.0000
     1.0000   1.0000   1.0000   1.0000   1.0000   1.0000   1.0000   1.0000
     1.0000   1.0000   1.0000   1.0000   1.0000   1.0000   1.0000   1.0000
     1.0000   1.0000   1.0000   1.0000   1.0000   1.0000   1.0000   1.0000
     0.0000   0.0000   0.0000   0.0000   0.0000   0.0000   0.0000   0.0000
     0.0000   0.0000   0.0000   0.0000   0.0000

          k =-0.3590-0.3541 0.3537 (  5236 PWs)   bands (ev):

   -65.5460 -65.4366 -64.8811 -64.6864 -32.5226 -32.5100 -32.4906 -32.4053
   -32.4021 -32.3863 -31.8615 -31.8504 -31.8443 -31.6676 -31.6555 -31.6473
   -28.7413 -28.2188 -28.0230 -27.9994 -11.1167 -10.5862 -10.5774 -10.5351
   -10.2897 -10.1551  -9.9331  -9.8267  -9.7041  -9.4846  -9.4459  -9.1679
    -7.4811  -7.2143  -7.0526  -6.8289  -6.8111  -6.6588  -6.3648  -6.1096
     4.0707   4.4528   4.5680   4.9479   5.5367   5.8533   5.9576   6.0284
     6.1786   6.3154   6.4120   6.5501   6.6132   6.7067   6.7302   6.7420
     6.8891   6.9944   7.0604   7.2120   7.2845   7.3877   7.5546   7.6035
    13.3823  13.7608  14.0650  14.2840  14.4851  14.7143  14.8024  15.1464
    15.7120  15.7684  16.1449  16.5165  16.8507

     occupation numbers 
     1.0000   1.0000   1.0000   1.0000   1.0000   1.0000   1.0000   1.0000
     1.0000   1.0000   1.0000   1.0000   1.0000   1.0000   1.0000   1.0000
     1.0000   1.0000   1.0000   1.0000   1.0000   1.0000   1.0000   1.0000
     1.0000   1.0000   1.0000   1.0000   1.0000   1.0000   1.0000   1.0000
     1.0000   1.0000   1.0000   1.0000   1.0000   1.0000   1.0000   1.0000
     1.0000   1.0000   1.0000   1.0000   1.0000   1.0000   1.0000   1.0000
     1.0000   1.0000   1.0000   1.0000   1.0000   1.0000   1.0000   1.0000
     1.0000   1.0000   1.0000   1.0000   1.0000   1.0000   1.0000   1.0000
     0.0000   0.0000   0.0000   0.0000   0.0000   0.0000   0.0000   0.0000
     0.0000   0.0000   0.0000   0.0000   0.0000

          k = 0.1787-0.1772 0.1786 (  5234 PWs)   bands (ev):

   -65.5460 -65.4366 -64.8811 -64.6864 -32.5226 -32.5100 -32.4906 -32.4054
   -32.4021 -32.3863 -31.8614 -31.8503 -31.8443 -31.6675 -31.6555 -31.6473
   -28.7430 -28.2175 -28.0420 -27.9800 -11.2366 -10.8246 -10.5880 -10.4083
   -10.2284 -10.0519  -9.8898  -9.7390  -9.6231  -9.4792  -9.2609  -9.1513
    -7.8957  -7.4088  -7.2149  -6.9504  -6.7494  -6.6411  -6.0578  -5.8833
     3.6176   3.7844   4.9039   5.2019   5.3496   5.4648   5.5547   6.1442
     6.3124   6.4539   6.5169   6.5806   6.6635   6.7475   6.8043   7.0138
     7.0692   7.1701   7.3243   7.3685   7.4877   7.5924   7.7331   7.8602
    12.1712  13.2174  13.4796  13.7006  14.3992  14.9188  15.2011  15.4902
    15.7127  16.0330  16.3493  16.4631  16.6427

     occupation numbers 
     1.0000   1.0000   1.0000   1.0000   1.0000   1.0000   1.0000   1.0000
     1.0000   1.0000   1.0000   1.0000   1.0000   1.0000   1.0000   1.0000
     1.0000   1.0000   1.0000   1.0000   1.0000   1.0000   1.0000   1.0000
     1.0000   1.0000   1.0000   1.0000   1.0000   1.0000   1.0000   1.0000
     1.0000   1.0000   1.0000   1.0000   1.0000   1.0000   1.0000   1.0000
     1.0000   1.0000   1.0000   1.0000   1.0000   1.0000   1.0000   1.0000
     1.0000   1.0000   1.0000   1.0000   1.0000   1.0000   1.0000   1.0000
     1.0000   1.0000   1.0000   1.0000   1.0000   1.0000   1.0000   1.0000
     0.0000   0.0000   0.0000   0.0000   0.0000   0.0000   0.0000   0.0000
     0.0000   0.0000   0.0000   0.0000   0.0000

          k = 0.3582-0.0001 0.0017 (  5251 PWs)   bands (ev):

   -65.5460 -65.4366 -64.8811 -64.6864 -32.5227 -32.5100 -32.4906 -32.4054
   -32.4022 -32.3864 -31.8613 -31.8504 -31.8443 -31.6675 -31.6555 -31.6473
   -28.7441 -28.2158 -28.0532 -27.9682 -11.3349 -10.9599 -10.5596 -10.2800
   -10.1423 -10.0036  -9.9614  -9.7933  -9.6856  -9.4105  -9.1422  -9.0810
    -7.7269  -7.3978  -7.2436  -7.1525  -6.9631  -6.7927  -5.8930  -5.7397
     3.7768   3.8693   4.9623   5.0201   5.2837   5.4011   5.4760   6.0034
     6.3498   6.4607   6.5384   6.6458   6.7255   6.7957   6.8479   6.9082
     6.9705   7.0969   7.2049   7.2324   7.4181   7.6032   7.8171   7.9942
    12.3830  12.9490  13.6911  13.9546  14.7055  14.8556  15.2176  15.2918
    15.7502  16.4115  16.5197  16.6764  16.7427

     occupation numbers 
     1.0000   1.0000   1.0000   1.0000   1.0000   1.0000   1.0000   1.0000
     1.0000   1.0000   1.0000   1.0000   1.0000   1.0000   1.0000   1.0000
     1.0000   1.0000   1.0000   1.0000   1.0000   1.0000   1.0000   1.0000
     1.0000   1.0000   1.0000   1.0000   1.0000   1.0000   1.0000   1.0000
     1.0000   1.0000   1.0000   1.0000   1.0000   1.0000   1.0000   1.0000
     1.0000   1.0000   1.0000   1.0000   1.0000   1.0000   1.0000   1.0000
     1.0000   1.0000   1.0000   1.0000   1.0000   1.0000   1.0000   1.0000
     1.0000   1.0000   1.0000   1.0000   1.0000   1.0000   1.0000   1.0000
     0.0000   0.0000   0.0000   0.0000   0.0000   0.0000   0.0000   0.0000
     0.0000   0.0000   0.0000   0.0000   0.0000

          k =-0.1804-0.5314 0.5323 (  5257 PWs)   bands (ev):

   -65.5460 -65.4366 -64.8811 -64.6864 -32.5227 -32.5100 -32.4906 -32.4054
   -32.4021 -32.3863 -31.8614 -31.8504 -31.8443 -31.6676 -31.6555 -31.6473
   -28.7425 -28.2171 -28.0423 -27.9794 -11.2505 -10.8434 -10.6454 -10.3942
   -10.2264 -10.0384  -9.8302  -9.7379  -9.6524  -9.4762  -9.2630  -9.1533
    -7.6436  -7.5181  -7.2615  -6.9993  -6.8306  -6.5678  -6.0707  -5.8927
     4.2401   4.4824   4.7261   5.0778   5.2267   5.6125   5.6852   5.8614
     5.9285   6.1155   6.4049   6.4489   6.6023   6.6459   6.8040   6.8495
     6.9593   7.1413   7.2024   7.3016   7.3888   7.4297   7.5429   7.7815
    13.3928  13.4698  14.2027  14.3657  14.6609  14.9611  15.1833  15.3645
    15.9405  16.0448  16.1481  16.3631  16.6133

     occupation numbers 
     1.0000   1.0000   1.0000   1.0000   1.0000   1.0000   1.0000   1.0000
     1.0000   1.0000   1.0000   1.0000   1.0000   1.0000   1.0000   1.0000
     1.0000   1.0000   1.0000   1.0000   1.0000   1.0000   1.0000   1.0000
     1.0000   1.0000   1.0000   1.0000   1.0000   1.0000   1.0000   1.0000
     1.0000   1.0000   1.0000   1.0000   1.0000   1.0000   1.0000   1.0000
     1.0000   1.0000   1.0000   1.0000   1.0000   1.0000   1.0000   1.0000
     1.0000   1.0000   1.0000   1.0000   1.0000   1.0000   1.0000   1.0000
     1.0000   1.0000   1.0000   1.0000   1.0000   1.0000   1.0000   1.0000
     0.0000   0.0000   0.0000   0.0000   0.0000   0.0000   0.0000   0.0000
     0.0000   0.0000   0.0000   0.0000   0.0000

          k =-0.0009-0.3543 0.3554 (  5258 PWs)   bands (ev):

   -65.5460 -65.4366 -64.8811 -64.6864 -32.5226 -32.5100 -32.4905 -32.4054
   -32.4021 -32.3863 -31.8615 -31.8504 -31.8443 -31.6676 -31.6555 -31.6473
   -28.7413 -28.2188 -28.0231 -27.9992 -11.1172 -10.6637 -10.5880 -10.5658
   -10.3131 -10.2681  -9.7461  -9.7014  -9.5167  -9.4818  -9.4457  -9.1690
    -7.9433  -7.6400  -6.8154  -6.6918  -6.6667  -6.4892  -6.3737  -6.1180
     3.9033   4.3094   4.8332   5.4208   5.5256   5.6007   5.7081   5.8721
     5.9398   6.0637   6.2632   6.5493   6.6840   6.7665   6.8479   6.8971
     6.9558   7.0111   7.1394   7.2089   7.3558   7.5652   7.6092   7.7250
    13.0326  13.8598  14.1397  14.2991  14.4161  14.7404  15.1150  15.3741
    15.5326  15.8586  16.2614  16.3693  16.5277

     occupation numbers 
     1.0000   1.0000   1.0000   1.0000   1.0000   1.0000   1.0000   1.0000
     1.0000   1.0000   1.0000   1.0000   1.0000   1.0000   1.0000   1.0000
     1.0000   1.0000   1.0000   1.0000   1.0000   1.0000   1.0000   1.0000
     1.0000   1.0000   1.0000   1.0000   1.0000   1.0000   1.0000   1.0000
     1.0000   1.0000   1.0000   1.0000   1.0000   1.0000   1.0000   1.0000
     1.0000   1.0000   1.0000   1.0000   1.0000   1.0000   1.0000   1.0000
     1.0000   1.0000   1.0000   1.0000   1.0000   1.0000   1.0000   1.0000
     1.0000   1.0000   1.0000   1.0000   1.0000   1.0000   1.0000   1.0000
     0.0000   0.0000   0.0000   0.0000   0.0000   0.0000   0.0000   0.0000
     0.0000   0.0000   0.0000   0.0000   0.0000

          k =-0.3573 0.3544-0.3571 (  5238 PWs)   bands (ev):

   -65.5460 -65.4366 -64.8811 -64.6864 -32.5227 -32.5100 -32.4905 -32.4054
   -32.4021 -32.3862 -31.8614 -31.8504 -31.8443 -31.6675 -31.6556 -31.6473
   -28.7414 -28.2187 -28.0233 -27.9991 -11.1173 -10.5929 -10.5696 -10.5461
   -10.2905 -10.1566  -9.9269  -9.8201  -9.7036  -9.4872  -9.4436  -9.1684
    -7.4484  -7.2394  -7.0748  -6.8338  -6.7749  -6.6531  -6.3763  -6.1199
     4.2221   4.2607   4.5983   4.7893   5.5796   5.7518   5.9361   6.1150
     6.1844   6.3415   6.4601   6.5497   6.6481   6.6510   6.7954   6.8435
     6.9379   7.0692   7.1282   7.1997   7.2797   7.3425   7.4496   7.5887
    13.2573  13.6627  14.1459  14.2371  14.3902  14.6622  14.8888  15.1204
    15.7965  15.8978  16.0811  16.6030  16.7469

     occupation numbers 
     1.0000   1.0000   1.0000   1.0000   1.0000   1.0000   1.0000   1.0000
     1.0000   1.0000   1.0000   1.0000   1.0000   1.0000   1.0000   1.0000
     1.0000   1.0000   1.0000   1.0000   1.0000   1.0000   1.0000   1.0000
     1.0000   1.0000   1.0000   1.0000   1.0000   1.0000   1.0000   1.0000
     1.0000   1.0000   1.0000   1.0000   1.0000   1.0000   1.0000   1.0000
     1.0000   1.0000   1.0000   1.0000   1.0000   1.0000   1.0000   1.0000
     1.0000   1.0000   1.0000   1.0000   1.0000   1.0000   1.0000   1.0000
     1.0000   1.0000   1.0000   1.0000   1.0000   1.0000   1.0000   1.0000
     0.0000   0.0000   0.0000   0.0000   0.0000   0.0000   0.0000   0.0000
     0.0000   0.0000   0.0000   0.0000   0.0000

          k =-0.1778 0.5315-0.5340 (  5261 PWs)   bands (ev):

   -65.5460 -65.4366 -64.8811 -64.6864 -32.5227 -32.5100 -32.4906 -32.4054
   -32.4021 -32.3863 -31.8614 -31.8504 -31.8443 -31.6675 -31.6556 -31.6473
   -28.7425 -28.2170 -28.0424 -27.9794 -11.2510 -10.8432 -10.6479 -10.3971
   -10.2243 -10.0397  -9.8296  -9.7351  -9.6507  -9.4766  -9.2633  -9.1533
    -7.6342  -7.5220  -7.2625  -6.9942  -6.8371  -6.5659  -6.0726  -5.8952
     4.3188   4.4489   4.6140   5.0314   5.2362   5.6080   5.6905   5.8338
     5.9973   6.1594   6.4344   6.4518   6.5751   6.6618   6.8189   6.8503
     7.0041   7.1300   7.2485   7.2891   7.3646   7.4218   7.5168   7.7901
    13.3111  13.5026  14.0952  14.4073  14.5652  14.9750  15.2496  15.4801
    15.8781  15.9918  16.1526  16.4158  16.6467

     occupation numbers 
     1.0000   1.0000   1.0000   1.0000   1.0000   1.0000   1.0000   1.0000
     1.0000   1.0000   1.0000   1.0000   1.0000   1.0000   1.0000   1.0000
     1.0000   1.0000   1.0000   1.0000   1.0000   1.0000   1.0000   1.0000
     1.0000   1.0000   1.0000   1.0000   1.0000   1.0000   1.0000   1.0000
     1.0000   1.0000   1.0000   1.0000   1.0000   1.0000   1.0000   1.0000
     1.0000   1.0000   1.0000   1.0000   1.0000   1.0000   1.0000   1.0000
     1.0000   1.0000   1.0000   1.0000   1.0000   1.0000   1.0000   1.0000
     1.0000   1.0000   1.0000   1.0000   1.0000   1.0000   1.0000   1.0000
     0.0000   0.0000   0.0000   0.0000   0.0000   0.0000   0.0000   0.0000
     0.0000   0.0000   0.0000   0.0000   0.0000

          k =-0.7163 0.0003-0.0034 (  5260 PWs)   bands (ev):

   -65.5460 -65.4366 -64.8811 -64.6864 -32.5227 -32.5101 -32.4907 -32.4054
   -32.4022 -32.3864 -31.8614 -31.8504 -31.8443 -31.6676 -31.6555 -31.6473
   -28.7437 -28.2153 -28.0534 -27.9677 -11.3468 -10.9742 -10.7241 -10.2990
   -10.2376  -9.9970  -9.7248  -9.6884  -9.5140  -9.4105  -9.1456  -9.0817
    -7.7804  -7.7206  -7.5763  -7.1721  -6.7734  -6.4250  -5.9053  -5.7505
     4.5032   4.5652   4.8406   4.9806   5.2164   5.4157   5.6144   5.6443
     5.7102   5.9152   6.2157   6.3728   6.4477   6.5398   6.7957   6.8128
     7.1603   7.2295   7.2858   7.3951   7.4392   7.5093   7.7489   7.9440
    13.1400  13.5352  14.3339  14.6388  14.9409  15.0487  15.1595  15.3868
    15.5726  16.2191  16.4786  16.8909  16.9332

     occupation numbers 
     1.0000   1.0000   1.0000   1.0000   1.0000   1.0000   1.0000   1.0000
     1.0000   1.0000   1.0000   1.0000   1.0000   1.0000   1.0000   1.0000
     1.0000   1.0000   1.0000   1.0000   1.0000   1.0000   1.0000   1.0000
     1.0000   1.0000   1.0000   1.0000   1.0000   1.0000   1.0000   1.0000
     1.0000   1.0000   1.0000   1.0000   1.0000   1.0000   1.0000   1.0000
     1.0000   1.0000   1.0000   1.0000   1.0000   1.0000   1.0000   1.0000
     1.0000   1.0000   1.0000   1.0000   1.0000   1.0000   1.0000   1.0000
     1.0000   1.0000   1.0000   1.0000   1.0000   1.0000   1.0000   1.0000
     0.0000   0.0000   0.0000   0.0000   0.0000   0.0000   0.0000   0.0000
     0.0000   0.0000   0.0000   0.0000   0.0000

          k =-0.1800 0.1774 0.1754 (  5237 PWs)   bands (ev):

   -65.5460 -65.4366 -64.8811 -64.6864 -32.5225 -32.5099 -32.4906 -32.4055
   -32.4023 -32.3864 -31.8613 -31.8503 -31.8441 -31.6676 -31.6555 -31.6474
   -28.7435 -28.2120 -28.0562 -27.9707 -11.2441 -10.8224 -10.5896 -10.3876
   -10.2258 -10.0289  -9.9141  -9.8080  -9.6185  -9.4613  -9.2836  -9.0820
    -7.8988  -7.4105  -7.2375  -6.9419  -6.7475  -6.6425  -6.0545  -5.8827
     3.6185   3.7756   4.9044   5.2351   5.3368   5.4493   5.5634   6.1755
     6.3033   6.3677   6.4786   6.5918   6.7029   6.7801   6.8437   6.9893
     7.0814   7.1195   7.2755   7.3842   7.5271   7.6073   7.7649   7.8513
    12.1592  13.1905  13.3866  13.7629  14.4586  14.8884  15.2861  15.4777
    15.5779  16.0912  16.3741  16.4754  16.6213

     occupation numbers 
     1.0000   1.0000   1.0000   1.0000   1.0000   1.0000   1.0000   1.0000
     1.0000   1.0000   1.0000   1.0000   1.0000   1.0000   1.0000   1.0000
     1.0000   1.0000   1.0000   1.0000   1.0000   1.0000   1.0000   1.0000
     1.0000   1.0000   1.0000   1.0000   1.0000   1.0000   1.0000   1.0000
     1.0000   1.0000   1.0000   1.0000   1.0000   1.0000   1.0000   1.0000
     1.0000   1.0000   1.0000   1.0000   1.0000   1.0000   1.0000   1.0000
     1.0000   1.0000   1.0000   1.0000   1.0000   1.0000   1.0000   1.0000
     1.0000   1.0000   1.0000   1.0000   1.0000   1.0000   1.0000   1.0000
     0.0000   0.0000   0.0000   0.0000   0.0000   0.0000   0.0000   0.0000
     0.0000   0.0000   0.0000   0.0000   0.0000

          k =-0.0004 0.3545-0.0015 (  5251 PWs)   bands (ev):

   -65.5460 -65.4366 -64.8811 -64.6864 -32.5225 -32.5099 -32.4905 -32.4055
   -32.4023 -32.3863 -31.8614 -31.8503 -31.8441 -31.6676 -31.6555 -31.6474
   -28.7421 -28.2135 -28.0450 -27.9824 -11.1733 -10.6899 -10.6314 -10.4272
   -10.2975 -10.0796  -9.9293  -9.7486  -9.5072  -9.4595  -9.3595  -9.2183
    -8.0339  -7.6038  -7.0377  -6.7890  -6.6210  -6.5295  -6.1698  -5.9780
     3.7159   3.8397   5.0878   5.2420   5.3945   5.5224   5.5877   6.0668
     6.2285   6.2732   6.4287   6.5354   6.5855   6.6342   6.6977   6.8174
     7.1210   7.1733   7.2161   7.3874   7.5642   7.6930   7.7809   7.8599
    12.3966  13.3372  13.6923  13.9055  14.7018  14.9407  15.2813  15.4736
    15.6156  15.8934  16.1959  16.3517  16.5658

     occupation numbers 
     1.0000   1.0000   1.0000   1.0000   1.0000   1.0000   1.0000   1.0000
     1.0000   1.0000   1.0000   1.0000   1.0000   1.0000   1.0000   1.0000
     1.0000   1.0000   1.0000   1.0000   1.0000   1.0000   1.0000   1.0000
     1.0000   1.0000   1.0000   1.0000   1.0000   1.0000   1.0000   1.0000
     1.0000   1.0000   1.0000   1.0000   1.0000   1.0000   1.0000   1.0000
     1.0000   1.0000   1.0000   1.0000   1.0000   1.0000   1.0000   1.0000
     1.0000   1.0000   1.0000   1.0000   1.0000   1.0000   1.0000   1.0000
     1.0000   1.0000   1.0000   1.0000   1.0000   1.0000   1.0000   1.0000
     0.0000   0.0000   0.0000   0.0000   0.0000   0.0000   0.0000   0.0000
     0.0000   0.0000   0.0000   0.0000   0.0000

          k =-0.5390-0.1767 0.5291 (  5245 PWs)   bands (ev):

   -65.5460 -65.4366 -64.8811 -64.6864 -32.5225 -32.5099 -32.4905 -32.4055
   -32.4023 -32.3863 -31.8614 -31.8503 -31.8441 -31.6677 -31.6556 -31.6474
   -28.7405 -28.2148 -28.0255 -28.0021 -11.0801 -10.6058 -10.5619 -10.4572
   -10.2687 -10.2193  -9.8445  -9.7677  -9.6582  -9.6063  -9.4708  -9.2927
    -7.7133  -7.4940  -6.8147  -6.7260  -6.6546  -6.6119  -6.3843  -6.0876
     4.1382   4.4517   4.8781   5.1940   5.5189   5.6718   5.7636   5.8536
     5.9785   6.0924   6.2394   6.3174   6.4323   6.5300   6.7163   6.8011
     6.9569   7.1467   7.2327   7.3453   7.4493   7.5477   7.5921   7.7000
    13.4350  13.9770  14.4034  14.4541  14.5704  14.9380  15.1066  15.3272
    15.3792  15.6599  16.0567  16.1957  16.4555

     occupation numbers 
     1.0000   1.0000   1.0000   1.0000   1.0000   1.0000   1.0000   1.0000
     1.0000   1.0000   1.0000   1.0000   1.0000   1.0000   1.0000   1.0000
     1.0000   1.0000   1.0000   1.0000   1.0000   1.0000   1.0000   1.0000
     1.0000   1.0000   1.0000   1.0000   1.0000   1.0000   1.0000   1.0000
     1.0000   1.0000   1.0000   1.0000   1.0000   1.0000   1.0000   1.0000
     1.0000   1.0000   1.0000   1.0000   1.0000   1.0000   1.0000   1.0000
     1.0000   1.0000   1.0000   1.0000   1.0000   1.0000   1.0000   1.0000
     1.0000   1.0000   1.0000   1.0000   1.0000   1.0000   1.0000   1.0000
     0.0000   0.0000   0.0000   0.0000   0.0000   0.0000   0.0000   0.0000
     0.0000   0.0000   0.0000   0.0000   0.0000

          k =-0.3595 0.0003 0.3522 (  5249 PWs)   bands (ev):

   -65.5460 -65.4366 -64.8811 -64.6864 -32.5225 -32.5099 -32.4905 -32.4055
   -32.4023 -32.3863 -31.8614 -31.8503 -31.8441 -31.6676 -31.6555 -31.6474
   -28.7419 -28.2134 -28.0450 -27.9822 -11.1687 -10.7476 -10.5475 -10.4251
   -10.1475 -10.0457  -9.9674  -9.8137  -9.7501  -9.6158  -9.3416  -9.2122
    -7.4845  -7.2433  -7.0754  -6.9720  -6.8591  -6.7686  -6.1728  -5.9585
     4.0448   4.2201   4.8513   5.1552   5.2044   5.6375   5.7879   6.0609
     6.2102   6.3531   6.3944   6.4423   6.5816   6.6834   6.7841   6.8934
     6.9285   6.9844   7.0834   7.1885   7.2594   7.4950   7.6656   7.8849
    13.0750  13.5925  13.9051  14.3672  14.4906  14.8798  15.2792  15.3403
    15.6948  16.0202  16.1967  16.2507  16.4540

     occupation numbers 
     1.0000   1.0000   1.0000   1.0000   1.0000   1.0000   1.0000   1.0000
     1.0000   1.0000   1.0000   1.0000   1.0000   1.0000   1.0000   1.0000
     1.0000   1.0000   1.0000   1.0000   1.0000   1.0000   1.0000   1.0000
     1.0000   1.0000   1.0000   1.0000   1.0000   1.0000   1.0000   1.0000
     1.0000   1.0000   1.0000   1.0000   1.0000   1.0000   1.0000   1.0000
     1.0000   1.0000   1.0000   1.0000   1.0000   1.0000   1.0000   1.0000
     1.0000   1.0000   1.0000   1.0000   1.0000   1.0000   1.0000   1.0000
     1.0000   1.0000   1.0000   1.0000   1.0000   1.0000   1.0000   1.0000
     0.0000   0.0000   0.0000   0.0000   0.0000   0.0000   0.0000   0.0000
     0.0000   0.0000   0.0000   0.0000   0.0000

          k =-0.0013 0.0002 0.3539 (  5248 PWs)   bands (ev):

   -65.5460 -65.4366 -64.8811 -64.6864 -32.5225 -32.5099 -32.4905 -32.4055
   -32.4023 -32.3863 -31.8613 -31.8503 -31.8441 -31.6676 -31.6556 -31.6474
   -28.7421 -28.2136 -28.0449 -27.9824 -11.1605 -10.7351 -10.6335 -10.4340
   -10.2951 -10.0518  -9.8053  -9.7298  -9.6199  -9.5043  -9.3440  -9.2100
    -8.0323  -7.6058  -7.0327  -6.8197  -6.6282  -6.5230  -6.1651  -5.9518
     3.6838   3.8564   5.1028   5.2413   5.3951   5.5351   5.6274   6.0864
     6.2287   6.3375   6.4175   6.4726   6.5100   6.6068   6.7840   6.8600
     7.0668   7.1027   7.1541   7.2589   7.6591   7.7169   7.8288   7.9522
    12.3785  13.3309  13.5705  13.9375  14.6977  14.8625  15.2294  15.6102
    15.6705  15.9576  16.1967  16.3237  16.4948

     occupation numbers 
     1.0000   1.0000   1.0000   1.0000   1.0000   1.0000   1.0000   1.0000
     1.0000   1.0000   1.0000   1.0000   1.0000   1.0000   1.0000   1.0000
     1.0000   1.0000   1.0000   1.0000   1.0000   1.0000   1.0000   1.0000
     1.0000   1.0000   1.0000   1.0000   1.0000   1.0000   1.0000   1.0000
     1.0000   1.0000   1.0000   1.0000   1.0000   1.0000   1.0000   1.0000
     1.0000   1.0000   1.0000   1.0000   1.0000   1.0000   1.0000   1.0000
     1.0000   1.0000   1.0000   1.0000   1.0000   1.0000   1.0000   1.0000
     1.0000   1.0000   1.0000   1.0000   1.0000   1.0000   1.0000   1.0000
     0.0000   0.0000   0.0000   0.0000   0.0000   0.0000   0.0000   0.0000
     0.0000   0.0000   0.0000   0.0000   0.0000

          k = 0.1782 0.1773 0.1770 (  5238 PWs)   bands (ev):

   -65.5460 -65.4366 -64.8811 -64.6864 -32.5225 -32.5099 -32.4906 -32.4055
   -32.4023 -32.3864 -31.8613 -31.8503 -31.8441 -31.6676 -31.6555 -31.6473
   -28.7435 -28.2120 -28.0563 -27.9707 -11.2432 -10.8213 -10.5905 -10.3874
   -10.2278 -10.0312  -9.8880  -9.8229  -9.6279  -9.4616  -9.2842  -9.0814
    -7.8985  -7.4109  -7.2403  -6.9367  -6.7469  -6.6492  -6.0526  -5.8795
     3.6321   3.7811   4.9095   5.2251   5.3406   5.4660   5.5565   6.1400
     6.3222   6.3802   6.5333   6.5949   6.6740   6.7540   6.8225   7.0014
     7.0829   7.1213   7.2915   7.3955   7.4919   7.5958   7.7191   7.8457
    12.1757  13.2355  13.4100  13.7838  14.5128  14.8666  15.2172  15.4997
    15.6829  16.0294  16.2966  16.4972  16.6040

     occupation numbers 
     1.0000   1.0000   1.0000   1.0000   1.0000   1.0000   1.0000   1.0000
     1.0000   1.0000   1.0000   1.0000   1.0000   1.0000   1.0000   1.0000
     1.0000   1.0000   1.0000   1.0000   1.0000   1.0000   1.0000   1.0000
     1.0000   1.0000   1.0000   1.0000   1.0000   1.0000   1.0000   1.0000
     1.0000   1.0000   1.0000   1.0000   1.0000   1.0000   1.0000   1.0000
     1.0000   1.0000   1.0000   1.0000   1.0000   1.0000   1.0000   1.0000
     1.0000   1.0000   1.0000   1.0000   1.0000   1.0000   1.0000   1.0000
     1.0000   1.0000   1.0000   1.0000   1.0000   1.0000   1.0000   1.0000
     0.0000   0.0000   0.0000   0.0000   0.0000   0.0000   0.0000   0.0000
     0.0000   0.0000   0.0000   0.0000   0.0000

          k =-0.3603-0.3539 0.7076 (  5251 PWs)   bands (ev):

   -65.5460 -65.4366 -64.8811 -64.6864 -32.5225 -32.5099 -32.4905 -32.4055
   -32.4023 -32.3864 -31.8614 -31.8503 -31.8441 -31.6677 -31.6556 -31.6474
   -28.7419 -28.2133 -28.0453 -27.9820 -11.1810 -10.6991 -10.5490 -10.4157
   -10.1382 -10.0779  -9.9567  -9.9135  -9.8102  -9.4620  -9.3629  -9.2180
    -7.4803  -7.2606  -7.0641  -6.9715  -6.8501  -6.7564  -6.1739  -5.9788
     4.0952   4.2212   4.7943   5.1342   5.2507   5.6317   5.7616   6.0587
     6.2187   6.2906   6.4453   6.5302   6.6198   6.7040   6.7536   6.8783
     6.9552   7.0501   7.1056   7.1808   7.3960   7.4186   7.5411   7.6686
    13.0982  13.7661  13.9921  14.3616  14.6932  14.8211  15.0370  15.2295
    15.7836  15.9677  16.1311  16.3654  16.4675

     occupation numbers 
     1.0000   1.0000   1.0000   1.0000   1.0000   1.0000   1.0000   1.0000
     1.0000   1.0000   1.0000   1.0000   1.0000   1.0000   1.0000   1.0000
     1.0000   1.0000   1.0000   1.0000   1.0000   1.0000   1.0000   1.0000
     1.0000   1.0000   1.0000   1.0000   1.0000   1.0000   1.0000   1.0000
     1.0000   1.0000   1.0000   1.0000   1.0000   1.0000   1.0000   1.0000
     1.0000   1.0000   1.0000   1.0000   1.0000   1.0000   1.0000   1.0000
     1.0000   1.0000   1.0000   1.0000   1.0000   1.0000   1.0000   1.0000
     1.0000   1.0000   1.0000   1.0000   1.0000   1.0000   1.0000   1.0000
     0.0000   0.0000   0.0000   0.0000   0.0000   0.0000   0.0000   0.0000
     0.0000   0.0000   0.0000   0.0000   0.0000

          k =-0.1808-0.1769 0.5308 (  5246 PWs)   bands (ev):

   -65.5460 -65.4366 -64.8811 -64.6864 -32.5225 -32.5099 -32.4905 -32.4055
   -32.4023 -32.3863 -31.8614 -31.8503 -31.8441 -31.6677 -31.6556 -31.6474
   -28.7405 -28.2148 -28.0257 -28.0019 -11.0821 -10.6076 -10.5483 -10.4597
   -10.2565 -10.2316  -9.8448  -9.7706  -9.6570  -9.6141  -9.4699  -9.2923
    -7.7113  -7.4996  -6.8158  -6.7311  -6.6489  -6.6136  -6.3811  -6.0847
     4.1129   4.4276   4.9140   5.2272   5.5141   5.7083   5.7478   5.9104
     5.9976   6.0765   6.1621   6.3202   6.4958   6.5919   6.6836   6.8223
     6.9486   7.1289   7.1790   7.2880   7.4063   7.5322   7.6360   7.7047
    13.4536  13.9429  14.3721  14.4506  14.5983  14.9454  15.1330  15.3241
    15.3628  15.6690  16.0216  16.1835  16.4220

     occupation numbers 
     1.0000   1.0000   1.0000   1.0000   1.0000   1.0000   1.0000   1.0000
     1.0000   1.0000   1.0000   1.0000   1.0000   1.0000   1.0000   1.0000
     1.0000   1.0000   1.0000   1.0000   1.0000   1.0000   1.0000   1.0000
     1.0000   1.0000   1.0000   1.0000   1.0000   1.0000   1.0000   1.0000
     1.0000   1.0000   1.0000   1.0000   1.0000   1.0000   1.0000   1.0000
     1.0000   1.0000   1.0000   1.0000   1.0000   1.0000   1.0000   1.0000
     1.0000   1.0000   1.0000   1.0000   1.0000   1.0000   1.0000   1.0000
     1.0000   1.0000   1.0000   1.0000   1.0000   1.0000   1.0000   1.0000
     0.0000   0.0000   0.0000   0.0000   0.0000   0.0000   0.0000   0.0000
     0.0000   0.0000   0.0000   0.0000   0.0000

          k =-0.5373 0.5318-0.1818 (  5251 PWs)   bands (ev):

   -65.5460 -65.4366 -64.8811 -64.6864 -32.5225 -32.5099 -32.4905 -32.4055
   -32.4023 -32.3863 -31.8614 -31.8503 -31.8441 -31.6676 -31.6556 -31.6474
   -28.7405 -28.2148 -28.0259 -28.0018 -11.0824 -10.6080 -10.5470 -10.4685
   -10.2648 -10.2189  -9.8493  -9.7613  -9.6561  -9.6139  -9.4716  -9.2927
    -7.7030  -7.5045  -6.8251  -6.7286  -6.6373  -6.6075  -6.3893  -6.0902
     4.1397   4.4326   4.8121   5.1464   5.5486   5.6895   5.7664   5.9513
     6.0181   6.0611   6.1969   6.3576   6.5573   6.5917   6.7033   6.7463
     6.9431   7.1341   7.2208   7.3003   7.4348   7.4987   7.6101   7.7142
    13.3742  13.9055  14.2577  14.4929  14.6643  14.9776  15.1372  15.2949
    15.3592  15.5746  16.0517  16.3085  16.4183

     occupation numbers 
     1.0000   1.0000   1.0000   1.0000   1.0000   1.0000   1.0000   1.0000
     1.0000   1.0000   1.0000   1.0000   1.0000   1.0000   1.0000   1.0000
     1.0000   1.0000   1.0000   1.0000   1.0000   1.0000   1.0000   1.0000
     1.0000   1.0000   1.0000   1.0000   1.0000   1.0000   1.0000   1.0000
     1.0000   1.0000   1.0000   1.0000   1.0000   1.0000   1.0000   1.0000
     1.0000   1.0000   1.0000   1.0000   1.0000   1.0000   1.0000   1.0000
     1.0000   1.0000   1.0000   1.0000   1.0000   1.0000   1.0000   1.0000
     1.0000   1.0000   1.0000   1.0000   1.0000   1.0000   1.0000   1.0000
     0.0000   0.0000   0.0000   0.0000   0.0000   0.0000   0.0000   0.0000
     0.0000   0.0000   0.0000   0.0000   0.0000

          k =-0.3578 0.7089-0.3586 (  5251 PWs)   bands (ev):

   -65.5460 -65.4366 -64.8811 -64.6864 -32.5225 -32.5099 -32.4905 -32.4055
   -32.4023 -32.3863 -31.8614 -31.8503 -31.8441 -31.6676 -31.6556 -31.6474
   -28.7419 -28.2132 -28.0452 -27.9821 -11.1682 -10.7463 -10.5515 -10.4280
   -10.1400 -10.0491  -9.9623  -9.8139  -9.7551  -9.6163  -9.3429  -9.2106
    -7.4610  -7.2765  -7.0707  -6.9651  -6.8602  -6.7673  -6.1727  -5.9594
     4.0900   4.2319   4.7468   5.1340   5.2097   5.6321   5.7836   6.0334
     6.2462   6.3448   6.4634   6.4976   6.6028   6.6852   6.7560   6.8354
     6.9423   7.1120   7.1559   7.1778   7.2115   7.3864   7.6140   7.8922
    13.0623  13.6246  13.9223  14.3193  14.4926  14.8391  15.2677  15.4110
    15.7859  15.9841  16.1487  16.3325  16.4838

     occupation numbers 
     1.0000   1.0000   1.0000   1.0000   1.0000   1.0000   1.0000   1.0000
     1.0000   1.0000   1.0000   1.0000   1.0000   1.0000   1.0000   1.0000
     1.0000   1.0000   1.0000   1.0000   1.0000   1.0000   1.0000   1.0000
     1.0000   1.0000   1.0000   1.0000   1.0000   1.0000   1.0000   1.0000
     1.0000   1.0000   1.0000   1.0000   1.0000   1.0000   1.0000   1.0000
     1.0000   1.0000   1.0000   1.0000   1.0000   1.0000   1.0000   1.0000
     1.0000   1.0000   1.0000   1.0000   1.0000   1.0000   1.0000   1.0000
     1.0000   1.0000   1.0000   1.0000   1.0000   1.0000   1.0000   1.0000
     0.0000   0.0000   0.0000   0.0000   0.0000   0.0000   0.0000   0.0000
     0.0000   0.0000   0.0000   0.0000   0.0000

          k =-0.8963 0.1777 0.1720 (  5253 PWs)   bands (ev):

   -65.5460 -65.4366 -64.8811 -64.6864 -32.5225 -32.5099 -32.4906 -32.4055
   -32.4023 -32.3864 -31.8613 -31.8503 -31.8441 -31.6677 -31.6556 -31.6474
   -28.7430 -28.2115 -28.0566 -27.9702 -11.2574 -10.8402 -10.6481 -10.3819
   -10.2144 -10.0211  -9.8529  -9.8024  -9.6489  -9.4600  -9.2876  -9.0826
    -7.6289  -7.5340  -7.2829  -6.9957  -6.8262  -6.5688  -6.0682  -5.8920
     4.3401   4.4465   4.6274   5.0724   5.2120   5.5678   5.6938   5.8472
     5.9970   6.1348   6.3983   6.4729   6.5777   6.6750   6.7860   6.8542
     7.0624   7.1396   7.1719   7.3144   7.3458   7.4372   7.5142   7.7688
    13.3156  13.4963  14.0435  14.5279  14.6826  14.9363  15.2104  15.3494
    15.8381  16.1258  16.3022  16.4459  16.6956

     occupation numbers 
     1.0000   1.0000   1.0000   1.0000   1.0000   1.0000   1.0000   1.0000
     1.0000   1.0000   1.0000   1.0000   1.0000   1.0000   1.0000   1.0000
     1.0000   1.0000   1.0000   1.0000   1.0000   1.0000   1.0000   1.0000
     1.0000   1.0000   1.0000   1.0000   1.0000   1.0000   1.0000   1.0000
     1.0000   1.0000   1.0000   1.0000   1.0000   1.0000   1.0000   1.0000
     1.0000   1.0000   1.0000   1.0000   1.0000   1.0000   1.0000   1.0000
     1.0000   1.0000   1.0000   1.0000   1.0000   1.0000   1.0000   1.0000
     1.0000   1.0000   1.0000   1.0000   1.0000   1.0000   1.0000   1.0000
     0.0000   0.0000   0.0000   0.0000   0.0000   0.0000   0.0000   0.0000
     0.0000   0.0000   0.0000   0.0000   0.0000

          k =-0.7168 0.3548-0.0049 (  5243 PWs)   bands (ev):

   -65.5460 -65.4366 -64.8811 -64.6864 -32.5225 -32.5099 -32.4905 -32.4055
   -32.4023 -32.3863 -31.8614 -31.8504 -31.8441 -31.6676 -31.6556 -31.6474
   -28.7417 -28.2130 -28.0455 -27.9817 -11.1907 -10.7165 -10.6815 -10.4129
   -10.2860 -10.0501  -9.9214  -9.7285  -9.5177  -9.4623  -9.3659  -9.2207
    -7.8065  -7.7327  -7.0416  -6.7985  -6.7243  -6.4628  -6.1869  -5.9895
     4.3838   4.7392   4.9080   4.9962   5.2109   5.6258   5.6662   5.7304
     5.8479   5.8924   6.1999   6.4062   6.6242   6.6719   6.7016   6.8371
     6.9620   7.1401   7.2129   7.3400   7.4476   7.5086   7.5735   7.6140
    13.7096  13.9444  14.2653  14.6174  14.7582  14.9734  15.0547  15.4643
    15.7454  15.8190  16.0201  16.1289  16.3084

     occupation numbers 
     1.0000   1.0000   1.0000   1.0000   1.0000   1.0000   1.0000   1.0000
     1.0000   1.0000   1.0000   1.0000   1.0000   1.0000   1.0000   1.0000
     1.0000   1.0000   1.0000   1.0000   1.0000   1.0000   1.0000   1.0000
     1.0000   1.0000   1.0000   1.0000   1.0000   1.0000   1.0000   1.0000
     1.0000   1.0000   1.0000   1.0000   1.0000   1.0000   1.0000   1.0000
     1.0000   1.0000   1.0000   1.0000   1.0000   1.0000   1.0000   1.0000
     1.0000   1.0000   1.0000   1.0000   1.0000   1.0000   1.0000   1.0000
     1.0000   1.0000   1.0000   1.0000   1.0000   1.0000   1.0000   1.0000
     0.0000   0.0000   0.0000   0.0000   0.0000   0.0000   0.0000   0.0000
     0.0000   0.0000   0.0000   0.0000   0.0000

          k =-0.3586 0.3546-0.0032 (  5252 PWs)   bands (ev):

   -65.5460 -65.4366 -64.8811 -64.6864 -32.5225 -32.5099 -32.4905 -32.4056
   -32.4023 -32.3863 -31.8614 -31.8503 -31.8441 -31.6676 -31.6556 -31.6474
   -28.7419 -28.2132 -28.0452 -27.9821 -11.1827 -10.6999 -10.5486 -10.4184
   -10.1609 -10.0624  -9.9520  -9.9169  -9.7989  -9.4625  -9.3606  -9.2195
    -7.4679  -7.2554  -7.0826  -6.9808  -6.8320  -6.7531  -6.1796  -5.9846
     4.0797   4.2253   4.7251   5.1037   5.2464   5.6153   5.7701   6.0952
     6.1694   6.3839   6.4571   6.5404   6.6017   6.7045   6.7686   6.8857
     6.9387   7.0957   7.1387   7.2283   7.3524   7.4307   7.5605   7.6713
    13.0467  13.7071  13.8765  14.2313  14.5810  14.7593  15.2143  15.5183
    15.7682  15.9944  16.1212  16.2499  16.4418

     occupation numbers 
     1.0000   1.0000   1.0000   1.0000   1.0000   1.0000   1.0000   1.0000
     1.0000   1.0000   1.0000   1.0000   1.0000   1.0000   1.0000   1.0000
     1.0000   1.0000   1.0000   1.0000   1.0000   1.0000   1.0000   1.0000
     1.0000   1.0000   1.0000   1.0000   1.0000   1.0000   1.0000   1.0000
     1.0000   1.0000   1.0000   1.0000   1.0000   1.0000   1.0000   1.0000
     1.0000   1.0000   1.0000   1.0000   1.0000   1.0000   1.0000   1.0000
     1.0000   1.0000   1.0000   1.0000   1.0000   1.0000   1.0000   1.0000
     1.0000   1.0000   1.0000   1.0000   1.0000   1.0000   1.0000   1.0000
     0.0000   0.0000   0.0000   0.0000   0.0000   0.0000   0.0000   0.0000
     0.0000   0.0000   0.0000   0.0000   0.0000

          k =-0.1791 0.5317-0.1801 (  5253 PWs)   bands (ev):

   -65.5460 -65.4366 -64.8811 -64.6864 -32.5225 -32.5099 -32.4905 -32.4055
   -32.4023 -32.3863 -31.8614 -31.8503 -31.8441 -31.6677 -31.6556 -31.6474
   -28.7405 -28.2148 -28.0257 -28.0019 -11.0806 -10.6074 -10.5586 -10.4673
   -10.2613 -10.2222  -9.8467  -9.7641  -9.6493  -9.6130  -9.4699  -9.2928
    -7.7034  -7.5014  -6.8290  -6.7109  -6.6559  -6.5994  -6.3929  -6.0934
     4.1667   4.4463   4.7919   5.1217   5.5407   5.6941   5.7079   5.9355
     6.0381   6.0836   6.1699   6.4139   6.4534   6.5627   6.6777   6.7595
     6.9569   7.1831   7.3030   7.3640   7.4359   7.5434   7.5782   7.6559
    13.3869  13.9625  14.2608  14.4476  14.5552  14.9699  15.2011  15.2988
    15.4064  15.7070  15.9769  16.2558  16.5432

     occupation numbers 
     1.0000   1.0000   1.0000   1.0000   1.0000   1.0000   1.0000   1.0000
     1.0000   1.0000   1.0000   1.0000   1.0000   1.0000   1.0000   1.0000
     1.0000   1.0000   1.0000   1.0000   1.0000   1.0000   1.0000   1.0000
     1.0000   1.0000   1.0000   1.0000   1.0000   1.0000   1.0000   1.0000
     1.0000   1.0000   1.0000   1.0000   1.0000   1.0000   1.0000   1.0000
     1.0000   1.0000   1.0000   1.0000   1.0000   1.0000   1.0000   1.0000
     1.0000   1.0000   1.0000   1.0000   1.0000   1.0000   1.0000   1.0000
     1.0000   1.0000   1.0000   1.0000   1.0000   1.0000   1.0000   1.0000
     0.0000   0.0000   0.0000   0.0000   0.0000   0.0000   0.0000   0.0000
     0.0000   0.0000   0.0000   0.0000   0.0000

          k =-0.7176 0.0005 0.3505 (  5237 PWs)   bands (ev):

   -65.5460 -65.4366 -64.8811 -64.6864 -32.5225 -32.5099 -32.4905 -32.4056
   -32.4023 -32.3864 -31.8614 -31.8504 -31.8441 -31.6677 -31.6556 -31.6474
   -28.7416 -28.2131 -28.0452 -27.9818 -11.1765 -10.7615 -10.6850 -10.4300
   -10.2792 -10.0426  -9.7706  -9.7183  -9.6169  -9.5138  -9.3452  -9.2130
    -7.8112  -7.7261  -7.0318  -6.8319  -6.7220  -6.4667  -6.1837  -5.9683
     4.4175   4.8013   4.8677   4.9290   5.2046   5.6265   5.6393   5.7667
     5.8550   5.9038   6.1694   6.4139   6.4745   6.6329   6.6664   6.8354
     6.9823   7.1146   7.2033   7.3291   7.4369   7.5731   7.6228   7.8276
    13.6668  13.8510  14.2618  14.5060  14.8117  14.9765  15.1807  15.4378
    15.7464  15.8614  16.0354  16.2045  16.5480

     occupation numbers 
     1.0000   1.0000   1.0000   1.0000   1.0000   1.0000   1.0000   1.0000
     1.0000   1.0000   1.0000   1.0000   1.0000   1.0000   1.0000   1.0000
     1.0000   1.0000   1.0000   1.0000   1.0000   1.0000   1.0000   1.0000
     1.0000   1.0000   1.0000   1.0000   1.0000   1.0000   1.0000   1.0000
     1.0000   1.0000   1.0000   1.0000   1.0000   1.0000   1.0000   1.0000
     1.0000   1.0000   1.0000   1.0000   1.0000   1.0000   1.0000   1.0000
     1.0000   1.0000   1.0000   1.0000   1.0000   1.0000   1.0000   1.0000
     1.0000   1.0000   1.0000   1.0000   1.0000   1.0000   1.0000   1.0000
     0.0000   0.0000   0.0000   0.0000   0.0000   0.0000   0.0000   0.0000
     0.0000   0.0000   0.0000   0.0000   0.0000

          k =-0.5381 0.1776 0.1737 (  5248 PWs)   bands (ev):

   -65.5460 -65.4366 -64.8811 -64.6864 -32.5225 -32.5099 -32.4906 -32.4056
   -32.4023 -32.3864 -31.8613 -31.8504 -31.8441 -31.6676 -31.6555 -31.6474
   -28.7430 -28.2115 -28.0565 -27.9702 -11.2582 -10.8408 -10.6479 -10.3822
   -10.2188 -10.0177  -9.8528  -9.8040  -9.6445  -9.4596  -9.2868  -9.0829
    -7.6377  -7.5236  -7.2816  -6.9898  -6.8340  -6.5673  -6.0700  -5.8939
     4.2627   4.4747   4.6439   5.0869   5.2058   5.5523   5.7502   5.8488
     5.9488   6.1377   6.4141   6.4581   6.5766   6.6713   6.7946   6.8464
     7.0694   7.1152   7.1787   7.2989   7.3884   7.4462   7.5507   7.7821
    13.3310  13.4278  13.9372  14.5254  14.6527  14.9673  15.2320  15.4355
    15.8551  15.9832  16.2474  16.4974  16.6714

     occupation numbers 
     1.0000   1.0000   1.0000   1.0000   1.0000   1.0000   1.0000   1.0000
     1.0000   1.0000   1.0000   1.0000   1.0000   1.0000   1.0000   1.0000
     1.0000   1.0000   1.0000   1.0000   1.0000   1.0000   1.0000   1.0000
     1.0000   1.0000   1.0000   1.0000   1.0000   1.0000   1.0000   1.0000
     1.0000   1.0000   1.0000   1.0000   1.0000   1.0000   1.0000   1.0000
     1.0000   1.0000   1.0000   1.0000   1.0000   1.0000   1.0000   1.0000
     1.0000   1.0000   1.0000   1.0000   1.0000   1.0000   1.0000   1.0000
     1.0000   1.0000   1.0000   1.0000   1.0000   1.0000   1.0000   1.0000
     0.0000   0.0000   0.0000   0.0000   0.0000   0.0000   0.0000   0.0000
     0.0000   0.0000   0.0000   0.0000   0.0000

          k = 0.3599-0.3548-0.3507 (  5240 PWs)   bands (ev):

   -65.5460 -65.4366 -64.8811 -64.6864 -32.5223 -32.5098 -32.4905 -32.4058
   -32.4025 -32.3864 -31.8613 -31.8503 -31.8439 -31.6677 -31.6556 -31.6475
   -28.7424 -28.2076 -28.0597 -27.9727 -11.1410 -10.5950 -10.5528 -10.4542
   -10.3730 -10.1141  -9.9889  -9.8053  -9.7883  -9.4706  -9.4255  -9.0899
    -7.4427  -7.2937  -6.9809  -6.9122  -6.8106  -6.6354  -6.3437  -6.1231
     4.1082   4.3719   4.5951   4.8173   5.5838   5.7025   5.9946   6.0306
     6.2835   6.3356   6.4088   6.4831   6.5610   6.7339   6.8014   6.8259
     6.9741   7.0646   7.1155   7.1707   7.2801   7.3570   7.5401   7.5968
    13.2498  13.4508  14.0329  14.3773  14.4683  14.7591  14.8001  15.0834
    15.7614  16.0371  16.3325  16.3730  16.6923

     occupation numbers 
     1.0000   1.0000   1.0000   1.0000   1.0000   1.0000   1.0000   1.0000
     1.0000   1.0000   1.0000   1.0000   1.0000   1.0000   1.0000   1.0000
     1.0000   1.0000   1.0000   1.0000   1.0000   1.0000   1.0000   1.0000
     1.0000   1.0000   1.0000   1.0000   1.0000   1.0000   1.0000   1.0000
     1.0000   1.0000   1.0000   1.0000   1.0000   1.0000   1.0000   1.0000
     1.0000   1.0000   1.0000   1.0000   1.0000   1.0000   1.0000   1.0000
     1.0000   1.0000   1.0000   1.0000   1.0000   1.0000   1.0000   1.0000
     1.0000   1.0000   1.0000   1.0000   1.0000   1.0000   1.0000   1.0000
     0.0000   0.0000   0.0000   0.0000   0.0000   0.0000   0.0000   0.0000
     0.0000   0.0000   0.0000   0.0000   0.0000

          k = 0.5394-0.1778-0.5276 (  5243 PWs)   bands (ev):

   -65.5460 -65.4366 -64.8811 -64.6864 -32.5223 -32.5098 -32.4905 -32.4057
   -32.4024 -32.3864 -31.8613 -31.8503 -31.8439 -31.6677 -31.6556 -31.6475
   -28.7410 -28.2091 -28.0482 -27.9845 -11.0941 -10.6087 -10.5403 -10.4304
   -10.2868 -10.2215  -9.8791  -9.8105  -9.6452  -9.6016  -9.4577  -9.2460
    -7.7049  -7.5039  -6.8171  -6.7552  -6.6588  -6.5911  -6.3704  -6.0950
     4.1475   4.4456   4.8287   5.1196   5.5728   5.6463   5.7460   5.8454
     5.9619   6.1445   6.2728   6.3523   6.4408   6.5623   6.7120   6.7844
     6.9576   7.1640   7.2661   7.3219   7.4416   7.5490   7.6113   7.6957
    13.3848  13.7836  14.2520  14.4156  14.7970  14.9035  15.0933  15.3908
    15.4549  15.7648  16.0780  16.2175  16.3327

     occupation numbers 
     1.0000   1.0000   1.0000   1.0000   1.0000   1.0000   1.0000   1.0000
     1.0000   1.0000   1.0000   1.0000   1.0000   1.0000   1.0000   1.0000
     1.0000   1.0000   1.0000   1.0000   1.0000   1.0000   1.0000   1.0000
     1.0000   1.0000   1.0000   1.0000   1.0000   1.0000   1.0000   1.0000
     1.0000   1.0000   1.0000   1.0000   1.0000   1.0000   1.0000   1.0000
     1.0000   1.0000   1.0000   1.0000   1.0000   1.0000   1.0000   1.0000
     1.0000   1.0000   1.0000   1.0000   1.0000   1.0000   1.0000   1.0000
     1.0000   1.0000   1.0000   1.0000   1.0000   1.0000   1.0000   1.0000
     0.0000   0.0000   0.0000   0.0000   0.0000   0.0000   0.0000   0.0000
     0.0000   0.0000   0.0000   0.0000   0.0000

          k = 0.0009-0.7090 0.0030 (  5264 PWs)   bands (ev):

   -65.5460 -65.4366 -64.8811 -64.6864 -32.5223 -32.5098 -32.4904 -32.4057
   -32.4024 -32.3863 -31.8614 -31.8503 -31.8439 -31.6678 -31.6556 -31.6475
   -28.7397 -28.2107 -28.0284 -28.0047 -11.0431 -10.6456 -10.4848 -10.4155
   -10.2937 -10.1271  -9.8485  -9.8061  -9.7286  -9.5179  -9.5043  -9.4075
    -7.8391  -7.7377  -6.6459  -6.6392  -6.5740  -6.5427  -6.4265  -6.0678
     4.2577   4.4832   5.3184   5.3784   5.5253   5.6191   5.6769   5.6908
     5.8112   5.8628   6.0024   6.1122   6.2930   6.3216   6.4130   6.6544
     7.1079   7.2294   7.4172   7.5561   7.5708   7.6711   7.7155   7.7946
    13.6717  14.0278  14.2456  14.5983  14.8614  15.0406  15.3689  15.4205
    15.7030  15.7748  15.8603  15.9836  16.1822

     occupation numbers 
     1.0000   1.0000   1.0000   1.0000   1.0000   1.0000   1.0000   1.0000
     1.0000   1.0000   1.0000   1.0000   1.0000   1.0000   1.0000   1.0000
     1.0000   1.0000   1.0000   1.0000   1.0000   1.0000   1.0000   1.0000
     1.0000   1.0000   1.0000   1.0000   1.0000   1.0000   1.0000   1.0000
     1.0000   1.0000   1.0000   1.0000   1.0000   1.0000   1.0000   1.0000
     1.0000   1.0000   1.0000   1.0000   1.0000   1.0000   1.0000   1.0000
     1.0000   1.0000   1.0000   1.0000   1.0000   1.0000   1.0000   1.0000
     1.0000   1.0000   1.0000   1.0000   1.0000   1.0000   1.0000   1.0000
     0.0000   0.0000   0.0000   0.0000   0.0000   0.0000   0.0000   0.0000
     0.0000   0.0000   0.0000   0.0000   0.0000

          k = 0.5386-0.5321-0.1721 (  5249 PWs)   bands (ev):

   -65.5460 -65.4366 -64.8811 -64.6864 -32.5223 -32.5098 -32.4905 -32.4057
   -32.4025 -32.3864 -31.8613 -31.8503 -31.8439 -31.6677 -31.6556 -31.6475
   -28.7410 -28.2091 -28.0483 -27.9844 -11.0959 -10.6079 -10.5325 -10.4223
   -10.3009 -10.2159  -9.8726  -9.8170  -9.6482  -9.6062  -9.4572  -9.2467
    -7.7078  -7.5021  -6.8167  -6.7718  -6.6352  -6.6020  -6.3682  -6.0918
     4.1178   4.4258   4.8745   5.1519   5.5574   5.6494   5.7109   5.8940
     6.0458   6.1080   6.2560   6.3793   6.5034   6.5736   6.6708   6.7461
     6.9577   7.1442   7.1982   7.3265   7.4371   7.5066   7.6413   7.7054
    13.3572  13.7419  14.3656  14.4942  14.6778  14.9969  15.0658  15.2784
    15.4427  15.6431  16.0140  16.2176  16.4742

     occupation numbers 
     1.0000   1.0000   1.0000   1.0000   1.0000   1.0000   1.0000   1.0000
     1.0000   1.0000   1.0000   1.0000   1.0000   1.0000   1.0000   1.0000
     1.0000   1.0000   1.0000   1.0000   1.0000   1.0000   1.0000   1.0000
     1.0000   1.0000   1.0000   1.0000   1.0000   1.0000   1.0000   1.0000
     1.0000   1.0000   1.0000   1.0000   1.0000   1.0000   1.0000   1.0000
     1.0000   1.0000   1.0000   1.0000   1.0000   1.0000   1.0000   1.0000
     1.0000   1.0000   1.0000   1.0000   1.0000   1.0000   1.0000   1.0000
     1.0000   1.0000   1.0000   1.0000   1.0000   1.0000   1.0000   1.0000
     0.0000   0.0000   0.0000   0.0000   0.0000   0.0000   0.0000   0.0000
     0.0000   0.0000   0.0000   0.0000   0.0000

          k = 0.7181-0.3550-0.3490 (  5259 PWs)   bands (ev):

   -65.5460 -65.4366 -64.8811 -64.6864 -32.5223 -32.5098 -32.4905 -32.4057
   -32.4025 -32.3864 -31.8613 -31.8503 -31.8439 -31.6677 -31.6556 -31.6475
   -28.7424 -28.2076 -28.0598 -27.9726 -11.1402 -10.6682 -10.5908 -10.4569
   -10.3703 -10.2764  -9.8179  -9.7361  -9.5095  -9.4706  -9.4273  -9.0895
    -7.9424  -7.6421  -6.8827  -6.6849  -6.6505  -6.4904  -6.3430  -6.1226
     3.9153   4.3084   4.8046   5.3942   5.5022   5.6298   5.6863   5.8215
     5.9938   6.0468   6.3182   6.5140   6.6962   6.7688   6.8444   6.9173
     6.9981   7.0157   7.1363   7.2347   7.3805   7.5070   7.6006   7.7244
    13.0011  13.6133  14.1310  14.3845  14.5614  14.6694  15.0533  15.4222
    15.6883  15.9595  16.1833  16.4112  16.6026

     occupation numbers 
     1.0000   1.0000   1.0000   1.0000   1.0000   1.0000   1.0000   1.0000
     1.0000   1.0000   1.0000   1.0000   1.0000   1.0000   1.0000   1.0000
     1.0000   1.0000   1.0000   1.0000   1.0000   1.0000   1.0000   1.0000
     1.0000   1.0000   1.0000   1.0000   1.0000   1.0000   1.0000   1.0000
     1.0000   1.0000   1.0000   1.0000   1.0000   1.0000   1.0000   1.0000
     1.0000   1.0000   1.0000   1.0000   1.0000   1.0000   1.0000   1.0000
     1.0000   1.0000   1.0000   1.0000   1.0000   1.0000   1.0000   1.0000
     1.0000   1.0000   1.0000   1.0000   1.0000   1.0000   1.0000   1.0000
     0.0000   0.0000   0.0000   0.0000   0.0000   0.0000   0.0000   0.0000
     0.0000   0.0000   0.0000   0.0000   0.0000

          k = 0.1796-0.8862 0.1816 (  5249 PWs)   bands (ev):

   -65.5460 -65.4366 -64.8811 -64.6864 -32.5223 -32.5097 -32.4905 -32.4057
   -32.4025 -32.3864 -31.8613 -31.8503 -31.8439 -31.6678 -31.6556 -31.6475
   -28.7410 -28.2091 -28.0484 -27.9844 -11.0929 -10.6085 -10.5434 -10.4226
   -10.2847 -10.2286  -9.8608  -9.8245  -9.6518  -9.6037  -9.4564  -9.2453
    -7.7065  -7.5012  -6.8307  -6.7448  -6.6527  -6.6043  -6.3637  -6.0913
     4.1824   4.4480   4.8279   5.1132   5.5532   5.6376   5.7431   5.8807
     5.9748   6.1322   6.2336   6.4005   6.4586   6.5576   6.6527   6.7678
     6.9395   7.1926   7.2843   7.4148   7.4380   7.5150   7.5871   7.6094
    13.4169  13.8598  14.3123  14.4281  14.7660  14.9536  15.1413  15.2907
    15.4478  15.6649  16.0152  16.2781  16.3724

     occupation numbers 
     1.0000   1.0000   1.0000   1.0000   1.0000   1.0000   1.0000   1.0000
     1.0000   1.0000   1.0000   1.0000   1.0000   1.0000   1.0000   1.0000
     1.0000   1.0000   1.0000   1.0000   1.0000   1.0000   1.0000   1.0000
     1.0000   1.0000   1.0000   1.0000   1.0000   1.0000   1.0000   1.0000
     1.0000   1.0000   1.0000   1.0000   1.0000   1.0000   1.0000   1.0000
     1.0000   1.0000   1.0000   1.0000   1.0000   1.0000   1.0000   1.0000
     1.0000   1.0000   1.0000   1.0000   1.0000   1.0000   1.0000   1.0000
     1.0000   1.0000   1.0000   1.0000   1.0000   1.0000   1.0000   1.0000
     0.0000   0.0000   0.0000   0.0000   0.0000   0.0000   0.0000   0.0000
     0.0000   0.0000   0.0000   0.0000   0.0000

          k = 0.3591-0.7091 0.0047 (  5232 PWs)   bands (ev):

   -65.5460 -65.4366 -64.8811 -64.6864 -32.5223 -32.5098 -32.4904 -32.4057
   -32.4024 -32.3863 -31.8614 -31.8503 -31.8439 -31.6678 -31.6556 -31.6475
   -28.7397 -28.2107 -28.0286 -28.0045 -11.0448 -10.5405 -10.4779 -10.3973
   -10.1506 -10.1179  -9.9519  -9.8541  -9.8181  -9.8020  -9.5066  -9.4068
    -7.3915  -7.2889  -6.9956  -6.8981  -6.6361  -6.5627  -6.4219  -6.0616
     4.4372   4.7051   4.8582   4.9536   5.5928   5.6318   5.7528   5.8319
     5.9148   5.9442   6.0639   6.2012   6.4945   6.6332   6.6755   6.7576
     6.9600   7.1103   7.2663   7.3139   7.4351   7.4745   7.6182   7.7397
    13.8387  14.2939  14.4796  14.6898  14.8739  14.9979  15.1393  15.2292
    15.4561  15.7108  15.8100  15.9333  16.0123

     occupation numbers 
     1.0000   1.0000   1.0000   1.0000   1.0000   1.0000   1.0000   1.0000
     1.0000   1.0000   1.0000   1.0000   1.0000   1.0000   1.0000   1.0000
     1.0000   1.0000   1.0000   1.0000   1.0000   1.0000   1.0000   1.0000
     1.0000   1.0000   1.0000   1.0000   1.0000   1.0000   1.0000   1.0000
     1.0000   1.0000   1.0000   1.0000   1.0000   1.0000   1.0000   1.0000
     1.0000   1.0000   1.0000   1.0000   1.0000   1.0000   1.0000   1.0000
     1.0000   1.0000   1.0000   1.0000   1.0000   1.0000   1.0000   1.0000
     1.0000   1.0000   1.0000   1.0000   1.0000   1.0000   1.0000   1.0000
     0.0000   0.0000   0.0000   0.0000   0.0000   0.0000   0.0000   0.0000
     0.0000   0.0000   0.0000   0.0000   0.0000

          k = 0.0026-0.0004-0.7078 (  5264 PWs)   bands (ev):

   -65.5460 -65.4366 -64.8811 -64.6864 -32.5223 -32.5098 -32.4904 -32.4057
   -32.4024 -32.3863 -31.8614 -31.8503 -31.8439 -31.6677 -31.6557 -31.6475
   -28.7397 -28.2107 -28.0287 -28.0043 -11.0472 -10.6432 -10.4797 -10.3890
   -10.2930 -10.1449  -9.8466  -9.8186  -9.7255  -9.5186  -9.5109  -9.4083
    -7.8330  -7.7472  -6.6582  -6.6512  -6.5725  -6.5249  -6.4235  -6.0606
     4.2063   4.4550   5.3326   5.5204   5.5272   5.6260   5.7108   5.7558
     5.7876   5.8953   5.9440   6.0780   6.3104   6.3980   6.5317   6.5594
     7.1095   7.2164   7.2624   7.3232   7.6537   7.7120   7.7301   7.8132
    13.6366  13.9884  14.2719  14.7164  14.9350  14.9733  15.2456  15.5645
    15.6186  15.7546  15.8791  15.9816  16.1707

     occupation numbers 
     1.0000   1.0000   1.0000   1.0000   1.0000   1.0000   1.0000   1.0000
     1.0000   1.0000   1.0000   1.0000   1.0000   1.0000   1.0000   1.0000
     1.0000   1.0000   1.0000   1.0000   1.0000   1.0000   1.0000   1.0000
     1.0000   1.0000   1.0000   1.0000   1.0000   1.0000   1.0000   1.0000
     1.0000   1.0000   1.0000   1.0000   1.0000   1.0000   1.0000   1.0000
     1.0000   1.0000   1.0000   1.0000   1.0000   1.0000   1.0000   1.0000
     1.0000   1.0000   1.0000   1.0000   1.0000   1.0000   1.0000   1.0000
     1.0000   1.0000   1.0000   1.0000   1.0000   1.0000   1.0000   1.0000
     0.0000   0.0000   0.0000   0.0000   0.0000   0.0000   0.0000   0.0000
     0.0000   0.0000   0.0000   0.0000   0.0000

          k = 0.1821 0.1766-0.8847 (  5248 PWs)   bands (ev):

   -65.5460 -65.4366 -64.8811 -64.6864 -32.5223 -32.5097 -32.4905 -32.4057
   -32.4025 -32.3864 -31.8613 -31.8503 -31.8439 -31.6678 -31.6556 -31.6475
   -28.7410 -28.2091 -28.0484 -27.9844 -11.0945 -10.6115 -10.5335 -10.4109
   -10.2983 -10.2237  -9.8552  -9.8358  -9.6535  -9.6053  -9.4577  -9.2445
    -7.7014  -7.5113  -6.8168  -6.7676  -6.6427  -6.6054  -6.3613  -6.0881
     4.1468   4.4435   4.8466   5.1339   5.5793   5.6826   5.7383   5.9009
     5.9754   6.0592   6.2651   6.3771   6.5503   6.5829   6.6776   6.7716
     6.9426   7.1485   7.1937   7.3159   7.4117   7.4709   7.6209   7.6976
    13.4199  13.8339  14.3891  14.4334  14.7145  14.9326  15.0084  15.3191
    15.6151  15.6789  15.9912  16.2235  16.2891

     occupation numbers 
     1.0000   1.0000   1.0000   1.0000   1.0000   1.0000   1.0000   1.0000
     1.0000   1.0000   1.0000   1.0000   1.0000   1.0000   1.0000   1.0000
     1.0000   1.0000   1.0000   1.0000   1.0000   1.0000   1.0000   1.0000
     1.0000   1.0000   1.0000   1.0000   1.0000   1.0000   1.0000   1.0000
     1.0000   1.0000   1.0000   1.0000   1.0000   1.0000   1.0000   1.0000
     1.0000   1.0000   1.0000   1.0000   1.0000   1.0000   1.0000   1.0000
     1.0000   1.0000   1.0000   1.0000   1.0000   1.0000   1.0000   1.0000
     1.0000   1.0000   1.0000   1.0000   1.0000   1.0000   1.0000   1.0000
     0.0000   0.0000   0.0000   0.0000   0.0000   0.0000   0.0000   0.0000
     0.0000   0.0000   0.0000   0.0000   0.0000

          k =-0.3564-0.3546-0.3541 (  5240 PWs)   bands (ev):

   -65.5460 -65.4366 -64.8811 -64.6864 -32.5224 -32.5097 -32.4905 -32.4057
   -32.4025 -32.3864 -31.8613 -31.8503 -31.8439 -31.6678 -31.6556 -31.6474
   -28.7424 -28.2075 -28.0599 -27.9726 -11.1389 -10.5978 -10.5519 -10.4501
   -10.3664 -10.1197  -9.9788  -9.8287  -9.7826  -9.4717  -9.4244  -9.0895
    -7.4139  -7.3405  -6.9406  -6.9219  -6.8326  -6.6402  -6.3349  -6.1160
     4.2351   4.2849   4.6713   4.7420   5.6394   5.6749   6.0122   6.0310
     6.1945   6.3804   6.3956   6.4751   6.5410   6.7231   6.8516   6.8911
     6.9810   7.0400   7.0983   7.1678   7.2616   7.3866   7.4605   7.5047
    13.3242  13.5665  14.1436  14.3202  14.5489  14.7157  14.7964  15.0972
    15.6548  15.9732  16.4150  16.4584  16.7769

     occupation numbers 
     1.0000   1.0000   1.0000   1.0000   1.0000   1.0000   1.0000   1.0000
     1.0000   1.0000   1.0000   1.0000   1.0000   1.0000   1.0000   1.0000
     1.0000   1.0000   1.0000   1.0000   1.0000   1.0000   1.0000   1.0000
     1.0000   1.0000   1.0000   1.0000   1.0000   1.0000   1.0000   1.0000
     1.0000   1.0000   1.0000   1.0000   1.0000   1.0000   1.0000   1.0000
     1.0000   1.0000   1.0000   1.0000   1.0000   1.0000   1.0000   1.0000
     1.0000   1.0000   1.0000   1.0000   1.0000   1.0000   1.0000   1.0000
     1.0000   1.0000   1.0000   1.0000   1.0000   1.0000   1.0000   1.0000
     0.0000   0.0000   0.0000   0.0000   0.0000   0.0000   0.0000   0.0000
     0.0000   0.0000   0.0000   0.0000   0.0000

     the Fermi energy is     9.3113 ev

!    total energy              =   -1059.58431781 Ry
     Harris-Foulkes estimate   =   -1059.58431781 Ry
     estimated scf accuracy    <          1.4E-11 Ry

     The total energy is the sum of the following terms:

     one-electron contribution =    -465.50238341 Ry
     hartree contribution      =     283.86006533 Ry
     xc contribution           =    -173.26323224 Ry
     ewald contribution        =    -704.67876749 Ry
     smearing contrib. (-TS)   =      -0.00000000 Ry

     convergence has been achieved in  19 iterations

     Forces acting on atoms (Ry/au):

     atom    1 type  2   force =  -0.15119400E-01  0.16789319E-01  0.66071357E-01
     atom    2 type  3   force =   0.42727738E-01  0.82089617E-01  0.59467517E-02
     atom    3 type  1   force =  -0.47455935E-01 -0.10889281E+00  0.15750622E-01
     atom    4 type  3   force =  -0.64265612E-01 -0.46556997E-01  0.28783127E-01
     atom    5 type  1   force =  -0.15258173E-01 -0.42100418E-02  0.15738696E-01
     atom    6 type  3   force =  -0.34618160E-02  0.32237774E-01 -0.26385209E-01
     atom    7 type  2   force =   0.11311042E-01 -0.93622365E-02 -0.16948182E-01
     atom    8 type  3   force =   0.21361171E-02  0.11200302E+00 -0.32281522E-02
     atom    9 type  2   force =  -0.34739990E-01 -0.33092970E-01 -0.21602247E-01
     atom   10 type  3   force =   0.33613740E-01  0.11279601E+00 -0.31402385E-02
     atom   11 type  1   force =   0.44409756E-01  0.45462171E-01 -0.97040324E-01
     atom   12 type  3   force =  -0.34912076E-02 -0.64286443E-03  0.12517571E-01
     atom   13 type  1   force =   0.12245958E-01 -0.16905081E+00  0.35122365E-01
     atom   14 type  3   force =  -0.12399866E-01 -0.38608067E-02 -0.17961920E-01
     atom   15 type  2   force =   0.59257654E-01  0.24739544E-01  0.14618706E-01
     atom   16 type  3   force =  -0.95100054E-02 -0.50447916E-01 -0.82429230E-02
     The non-local contrib.  to forces
     atom    1 type  2   force =  -0.43905157E-01 -0.10938084E+00  0.15540529E+00
     atom    2 type  3   force =   0.15181601E-02  0.22138478E+00  0.46021369E-01
     atom    3 type  1   force =  -0.20377767E-01 -0.74864982E-01  0.11475771E-01
     atom    4 type  3   force =  -0.16200607E+00 -0.16133782E+00  0.20487647E+00
     atom    5 type  1   force =   0.20649269E-01 -0.97425425E-02  0.54248340E-02
     atom    6 type  3   force =  -0.54980482E-01  0.13855001E+00 -0.18102709E+00
     atom    7 type  2   force =  -0.19639849E+00  0.27771209E-01 -0.13772354E+00
     atom    8 type  3   force =   0.69056695E-01  0.55199664E-01 -0.54264278E-01
     atom    9 type  2   force =  -0.21809954E+00  0.17153604E+00 -0.82621893E-01
     atom   10 type  3   force =   0.11669965E+00  0.61893417E-01 -0.11231238E+00
     atom   11 type  1   force =   0.31970564E-01  0.28802854E-03 -0.83670392E-02
     atom   12 type  3   force =  -0.56290855E-01  0.31891523E-01 -0.50160787E-01
     atom   13 type  1   force =   0.22171292E-01 -0.55149854E-01 -0.43684844E-02
     atom   14 type  3   force =  -0.63146852E-02 -0.25197898E-01  0.13384812E+00
     atom   15 type  2   force =  -0.66286306E-01 -0.34762466E-01  0.14830982E+00
     atom   16 type  3   force =  -0.10223235E+00 -0.67977319E-01  0.14446800E-01
     The ionic contribution  to forces
     atom    1 type  2   force =  -0.21723414E+01  0.31828995E+00  0.37269123E+01
     atom    2 type  3   force =   0.28216528E+01  0.35308917E+00 -0.84802921E+00
     atom    3 type  1   force =  -0.31714425E+00 -0.25327005E+01  0.11993586E+01
     atom    4 type  3   force =  -0.15081938E+01 -0.78237743E+00 -0.15116424E+01
     atom    5 type  1   force =   0.64205289E+00  0.32971658E+00  0.57190454E-01
     atom    6 type  3   force =   0.14668549E-01  0.82746565E-01  0.11568848E+01
     atom    7 type  2   force =  -0.15758521E+01  0.43113064E+00 -0.26580165E+01
     atom    8 type  3   force =  -0.89146341E+00  0.31150485E+01  0.13839959E+01
     atom    9 type  2   force =  -0.29867854E+01  0.68131079E-01 -0.22344872E+01
     atom   10 type  3   force =   0.79364709E+00  0.28431671E+01  0.12337417E+01
     atom   11 type  1   force =   0.23949838E+01  0.18135697E+01 -0.34344129E+01
     atom   12 type  3   force =  -0.71075345E-01 -0.91628393E+00  0.26294502E+01
     atom   13 type  1   force =   0.10597819E+01 -0.47034211E+01  0.17388962E+01
     atom   14 type  3   force =  -0.36440489E+00  0.64872155E+00 -0.34993530E+01
     atom   15 type  2   force =   0.13196302E+01  0.84176980E+00  0.20177419E+01
     atom   16 type  3   force =   0.84084341E+00 -0.19105977E+01 -0.95823090E+00
     The local contribution  to forces
     atom    1 type  2   force =   0.22011267E+01 -0.19212212E+00 -0.38162470E+01
     atom    2 type  3   force =  -0.27796769E+01 -0.49030538E+00  0.80815315E+00
     atom    3 type  1   force =   0.28942139E+00  0.24995327E+01 -0.11951524E+01
     atom    4 type  3   force =   0.16042581E+01  0.89570894E+00  0.13366765E+01
     atom    5 type  1   force =  -0.67909168E+00 -0.32431515E+00 -0.46443672E-01
     atom    6 type  3   force =   0.36651666E-01 -0.18793399E+00 -0.10032999E+01
     atom    7 type  2   force =   0.17835606E+01 -0.46826498E+00  0.27787875E+01
     atom    8 type  3   force =   0.82474262E+00 -0.30560873E+01 -0.13332403E+01
     atom    9 type  2   force =   0.31701443E+01 -0.27275903E+00  0.22955103E+01
     atom   10 type  3   force =  -0.87583916E+00 -0.27901962E+01 -0.11248574E+01
     atom   11 type  1   force =  -0.23827486E+01 -0.17679101E+01  0.33444178E+01
     atom   12 type  3   force =   0.12360657E+00  0.88390862E+00 -0.25666274E+01
     atom   13 type  1   force =  -0.10701588E+01  0.45885579E+01 -0.16988658E+01
     atom   14 type  3   force =   0.35803057E+00 -0.62756069E+00  0.33475845E+01
     atom   15 type  2   force =  -0.11940857E+01 -0.78226368E+00 -0.21514299E+01
     atom   16 type  3   force =  -0.74856335E+00  0.19269518E+01  0.93541626E+00
     The core correction contribution to forces
     atom    1 type  2   force =   0.00000000E+00  0.00000000E+00  0.00000000E+00
     atom    2 type  3   force =  -0.76593880E-03 -0.20803889E-02 -0.19820848E-03
     atom    3 type  1   force =   0.64732277E-03 -0.86109001E-03  0.69342724E-04
     atom    4 type  3   force =   0.16765254E-02  0.14494177E-02 -0.11275244E-02
     atom    5 type  1   force =   0.11325543E-02  0.13165314E-03 -0.43290240E-03
     atom    6 type  3   force =   0.19821562E-03 -0.11250364E-02  0.10587252E-02
     atom    7 type  2   force =   0.00000000E+00  0.00000000E+00  0.00000000E+00
     atom    8 type  3   force =  -0.19985380E-03 -0.21558278E-02  0.28013957E-03
     atom    9 type  2   force =   0.00000000E+00  0.00000000E+00  0.00000000E+00
     atom   10 type  3   force =  -0.89449576E-03 -0.20663490E-02  0.29068719E-03
     atom   11 type  1   force =   0.20289085E-03 -0.48468126E-03  0.13223122E-02
     atom   12 type  3   force =   0.26799439E-03 -0.15897082E-03 -0.14283350E-03
     atom   13 type  1   force =   0.44913826E-03  0.96173611E-03 -0.53815182E-03
     atom   14 type  3   force =   0.28666531E-03  0.17583771E-03 -0.42398691E-04
     atom   15 type  2   force =   0.00000000E+00  0.00000000E+00  0.00000000E+00
     atom   16 type  3   force =   0.44324697E-03  0.11758826E-02  0.12504547E-03
     The Hubbard contrib.    to forces
     atom    1 type  2   force =   0.00000000E+00  0.00000000E+00  0.00000000E+00
     atom    2 type  3   force =   0.00000000E+00  0.00000000E+00  0.00000000E+00
     atom    3 type  1   force =   0.00000000E+00  0.00000000E+00  0.00000000E+00
     atom    4 type  3   force =   0.00000000E+00  0.00000000E+00  0.00000000E+00
     atom    5 type  1   force =   0.00000000E+00  0.00000000E+00  0.00000000E+00
     atom    6 type  3   force =   0.00000000E+00  0.00000000E+00  0.00000000E+00
     atom    7 type  2   force =   0.00000000E+00  0.00000000E+00  0.00000000E+00
     atom    8 type  3   force =   0.00000000E+00  0.00000000E+00  0.00000000E+00
     atom    9 type  2   force =   0.00000000E+00  0.00000000E+00  0.00000000E+00
     atom   10 type  3   force =   0.00000000E+00  0.00000000E+00  0.00000000E+00
     atom   11 type  1   force =   0.00000000E+00  0.00000000E+00  0.00000000E+00
     atom   12 type  3   force =   0.00000000E+00  0.00000000E+00  0.00000000E+00
     atom   13 type  1   force =   0.00000000E+00  0.00000000E+00  0.00000000E+00
     atom   14 type  3   force =   0.00000000E+00  0.00000000E+00  0.00000000E+00
     atom   15 type  2   force =   0.00000000E+00  0.00000000E+00  0.00000000E+00
     atom   16 type  3   force =   0.00000000E+00  0.00000000E+00  0.00000000E+00
     The SCF correction term to forces
     atom    1 type  2   force =   0.22123525E-06  0.24374654E-05  0.13998919E-05
     atom    2 type  3   force =  -0.53571731E-06  0.15503999E-05  0.28051901E-06
     atom    3 type  1   force =  -0.28653933E-05  0.11443354E-05 -0.95388782E-07
     atom    4 type  3   force =  -0.56557653E-06  0.56931084E-08  0.71700608E-06
     atom    5 type  1   force =  -0.14437852E-05 -0.47175194E-06  0.61194868E-06
     atom    6 type  3   force =  -0.97701672E-09  0.33430559E-06 -0.10856849E-05
     atom    7 type  2   force =   0.79939245E-06  0.10066363E-05  0.49356121E-05
     atom    8 type  3   force =  -0.17126243E-06 -0.19067958E-05  0.10638596E-05
     atom    9 type  2   force =   0.41704390E-06 -0.95525527E-06 -0.27578052E-05
     atom   10 type  3   force =   0.42328531E-06 -0.18076113E-05 -0.22489477E-05
     atom   11 type  1   force =   0.88496490E-06 -0.73578596E-06  0.16024018E-06
     atom   12 type  3   force =   0.19684996E-06  0.93531099E-08 -0.99430694E-06
     atom   13 type  1   force =   0.21801315E-05  0.61475911E-06 -0.74873016E-06
     atom   14 type  3   force =   0.22373868E-05  0.50389718E-06  0.14643069E-05
     atom   15 type  2   force =  -0.74818965E-06 -0.39995165E-05 -0.24759285E-05
     atom   16 type  3   force =  -0.12065721E-05 -0.47091222E-06  0.50766344E-06

     Total force =     0.343537     Total SCF correction =     0.000011


     entering subroutine stress ...

          total   stress  (Ry/bohr**3)                   (kbar)     P=   90.67
   0.0006164230  -0.0000571824   0.0000307220         90.68     -8.41      4.52
  -0.0000571824   0.0008240171   0.0000114192         -8.41    121.22      1.68
   0.0000307220   0.0000114192   0.0004086076          4.52      1.68     60.11

     kinetic stress (kbar)  21410.00    -14.35      4.22
                              -14.35  21438.86      7.99
                                4.22      7.99  21377.20

     local   stress (kbar)  -4287.25    316.59    162.06
                              316.59  -3625.96   -113.40
                              162.06   -113.40  -2305.15

     nonloc. stress (kbar)   5392.80      1.39     -1.67
                                1.39   5378.87     -0.31
                               -1.67     -0.31   5393.19

     hartree stress (kbar)  11671.60   -107.49    -68.11
                             -107.49  11400.00     50.72
                              -68.11     50.72  10940.89

     exc-cor stress (kbar)  -5418.76     -0.30     -0.08
                               -0.30  -5418.90      0.08
                               -0.08      0.08  -5420.11

     corecor stress (kbar)  -1073.27      0.05     -0.01
                                0.05  -1073.25     -0.03
                               -0.01     -0.03  -1073.20

     ewald   stress (kbar) -27604.44   -204.31    -91.90
                             -204.31 -27978.40     56.63
                              -91.90     56.63 -28852.71

     hubbard stress (kbar)      0.00      0.00      0.00
                                0.00      0.00      0.00
                                0.00      0.00      0.00

     london  stress (kbar)      0.00      0.00      0.00
                                0.00      0.00      0.00
                                0.00      0.00      0.00

     XDM     stress (kbar)      0.00      0.00      0.00
                                0.00      0.00      0.00
                                0.00      0.00      0.00

     dft-nl  stress (kbar)      0.00      0.00      0.00
                                0.00      0.00      0.00
                                0.00      0.00      0.00



     Writing output data file mix222.099.save

     init_run     :     20.11s CPU     18.29s WALL (       1 calls)
     electrons    :    929.07s CPU    862.17s WALL (       1 calls)
     forces       :      8.81s CPU      7.10s WALL (       1 calls)
     stress       :     17.52s CPU     17.06s WALL (       1 calls)

     Called by init_run:
     wfcinit      :     16.94s CPU     15.10s WALL (       1 calls)
     potinit      :      0.80s CPU      0.80s WALL (       1 calls)

     Called by electrons:
     c_bands      :    807.98s CPU    747.68s WALL (      19 calls)
     sum_band     :    111.13s CPU    104.51s WALL (      19 calls)
     v_of_rho     :      1.18s CPU      1.19s WALL (      20 calls)
     v_h          :      0.05s CPU      0.06s WALL (      20 calls)
     v_xc         :      1.23s CPU      1.23s WALL (      22 calls)
     newd         :      7.54s CPU      7.54s WALL (      20 calls)
     mix_rho      :      1.52s CPU      1.53s WALL (      19 calls)

     Called by c_bands:
     init_us_2    :      4.50s CPU      4.58s WALL (    1476 calls)
     cegterg      :    786.22s CPU    725.01s WALL (     684 calls)

     Called by sum_band:
     sum_band:bec :      1.10s CPU      1.08s WALL (     684 calls)
     addusdens    :      7.34s CPU      7.35s WALL (      19 calls)

     Called by *egterg:
     h_psi        :    439.10s CPU    408.22s WALL (    2418 calls)
     s_psi        :     55.93s CPU     36.12s WALL (    2418 calls)
     g_psi        :      0.63s CPU      0.64s WALL (    1698 calls)
     cdiaghg      :    137.87s CPU    142.05s WALL (    2382 calls)
     cegterg:over :     73.18s CPU     65.90s WALL (    1698 calls)
     cegterg:upda :     28.07s CPU     20.04s WALL (    1698 calls)
     cegterg:last :     16.07s CPU     10.36s WALL (     684 calls)

     Called by h_psi:
     h_psi:vloc   :    305.63s CPU    307.19s WALL (    2418 calls)
     h_psi:vnl    :    132.93s CPU    100.37s WALL (    2418 calls)
     add_vuspsi   :     56.38s CPU     37.66s WALL (    2418 calls)

     General routines
     calbec       :    112.61s CPU     90.84s WALL (    3174 calls)
     fft          :      1.64s CPU      1.63s WALL (     341 calls)
     ffts         :      0.97s CPU      0.95s WALL (     511 calls)
     fftw         :    350.57s CPU    352.05s WALL (  296978 calls)
     interpolate  :      0.20s CPU      0.20s WALL (      39 calls)

     Parallel routines
     fft_scatter  :    132.30s CPU    132.91s WALL (  297830 calls)

     PWSCF        : 16m17.87s CPU    15m 7.41s WALL


   This run was terminated on:  20:24:30  18Aug2017            

=------------------------------------------------------------------------------=
   JOB DONE.
=------------------------------------------------------------------------------=
