
     Program PWSCF v.5.1 starts on  3Nov2017 at 19:54:13 

     This program is part of the open-source Quantum ESPRESSO suite
     for quantum simulation of materials; please cite
         "P. Giannozzi et al., J. Phys.:Condens. Matter 21 395502 (2009);
          URL http://www.quantum-espresso.org", 
     in publications or presentations arising from this work. More details at
     http://www.quantum-espresso.org/quote

     Parallel version (MPI), running on     8 processors
     R & G space division:  proc/nbgrp/npool/nimage =       8
     Reading input from /tmp/mix_rocksalt.relax.in.up_1.00.super.444.a.10.25107/mix_rocksalt.relax.in.up_1.00.super.444.a.10.t
Warning: card &IONS ignored
Warning: card   ION_DYNAMICS='BFGS', ignored
Warning: card / ignored
Warning: card &CELL ignored
Warning: card  CELL_DYNAMICS = 'BFGS' ignored
Warning: card / ignored
     Message from routine read_cards :
     DEPRECATED: no units specified in CELL_PARAMETERS card

     Current dimensions of program PWSCF are:
     Max number of different atomic species (ntypx) = 10
     Max number of k-points (npk) =  40000
     Max angular momentum in pseudopotentials (lmaxx) =  3
 kfg - two_fermi_energies  F

     Subspace diagonalization in iterative solution of the eigenvalue problem:
     a serial algorithm will be used


     Parallelization info
     --------------------
     sticks:   dense  smooth     PW     G-vecs:    dense   smooth      PW
     Min        1000     799    209                58766    42060    5723
     Max        1001     800    210                58769    42079    5727
     Sum        8007    6399   1675               470143   336551   45799



     bravais-lattice index     =            0
     lattice parameter (alat)  =    24.086657409  a.u.
     unit-cell volume          =    9844.2620 (a.u.)^3
     number of atoms/cell      =          128
     number of atomic types    =            3
     number of electrons       =      1024.00
     number of Kohn-Sham states=          614
     kinetic-energy cutoff     =      40.0000  Ry
     charge density cutoff     =     200.0000  Ry
     convergence threshold     =      1.0E-10
     mixing beta               =       0.3000
     number of iterations used =            8  local-TF  mixing
     Exchange-correlation      = SLA  PW   PSX  PSC ( 1  4 10  8 0)
     A smooth kinetic-energy cutoff is imposed at      39.5000 Ry
     height of the smooth step-function =             800.0000 Ry
     width of the smooth step-function  =               1.0000 Ry


     celldm(1)=  24.086657  celldm(2)=   0.000000  celldm(3)=   0.000000
     celldm(4)=   0.000000  celldm(5)=   0.000000  celldm(6)=   0.000000

     crystal axes: (cart. coord. in units of alat)
               a(1) = (   0.000434845922   0.707461708308   0.706751542048 )  
               a(2) = (   0.708355033709  -0.000065853837   0.704778180531 )  
               a(3) = (   0.705127592227   0.706481098197   0.001249771122 )  

     reciprocal axes: (cart. coord. in units 2 pi/alat)
               b(1) = ( -0.706805  0.704194  0.710458 )  
               b(2) = (  0.707529 -0.707425  0.707701 )  
               b(3) = (  0.707852  0.710229 -0.711378 )  


     PseudoPot. # 1 for Mg read from file:
     /users/kfg/psuedo/gbrv_1.5/mg.pbesol.UPF
     MD5 check sum: 4059f37963cf5867752dbf5ab2400678
     Pseudo is Ultrasoft, Zval = 10.0
     Generated by new atomic code, or converted to UPF format
     Using radial grid of  821 points,  7 beta functions with: 
                l(1) =   0
                l(2) =   0
                l(3) =   0
                l(4) =   1
                l(5) =   1
                l(6) =   2
                l(7) =   2
     Q(r) pseudized with  8 coefficients,  rinner =    1.200   1.200   1.200
                                                       1.200   1.200

     PseudoPot. # 2 for Ca read from file:
     /users/kfg/psuedo/gbrv_1.5/ca.pbesol.UPF
     MD5 check sum: 0533207b58cddeaa036efa5b63902087
     Pseudo is Ultrasoft + core correction, Zval = 10.0
     Generated by new atomic code, or converted to UPF format
     Using radial grid of  845 points,  6 beta functions with: 
                l(1) =   0
                l(2) =   0
                l(3) =   1
                l(4) =   1
                l(5) =   2
                l(6) =   2
     Q(r) pseudized with  8 coefficients,  rinner =    1.500   1.500   1.500
                                                       1.500   1.500

     PseudoPot. # 3 for O  read from file:
     /users/kfg/psuedo/gbrv_1.5/o.pbesol.UPF
     MD5 check sum: 501638753501ef6325af9037351f7734
     Pseudo is Ultrasoft + core correction, Zval =  6.0
     Generated by new atomic code, or converted to UPF format
     Using radial grid of  737 points,  5 beta functions with: 
                l(1) =   0
                l(2) =   0
                l(3) =   1
                l(4) =   1
                l(5) =   2
     Q(r) pseudized with  8 coefficients,  rinner =    0.900   0.900   0.900
                                                       0.900   0.900

     atomic species   valence    mass     pseudopotential
        Mg            10.00    24.30500     Mg( 1.00)
        Ca            10.00    24.30500     Ca( 1.00)
        O              6.00    15.99940     O ( 1.00)

     No symmetry found


                                    s                        frac. trans.

      isym =  1     identity                                     

 cryst.   s( 1) = (     1          0          0      )
                  (     0          1          0      )
                  (     0          0          1      )

 cart.    s( 1) = (  1.0000000  0.0000000 -0.0000000 )
                  (  0.0000000  1.0000000  0.0000000 )
                  (  0.0000000  0.0000000  1.0000000 )


     point group C_1 (1)    
     there are  1 classes
     the character table:

       E    
A      1.00

     the symmetry operations in each class:
     E        1

   Cartesian axes

     site n.     atom                  positions (alat units)
         1           Ca  tau(   1) = (    0.00012109218   -0.00170144875    0.00184704605  )
         2           O   tau(   2) = (    0.17599576189    0.17736867717    0.17700923106  )
         3           Ca  tau(   3) = (    0.17805840965    0.17696219314   -0.00015653843  )
         4           O   tau(   4) = (    0.35284834279    0.35501784107    0.17895680825  )
         5           Mg  tau(   5) = (    0.35109684856    0.35132675019    0.00161185406  )
         6           O   tau(   6) = (    0.52794141826    0.52906735074    0.17684209580  )
         7           Ca  tau(   7) = (    0.52741931378    0.52859053940   -0.00016201572  )
         8           O   tau(   8) = (    0.70653242955    0.70542471967    0.17685670627  )
         9           Ca  tau(   9) = (    0.17814564422   -0.00091449179    0.17558045827  )
        10           O   tau(  10) = (    0.35351263841    0.17560370136    0.35330246346  )
        11           Mg  tau(  11) = (    0.35365751931    0.17822064870    0.17587385626  )
        12           O   tau(  12) = (    0.52809624678    0.35438486892    0.35346967214  )
        13           Ca  tau(  13) = (    0.53140640427    0.35404477329    0.17630171877  )
        14           O   tau(  14) = (    0.70476761507    0.53173938063    0.35189440790  )
        15           Ca  tau(  15) = (    0.70493250933    0.52852035993    0.17816579275  )
        16           O   tau(  16) = (    0.88268547125    0.70577088481    0.35410802010  )
        17           Ca  tau(  17) = (    0.35304019056   -0.00049676185    0.35247372628  )
        18           O   tau(  18) = (    0.53059394857    0.17714760145    0.52821811798  )
        19           Mg  tau(  19) = (    0.53099147495    0.17811182613    0.35281108847  )
        20           O   tau(  20) = (    0.70517507458    0.35321762535    0.52991971736  )
        21           Mg  tau(  21) = (    0.70598569895    0.35195516812    0.35144015388  )
        22           O   tau(  22) = (    0.88514794351    0.53067924531    0.52858839660  )
        23           Ca  tau(  23) = (    0.88233548236    0.53117258345    0.35404418244  )
        24           O   tau(  24) = (    1.05820715223    0.70750327804    0.53183872782  )
        25           Ca  tau(  25) = (    0.53332434536    0.00044246493    0.52959932376  )
        26           O   tau(  26) = (    0.70692574880    0.17619452978    0.70313471969  )
        27           Mg  tau(  27) = (    0.70910746415    0.17734875207    0.53029324730  )
        28           O   tau(  28) = (    0.88428000387    0.35345957103    0.70674507729  )
        29           Mg  tau(  29) = (    0.88372575689    0.35179053018    0.52956057147  )
        30           O   tau(  30) = (    1.05854402878    0.52923962446    0.70731130597  )
        31           Mg  tau(  31) = (    1.05870218310    0.53008431938    0.53054633364  )
        32           O   tau(  32) = (    1.23668096582    0.70850184262    0.70660249271  )
        33           Ca  tau(  33) = (   -0.00170731546    0.17559495193    0.17627074572  )
        34           O   tau(  34) = (    0.17610722942    0.35228888576    0.35326204836  )
        35           Ca  tau(  35) = (    0.17806278838    0.35531128500    0.17720414992  )
        36           O   tau(  36) = (    0.35136229013    0.52996067323    0.35201917950  )
        37           Mg  tau(  37) = (    0.35468728926    0.52930055870    0.17603474002  )
        38           O   tau(  38) = (    0.53029872896    0.70539348600    0.35531987649  )
        39           Mg  tau(  39) = (    0.52776433250    0.70614587312    0.17928245766  )
        40           O   tau(  40) = (    0.70625474049    0.88320814268    0.35597121133  )
        41           Mg  tau(  41) = (    0.17537397455    0.17554294671    0.35245374068  )
        42           O   tau(  42) = (    0.35307364770    0.35539791065    0.52803795182  )
        43           Mg  tau(  43) = (    0.35189847742    0.35310895808    0.35216938964  )
        44           O   tau(  44) = (    0.52894555056    0.52957907142    0.52869794172  )
        45           Mg  tau(  45) = (    0.52911642198    0.52814381044    0.35275314675  )
        46           O   tau(  46) = (    0.70585151476    0.70579256622    0.52969224183  )
        47           Ca  tau(  47) = (    0.70532128631    0.70876925538    0.35256821845  )
        48           O   tau(  48) = (    0.88297610560    0.88234668561    0.53204520358  )
        49           Mg  tau(  49) = (    0.35529420916    0.17625617381    0.52814029746  )
        50           O   tau(  50) = (    0.52976872678    0.35252970745    0.70610769277  )
        51           Mg  tau(  51) = (    0.53205402244    0.35361886693    0.53027767150  )
        52           O   tau(  52) = (    0.70767709456    0.53054991608    0.70473907759  )
        53           Ca  tau(  53) = (    0.70865217219    0.53089567987    0.53129597725  )
        54           O   tau(  54) = (    0.88408143826    0.70754477417    0.70811622311  )
        55           Ca  tau(  55) = (    0.88330340925    0.70600559074    0.52851164561  )
        56           O   tau(  56) = (    1.06140039272    0.88533132835    0.70532591589  )
        57           Ca  tau(  57) = (    0.53245923800    0.17500510605    0.70728636909  )
        58           O   tau(  58) = (    0.70892500349    0.35329390004    0.88326776563  )
        59           Mg  tau(  59) = (    0.70754636702    0.35438232539    0.70426472384  )
        60           O   tau(  60) = (    0.88598057692    0.53137010443    0.88298897479  )
        61           Mg  tau(  61) = (    0.88447927736    0.52924331813    0.70498570009  )
        62           O   tau(  62) = (    1.05943476113    0.70658209775    0.88226447918  )
        63           Ca  tau(  63) = (    1.06221226669    0.70695296886    0.70543713501  )
        64           O   tau(  64) = (    1.23588444028    0.88364891995    0.88472398261  )
        65           Mg  tau(  65) = (    0.00144709048    0.35521146839    0.35347674990  )
        66           O   tau(  66) = (    0.17687145750    0.53247743176    0.52868620502  )
        67           Mg  tau(  67) = (    0.17444516072    0.52831368827    0.35206828438  )
        68           O   tau(  68) = (    0.35132035314    0.70814321078    0.53084278200  )
        69           Mg  tau(  69) = (    0.35197043812    0.70546884923    0.35291949884  )
        70           O   tau(  70) = (    0.52927227974    0.88559223173    0.53232102197  )
        71           Ca  tau(  71) = (    0.52962764652    0.88437703456    0.35249238578  )
        72           O   tau(  72) = (    0.70525438442    1.06206734690    0.53103947208  )
        73           Mg  tau(  73) = (    0.17659958520    0.35556400749    0.53025751053  )
        74           O   tau(  74) = (    0.35386724364    0.52908413817    0.70581980120  )
        75           Mg  tau(  75) = (    0.35227622769    0.53049778493    0.52974538562  )
        76           O   tau(  76) = (    0.52866559096    0.70790345270    0.70582132348  )
        77           Ca  tau(  77) = (    0.53126418432    0.70719480368    0.53103722109  )
        78           O   tau(  78) = (    0.70833796043    0.88399866821    0.70817426189  )
        79           Mg  tau(  79) = (    0.70608635777    0.88393059282    0.53052929265  )
        80           O   tau(  80) = (    0.88345948814    1.05964574870    0.70557425465  )
        81           Ca  tau(  81) = (    0.35291903374    0.35517699788    0.70708158466  )
        82           O   tau(  82) = (    0.53091183777    0.53008591075    0.88434138539  )
        83           Mg  tau(  83) = (    0.52945396483    0.52878699564    0.70631156305  )
        84           O   tau(  84) = (    0.70919745227    0.70574670967    0.88233170963  )
        85           Mg  tau(  85) = (    0.70735931179    0.70892404393    0.70584659913  )
        86           O   tau(  86) = (    0.88512320670    0.88305079385    0.88390610125  )
        87           Mg  tau(  87) = (    0.88235365301    0.88382847447    0.70613477951  )
        88           O   tau(  88) = (    1.06006673534    1.06154163135    0.88394872338  )
        89           Ca  tau(  89) = (    0.53351475144    0.35235435867    0.88242418614  )
        90           O   tau(  90) = (    0.70808357204    0.52858096655    1.06054785052  )
        91           Ca  tau(  91) = (    0.70911003428    0.52962208935    0.88248116355  )
        92           O   tau(  92) = (    0.88440825399    0.70777221976    1.05707093668  )
        93           Ca  tau(  93) = (    0.88328437670    0.70720049074    0.88270054160  )
        94           O   tau(  94) = (    1.05959456727    0.88555085429    1.06095939322  )
        95           Mg  tau(  95) = (    1.06058563434    0.88520933405    0.88317758306  )
        96           O   tau(  96) = (    1.23617582959    1.05909586297    1.05960194047  )
        97           Mg  tau(  97) = (    0.00225598750    0.52943847675    0.52811389000  )
        98           O   tau(  98) = (    0.17733012590    0.70537558615    0.70480513676  )
        99           Mg  tau(  99) = (    0.17856359445    0.70848013737    0.52947033802  )
       100           O   tau( 100) = (    0.35242857633    0.88365315968    0.70792090454  )
       101           Mg  tau( 101) = (    0.35411209641    0.88271703068    0.53101631891  )
       102           O   tau( 102) = (    0.53148724044    1.06256820840    0.70868933861  )
       103           Ca  tau( 103) = (    0.53039110344    1.05975360781    0.53126284533  )
       104           O   tau( 104) = (    0.70409124201    1.23903237519    0.70825229153  )
       105           Ca  tau( 105) = (    0.17933143421    0.53132065328    0.70804869041  )
       106           O   tau( 106) = (    0.35516899335    0.70834052435    0.88082103601  )
       107           Mg  tau( 107) = (    0.35533560593    0.70618419588    0.70517215298  )
       108           O   tau( 108) = (    0.52901203678    0.88360686643    0.88318957805  )
       109           Mg  tau( 109) = (    0.52940125130    0.88535467848    0.70789868060  )
       110           O   tau( 110) = (    0.70526296008    1.05848293656    0.88429602780  )
       111           Ca  tau( 111) = (    0.70578775630    1.06194441981    0.70697399824  )
       112           O   tau( 112) = (    0.88149871722    1.23602378800    0.88224528814  )
       113           Ca  tau( 113) = (    0.35541249454    0.53029299709    0.88237494037  )
       114           O   tau( 114) = (    0.53311246684    0.70805533627    1.05834586366  )
       115           Mg  tau( 115) = (    0.53185871437    0.70862777177    0.88117253029  )
       116           O   tau( 116) = (    0.70747195657    0.88209758922    1.05759690551  )
       117           Ca  tau( 117) = (    0.70506320549    0.88338920774    0.88201198227  )
       118           O   tau( 118) = (    0.88191897482    1.06259182577    1.06061026864  )
       119           Ca  tau( 119) = (    0.88485872110    1.05888944335    0.88415790306  )
       120           O   tau( 120) = (    1.06043003076    1.23663249392    1.05829667878  )
       121           Mg  tau( 121) = (    0.53054811567    0.53233673365    1.05878526249  )
       122           O   tau( 122) = (    0.70870222174    0.70828966530    1.23511889782  )
       123           Mg  tau( 123) = (    0.70950469928    0.70702494937    1.05925895000  )
       124           O   tau( 124) = (    0.88392602159    0.88408501992    1.23425019413  )
       125           Mg  tau( 125) = (    0.88333924915    0.88485509921    1.05890781591  )
       126           O   tau( 126) = (    1.06059704705    1.06177346755    1.23381158118  )
       127           Mg  tau( 127) = (    1.05911850872    1.05905047884    1.05787164365  )
       128           O   tau( 128) = (    1.23770523788    1.23706734547    1.23626321608  )

   Crystallographic axes

     site n.     atom                  positions (cryst. coord.)
         1           Ca  tau(   1) = (    0.00002850985    0.00259647926   -0.00243665032  )
         2           O   tau(   2) = (    0.12626487006    0.12431653232    0.12463079825  )
         3           Ca  tau(   3) = (   -0.00134806135    0.00068315280    0.25183397031  )
         4           O   tau(   4) = (    0.12774774024    0.12514963024    0.37460230541  )
         5           Mg  tau(   5) = (    0.00039035954    0.00101444008    0.49690027583  )
         6           O   tau(   6) = (    0.12505329753    0.12440942855    0.62366158869  )
         7           Ca  tau(   7) = (   -0.00066739140   -0.00088858052    0.74887019072  )
         8           O   tau(   8) = (    0.12302447130    0.12601840225    0.87532124696  )
         9           Ca  tau(   9) = (   -0.00181568086    0.25094847510    0.00054716086  )
        10           O   tau(  10) = (    0.12480109553    0.37592622064    0.12362179474  )
        11           Mg  tau(  11) = (    0.00048599785    0.24861110457    0.25180177684  )
        12           O   tau(  12) = (    0.12741995989    0.37309317989    0.37405770192  )
        13           Ca  tau(  13) = (   -0.00102951869    0.25029393888    0.50219263058  )
        14           O   tau(  14) = (    0.12632058964    0.37151339210    0.62619773862  )
        15           Ca  tau(  15) = (    0.00051038142    0.25095943268    0.74761492219  )
        16           O   tau(  16) = (    0.12469199081    0.37584769911    0.87416468546  )
        17           Ca  tau(  17) = (    0.00053736831    0.49958333447   -0.00119469562  )
        18           O   tau(  18) = (    0.12499656071    0.62391203886    0.12563451209  )
        19           Mg  tau(  19) = (    0.00077530036    0.49937552586    0.25138141284  )
        20           O   tau(  20) = (    0.12679812858    0.62408106195    0.37305159827  )
        21           Mg  tau(  21) = (   -0.00146603291    0.49923760412    0.49969519054  )
        22           O   tau(  22) = (    0.12361397824    0.62493404834    0.62743114363  )
        23           Ca  tau(  23) = (    0.00194295103    0.49907010905    0.74995762381  )
        24           O   tau(  24) = (    0.12812252160    0.62458890502    0.87320472293  )
        25           Ca  tau(  25) = (   -0.00038668869    0.75182699603    0.00108360020  )
        26           O   tau(  26) = (    0.12396410380    0.87313464806    0.12534259250  )
        27           Mg  tau(  27) = (    0.00043828521    0.75154173708    0.25066229575  )
        28           O   tau(  28) = (    0.12600322668    0.87577118350    0.37421353041  )
        29           Mg  tau(  29) = (   -0.00066246706    0.75116618059    0.49868095316  )
        30           O   tau(  30) = (    0.12701809475    0.87511747834    0.62200788829  )
        31           Mg  tau(  31) = (    0.00191709057    0.74953514416    0.74846646617  )
        32           O   tau(  32) = (    0.12684182552    0.87383825094    0.87592386439  )
        33           Ca  tau(  33) = (    0.25009255556   -0.00068133521   -0.00189106196  )
        34           O   tau(  34) = (    0.37458401348    0.12538668059    0.12356069694  )
        35           Ca  tau(  35) = (    0.25024846725    0.00003589569    0.25233524248  )
        36           O   tau(  36) = (    0.37494527283    0.12281560220    0.37468707733  )
        37           Mg  tau(  37) = (    0.24710078540    0.00109082494    0.50176329937  )
        38           O   tau(  38) = (    0.37435585565    0.12764859534    0.62359695130  )
        39           Mg  tau(  39) = (    0.25160985283    0.00074139523    0.74756647698  )
        40           O   tau(  40) = (    0.37566803895    0.12681291952    0.87397347612  )
        41           Mg  tau(  41) = (    0.25006460007    0.24933034975   -0.00191337473  )
        42           O   tau(  42) = (    0.37586354893    0.37208509909    0.12670310033  )
        43           Mg  tau(  43) = (    0.25013511111    0.24841061034    0.24935458897  )
        44           O   tau(  44) = (    0.37468264402    0.37376646527    0.37443331837  )
        45           Mg  tau(  45) = (    0.24854982164    0.25038646677    0.49869815176  )
        46           O   tau(  46) = (    0.37443953007    0.37497832696    0.62410109981  )
        47           Ca  tau(  47) = (    0.25107132489    0.24714661545    0.75184202929  )
        48           O   tau(  48) = (    0.37524702723    0.37706543255    0.87319903599  )
        49           Mg  tau(  49) = (    0.24821623838    0.50045799523    0.00097050983  )
        50           O   tau(  50) = (    0.37546587311    0.62515102902    0.12306507318  )
        51           Mg  tau(  51) = (    0.24969778883    0.50156243335    0.25053787419  )
        52           O   tau(  52) = (    0.37410778078    0.62412176879    0.37640651377  )
        53           Ca  tau(  53) = (    0.25043807676    0.50182127842    0.50072589064  )
        54           O   tau(  54) = (    0.37646235694    0.62611230473    0.62457906522  )
        55           Ca  tau(  55) = (    0.24832691949    0.49954441908    0.75070189753  )
        56           O   tau(  56) = (    0.37434627461    0.62382517841    0.87834870074  )
        57           Ca  tau(  57) = (    0.24938986421    0.75347414579   -0.00195200432  )
        58           O   tau(  58) = (    0.37524024109    0.87674490633    0.12439615907  )
        59           Mg  tau(  59) = (    0.24980702770    0.74831894456    0.25153213434  )
        60           O   tau(  60) = (    0.37529861399    0.87584392618    0.37639844040  )
        61           Mg  tau(  61) = (    0.24839825932    0.75031323382    0.50045284037  )
        62           O   tau(  62) = (    0.37556885181    0.87410564915    0.62413429120  )
        63           Ca  tau(  63) = (    0.24823850110    0.75066763528    0.75215482834  )
        64           O   tau(  64) = (    0.37729011539    0.87542793616    0.87304283477  )
        65           Mg  tau(  65) = (    0.50024524580   -0.00010593582    0.00185016308  )
        66           O   tau(  66) = (    0.62556298528    0.12260527810    0.12728386901  )
        67           Mg  tau(  67) = (    0.49886624584   -0.00115846583    0.24825129211  )
        68           O   tau(  68) = (    0.62749658980    0.12328870529    0.37399658831  )
        69           Mg  tau(  69) = (    0.49874685759   -0.00027584235    0.49912804190  )
        70           O   tau(  70) = (    0.62772805339    0.12470905771    0.62493799822  )
        71           Ca  tau(  71) = (    0.49886049122   -0.00144468041    0.75225260160  )
        72           O   tau(  72) = (    0.62670526396    0.12347156514    0.87575662378  )
        73           Mg  tau(  73) = (    0.50229013706    0.24867792553    0.00032463070  )
        74           O   tau(  74) = (    0.62391791147    0.37559291879    0.12415171635  )
        75           Mg  tau(  75) = (    0.50094449311    0.24885921316    0.24928497995  )
        76           O   tau(  76) = (    0.62629414697    0.37276756952    0.37488458564  )
        77           Ca  tau(  77) = (    0.49978169777    0.25141265315    0.50055825611  )
        78           O   tau(  78) = (    0.62497768798    0.37698192507    0.62546006149  )
        79           Mg  tau(  79) = (    0.50031194375    0.24971756105    0.75019062311  )
        80           O   tau(  80) = (    0.62304335327    0.37478824908    0.87601935348  )
        81           Ca  tau(  81) = (    0.50302020644    0.49884126842   -0.00093093230  )
        82           O   tau(  82) = (    0.62631942561    0.62648819249    0.12318823085  )
        83           Mg  tau(  83) = (    0.49995249766    0.50038378111    0.24788023376  )
        84           O   tau(  84) = (    0.62257776507    0.62694127175    0.37557702196  )
        85           Mg  tau(  85) = (    0.50072921212    0.49849439265    0.50208013888  )
        86           O   tau(  86) = (    0.62420758505    0.62709862779    0.62491286372  )
        87           Mg  tau(  87) = (    0.50041373922    0.49878006985    0.74996735737  )
        88           O   tau(  88) = (    0.62627909388    0.62463745773    0.87548596851  )
        89           Ca  tau(  89) = (    0.49796010882    0.75270478063    0.00016450252  )
        90           O   tau(  90) = (    0.62522106747    0.87760832466    0.12218132401  )
        91           Ca  tau(  91) = (    0.49871984907    0.75158016100    0.25032005505  )
        92           O   tau(  92) = (    0.62430911724    0.87313809084    0.37673325632  )
        93           Ca  tau(  93) = (    0.50081806812    0.74934534009    0.49957491133  )
        94           O   tau(  94) = (    0.62843979868    0.87407422736    0.62423654790  )
        95           Mg  tau(  95) = (    0.50119234189    0.74920074444    0.75116557649  )
        96           O   tau(  96) = (    0.62487623282    0.87527977028    0.87345223803  )
        97           Mg  tau(  97) = (    0.74643542487    0.00080463532    0.00193076492  )
        98           O   tau(  98) = (    0.87211768716    0.12525678187    0.12511865669  )
        99           Mg  tau(  99) = (    0.74886410066   -0.00015128098    0.25292601873  )
       100           O   tau( 100) = (    0.87611285755    0.12523095866    0.37346378894  )
       101           Mg  tau( 101) = (    0.74858048276    0.00188885955    0.49983662526  )
       102           O   tau( 102) = (    0.87609015442    0.12589492474    0.62673476038  )
       103           Ca  tau( 103) = (    0.74882885310    0.00154566213    0.75017714035  )
       104           O   tau( 104) = (    0.87804729841    0.12287272773    0.87455365288  )
       105           Ca  tau( 105) = (    0.75043913780    0.25209905223    0.00060907582  )
       106           O   tau( 106) = (    0.87356007099    0.37355195943    0.12789418467  )
       107           Mg  tau( 107) = (    0.74713272041    0.25088846595    0.25143337534  )
       108           O   tau( 108) = (    0.87579120595    0.37423930832    0.37374357150  )
       109           Mg  tau( 109) = (    0.75221012483    0.24922477183    0.49995850117  )
       110           O   tau( 110) = (    0.87514894937    0.37601320593    0.62191802279  )
       111           Ca  tau( 111) = (    0.75123576166    0.24844487001    0.75089092536  )
       112           O   tau( 112) = (    0.87415088528    0.37365689514    0.87422029789  )
       113           Ca  tau( 113) = (    0.74911196311    0.50077922645    0.00050666067  )
       114           O   tau( 114) = (    0.87371182957    0.62528823907    0.12736200673  )
       115           Mg  tau( 115) = (    0.74912692123    0.49861054619    0.25291829634  )
       116           O   tau( 116) = (    0.87250108944    0.62500068314    0.37492529858  )
       117           Ca  tau( 117) = (    0.75036748233    0.49812114634    0.49904484483  )
       118           O   tau( 118) = (    0.87844490165    0.62287335821    0.62445649957  )
       119           Ca  tau( 119) = (    0.74839792455    0.50269702851    0.74943218584  )
       120           O   tau( 120) = (    0.87318709366    0.62441698466    0.87607040415  )
       121           Mg  tau( 121) = (    0.75209653073    0.74809259422    0.00043384313  )
       122           O   tau( 122) = (    0.87535893108    0.87445963127    0.12606753002  )
       123           Mg  tau( 123) = (    0.74896006357    0.75146591072    0.25084021456  )
       124           O   tau( 124) = (    0.87468674173    0.87345866745    0.37557291294  )
       125           Mg  tau( 125) = (    0.75107040455    0.74840883191    0.50043919680  )
       126           O   tau( 126) = (    0.87463031219    0.87244681125    0.62714128920  )
       127           Mg  tau( 127) = (    0.74875994161    0.74881421658    0.74932054810  )
       128           O   tau( 128) = (    0.87463204971    0.87548367080    0.87526236296  )

     number of k points=     8  gaussian smearing, width (Ry)=  0.0050
                       cart. coord. in units 2pi/alat
        k(    1) = (   0.0000000   0.0000000   0.0000000), wk =   0.2500000
        k(    2) = (  -0.3539259  -0.3551144   0.3556890), wk =   0.2500000
        k(    3) = (  -0.3537643   0.3537125  -0.3538503), wk =   0.2500000
        k(    4) = (  -0.7076902  -0.0014018   0.0018387), wk =   0.2500000
        k(    5) = (   0.3534024  -0.3520970  -0.3552289), wk =   0.2500000
        k(    6) = (  -0.0005235  -0.7072113   0.0004601), wk =   0.2500000
        k(    7) = (  -0.0003619   0.0016156  -0.7090792), wk =   0.2500000
        k(    8) = (  -0.3542878  -0.3534988  -0.3533902), wk =   0.2500000

                       cryst. coord.
        k(    1) = (   0.0000000   0.0000000   0.0000000), wk =   0.2500000
        k(    2) = (  -0.0000000   0.0000000  -0.5000000), wk =   0.2500000
        k(    3) = (   0.0000000  -0.5000000  -0.0000000), wk =   0.2500000
        k(    4) = (  -0.0000000  -0.5000000  -0.5000000), wk =   0.2500000
        k(    5) = (  -0.5000000   0.0000000   0.0000000), wk =   0.2500000
        k(    6) = (  -0.5000000   0.0000000  -0.5000000), wk =   0.2500000
        k(    7) = (  -0.5000000  -0.5000000  -0.0000000), wk =   0.2500000
        k(    8) = (  -0.5000000  -0.5000000  -0.5000000), wk =   0.2500000

     Dense  grid:   470143 G-vectors     FFT dimensions: ( 120, 120, 120)

     Smooth grid:   336551 G-vectors     FFT dimensions: ( 100, 100, 100)

     Largest allocated arrays     est. size (Mb)     dimensions
        Kohn-Sham Wavefunctions        49.55 Mb     (    5289,  614)
        NL pseudopotentials           163.02 Mb     (    5289, 2020)
        Each V/rho on FFT grid          3.30 Mb     (  216000)
        Each G-vector array             0.45 Mb     (   58769)
        G-vector shells                 0.44 Mb     (   57949)
     Largest temporary arrays     est. size (Mb)     dimensions
        Auxiliary wavefunctions       198.21 Mb     (    5289, 2456)
        Each subspace H/S matrix       92.04 Mb     (    2456, 2456)
        Each <psi_i|beta_j> matrix     18.93 Mb     (    2020,  614)
        Arrays for rho mixing          26.37 Mb     (  216000,    8)

     Check: negative/imaginary core charge=   -0.000003    0.000000

     Initial potential from superposition of free atoms

     starting charge 1013.04679, renormalised to 1024.00000
     Starting wfc are  716 randomized atomic wfcs

     total cpu time spent up to now is      601.8 secs

     per-process dynamical memory:   703.8 Mb

     Self-consistent Calculation

     iteration #  1     ecut=    40.00 Ry     beta=0.30
     Davidson diagonalization with overlap
     ethr =  1.00E-02,  avg # of iterations =  3.3

     total cpu time spent up to now is     2799.4 secs

     total energy              =   -8681.23795917 Ry
     Harris-Foulkes estimate   =   -8685.87835096 Ry
     estimated scf accuracy    <      24.01846942 Ry

     iteration #  2     ecut=    40.00 Ry     beta=0.30
     Davidson diagonalization with overlap
     ethr =  2.35E-03,  avg # of iterations =  1.0

     total cpu time spent up to now is     4327.9 secs

     total energy              =   -8677.85219501 Ry
     Harris-Foulkes estimate   =   -8681.93888119 Ry
     estimated scf accuracy    <      10.25498350 Ry

     iteration #  3     ecut=    40.00 Ry     beta=0.30
     Davidson diagonalization with overlap
     ethr =  1.00E-03,  avg # of iterations =  2.1

     total cpu time spent up to now is     6263.2 secs

     total energy              =   -8679.06575705 Ry
     Harris-Foulkes estimate   =   -8679.48637042 Ry
     estimated scf accuracy    <       1.38330007 Ry

     iteration #  4     ecut=    40.00 Ry     beta=0.30
     Davidson diagonalization with overlap
     ethr =  1.35E-04,  avg # of iterations =  7.6

     total cpu time spent up to now is     9177.2 secs

     total energy              =   -8678.79984053 Ry
     Harris-Foulkes estimate   =   -8679.15905736 Ry
     estimated scf accuracy    <       0.66574693 Ry

     iteration #  5     ecut=    40.00 Ry     beta=0.30
     Davidson diagonalization with overlap
     ethr =  6.50E-05,  avg # of iterations =  4.9

     total cpu time spent up to now is    11734.7 secs

     total energy              =   -8678.87175484 Ry
     Harris-Foulkes estimate   =   -8678.89082258 Ry
     estimated scf accuracy    <       0.10249486 Ry

     iteration #  6     ecut=    40.00 Ry     beta=0.30
     Davidson diagonalization with overlap
     ethr =  1.00E-05,  avg # of iterations =  7.9

     total cpu time spent up to now is    14922.2 secs

     total energy              =   -8678.86511037 Ry
     Harris-Foulkes estimate   =   -8678.87942012 Ry
     estimated scf accuracy    <       0.05900771 Ry

     iteration #  7     ecut=    40.00 Ry     beta=0.30
     Davidson diagonalization with overlap
     ethr =  5.76E-06,  avg # of iterations =  2.4

     total cpu time spent up to now is    16728.1 secs

     total energy              =   -8678.86296049 Ry
     Harris-Foulkes estimate   =   -8678.86891078 Ry
     estimated scf accuracy    <       0.01680750 Ry

     iteration #  8     ecut=    40.00 Ry     beta=0.30
     Davidson diagonalization with overlap
     ethr =  1.64E-06,  avg # of iterations =  6.5

     total cpu time spent up to now is    19916.3 secs

     total energy              =   -8678.86401459 Ry
     Harris-Foulkes estimate   =   -8678.86576610 Ry
     estimated scf accuracy    <       0.00755214 Ry

     iteration #  9     ecut=    40.00 Ry     beta=0.30
     Davidson diagonalization with overlap
     ethr =  7.38E-07,  avg # of iterations =  2.0

     total cpu time spent up to now is    21736.5 secs

     total energy              =   -8678.86404205 Ry
     Harris-Foulkes estimate   =   -8678.86461039 Ry
     estimated scf accuracy    <       0.00236875 Ry

     iteration # 10     ecut=    40.00 Ry     beta=0.30
     Davidson diagonalization with overlap
     ethr =  2.31E-07,  avg # of iterations =  6.1

     total cpu time spent up to now is    24295.1 secs

     total energy              =   -8678.86373569 Ry
     Harris-Foulkes estimate   =   -8678.86427468 Ry
     estimated scf accuracy    <       0.00150778 Ry

     iteration # 11     ecut=    40.00 Ry     beta=0.30
     Davidson diagonalization with overlap
     ethr =  1.47E-07,  avg # of iterations =  4.9

     total cpu time spent up to now is    26618.4 secs

     total energy              =   -8678.86383717 Ry
     Harris-Foulkes estimate   =   -8678.86390421 Ry
     estimated scf accuracy    <       0.00023875 Ry

     iteration # 12     ecut=    40.00 Ry     beta=0.30
     Davidson diagonalization with overlap
     ethr =  2.33E-08,  avg # of iterations =  2.0

     total cpu time spent up to now is    28495.2 secs

     total energy              =   -8678.86378719 Ry
     Harris-Foulkes estimate   =   -8678.86385832 Ry
     estimated scf accuracy    <       0.00013564 Ry

     iteration # 13     ecut=    40.00 Ry     beta=0.30
     Davidson diagonalization with overlap
     ethr =  1.32E-08,  avg # of iterations =  2.0

     total cpu time spent up to now is    30523.6 secs

     total energy              =   -8678.86380943 Ry
     Harris-Foulkes estimate   =   -8678.86381072 Ry
     estimated scf accuracy    <       0.00000707 Ry

     iteration # 14     ecut=    40.00 Ry     beta=0.30
     Davidson diagonalization with overlap
     ethr =  6.90E-10,  avg # of iterations =  2.0

     total cpu time spent up to now is    32305.1 secs

     total energy              =   -8678.86380937 Ry
     Harris-Foulkes estimate   =   -8678.86380993 Ry
     estimated scf accuracy    <       0.00000299 Ry

     iteration # 15     ecut=    40.00 Ry     beta=0.30
     Davidson diagonalization with overlap
     ethr =  2.92E-10,  avg # of iterations =  2.0

     total cpu time spent up to now is    34105.3 secs

     total energy              =   -8678.86380934 Ry
     Harris-Foulkes estimate   =   -8678.86380959 Ry
     estimated scf accuracy    <       0.00000085 Ry

     iteration # 16     ecut=    40.00 Ry     beta=0.30
     Davidson diagonalization with overlap
     ethr =  8.28E-11,  avg # of iterations =  2.0

     total cpu time spent up to now is    35779.3 secs

     total energy              =   -8678.86380934 Ry
     Harris-Foulkes estimate   =   -8678.86380941 Ry
     estimated scf accuracy    <       0.00000035 Ry

     iteration # 17     ecut=    40.00 Ry     beta=0.30
     Davidson diagonalization with overlap
     ethr =  3.40E-11,  avg # of iterations =  2.0

     total cpu time spent up to now is    37423.0 secs

     total energy              =   -8678.86380933 Ry
     Harris-Foulkes estimate   =   -8678.86380936 Ry
     estimated scf accuracy    <       0.00000019 Ry

     iteration # 18     ecut=    40.00 Ry     beta=0.30
     Davidson diagonalization with overlap
     ethr =  1.85E-11,  avg # of iterations =  1.0

     total cpu time spent up to now is    38946.0 secs

     total energy              =   -8678.86380932 Ry
     Harris-Foulkes estimate   =   -8678.86380934 Ry
     estimated scf accuracy    <       0.00000008 Ry

     iteration # 19     ecut=    40.00 Ry     beta=0.30
     Davidson diagonalization with overlap
     ethr =  7.91E-12,  avg # of iterations =  2.0

     total cpu time spent up to now is    40822.0 secs

     total energy              =   -8678.86380932 Ry
     Harris-Foulkes estimate   =   -8678.86380932 Ry
     estimated scf accuracy    <       0.00000003 Ry

     iteration # 20     ecut=    40.00 Ry     beta=0.30
     Davidson diagonalization with overlap
     ethr =  2.48E-12,  avg # of iterations =  1.0

     total cpu time spent up to now is    42344.3 secs

     total energy              =   -8678.86380932 Ry
     Harris-Foulkes estimate   =   -8678.86380932 Ry
     estimated scf accuracy    <       0.00000001 Ry

     iteration # 21     ecut=    40.00 Ry     beta=0.30
     Davidson diagonalization with overlap
     ethr =  1.13E-12,  avg # of iterations =  1.0

     total cpu time spent up to now is    43864.6 secs

     total energy              =   -8678.86380932 Ry
     Harris-Foulkes estimate   =   -8678.86380932 Ry
     estimated scf accuracy    <          8.4E-09 Ry

     iteration # 22     ecut=    40.00 Ry     beta=0.30
     Davidson diagonalization with overlap
     ethr =  8.24E-13,  avg # of iterations =  1.0

     total cpu time spent up to now is    45387.8 secs

     total energy              =   -8678.86380932 Ry
     Harris-Foulkes estimate   =   -8678.86380932 Ry
     estimated scf accuracy    <          4.5E-09 Ry

     iteration # 23     ecut=    40.00 Ry     beta=0.30
     Davidson diagonalization with overlap
     ethr =  4.44E-13,  avg # of iterations =  2.0

     total cpu time spent up to now is    47097.9 secs

     total energy              =   -8678.86380932 Ry
     Harris-Foulkes estimate   =   -8678.86380932 Ry
     estimated scf accuracy    <          2.3E-09 Ry

     iteration # 24     ecut=    40.00 Ry     beta=0.30
     Davidson diagonalization with overlap
     ethr =  2.22E-13,  avg # of iterations =  2.0

     total cpu time spent up to now is    48844.5 secs

     total energy              =   -8678.86380932 Ry
     Harris-Foulkes estimate   =   -8678.86380932 Ry
     estimated scf accuracy    <          6.5E-10 Ry

     iteration # 25     ecut=    40.00 Ry     beta=0.30
     Davidson diagonalization with overlap
     ethr =  1.00E-13,  avg # of iterations =  2.0

     total cpu time spent up to now is    50707.2 secs

     total energy              =   -8678.86380932 Ry
     Harris-Foulkes estimate   =   -8678.86380932 Ry
     estimated scf accuracy    <          1.7E-10 Ry

     iteration # 26     ecut=    40.00 Ry     beta=0.30
     Davidson diagonalization with overlap
     ethr =  1.00E-13,  avg # of iterations =  1.0

     total cpu time spent up to now is    52223.3 secs

     End of self-consistent calculation

          k = 0.0000 0.0000 0.0000 ( 41983 PWs)   bands (ev):

   -65.4733 -65.4139 -65.3975 -65.3958 -65.3769 -65.3668 -65.3628 -65.3626
   -65.3218 -65.3170 -65.3124 -65.2922 -65.2847 -65.2775 -65.2709 -65.2592
   -65.2446 -65.2360 -65.2353 -65.2264 -65.2220 -65.2129 -65.2080 -65.1999
   -65.1783 -65.1485 -65.1432 -65.1416 -65.1401 -65.1377 -65.1150 -65.1092
   -65.0851 -65.0663 -65.0273 -65.0148 -32.4430 -32.4351 -32.4300 -32.3818
   -32.3771 -32.3737 -32.3660 -32.3633 -32.3607 -32.3574 -32.3551 -32.3550
   -32.3453 -32.3403 -32.3366 -32.3337 -32.3312 -32.3291 -32.3275 -32.3250
   -32.3248 -32.3237 -32.3236 -32.3216 -32.2893 -32.2883 -32.2858 -32.2820
   -32.2787 -32.2779 -32.2758 -32.2748 -32.2739 -32.2612 -32.2547 -32.2545
   -32.2501 -32.2484 -32.2475 -32.2449 -32.2411 -32.2399 -32.2356 -32.2349
   -32.2273 -32.2267 -32.2214 -32.2168 -32.2158 -32.2107 -32.2077 -32.2068
   -32.1983 -32.1958 -32.1956 -32.1949 -32.1927 -32.1926 -32.1883 -32.1882
   -32.1843 -32.1840 -32.1826 -32.1823 -32.1786 -32.1730 -32.1720 -32.1706
   -32.1686 -32.1673 -32.1611 -32.1588 -32.1468 -32.1436 -32.1341 -32.1195
   -32.1145 -32.1139 -32.1109 -32.1084 -32.1073 -32.1056 -32.1051 -32.1025
   -32.1021 -32.1015 -32.0988 -32.0983 -32.0961 -32.0945 -32.0857 -32.0784
   -32.0747 -32.0731 -32.0714 -32.0682 -32.0566 -32.0470 -32.0408 -32.0341
   -32.0282 -32.0235 -31.9969 -31.9885 -31.9849 -31.9844 -31.9773 -31.9723
   -29.0407 -28.9683 -28.9129 -28.9072 -28.8919 -28.8652 -28.8567 -28.8487
   -28.8317 -28.8309 -28.8085 -28.7997 -28.7758 -28.7742 -28.7603 -28.7454
   -28.7431 -28.7372 -28.7130 -28.6998 -28.6923 -28.6897 -28.6773 -28.6551
   -28.6437 -28.6360 -28.6286 -28.3932 -11.5032 -11.4855 -11.4731 -11.4086
   -11.3152 -11.2860 -11.2375 -11.1515 -11.1268 -11.1162 -11.0837 -11.0692
   -11.0466 -11.0380 -11.0118 -10.9900 -10.9502 -10.9412 -10.9148 -10.8759
   -10.8694 -10.8108 -10.7796 -10.7425 -10.7082 -10.6893 -10.6723 -10.6516
   -10.6410 -10.6149 -10.5958 -10.5909 -10.5829 -10.5617 -10.5176 -10.4802
   -10.4568 -10.4366 -10.4213 -10.4131 -10.3760 -10.3612 -10.3279 -10.3217
   -10.2927 -10.2681 -10.2568 -10.2416 -10.2332 -10.2185 -10.1994 -10.1862
   -10.1718 -10.1562 -10.1377 -10.1299 -10.1074 -10.1036 -10.0893 -10.0812
   -10.0670 -10.0413 -10.0365 -10.0243 -10.0151  -9.9909  -9.9813  -9.9691
    -9.9652  -9.9535  -9.9470  -9.9274  -9.9131  -9.9086  -9.8936  -9.8861
    -9.8672  -9.8597  -9.8491  -9.8160  -9.7894  -9.7663  -9.7258  -9.7096
    -8.5682  -8.0741  -8.0373  -8.0130  -8.0111  -7.9903  -7.9451  -7.9253
    -7.8973  -7.8867  -7.8727  -7.8679  -7.8524  -7.8192  -7.8069  -7.7717
    -7.7519  -7.7302  -7.7089  -7.6895  -7.6448  -7.5982  -7.5787  -7.5598
    -7.5431  -7.5355  -7.5047  -7.4801  -7.4656  -7.4535  -7.4294  -7.3920
    -7.3559  -7.3297  -7.3112  -7.2867  -7.2616  -7.2476  -7.2120  -7.2005
    -7.1902  -7.1206  -7.1048  -7.0689  -7.0619  -7.0565  -7.0200  -7.0041
    -6.9886  -6.9589  -6.9399  -6.9352  -6.8784  -6.8648  -6.8361  -6.8301
    -6.7936  -6.7844  -6.7095  -6.6783  -6.5228  -6.4520  -6.4422  -6.4401
     3.5803   3.5991   3.6356   4.0416   4.1506   4.2128   4.2283   4.2436
     4.2557   4.2643   4.2894   4.3036   4.3292   4.3630   4.3688   4.3903
     4.4335   4.4673   4.4791   4.5241   4.5588   4.5803   4.6235   4.6622
     4.6742   4.6849   4.7329   4.7421   4.7800   4.7953   4.8282   4.8564
     4.8715   4.9297   4.9325   4.9725   5.0029   5.0294   5.0574   5.1036
     5.1117   5.1668   5.1825   5.2100   5.2465   5.2748   5.2969   5.3254
     5.3582   5.3707   5.4227   5.4354   5.4485   5.4679   5.4946   5.5228
     5.5284   5.5456   5.5667   5.5822   5.6097   5.6225   5.6538   5.6667
     5.7108   5.7174   5.7462   5.7570   5.7692   5.7769   5.7943   5.8067
     5.8140   5.8597   5.8751   5.8885   5.8890   5.8992   5.9405   5.9489
     5.9602   6.0002   6.0146   6.0401   6.0465   6.0692   6.0730   6.0948
     6.0966   6.1202   6.1264   6.1501   6.1627   6.1700   6.1845   6.1947
     6.2118   6.2313   6.2396   6.2447   6.2660   6.2749   6.2840   6.2981
     6.3021   6.3182   6.3365   6.3461   6.3606   6.3682   6.3845   6.3886
     6.4085   6.4107   6.4152   6.4273   6.4534   6.4578   6.4657   6.4759
     6.4829   6.5082   6.5153   6.5363   6.5490   6.5545   6.5774   6.5879
     6.6001   6.6045   6.6204   6.6289   6.6519   6.6557   6.6666   6.6902
     6.6932   6.7126   6.7179   6.7280   6.7455   6.7541   6.7773   6.7876
     6.7989   6.8022   6.8272   6.8331   6.8498   6.8507   6.8600   6.8733
     6.8772   6.8854   6.9082   6.9250   6.9377   6.9474   6.9619   6.9724
     6.9845   6.9965   7.0017   7.0119   7.0306   7.0482   7.0542   7.0604
     7.0713   7.0847   7.0977   7.1097   7.1222   7.1302   7.1426   7.1444
     7.1550   7.1641   7.1742   7.1879   7.1932   7.2030   7.2264   7.2357
     7.2428   7.2536   7.3155   7.3251   7.3687   7.5664   7.5779   7.5959
    11.4158  12.3693  12.4588  12.4742  13.1502  13.2695  13.3139  13.3614
    13.3840  13.4035  13.4504  13.4879  13.5310  13.5783  13.6167  13.6329
    13.6786  13.7212  13.7332  13.7517  13.8740  13.9024  13.9482  14.0276
    14.0596  14.0839  14.1006  14.1126  14.1668  14.1961  14.2491  14.2879
    14.3071  14.3796  14.4006  14.4701  14.5021  14.5726  14.6217  14.6508
    14.6870  14.7025  14.7434  14.7881  14.8763  14.9044  14.9354  14.9920
    15.0085  15.0416  15.0779  15.0850  15.1059  15.1419  15.1729  15.1783
    15.2052  15.2479  15.2722  15.2933  15.3405  15.3563  15.3864  15.4142
    15.4180  15.4430  15.4775  15.4850  15.5345  15.5610  15.5808  15.5977
    15.6122  15.6469  15.7032  15.7179  15.7261  15.7831  15.7929  15.8153
    15.8305  15.8359  15.8746  15.9024  15.9196  15.9354  15.9787  16.0156
    16.0489  16.0514  16.0966  16.1055  16.1493  16.1620  16.1724  16.1992
    16.2193  16.2364  16.3218  16.3414  16.3698  16.3835

     occupation numbers 
     1.0000   1.0000   1.0000   1.0000   1.0000   1.0000   1.0000   1.0000
     1.0000   1.0000   1.0000   1.0000   1.0000   1.0000   1.0000   1.0000
     1.0000   1.0000   1.0000   1.0000   1.0000   1.0000   1.0000   1.0000
     1.0000   1.0000   1.0000   1.0000   1.0000   1.0000   1.0000   1.0000
     1.0000   1.0000   1.0000   1.0000   1.0000   1.0000   1.0000   1.0000
     1.0000   1.0000   1.0000   1.0000   1.0000   1.0000   1.0000   1.0000
     1.0000   1.0000   1.0000   1.0000   1.0000   1.0000   1.0000   1.0000
     1.0000   1.0000   1.0000   1.0000   1.0000   1.0000   1.0000   1.0000
     1.0000   1.0000   1.0000   1.0000   1.0000   1.0000   1.0000   1.0000
     1.0000   1.0000   1.0000   1.0000   1.0000   1.0000   1.0000   1.0000
     1.0000   1.0000   1.0000   1.0000   1.0000   1.0000   1.0000   1.0000
     1.0000   1.0000   1.0000   1.0000   1.0000   1.0000   1.0000   1.0000
     1.0000   1.0000   1.0000   1.0000   1.0000   1.0000   1.0000   1.0000
     1.0000   1.0000   1.0000   1.0000   1.0000   1.0000   1.0000   1.0000
     1.0000   1.0000   1.0000   1.0000   1.0000   1.0000   1.0000   1.0000
     1.0000   1.0000   1.0000   1.0000   1.0000   1.0000   1.0000   1.0000
     1.0000   1.0000   1.0000   1.0000   1.0000   1.0000   1.0000   1.0000
     1.0000   1.0000   1.0000   1.0000   1.0000   1.0000   1.0000   1.0000
     1.0000   1.0000   1.0000   1.0000   1.0000   1.0000   1.0000   1.0000
     1.0000   1.0000   1.0000   1.0000   1.0000   1.0000   1.0000   1.0000
     1.0000   1.0000   1.0000   1.0000   1.0000   1.0000   1.0000   1.0000
     1.0000   1.0000   1.0000   1.0000   1.0000   1.0000   1.0000   1.0000
     1.0000   1.0000   1.0000   1.0000   1.0000   1.0000   1.0000   1.0000
     1.0000   1.0000   1.0000   1.0000   1.0000   1.0000   1.0000   1.0000
     1.0000   1.0000   1.0000   1.0000   1.0000   1.0000   1.0000   1.0000
     1.0000   1.0000   1.0000   1.0000   1.0000   1.0000   1.0000   1.0000
     1.0000   1.0000   1.0000   1.0000   1.0000   1.0000   1.0000   1.0000
     1.0000   1.0000   1.0000   1.0000   1.0000   1.0000   1.0000   1.0000
     1.0000   1.0000   1.0000   1.0000   1.0000   1.0000   1.0000   1.0000
     1.0000   1.0000   1.0000   1.0000   1.0000   1.0000   1.0000   1.0000
     1.0000   1.0000   1.0000   1.0000   1.0000   1.0000   1.0000   1.0000
     1.0000   1.0000   1.0000   1.0000   1.0000   1.0000   1.0000   1.0000
     1.0000   1.0000   1.0000   1.0000   1.0000   1.0000   1.0000   1.0000
     1.0000   1.0000   1.0000   1.0000   1.0000   1.0000   1.0000   1.0000
     1.0000   1.0000   1.0000   1.0000   1.0000   1.0000   1.0000   1.0000
     1.0000   1.0000   1.0000   1.0000   1.0000   1.0000   1.0000   1.0000
     1.0000   1.0000   1.0000   1.0000   1.0000   1.0000   1.0000   1.0000
     1.0000   1.0000   1.0000   1.0000   1.0000   1.0000   1.0000   1.0000
     1.0000   1.0000   1.0000   1.0000   1.0000   1.0000   1.0000   1.0000
     1.0000   1.0000   1.0000   1.0000   1.0000   1.0000   1.0000   1.0000
     1.0000   1.0000   1.0000   1.0000   1.0000   1.0000   1.0000   1.0000
     1.0000   1.0000   1.0000   1.0000   1.0000   1.0000   1.0000   1.0000
     1.0000   1.0000   1.0000   1.0000   1.0000   1.0000   1.0000   1.0000
     1.0000   1.0000   1.0000   1.0000   1.0000   1.0000   1.0000   1.0000
     1.0000   1.0000   1.0000   1.0000   1.0000   1.0000   1.0000   1.0000
     1.0000   1.0000   1.0000   1.0000   1.0000   1.0000   1.0000   1.0000
     1.0000   1.0000   1.0000   1.0000   1.0000   1.0000   1.0000   1.0000
     1.0000   1.0000   1.0000   1.0000   1.0000   1.0000   1.0000   1.0000
     1.0000   1.0000   1.0000   1.0000   1.0000   1.0000   1.0000   1.0000
     1.0000   1.0000   1.0000   1.0000   1.0000   1.0000   1.0000   1.0000
     1.0000   1.0000   1.0000   1.0000   1.0000   1.0000   1.0000   1.0000
     1.0000   1.0000   1.0000   1.0000   1.0000   1.0000   1.0000   1.0000
     1.0000   1.0000   1.0000   1.0000   1.0000   1.0000   1.0000   1.0000
     1.0000   1.0000   1.0000   1.0000   1.0000   1.0000   1.0000   1.0000
     1.0000   1.0000   1.0000   1.0000   1.0000   1.0000   1.0000   1.0000
     1.0000   1.0000   1.0000   1.0000   1.0000   1.0000   1.0000   1.0000
     1.0000   1.0000   1.0000   1.0000   1.0000   1.0000   1.0000   1.0000
     1.0000   1.0000   1.0000   1.0000   1.0000   1.0000   1.0000   1.0000
     1.0000   1.0000   1.0000   1.0000   1.0000   1.0000   1.0000   1.0000
     1.0000   1.0000   1.0000   1.0000   1.0000   1.0000   1.0000   1.0000
     1.0000   1.0000   1.0000   1.0000   1.0000   1.0000   1.0000   1.0000
     1.0000   1.0000   1.0000   1.0000   1.0000   1.0000   1.0000   1.0000
     1.0000   1.0000   1.0000   1.0000   1.0000   1.0000   1.0000   1.0000
     1.0000   1.0000   1.0000   1.0000   1.0000   1.0000   1.0000   1.0000
     0.0000   0.0000   0.0000   0.0000   0.0000   0.0000   0.0000   0.0000
     0.0000   0.0000   0.0000   0.0000   0.0000   0.0000   0.0000   0.0000
     0.0000   0.0000   0.0000   0.0000   0.0000   0.0000   0.0000   0.0000
     0.0000   0.0000   0.0000   0.0000   0.0000   0.0000   0.0000   0.0000
     0.0000   0.0000   0.0000   0.0000   0.0000   0.0000   0.0000   0.0000
     0.0000   0.0000   0.0000   0.0000   0.0000   0.0000   0.0000   0.0000
     0.0000   0.0000   0.0000   0.0000   0.0000   0.0000   0.0000   0.0000
     0.0000   0.0000   0.0000   0.0000   0.0000   0.0000   0.0000   0.0000
     0.0000   0.0000   0.0000   0.0000   0.0000   0.0000   0.0000   0.0000
     0.0000   0.0000   0.0000   0.0000   0.0000   0.0000   0.0000   0.0000
     0.0000   0.0000   0.0000   0.0000   0.0000   0.0000   0.0000   0.0000
     0.0000   0.0000   0.0000   0.0000   0.0000   0.0000   0.0000   0.0000
     0.0000   0.0000   0.0000   0.0000   0.0000   0.0000

          k =-0.3539-0.3551 0.3557 ( 42078 PWs)   bands (ev):

   -65.4733 -65.4139 -65.3975 -65.3958 -65.3769 -65.3668 -65.3628 -65.3626
   -65.3218 -65.3170 -65.3124 -65.2922 -65.2847 -65.2775 -65.2709 -65.2592
   -65.2446 -65.2360 -65.2353 -65.2264 -65.2220 -65.2129 -65.2080 -65.1999
   -65.1783 -65.1485 -65.1432 -65.1416 -65.1401 -65.1377 -65.1150 -65.1092
   -65.0851 -65.0663 -65.0273 -65.0148 -32.4430 -32.4351 -32.4300 -32.3818
   -32.3771 -32.3737 -32.3660 -32.3633 -32.3607 -32.3574 -32.3551 -32.3550
   -32.3453 -32.3403 -32.3366 -32.3337 -32.3312 -32.3291 -32.3275 -32.3250
   -32.3248 -32.3237 -32.3236 -32.3216 -32.2893 -32.2883 -32.2858 -32.2820
   -32.2787 -32.2779 -32.2758 -32.2747 -32.2739 -32.2612 -32.2547 -32.2545
   -32.2501 -32.2484 -32.2475 -32.2449 -32.2411 -32.2399 -32.2356 -32.2349
   -32.2273 -32.2267 -32.2214 -32.2168 -32.2158 -32.2107 -32.2077 -32.2068
   -32.1983 -32.1958 -32.1956 -32.1949 -32.1927 -32.1926 -32.1883 -32.1882
   -32.1843 -32.1840 -32.1826 -32.1823 -32.1786 -32.1730 -32.1720 -32.1706
   -32.1686 -32.1673 -32.1612 -32.1588 -32.1468 -32.1436 -32.1340 -32.1195
   -32.1145 -32.1139 -32.1109 -32.1084 -32.1073 -32.1056 -32.1051 -32.1025
   -32.1021 -32.1015 -32.0988 -32.0983 -32.0961 -32.0945 -32.0857 -32.0784
   -32.0747 -32.0731 -32.0714 -32.0682 -32.0566 -32.0470 -32.0408 -32.0341
   -32.0282 -32.0234 -31.9969 -31.9885 -31.9849 -31.9844 -31.9773 -31.9723
   -29.0407 -28.9683 -28.9130 -28.9072 -28.8919 -28.8653 -28.8567 -28.8487
   -28.8317 -28.8309 -28.8084 -28.7998 -28.7758 -28.7740 -28.7602 -28.7458
   -28.7432 -28.7370 -28.7129 -28.6997 -28.6923 -28.6898 -28.6773 -28.6552
   -28.6437 -28.6360 -28.6287 -28.3932 -11.5000 -11.4834 -11.4709 -11.4107
   -11.3167 -11.2879 -11.2474 -11.1532 -11.1384 -11.1221 -11.0909 -11.0801
   -11.0483 -11.0442 -11.0167 -10.9929 -10.9473 -10.9287 -10.8857 -10.8766
   -10.8166 -10.8029 -10.7763 -10.7512 -10.7192 -10.6881 -10.6677 -10.6515
   -10.6413 -10.6259 -10.6191 -10.5702 -10.5591 -10.5532 -10.5044 -10.4877
   -10.4717 -10.4476 -10.4282 -10.4070 -10.3728 -10.3561 -10.3301 -10.3151
   -10.2924 -10.2690 -10.2652 -10.2454 -10.2357 -10.2223 -10.2035 -10.1812
   -10.1701 -10.1594 -10.1440 -10.1382 -10.1201 -10.1013 -10.0861 -10.0849
   -10.0663 -10.0477 -10.0394 -10.0250 -10.0214  -9.9936  -9.9888  -9.9689
    -9.9616  -9.9510  -9.9483  -9.9293  -9.9230  -9.9060  -9.8967  -9.8806
    -9.8600  -9.8582  -9.8404  -9.8162  -9.7890  -9.7796  -9.7269  -9.7094
    -8.3293  -8.2753  -8.0905  -8.0358  -8.0219  -8.0067  -7.9864  -7.9537
    -7.8916  -7.8858  -7.8672  -7.8385  -7.8170  -7.7967  -7.7850  -7.7725
    -7.7462  -7.6996  -7.6801  -7.6705  -7.6622  -7.6284  -7.6060  -7.5698
    -7.5402  -7.5149  -7.4900  -7.4814  -7.4612  -7.4310  -7.3859  -7.3724
    -7.3527  -7.3501  -7.3373  -7.3031  -7.2731  -7.2631  -7.2207  -7.2052
    -7.1566  -7.1345  -7.1079  -7.1035  -7.0801  -7.0684  -7.0362  -7.0217
    -7.0155  -7.0015  -6.9434  -6.9015  -6.8735  -6.8457  -6.8130  -6.7967
    -6.7353  -6.7083  -6.7004  -6.6559  -6.5330  -6.5154  -6.4762  -6.4427
     3.7280   3.7677   3.8086   3.9278   3.9665   4.0548   4.1871   4.2177
     4.2284   4.2467   4.2754   4.3061   4.3322   4.3412   4.3798   4.4101
     4.4202   4.4832   4.4990   4.5247   4.5471   4.5694   4.6016   4.6281
     4.6588   4.6651   4.6800   4.7095   4.7308   4.7525   4.7898   4.8062
     4.8876   4.9056   4.9410   4.9530   4.9975   5.0547   5.0740   5.1119
     5.1371   5.1441   5.1813   5.1980   5.2181   5.2478   5.2754   5.2804
     5.3292   5.3392   5.3534   5.3654   5.3860   5.4226   5.4619   5.4972
     5.5548   5.5642   5.5839   5.6106   5.6344   5.6408   5.6699   5.6799
     5.7121   5.7232   5.7381   5.7696   5.7801   5.7977   5.8107   5.8468
     5.8644   5.8832   5.9226   5.9253   5.9496   5.9643   5.9956   5.9977
     6.0193   6.0446   6.0477   6.0634   6.0830   6.0875   6.1139   6.1310
     6.1533   6.1603   6.1724   6.1896   6.2082   6.2236   6.2350   6.2385
     6.2527   6.2595   6.2809   6.2838   6.2981   6.3016   6.3137   6.3201
     6.3321   6.3413   6.3465   6.3575   6.3671   6.3797   6.3881   6.3980
     6.4207   6.4320   6.4661   6.4728   6.4764   6.4878   6.4977   6.5176
     6.5326   6.5355   6.5582   6.5764   6.5900   6.5978   6.6051   6.6153
     6.6292   6.6298   6.6452   6.6592   6.6620   6.6730   6.6780   6.6951
     6.6998   6.7189   6.7314   6.7484   6.7496   6.7529   6.7693   6.7831
     6.7900   6.7993   6.8039   6.8228   6.8274   6.8362   6.8428   6.8542
     6.8608   6.8679   6.8842   6.8960   6.8982   6.9049   6.9218   6.9374
     6.9409   6.9547   6.9605   6.9764   6.9866   6.9905   6.9966   7.0103
     7.0217   7.0271   7.0383   7.0426   7.0563   7.0591   7.0978   7.1048
     7.1214   7.1478   7.1605   7.1627   7.1653   7.2033   7.2191   7.2381
     7.2563   7.2656   7.2816   7.3187   7.3852   7.3925   7.4511   7.4612
    11.9867  12.4122  12.5443  12.6071  12.6276  13.2007  13.2647  13.2852
    13.3161  13.3683  13.4000  13.4291  13.4534  13.5021  13.5378  13.5715
    13.6001  13.6918  13.7483  13.7940  13.9374  14.0034  14.0766  14.1469
    14.1858  14.2305  14.2498  14.2663  14.3404  14.3776  14.4168  14.4431
    14.4495  14.4989  14.5197  14.5341  14.5889  14.6282  14.6487  14.6803
    14.6892  14.7059  14.7494  14.7599  14.7882  14.8206  14.8594  14.9011
    14.9213  14.9395  14.9801  15.0232  15.0550  15.0650  15.1047  15.1147
    15.1331  15.1866  15.2317  15.2452  15.2834  15.2931  15.3121  15.3516
    15.3599  15.3867  15.4208  15.4284  15.4605  15.5194  15.5295  15.5559
    15.5645  15.5824  15.6104  15.6304  15.6786  15.7037  15.7205  15.7519
    15.7873  15.8148  15.8324  15.8544  15.8949  15.9160  15.9746  15.9886
    16.0212  16.0413  16.0830  16.1090  16.1323  16.1411  16.2056  16.2253
    16.2493  16.2811  16.3272  16.3475  16.3631  16.4071

     occupation numbers 
     1.0000   1.0000   1.0000   1.0000   1.0000   1.0000   1.0000   1.0000
     1.0000   1.0000   1.0000   1.0000   1.0000   1.0000   1.0000   1.0000
     1.0000   1.0000   1.0000   1.0000   1.0000   1.0000   1.0000   1.0000
     1.0000   1.0000   1.0000   1.0000   1.0000   1.0000   1.0000   1.0000
     1.0000   1.0000   1.0000   1.0000   1.0000   1.0000   1.0000   1.0000
     1.0000   1.0000   1.0000   1.0000   1.0000   1.0000   1.0000   1.0000
     1.0000   1.0000   1.0000   1.0000   1.0000   1.0000   1.0000   1.0000
     1.0000   1.0000   1.0000   1.0000   1.0000   1.0000   1.0000   1.0000
     1.0000   1.0000   1.0000   1.0000   1.0000   1.0000   1.0000   1.0000
     1.0000   1.0000   1.0000   1.0000   1.0000   1.0000   1.0000   1.0000
     1.0000   1.0000   1.0000   1.0000   1.0000   1.0000   1.0000   1.0000
     1.0000   1.0000   1.0000   1.0000   1.0000   1.0000   1.0000   1.0000
     1.0000   1.0000   1.0000   1.0000   1.0000   1.0000   1.0000   1.0000
     1.0000   1.0000   1.0000   1.0000   1.0000   1.0000   1.0000   1.0000
     1.0000   1.0000   1.0000   1.0000   1.0000   1.0000   1.0000   1.0000
     1.0000   1.0000   1.0000   1.0000   1.0000   1.0000   1.0000   1.0000
     1.0000   1.0000   1.0000   1.0000   1.0000   1.0000   1.0000   1.0000
     1.0000   1.0000   1.0000   1.0000   1.0000   1.0000   1.0000   1.0000
     1.0000   1.0000   1.0000   1.0000   1.0000   1.0000   1.0000   1.0000
     1.0000   1.0000   1.0000   1.0000   1.0000   1.0000   1.0000   1.0000
     1.0000   1.0000   1.0000   1.0000   1.0000   1.0000   1.0000   1.0000
     1.0000   1.0000   1.0000   1.0000   1.0000   1.0000   1.0000   1.0000
     1.0000   1.0000   1.0000   1.0000   1.0000   1.0000   1.0000   1.0000
     1.0000   1.0000   1.0000   1.0000   1.0000   1.0000   1.0000   1.0000
     1.0000   1.0000   1.0000   1.0000   1.0000   1.0000   1.0000   1.0000
     1.0000   1.0000   1.0000   1.0000   1.0000   1.0000   1.0000   1.0000
     1.0000   1.0000   1.0000   1.0000   1.0000   1.0000   1.0000   1.0000
     1.0000   1.0000   1.0000   1.0000   1.0000   1.0000   1.0000   1.0000
     1.0000   1.0000   1.0000   1.0000   1.0000   1.0000   1.0000   1.0000
     1.0000   1.0000   1.0000   1.0000   1.0000   1.0000   1.0000   1.0000
     1.0000   1.0000   1.0000   1.0000   1.0000   1.0000   1.0000   1.0000
     1.0000   1.0000   1.0000   1.0000   1.0000   1.0000   1.0000   1.0000
     1.0000   1.0000   1.0000   1.0000   1.0000   1.0000   1.0000   1.0000
     1.0000   1.0000   1.0000   1.0000   1.0000   1.0000   1.0000   1.0000
     1.0000   1.0000   1.0000   1.0000   1.0000   1.0000   1.0000   1.0000
     1.0000   1.0000   1.0000   1.0000   1.0000   1.0000   1.0000   1.0000
     1.0000   1.0000   1.0000   1.0000   1.0000   1.0000   1.0000   1.0000
     1.0000   1.0000   1.0000   1.0000   1.0000   1.0000   1.0000   1.0000
     1.0000   1.0000   1.0000   1.0000   1.0000   1.0000   1.0000   1.0000
     1.0000   1.0000   1.0000   1.0000   1.0000   1.0000   1.0000   1.0000
     1.0000   1.0000   1.0000   1.0000   1.0000   1.0000   1.0000   1.0000
     1.0000   1.0000   1.0000   1.0000   1.0000   1.0000   1.0000   1.0000
     1.0000   1.0000   1.0000   1.0000   1.0000   1.0000   1.0000   1.0000
     1.0000   1.0000   1.0000   1.0000   1.0000   1.0000   1.0000   1.0000
     1.0000   1.0000   1.0000   1.0000   1.0000   1.0000   1.0000   1.0000
     1.0000   1.0000   1.0000   1.0000   1.0000   1.0000   1.0000   1.0000
     1.0000   1.0000   1.0000   1.0000   1.0000   1.0000   1.0000   1.0000
     1.0000   1.0000   1.0000   1.0000   1.0000   1.0000   1.0000   1.0000
     1.0000   1.0000   1.0000   1.0000   1.0000   1.0000   1.0000   1.0000
     1.0000   1.0000   1.0000   1.0000   1.0000   1.0000   1.0000   1.0000
     1.0000   1.0000   1.0000   1.0000   1.0000   1.0000   1.0000   1.0000
     1.0000   1.0000   1.0000   1.0000   1.0000   1.0000   1.0000   1.0000
     1.0000   1.0000   1.0000   1.0000   1.0000   1.0000   1.0000   1.0000
     1.0000   1.0000   1.0000   1.0000   1.0000   1.0000   1.0000   1.0000
     1.0000   1.0000   1.0000   1.0000   1.0000   1.0000   1.0000   1.0000
     1.0000   1.0000   1.0000   1.0000   1.0000   1.0000   1.0000   1.0000
     1.0000   1.0000   1.0000   1.0000   1.0000   1.0000   1.0000   1.0000
     1.0000   1.0000   1.0000   1.0000   1.0000   1.0000   1.0000   1.0000
     1.0000   1.0000   1.0000   1.0000   1.0000   1.0000   1.0000   1.0000
     1.0000   1.0000   1.0000   1.0000   1.0000   1.0000   1.0000   1.0000
     1.0000   1.0000   1.0000   1.0000   1.0000   1.0000   1.0000   1.0000
     1.0000   1.0000   1.0000   1.0000   1.0000   1.0000   1.0000   1.0000
     1.0000   1.0000   1.0000   1.0000   1.0000   1.0000   1.0000   1.0000
     1.0000   1.0000   1.0000   1.0000   1.0000   1.0000   1.0000   1.0000
     0.0000   0.0000   0.0000   0.0000   0.0000   0.0000   0.0000   0.0000
     0.0000   0.0000   0.0000   0.0000   0.0000   0.0000   0.0000   0.0000
     0.0000   0.0000   0.0000   0.0000   0.0000   0.0000   0.0000   0.0000
     0.0000   0.0000   0.0000   0.0000   0.0000   0.0000   0.0000   0.0000
     0.0000   0.0000   0.0000   0.0000   0.0000   0.0000   0.0000   0.0000
     0.0000   0.0000   0.0000   0.0000   0.0000   0.0000   0.0000   0.0000
     0.0000   0.0000   0.0000   0.0000   0.0000   0.0000   0.0000   0.0000
     0.0000   0.0000   0.0000   0.0000   0.0000   0.0000   0.0000   0.0000
     0.0000   0.0000   0.0000   0.0000   0.0000   0.0000   0.0000   0.0000
     0.0000   0.0000   0.0000   0.0000   0.0000   0.0000   0.0000   0.0000
     0.0000   0.0000   0.0000   0.0000   0.0000   0.0000   0.0000   0.0000
     0.0000   0.0000   0.0000   0.0000   0.0000   0.0000   0.0000   0.0000
     0.0000   0.0000   0.0000   0.0000   0.0000   0.0000

          k =-0.3538 0.3537-0.3539 ( 42052 PWs)   bands (ev):

   -65.4733 -65.4139 -65.3975 -65.3958 -65.3769 -65.3668 -65.3628 -65.3626
   -65.3218 -65.3170 -65.3124 -65.2922 -65.2847 -65.2775 -65.2709 -65.2592
   -65.2446 -65.2360 -65.2353 -65.2264 -65.2220 -65.2129 -65.2080 -65.1999
   -65.1783 -65.1485 -65.1432 -65.1416 -65.1401 -65.1377 -65.1150 -65.1092
   -65.0851 -65.0663 -65.0273 -65.0148 -32.4430 -32.4351 -32.4300 -32.3818
   -32.3771 -32.3737 -32.3660 -32.3633 -32.3607 -32.3574 -32.3551 -32.3550
   -32.3453 -32.3402 -32.3366 -32.3337 -32.3312 -32.3291 -32.3275 -32.3250
   -32.3248 -32.3237 -32.3236 -32.3216 -32.2893 -32.2883 -32.2858 -32.2820
   -32.2787 -32.2779 -32.2758 -32.2747 -32.2739 -32.2612 -32.2547 -32.2545
   -32.2501 -32.2484 -32.2475 -32.2449 -32.2411 -32.2399 -32.2356 -32.2349
   -32.2273 -32.2267 -32.2214 -32.2168 -32.2158 -32.2107 -32.2077 -32.2068
   -32.1983 -32.1958 -32.1956 -32.1949 -32.1927 -32.1926 -32.1883 -32.1882
   -32.1843 -32.1840 -32.1825 -32.1824 -32.1786 -32.1730 -32.1720 -32.1706
   -32.1686 -32.1673 -32.1611 -32.1588 -32.1468 -32.1436 -32.1341 -32.1195
   -32.1145 -32.1139 -32.1109 -32.1084 -32.1073 -32.1056 -32.1051 -32.1024
   -32.1022 -32.1015 -32.0988 -32.0984 -32.0961 -32.0945 -32.0857 -32.0784
   -32.0747 -32.0731 -32.0714 -32.0682 -32.0566 -32.0470 -32.0408 -32.0341
   -32.0282 -32.0234 -31.9969 -31.9885 -31.9847 -31.9846 -31.9773 -31.9723
   -29.0403 -28.9692 -28.9134 -28.9076 -28.8926 -28.8621 -28.8562 -28.8454
   -28.8379 -28.8300 -28.8078 -28.8004 -28.7765 -28.7736 -28.7563 -28.7487
   -28.7432 -28.7376 -28.7130 -28.6998 -28.6923 -28.6910 -28.6747 -28.6556
   -28.6438 -28.6364 -28.6286 -28.3932 -11.4624 -11.4538 -11.4318 -11.3960
   -11.3599 -11.3399 -11.2818 -11.1870 -11.1641 -11.1448 -11.1362 -11.0819
   -11.0519 -11.0402 -11.0002 -10.9530 -10.9324 -10.8851 -10.8698 -10.8434
   -10.8351 -10.8128 -10.7749 -10.7554 -10.7382 -10.7320 -10.6740 -10.6499
   -10.6351 -10.6278 -10.5971 -10.5725 -10.5576 -10.5410 -10.5304 -10.4689
   -10.4486 -10.4424 -10.4188 -10.3891 -10.3739 -10.3368 -10.3315 -10.3145
   -10.2899 -10.2809 -10.2580 -10.2412 -10.2212 -10.2049 -10.1855 -10.1818
   -10.1632 -10.1568 -10.1333 -10.1215 -10.1171 -10.0995 -10.0762 -10.0694
   -10.0619 -10.0503 -10.0478 -10.0329 -10.0184  -9.9998  -9.9927  -9.9703
    -9.9685  -9.9559  -9.9470  -9.9261  -9.9224  -9.9070  -9.8991  -9.8796
    -9.8759  -9.8612  -9.8425  -9.8329  -9.8265  -9.7948  -9.7745  -9.7201
    -8.3397  -8.2627  -8.0906  -8.0506  -7.9952  -7.9746  -7.9362  -7.9241
    -7.8914  -7.8871  -7.8583  -7.8533  -7.8020  -7.7940  -7.7631  -7.7499
    -7.7237  -7.7164  -7.6928  -7.6695  -7.6525  -7.6333  -7.6099  -7.5903
    -7.5641  -7.5280  -7.4989  -7.4701  -7.4666  -7.4299  -7.3958  -7.3889
    -7.3773  -7.3623  -7.3490  -7.3262  -7.2895  -7.2859  -7.2439  -7.2250
    -7.1998  -7.1661  -7.1174  -7.1107  -7.0999  -7.0794  -7.0401  -6.9999
    -6.9916  -6.9529  -6.9229  -6.8996  -6.8391  -6.8291  -6.7923  -6.7667
    -6.7109  -6.6952  -6.6480  -6.6089  -6.5569  -6.5437  -6.5177  -6.4836
     3.7454   3.7834   3.8010   3.9032   3.9870   4.0261   4.1697   4.2182
     4.2400   4.2627   4.2958   4.2986   4.3288   4.3646   4.3816   4.3954
     4.4366   4.4591   4.4905   4.5045   4.5249   4.5717   4.5981   4.6247
     4.6506   4.6751   4.7132   4.7343   4.7464   4.7925   4.8122   4.8616
     4.8834   4.9017   4.9475   4.9641   4.9942   5.0151   5.0397   5.0630
     5.0890   5.1023   5.1253   5.1491   5.1671   5.2202   5.2593   5.3103
     5.3165   5.3527   5.3703   5.4117   5.4313   5.4649   5.4709   5.4990
     5.5351   5.5622   5.5954   5.6172   5.6215   5.6509   5.6576   5.6887
     5.7137   5.7381   5.7602   5.7709   5.7794   5.7904   5.8202   5.8565
     5.8592   5.8892   5.9027   5.9144   5.9410   5.9660   5.9913   6.0155
     6.0372   6.0534   6.0634   6.0877   6.1030   6.1181   6.1291   6.1356
     6.1447   6.1598   6.1677   6.1799   6.2070   6.2132   6.2203   6.2384
     6.2494   6.2518   6.2687   6.2799   6.2873   6.2907   6.3121   6.3208
     6.3424   6.3529   6.3672   6.3780   6.3851   6.3867   6.4038   6.4140
     6.4386   6.4424   6.4572   6.4696   6.4757   6.4922   6.4988   6.5204
     6.5276   6.5325   6.5387   6.5593   6.5764   6.5841   6.5982   6.6075
     6.6216   6.6323   6.6403   6.6617   6.6683   6.6817   6.6902   6.6962
     6.7026   6.7235   6.7281   6.7347   6.7427   6.7535   6.7581   6.7740
     6.7798   6.7976   6.8080   6.8156   6.8286   6.8410   6.8549   6.8647
     6.8680   6.8827   6.8865   6.8938   6.9051   6.9141   6.9265   6.9352
     6.9428   6.9528   6.9632   6.9730   6.9819   6.9903   6.9987   7.0053
     7.0066   7.0249   7.0367   7.0390   7.0559   7.0636   7.0767   7.0854
     7.0949   7.1212   7.1448   7.1618   7.1783   7.1883   7.1934   7.2357
     7.2594   7.2671   7.2945   7.3198   7.4046   7.4166   7.4394   7.4841
    12.1313  12.2205  12.6730  12.6906  12.7437  13.0289  13.0620  13.0926
    13.1299  13.2847  13.3347  13.3423  13.3766  13.5388  13.6487  13.7413
    13.7664  13.8227  13.8941  13.9848  14.0503  14.0770  14.1228  14.1591
    14.2185  14.2471  14.2655  14.2954  14.3259  14.3438  14.3870  14.3872
    14.4155  14.4465  14.4782  14.5266  14.5305  14.5445  14.6050  14.6357
    14.6548  14.6779  14.7231  14.7246  14.7619  14.8230  14.8742  14.8836
    14.9086  14.9414  14.9577  14.9971  15.0460  15.0577  15.0891  15.1413
    15.1568  15.1718  15.2025  15.2195  15.2468  15.2869  15.3318  15.3497
    15.3587  15.3931  15.4258  15.4375  15.4678  15.4858  15.5095  15.5738
    15.5916  15.6075  15.6620  15.6823  15.6828  15.7233  15.7480  15.7673
    15.7761  15.8397  15.8618  15.8853  15.9185  15.9348  15.9641  15.9961
    16.0098  16.0561  16.1109  16.1174  16.1510  16.1777  16.2098  16.2379
    16.2707  16.3101  16.3229  16.3768  16.4033  16.4102

     occupation numbers 
     1.0000   1.0000   1.0000   1.0000   1.0000   1.0000   1.0000   1.0000
     1.0000   1.0000   1.0000   1.0000   1.0000   1.0000   1.0000   1.0000
     1.0000   1.0000   1.0000   1.0000   1.0000   1.0000   1.0000   1.0000
     1.0000   1.0000   1.0000   1.0000   1.0000   1.0000   1.0000   1.0000
     1.0000   1.0000   1.0000   1.0000   1.0000   1.0000   1.0000   1.0000
     1.0000   1.0000   1.0000   1.0000   1.0000   1.0000   1.0000   1.0000
     1.0000   1.0000   1.0000   1.0000   1.0000   1.0000   1.0000   1.0000
     1.0000   1.0000   1.0000   1.0000   1.0000   1.0000   1.0000   1.0000
     1.0000   1.0000   1.0000   1.0000   1.0000   1.0000   1.0000   1.0000
     1.0000   1.0000   1.0000   1.0000   1.0000   1.0000   1.0000   1.0000
     1.0000   1.0000   1.0000   1.0000   1.0000   1.0000   1.0000   1.0000
     1.0000   1.0000   1.0000   1.0000   1.0000   1.0000   1.0000   1.0000
     1.0000   1.0000   1.0000   1.0000   1.0000   1.0000   1.0000   1.0000
     1.0000   1.0000   1.0000   1.0000   1.0000   1.0000   1.0000   1.0000
     1.0000   1.0000   1.0000   1.0000   1.0000   1.0000   1.0000   1.0000
     1.0000   1.0000   1.0000   1.0000   1.0000   1.0000   1.0000   1.0000
     1.0000   1.0000   1.0000   1.0000   1.0000   1.0000   1.0000   1.0000
     1.0000   1.0000   1.0000   1.0000   1.0000   1.0000   1.0000   1.0000
     1.0000   1.0000   1.0000   1.0000   1.0000   1.0000   1.0000   1.0000
     1.0000   1.0000   1.0000   1.0000   1.0000   1.0000   1.0000   1.0000
     1.0000   1.0000   1.0000   1.0000   1.0000   1.0000   1.0000   1.0000
     1.0000   1.0000   1.0000   1.0000   1.0000   1.0000   1.0000   1.0000
     1.0000   1.0000   1.0000   1.0000   1.0000   1.0000   1.0000   1.0000
     1.0000   1.0000   1.0000   1.0000   1.0000   1.0000   1.0000   1.0000
     1.0000   1.0000   1.0000   1.0000   1.0000   1.0000   1.0000   1.0000
     1.0000   1.0000   1.0000   1.0000   1.0000   1.0000   1.0000   1.0000
     1.0000   1.0000   1.0000   1.0000   1.0000   1.0000   1.0000   1.0000
     1.0000   1.0000   1.0000   1.0000   1.0000   1.0000   1.0000   1.0000
     1.0000   1.0000   1.0000   1.0000   1.0000   1.0000   1.0000   1.0000
     1.0000   1.0000   1.0000   1.0000   1.0000   1.0000   1.0000   1.0000
     1.0000   1.0000   1.0000   1.0000   1.0000   1.0000   1.0000   1.0000
     1.0000   1.0000   1.0000   1.0000   1.0000   1.0000   1.0000   1.0000
     1.0000   1.0000   1.0000   1.0000   1.0000   1.0000   1.0000   1.0000
     1.0000   1.0000   1.0000   1.0000   1.0000   1.0000   1.0000   1.0000
     1.0000   1.0000   1.0000   1.0000   1.0000   1.0000   1.0000   1.0000
     1.0000   1.0000   1.0000   1.0000   1.0000   1.0000   1.0000   1.0000
     1.0000   1.0000   1.0000   1.0000   1.0000   1.0000   1.0000   1.0000
     1.0000   1.0000   1.0000   1.0000   1.0000   1.0000   1.0000   1.0000
     1.0000   1.0000   1.0000   1.0000   1.0000   1.0000   1.0000   1.0000
     1.0000   1.0000   1.0000   1.0000   1.0000   1.0000   1.0000   1.0000
     1.0000   1.0000   1.0000   1.0000   1.0000   1.0000   1.0000   1.0000
     1.0000   1.0000   1.0000   1.0000   1.0000   1.0000   1.0000   1.0000
     1.0000   1.0000   1.0000   1.0000   1.0000   1.0000   1.0000   1.0000
     1.0000   1.0000   1.0000   1.0000   1.0000   1.0000   1.0000   1.0000
     1.0000   1.0000   1.0000   1.0000   1.0000   1.0000   1.0000   1.0000
     1.0000   1.0000   1.0000   1.0000   1.0000   1.0000   1.0000   1.0000
     1.0000   1.0000   1.0000   1.0000   1.0000   1.0000   1.0000   1.0000
     1.0000   1.0000   1.0000   1.0000   1.0000   1.0000   1.0000   1.0000
     1.0000   1.0000   1.0000   1.0000   1.0000   1.0000   1.0000   1.0000
     1.0000   1.0000   1.0000   1.0000   1.0000   1.0000   1.0000   1.0000
     1.0000   1.0000   1.0000   1.0000   1.0000   1.0000   1.0000   1.0000
     1.0000   1.0000   1.0000   1.0000   1.0000   1.0000   1.0000   1.0000
     1.0000   1.0000   1.0000   1.0000   1.0000   1.0000   1.0000   1.0000
     1.0000   1.0000   1.0000   1.0000   1.0000   1.0000   1.0000   1.0000
     1.0000   1.0000   1.0000   1.0000   1.0000   1.0000   1.0000   1.0000
     1.0000   1.0000   1.0000   1.0000   1.0000   1.0000   1.0000   1.0000
     1.0000   1.0000   1.0000   1.0000   1.0000   1.0000   1.0000   1.0000
     1.0000   1.0000   1.0000   1.0000   1.0000   1.0000   1.0000   1.0000
     1.0000   1.0000   1.0000   1.0000   1.0000   1.0000   1.0000   1.0000
     1.0000   1.0000   1.0000   1.0000   1.0000   1.0000   1.0000   1.0000
     1.0000   1.0000   1.0000   1.0000   1.0000   1.0000   1.0000   1.0000
     1.0000   1.0000   1.0000   1.0000   1.0000   1.0000   1.0000   1.0000
     1.0000   1.0000   1.0000   1.0000   1.0000   1.0000   1.0000   1.0000
     1.0000   1.0000   1.0000   1.0000   1.0000   1.0000   1.0000   1.0000
     0.0000   0.0000   0.0000   0.0000   0.0000   0.0000   0.0000   0.0000
     0.0000   0.0000   0.0000   0.0000   0.0000   0.0000   0.0000   0.0000
     0.0000   0.0000   0.0000   0.0000   0.0000   0.0000   0.0000   0.0000
     0.0000   0.0000   0.0000   0.0000   0.0000   0.0000   0.0000   0.0000
     0.0000   0.0000   0.0000   0.0000   0.0000   0.0000   0.0000   0.0000
     0.0000   0.0000   0.0000   0.0000   0.0000   0.0000   0.0000   0.0000
     0.0000   0.0000   0.0000   0.0000   0.0000   0.0000   0.0000   0.0000
     0.0000   0.0000   0.0000   0.0000   0.0000   0.0000   0.0000   0.0000
     0.0000   0.0000   0.0000   0.0000   0.0000   0.0000   0.0000   0.0000
     0.0000   0.0000   0.0000   0.0000   0.0000   0.0000   0.0000   0.0000
     0.0000   0.0000   0.0000   0.0000   0.0000   0.0000   0.0000   0.0000
     0.0000   0.0000   0.0000   0.0000   0.0000   0.0000   0.0000   0.0000
     0.0000   0.0000   0.0000   0.0000   0.0000   0.0000

          k =-0.7077-0.0014 0.0018 ( 42122 PWs)   bands (ev):

   -65.4733 -65.4139 -65.3975 -65.3958 -65.3769 -65.3668 -65.3628 -65.3626
   -65.3218 -65.3170 -65.3124 -65.2922 -65.2847 -65.2775 -65.2709 -65.2592
   -65.2446 -65.2360 -65.2353 -65.2264 -65.2220 -65.2129 -65.2080 -65.1999
   -65.1783 -65.1485 -65.1432 -65.1416 -65.1401 -65.1377 -65.1150 -65.1092
   -65.0851 -65.0663 -65.0273 -65.0148 -32.4430 -32.4351 -32.4300 -32.3818
   -32.3771 -32.3737 -32.3660 -32.3633 -32.3607 -32.3574 -32.3551 -32.3550
   -32.3453 -32.3403 -32.3366 -32.3337 -32.3312 -32.3291 -32.3275 -32.3250
   -32.3248 -32.3236 -32.3236 -32.3216 -32.2893 -32.2883 -32.2858 -32.2820
   -32.2787 -32.2779 -32.2758 -32.2748 -32.2739 -32.2612 -32.2547 -32.2545
   -32.2501 -32.2484 -32.2475 -32.2449 -32.2411 -32.2399 -32.2356 -32.2349
   -32.2273 -32.2267 -32.2214 -32.2168 -32.2158 -32.2107 -32.2077 -32.2068
   -32.1983 -32.1957 -32.1956 -32.1949 -32.1927 -32.1926 -32.1883 -32.1882
   -32.1843 -32.1840 -32.1825 -32.1824 -32.1786 -32.1730 -32.1720 -32.1706
   -32.1686 -32.1673 -32.1612 -32.1588 -32.1468 -32.1436 -32.1340 -32.1195
   -32.1145 -32.1139 -32.1109 -32.1084 -32.1073 -32.1056 -32.1051 -32.1024
   -32.1022 -32.1015 -32.0988 -32.0983 -32.0961 -32.0945 -32.0857 -32.0784
   -32.0747 -32.0731 -32.0714 -32.0682 -32.0566 -32.0470 -32.0408 -32.0341
   -32.0282 -32.0234 -31.9969 -31.9885 -31.9847 -31.9846 -31.9773 -31.9723
   -29.0403 -28.9691 -28.9135 -28.9076 -28.8926 -28.8622 -28.8562 -28.8454
   -28.8379 -28.8300 -28.8077 -28.8006 -28.7763 -28.7736 -28.7566 -28.7486
   -28.7432 -28.7376 -28.7130 -28.7002 -28.6919 -28.6909 -28.6747 -28.6556
   -28.6438 -28.6364 -28.6287 -28.3932 -11.4636 -11.4532 -11.4317 -11.3971
   -11.3590 -11.3391 -11.2742 -11.1860 -11.1635 -11.1475 -11.1354 -11.0844
   -11.0516 -11.0372 -11.0012 -10.9743 -10.9373 -10.8866 -10.8675 -10.8612
   -10.8238 -10.8156 -10.7875 -10.7732 -10.7307 -10.6968 -10.6753 -10.6428
   -10.6390 -10.6112 -10.5967 -10.5820 -10.5506 -10.5339 -10.5034 -10.4952
   -10.4638 -10.4329 -10.3934 -10.3793 -10.3601 -10.3422 -10.3331 -10.3154
   -10.2856 -10.2752 -10.2528 -10.2367 -10.2155 -10.2120 -10.2066 -10.1915
   -10.1702 -10.1465 -10.1365 -10.1267 -10.1150 -10.1052 -10.0891 -10.0821
   -10.0783 -10.0533 -10.0396 -10.0363 -10.0179 -10.0036  -9.9839  -9.9760
    -9.9658  -9.9572  -9.9421  -9.9324  -9.9255  -9.9108  -9.8937  -9.8789
    -9.8692  -9.8649  -9.8445  -9.8356  -9.8260  -9.7941  -9.7656  -9.7183
    -8.2917  -8.2367  -8.1035  -8.0791  -8.0496  -7.9947  -7.9359  -7.9209
    -7.9189  -7.8548  -7.8405  -7.8234  -7.8113  -7.7971  -7.7700  -7.7504
    -7.7251  -7.7044  -7.6953  -7.6815  -7.6506  -7.6097  -7.5831  -7.5590
    -7.5518  -7.5341  -7.5202  -7.4996  -7.4813  -7.4685  -7.4281  -7.4006
    -7.3928  -7.3376  -7.3334  -7.2946  -7.2848  -7.2558  -7.2361  -7.1942
    -7.1832  -7.1523  -7.1375  -7.1340  -7.1229  -7.0875  -7.0548  -7.0095
    -7.0071  -6.9725  -6.9342  -6.8436  -6.8172  -6.8115  -6.7972  -6.7682
    -6.7200  -6.7020  -6.6799  -6.6069  -6.5514  -6.5363  -6.5192  -6.4780
     3.8034   3.8321   3.8441   3.9371   4.0210   4.0402   4.0548   4.1739
[...]
     atom   77 type  2   force =   0.00000000E+00  0.00000000E+00  0.00000000E+00
     atom   78 type  3   force =   0.00000000E+00  0.00000000E+00  0.00000000E+00
     atom   79 type  1   force =   0.00000000E+00  0.00000000E+00  0.00000000E+00
     atom   80 type  3   force =   0.00000000E+00  0.00000000E+00  0.00000000E+00
     atom   81 type  2   force =   0.00000000E+00  0.00000000E+00  0.00000000E+00
     atom   82 type  3   force =   0.00000000E+00  0.00000000E+00  0.00000000E+00
     atom   83 type  1   force =   0.00000000E+00  0.00000000E+00  0.00000000E+00
     atom   84 type  3   force =   0.00000000E+00  0.00000000E+00  0.00000000E+00
     atom   85 type  1   force =   0.00000000E+00  0.00000000E+00  0.00000000E+00
     atom   86 type  3   force =   0.00000000E+00  0.00000000E+00  0.00000000E+00
     atom   87 type  1   force =   0.00000000E+00  0.00000000E+00  0.00000000E+00
     atom   88 type  3   force =   0.00000000E+00  0.00000000E+00  0.00000000E+00
     atom   89 type  2   force =   0.00000000E+00  0.00000000E+00  0.00000000E+00
     atom   90 type  3   force =   0.00000000E+00  0.00000000E+00  0.00000000E+00
     atom   91 type  2   force =   0.00000000E+00  0.00000000E+00  0.00000000E+00
     atom   92 type  3   force =   0.00000000E+00  0.00000000E+00  0.00000000E+00
     atom   93 type  2   force =   0.00000000E+00  0.00000000E+00  0.00000000E+00
     atom   94 type  3   force =   0.00000000E+00  0.00000000E+00  0.00000000E+00
     atom   95 type  1   force =   0.00000000E+00  0.00000000E+00  0.00000000E+00
     atom   96 type  3   force =   0.00000000E+00  0.00000000E+00  0.00000000E+00
     atom   97 type  1   force =   0.00000000E+00  0.00000000E+00  0.00000000E+00
     atom   98 type  3   force =   0.00000000E+00  0.00000000E+00  0.00000000E+00
     atom   99 type  1   force =   0.00000000E+00  0.00000000E+00  0.00000000E+00
     atom  100 type  3   force =   0.00000000E+00  0.00000000E+00  0.00000000E+00
     atom  101 type  1   force =   0.00000000E+00  0.00000000E+00  0.00000000E+00
     atom  102 type  3   force =   0.00000000E+00  0.00000000E+00  0.00000000E+00
     atom  103 type  2   force =   0.00000000E+00  0.00000000E+00  0.00000000E+00
     atom  104 type  3   force =   0.00000000E+00  0.00000000E+00  0.00000000E+00
     atom  105 type  2   force =   0.00000000E+00  0.00000000E+00  0.00000000E+00
     atom  106 type  3   force =   0.00000000E+00  0.00000000E+00  0.00000000E+00
     atom  107 type  1   force =   0.00000000E+00  0.00000000E+00  0.00000000E+00
     atom  108 type  3   force =   0.00000000E+00  0.00000000E+00  0.00000000E+00
     atom  109 type  1   force =   0.00000000E+00  0.00000000E+00  0.00000000E+00
     atom  110 type  3   force =   0.00000000E+00  0.00000000E+00  0.00000000E+00
     atom  111 type  2   force =   0.00000000E+00  0.00000000E+00  0.00000000E+00
     atom  112 type  3   force =   0.00000000E+00  0.00000000E+00  0.00000000E+00
     atom  113 type  2   force =   0.00000000E+00  0.00000000E+00  0.00000000E+00
     atom  114 type  3   force =   0.00000000E+00  0.00000000E+00  0.00000000E+00
     atom  115 type  1   force =   0.00000000E+00  0.00000000E+00  0.00000000E+00
     atom  116 type  3   force =   0.00000000E+00  0.00000000E+00  0.00000000E+00
     atom  117 type  2   force =   0.00000000E+00  0.00000000E+00  0.00000000E+00
     atom  118 type  3   force =   0.00000000E+00  0.00000000E+00  0.00000000E+00
     atom  119 type  2   force =   0.00000000E+00  0.00000000E+00  0.00000000E+00
     atom  120 type  3   force =   0.00000000E+00  0.00000000E+00  0.00000000E+00
     atom  121 type  1   force =   0.00000000E+00  0.00000000E+00  0.00000000E+00
     atom  122 type  3   force =   0.00000000E+00  0.00000000E+00  0.00000000E+00
     atom  123 type  1   force =   0.00000000E+00  0.00000000E+00  0.00000000E+00
     atom  124 type  3   force =   0.00000000E+00  0.00000000E+00  0.00000000E+00
     atom  125 type  1   force =   0.00000000E+00  0.00000000E+00  0.00000000E+00
     atom  126 type  3   force =   0.00000000E+00  0.00000000E+00  0.00000000E+00
     atom  127 type  1   force =   0.00000000E+00  0.00000000E+00  0.00000000E+00
     atom  128 type  3   force =   0.00000000E+00  0.00000000E+00  0.00000000E+00
     The SCF correction term to forces
     atom    1 type  2   force =   0.24618162E-05  0.32136911E-05  0.23383108E-06
     atom    2 type  3   force =   0.20498165E-05 -0.11217364E-05 -0.31338622E-06
     atom    3 type  2   force =  -0.70774129E-06 -0.48835743E-06 -0.21911056E-05
     atom    4 type  3   force =  -0.59130347E-06 -0.34542684E-05  0.12765535E-05
     atom    5 type  1   force =  -0.20483877E-05 -0.65863696E-05 -0.80251486E-06
     atom    6 type  3   force =   0.16615930E-05  0.46119955E-06  0.24473021E-05
     atom    7 type  2   force =   0.32843376E-05  0.32629473E-07  0.22973475E-06
     atom    8 type  3   force =   0.10551447E-05  0.91165893E-07  0.40996010E-06
     atom    9 type  2   force =   0.49404728E-05  0.25689632E-06 -0.40198816E-07
     atom   10 type  3   force =  -0.17808174E-06 -0.61391918E-06 -0.19980024E-05
     atom   11 type  1   force =   0.82867154E-06 -0.54050042E-05  0.27093511E-06
     atom   12 type  3   force =   0.98255818E-06 -0.32007835E-06  0.14208256E-05
     atom   13 type  2   force =   0.13413317E-05 -0.40622403E-05  0.16179118E-05
     atom   14 type  3   force =   0.35570858E-06 -0.53706796E-06  0.20778672E-05
     atom   15 type  2   force =   0.31046813E-05 -0.11276887E-05  0.27178337E-05
     atom   16 type  3   force =   0.54325411E-06 -0.18929382E-06 -0.34822435E-06
     atom   17 type  2   force =  -0.65869014E-06  0.10582591E-06 -0.45850475E-05
     atom   18 type  3   force =   0.13010193E-05  0.15233507E-05 -0.38689412E-06
     atom   19 type  1   force =   0.12207829E-06 -0.13825294E-05 -0.34477765E-05
     atom   20 type  3   force =   0.22683749E-05 -0.86746382E-06 -0.47541848E-06
     atom   21 type  1   force =   0.18672455E-05  0.65455920E-06  0.25659883E-05
     atom   22 type  3   force =  -0.22217420E-05 -0.17265631E-05 -0.24090844E-05
     atom   23 type  2   force =  -0.74510555E-06  0.25918115E-06  0.52471763E-06
     atom   24 type  3   force =  -0.11620019E-05  0.70935887E-06 -0.28280408E-05
     atom   25 type  2   force =  -0.67201699E-06  0.25744196E-05 -0.16457704E-05
     atom   26 type  3   force =   0.16541480E-05  0.11489746E-05 -0.21007578E-05
     atom   27 type  1   force =   0.52522677E-05  0.45548329E-05  0.12106714E-05
     atom   28 type  3   force =  -0.19017351E-05 -0.28392144E-05 -0.28781225E-05
     atom   29 type  1   force =  -0.36628820E-05 -0.34323963E-05 -0.89509947E-06
     atom   30 type  3   force =  -0.10028476E-05 -0.10134829E-05 -0.81086009E-06
     atom   31 type  1   force =  -0.40024704E-05  0.55305007E-06 -0.64356722E-05
     atom   32 type  3   force =   0.15032238E-05  0.24959370E-05  0.83775083E-06
     atom   33 type  2   force =   0.17722879E-05  0.76483962E-06 -0.20347919E-05
     atom   34 type  3   force =   0.86614706E-06 -0.15494929E-05  0.11131291E-05
     atom   35 type  2   force =  -0.90492976E-06 -0.34901059E-05 -0.14168209E-06
     atom   36 type  3   force =   0.12271702E-05 -0.12271905E-05  0.20839774E-05
     atom   37 type  1   force =  -0.77316333E-06 -0.11794522E-05  0.33040988E-05
     atom   38 type  3   force =   0.11593032E-05 -0.10756354E-05  0.12284101E-05
     atom   39 type  1   force =   0.69938426E-06  0.23503309E-05  0.10060126E-05
     atom   40 type  3   force =   0.10068220E-05 -0.66097005E-06  0.83841289E-06
     atom   41 type  1   force =   0.19680103E-05 -0.13916469E-05 -0.21784468E-05
     atom   42 type  3   force =  -0.48290747E-06  0.11437924E-05  0.33367413E-07
     atom   43 type  1   force =  -0.86788200E-06 -0.26403443E-05  0.23498754E-05
     atom   44 type  3   force =   0.40761790E-06 -0.34814209E-06  0.66553767E-06
     atom   45 type  1   force =   0.39433789E-05  0.78106735E-06  0.49842365E-05
     atom   46 type  3   force =  -0.52548014E-06 -0.14234614E-05 -0.13223462E-05
     atom   47 type  2   force =   0.12837958E-05 -0.21575285E-05  0.32779778E-05
     atom   48 type  3   force =   0.32055273E-06  0.79060346E-06 -0.22522188E-05
     atom   49 type  1   force =   0.28823776E-06  0.12930010E-05 -0.20131398E-05
     atom   50 type  3   force =   0.25722080E-06  0.16234485E-05 -0.77653624E-06
     atom   51 type  1   force =   0.11251589E-05  0.31457285E-05  0.26343778E-06
     atom   52 type  3   force =  -0.21217681E-05 -0.37952635E-06 -0.10671790E-05
     atom   53 type  2   force =  -0.57354264E-06 -0.69447317E-06 -0.22188206E-05
     atom   54 type  3   force =  -0.19517091E-05 -0.24066804E-06 -0.17399344E-05
     atom   55 type  2   force =  -0.21532514E-05 -0.18624027E-05 -0.49415390E-05
     atom   56 type  3   force =   0.12158895E-05  0.18234910E-05 -0.50269339E-06
     atom   57 type  2   force =   0.25203438E-05  0.11479707E-05 -0.20227931E-06
     atom   58 type  3   force =  -0.71957243E-07  0.30661850E-07 -0.79042367E-06
     atom   59 type  1   force =   0.10314920E-05 -0.28009911E-05 -0.28969540E-05
     atom   60 type  3   force =  -0.16568826E-05 -0.14766102E-05  0.59985073E-06
     atom   61 type  1   force =  -0.52268858E-05 -0.37062948E-05 -0.31588734E-05
     atom   62 type  3   force =   0.19847784E-05  0.13098893E-05  0.14403139E-05
     atom   63 type  2   force =   0.19394121E-05  0.34513091E-05 -0.18092359E-05
     atom   64 type  3   force =  -0.72239673E-07  0.91368061E-07 -0.75141124E-06
     atom   65 type  1   force =   0.27560381E-06 -0.16536014E-05 -0.53675027E-06
     atom   66 type  3   force =   0.16760300E-05 -0.18081607E-05  0.19608834E-05
     atom   67 type  1   force =   0.34304224E-06 -0.31150874E-05  0.10368345E-06
     atom   68 type  3   force =   0.25441090E-06  0.10336216E-06  0.25485161E-05
     atom   69 type  1   force =   0.29104865E-05  0.13668127E-05  0.18596544E-05
     atom   70 type  3   force =  -0.22943067E-06 -0.84559796E-06  0.42407392E-06
     atom   71 type  2   force =   0.20739806E-06 -0.25517703E-06  0.12446859E-05
     atom   72 type  3   force =   0.13637414E-05 -0.70360650E-06 -0.57509374E-06
     atom   73 type  1   force =   0.24781424E-05  0.81753220E-06  0.46656907E-07
     atom   74 type  3   force =   0.91906869E-06  0.15512474E-05  0.85181149E-06
     atom   75 type  1   force =   0.32026136E-05 -0.20035869E-05  0.52085803E-05
     atom   76 type  3   force =  -0.17712353E-05 -0.13939749E-05  0.27699314E-05
     atom   77 type  2   force =   0.17810940E-05 -0.17643386E-05  0.52159854E-06
     atom   78 type  3   force =  -0.19473707E-05 -0.62593142E-06 -0.18796264E-06
     atom   79 type  1   force =  -0.21410648E-05 -0.26497783E-05 -0.28179609E-05
     atom   80 type  3   force =   0.14666500E-05  0.22129821E-05 -0.10029149E-05
     atom   81 type  2   force =   0.14339200E-06  0.41894398E-05 -0.67781169E-06
     atom   82 type  3   force =  -0.18674853E-05  0.29566703E-05 -0.97774235E-06
     atom   83 type  1   force =  -0.35717755E-05  0.83261004E-06  0.49392485E-06
     atom   84 type  3   force =  -0.47692917E-05 -0.40272352E-06  0.45314334E-06
     atom   85 type  1   force =  -0.44188907E-05 -0.31783399E-05 -0.45666198E-06
     atom   86 type  3   force =  -0.28982959E-06  0.17935437E-05  0.19349500E-05
     atom   87 type  1   force =   0.22252374E-05  0.36407923E-05 -0.86625429E-06
     atom   88 type  3   force =   0.21953330E-06  0.23461595E-05  0.20394701E-06
     atom   89 type  2   force =  -0.93178932E-06  0.27691262E-05 -0.44669258E-06
     atom   90 type  3   force =  -0.10938639E-05 -0.22763705E-06 -0.16078412E-05
     atom   91 type  2   force =  -0.43398544E-05  0.12514113E-05 -0.13977396E-05
     atom   92 type  3   force =  -0.63221456E-06  0.20184529E-05  0.13340611E-05
     atom   93 type  2   force =  -0.33360556E-05  0.18708693E-06  0.11654943E-05
     atom   94 type  3   force =  -0.10078594E-05  0.12612976E-05  0.14220850E-05
     atom   95 type  1   force =   0.19059922E-05  0.28220909E-05  0.24360339E-06
     atom   96 type  3   force =  -0.90610139E-06  0.60616017E-06 -0.83626382E-06
     atom   97 type  1   force =   0.17507792E-05 -0.17323498E-05  0.13861343E-05
     atom   98 type  3   force =   0.24613571E-05  0.93389127E-06  0.79089217E-06
     atom   99 type  1   force =   0.13250010E-05  0.52871996E-05  0.41690380E-05
     atom  100 type  3   force =  -0.83262281E-06 -0.22558546E-05  0.10520915E-05
     atom  101 type  1   force =  -0.31840876E-05  0.34224458E-06  0.15207288E-05
     atom  102 type  3   force =   0.22161205E-06 -0.27702030E-05  0.14874038E-06
     atom  103 type  2   force =  -0.28125147E-06 -0.31127089E-05 -0.13441807E-05
     atom  104 type  3   force =   0.23668431E-05  0.31078813E-07  0.54621118E-06
     atom  105 type  2   force =   0.40672015E-05  0.79472869E-06  0.17571335E-05
     atom  106 type  3   force =   0.17836350E-05  0.34513576E-07 -0.10767411E-05
     atom  107 type  1   force =  -0.88657131E-06 -0.21954375E-05  0.46751081E-05
     atom  108 type  3   force =  -0.18055999E-05 -0.35103126E-05  0.83932050E-06
     atom  109 type  1   force =  -0.35452456E-05 -0.18702429E-05  0.16933772E-05
     atom  110 type  3   force =   0.50839021E-06  0.21014413E-06  0.21361107E-05
     atom  111 type  2   force =   0.12706985E-05  0.10245016E-05  0.59272377E-06
     atom  112 type  3   force =   0.19734982E-05  0.76948736E-06  0.15546558E-07
     atom  113 type  2   force =   0.14908059E-05  0.34342777E-05 -0.17877984E-05
     atom  114 type  3   force =  -0.10851477E-05  0.75358449E-06 -0.47616782E-05
     atom  115 type  1   force =  -0.28203142E-05 -0.58834029E-06  0.69300204E-06
     atom  116 type  3   force =   0.98846098E-07  0.12865207E-05  0.13751859E-05
     atom  117 type  2   force =  -0.39383046E-05 -0.93000323E-06  0.34189980E-05
     atom  118 type  3   force =  -0.97153457E-06 -0.23574363E-06  0.27039233E-05
     atom  119 type  2   force =   0.38864192E-06  0.30821121E-05  0.13312835E-05
     atom  120 type  3   force =  -0.39939747E-06  0.59871276E-06 -0.22438356E-05
     atom  121 type  1   force =  -0.33669163E-05  0.12241197E-05 -0.60968367E-05
     atom  122 type  3   force =   0.14127818E-05  0.30161749E-05  0.62605782E-06
     atom  123 type  1   force =  -0.33146437E-05  0.35853117E-05 -0.40837444E-05
     atom  124 type  3   force =  -0.14416860E-05  0.27420457E-05  0.67221020E-06
     atom  125 type  1   force =  -0.21635011E-05  0.37953204E-05  0.62670898E-05
     atom  126 type  3   force =  -0.31423719E-05 -0.20051562E-05 -0.15243908E-05
     atom  127 type  1   force =  -0.12940307E-05  0.14548888E-05 -0.43664453E-06
     atom  128 type  3   force =  -0.27400071E-07 -0.44698246E-06 -0.20629837E-05

     Total force =     0.453346     Total SCF correction =     0.000041


     entering subroutine stress ...

          total   stress  (Ry/bohr**3)                   (kbar)     P=    8.35
   0.0000471800   0.0000114270  -0.0000146204          6.94      1.68     -2.15
   0.0000114270   0.0000598817  -0.0000170690          1.68      8.81     -2.51
  -0.0000146204  -0.0000170690   0.0000631395         -2.15     -2.51      9.29

     kinetic stress (kbar)  21083.85      1.46     -2.39
                                1.46  21088.10     -2.25
                               -2.39     -2.25  21086.67

     local   stress (kbar)  -3344.58     30.21    -29.30
                               30.21  -3253.39    -32.89
                              -29.30    -32.89  -3590.18

     nonloc. stress (kbar)   5375.95      0.03      0.14
                                0.03   5374.78      0.07
                                0.14      0.07   5376.85

     hartree stress (kbar)  11757.96    -11.06     13.05
                              -11.06  11719.60     13.00
                               13.05     13.00  11849.09

     exc-cor stress (kbar)  -5597.24     -0.05      0.03
                               -0.05  -5597.26      0.05
                                0.03      0.05  -5597.06

     corecor stress (kbar)   -968.85     -0.01      0.01
                               -0.01   -968.86      0.01
                                0.01      0.01   -968.86

     ewald   stress (kbar) -28300.16    -18.91     16.32
                              -18.91 -28354.17     19.50
                               16.32     19.50 -28147.22

     hubbard stress (kbar)      0.00      0.00      0.00
                                0.00      0.00      0.00
                                0.00      0.00      0.00

     london  stress (kbar)      0.00      0.00      0.00
                                0.00      0.00      0.00
                                0.00      0.00      0.00

     XDM     stress (kbar)      0.00      0.00      0.00
                                0.00      0.00      0.00
                                0.00      0.00      0.00

     dft-nl  stress (kbar)      0.00      0.00      0.00
                                0.00      0.00      0.00
                                0.00      0.00      0.00



     Writing output data file mix_rocksalt.relax.in.up_1.00.super.444.a.1010.save

     init_run     :    838.65s CPU    600.99s WALL (       1 calls)
     electrons    :  65871.12s CPU  51621.74s WALL (       1 calls)
     forces       :    644.51s CPU    448.47s WALL (       1 calls)
     stress       :   2718.59s CPU   2734.75s WALL (       1 calls)

     Called by init_run:
     wfcinit      :    795.42s CPU    557.13s WALL (       1 calls)
     potinit      :      7.02s CPU      7.09s WALL (       1 calls)

     Called by electrons:
     c_bands      :  58248.87s CPU  45234.04s WALL (      26 calls)
     sum_band     :   6777.51s CPU   5524.60s WALL (      26 calls)
     v_of_rho     :     19.34s CPU     19.39s WALL (      27 calls)
     v_h          :      1.24s CPU      1.24s WALL (      27 calls)
     v_xc         :     19.13s CPU     19.18s WALL (      29 calls)
     newd         :    817.31s CPU    835.20s WALL (      27 calls)
     mix_rho      :     29.65s CPU     30.32s WALL (      26 calls)

     Called by c_bands:
     init_us_2    :     61.63s CPU     64.90s WALL (     440 calls)
     cegterg      :  57777.13s CPU  44729.30s WALL (     208 calls)

     Called by sum_band:
     sum_band:bec :     22.19s CPU     22.75s WALL (     208 calls)
     addusdens    :    540.73s CPU    558.98s WALL (      26 calls)

     Called by *egterg:
     h_psi        :  24607.53s CPU  19075.73s WALL (     805 calls)
     s_psi        :   7298.37s CPU   4389.86s WALL (     805 calls)
     g_psi        :     12.59s CPU     16.01s WALL (     589 calls)
     cdiaghg      :  12682.76s CPU  12430.44s WALL (     797 calls)
     cegterg:over :   6039.22s CPU   3963.51s WALL (     589 calls)
     cegterg:upda :   2768.24s CPU   1731.52s WALL (     589 calls)
     cegterg:last :   2096.07s CPU   1270.76s WALL (     208 calls)

     Called by h_psi:
     h_psi:vloc   :   9255.69s CPU   9566.79s WALL (     805 calls)
     h_psi:vnl    :  15327.71s CPU   9483.67s WALL (     805 calls)
     add_vuspsi   :   7099.29s CPU   4280.04s WALL (     805 calls)

     General routines
     calbec       :  12499.89s CPU   8029.31s WALL (    1029 calls)
     fft          :    144.27s CPU    152.49s WALL (     453 calls)
     ffts         :     16.05s CPU     16.42s WALL (     708 calls)
     fftw         :  10287.66s CPU  10633.79s WALL (  704746 calls)
     interpolate  :      4.28s CPU      4.37s WALL (      53 calls)

     Parallel routines
     fft_scatter  :   6311.87s CPU   6553.89s WALL (  705907 calls)

     PWSCF        :    19h28m CPU       15h23m WALL


   This run was terminated on:  11:18: 7   4Nov2017            

=------------------------------------------------------------------------------=
   JOB DONE.
=------------------------------------------------------------------------------=
