
     Program PWSCF v.5.1 starts on  3Nov2017 at 19:54:14 

     This program is part of the open-source Quantum ESPRESSO suite
     for quantum simulation of materials; please cite
         "P. Giannozzi et al., J. Phys.:Condens. Matter 21 395502 (2009);
          URL http://www.quantum-espresso.org", 
     in publications or presentations arising from this work. More details at
     http://www.quantum-espresso.org/quote

     Parallel version (MPI), running on     8 processors
     R & G space division:  proc/nbgrp/npool/nimage =       8
     Reading input from /tmp/mix_rocksalt.relax.in.up_1.00.super.444.a.09.30955/mix_rocksalt.relax.in.up_1.00.super.444.a.09.t
Warning: card &IONS ignored
Warning: card   ION_DYNAMICS='BFGS', ignored
Warning: card / ignored
Warning: card &CELL ignored
Warning: card  CELL_DYNAMICS = 'BFGS' ignored
Warning: card / ignored
     Message from routine read_cards :
     DEPRECATED: no units specified in CELL_PARAMETERS card

     Current dimensions of program PWSCF are:
     Max number of different atomic species (ntypx) = 10
     Max number of k-points (npk) =  40000
     Max angular momentum in pseudopotentials (lmaxx) =  3
 kfg - two_fermi_energies  F

     Subspace diagonalization in iterative solution of the eigenvalue problem:
     a serial algorithm will be used


     Parallelization info
     --------------------
     sticks:   dense  smooth     PW     G-vecs:    dense   smooth      PW
     Min        1002     801    210                59019    42219    5735
     Max        1003     802    211                59021    42261    5737
     Sum        8017    6413   1683               472159   337907   45887



     bravais-lattice index     =            0
     lattice parameter (alat)  =    24.078820898  a.u.
     unit-cell volume          =    9885.4912 (a.u.)^3
     number of atoms/cell      =          128
     number of atomic types    =            3
     number of electrons       =      1024.00
     number of Kohn-Sham states=          614
     kinetic-energy cutoff     =      40.0000  Ry
     charge density cutoff     =     200.0000  Ry
     convergence threshold     =      1.0E-10
     mixing beta               =       0.3000
     number of iterations used =            8  local-TF  mixing
     Exchange-correlation      = SLA  PW   PSX  PSC ( 1  4 10  8 0)
     A smooth kinetic-energy cutoff is imposed at      39.5000 Ry
     height of the smooth step-function =             800.0000 Ry
     width of the smooth step-function  =               1.0000 Ry


     celldm(1)=  24.078821  celldm(2)=   0.000000  celldm(3)=   0.000000
     celldm(4)=   0.000000  celldm(5)=   0.000000  celldm(6)=   0.000000

     crystal axes: (cart. coord. in units of alat)
               a(1) = (   0.001142874610   0.708932266883   0.705275644560 )  
               a(2) = (   0.708332056031  -0.002068049873   0.706178637360 )  
               a(3) = (   0.707930797068   0.707152863544   0.000100277605 )  

     reciprocal axes: (cart. coord. in units 2 pi/alat)
               b(1) = ( -0.705238  0.705913  0.709455 )  
               b(2) = (  0.704235 -0.705110  0.707625 )  
               b(3) = (  0.709072  0.704370 -0.709171 )  


     PseudoPot. # 1 for Mg read from file:
     /users/kfg/psuedo/gbrv_1.5/mg.pbesol.UPF
     MD5 check sum: 4059f37963cf5867752dbf5ab2400678
     Pseudo is Ultrasoft, Zval = 10.0
     Generated by new atomic code, or converted to UPF format
     Using radial grid of  821 points,  7 beta functions with: 
                l(1) =   0
                l(2) =   0
                l(3) =   0
                l(4) =   1
                l(5) =   1
                l(6) =   2
                l(7) =   2
     Q(r) pseudized with  8 coefficients,  rinner =    1.200   1.200   1.200
                                                       1.200   1.200

     PseudoPot. # 2 for Ca read from file:
     /users/kfg/psuedo/gbrv_1.5/ca.pbesol.UPF
     MD5 check sum: 0533207b58cddeaa036efa5b63902087
     Pseudo is Ultrasoft + core correction, Zval = 10.0
     Generated by new atomic code, or converted to UPF format
     Using radial grid of  845 points,  6 beta functions with: 
                l(1) =   0
                l(2) =   0
                l(3) =   1
                l(4) =   1
                l(5) =   2
                l(6) =   2
     Q(r) pseudized with  8 coefficients,  rinner =    1.500   1.500   1.500
                                                       1.500   1.500

     PseudoPot. # 3 for O  read from file:
     /users/kfg/psuedo/gbrv_1.5/o.pbesol.UPF
     MD5 check sum: 501638753501ef6325af9037351f7734
     Pseudo is Ultrasoft + core correction, Zval =  6.0
     Generated by new atomic code, or converted to UPF format
     Using radial grid of  737 points,  5 beta functions with: 
                l(1) =   0
                l(2) =   0
                l(3) =   1
                l(4) =   1
                l(5) =   2
     Q(r) pseudized with  8 coefficients,  rinner =    0.900   0.900   0.900
                                                       0.900   0.900

     atomic species   valence    mass     pseudopotential
        Mg            10.00    24.30500     Mg( 1.00)
        Ca            10.00    24.30500     Ca( 1.00)
        O              6.00    15.99940     O ( 1.00)

     No symmetry found


                                    s                        frac. trans.

      isym =  1     identity                                     

 cryst.   s( 1) = (     1          0          0      )
                  (     0          1          0      )
                  (     0          0          1      )

 cart.    s( 1) = (  1.0000000  0.0000000  0.0000000 )
                  (  0.0000000  1.0000000  0.0000000 )
                  (  0.0000000  0.0000000  1.0000000 )


     point group C_1 (1)    
     there are  1 classes
     the character table:

       E    
A      1.00

     the symmetry operations in each class:
     E        1

   Cartesian axes

     site n.     atom                  positions (alat units)
         1           Mg  tau(   1) = (    0.00021442269    0.00176895465   -0.00171177431  )
         2           O   tau(   2) = (    0.17886212074    0.17752929779    0.17608718998  )
         3           Ca  tau(   3) = (    0.17520966675    0.17809968648   -0.00054389624  )
         4           O   tau(   4) = (    0.35337228713    0.35337917896    0.17778922923  )
         5           Ca  tau(   5) = (    0.35414853809    0.35154077972    0.00160311814  )
         6           O   tau(   6) = (    0.53020294991    0.53046119095    0.17703782177  )
         7           Ca  tau(   7) = (    0.53081328932    0.52947257632    0.00114597980  )
         8           O   tau(   8) = (    0.70791612787    0.70738046348    0.17628390930  )
         9           Ca  tau(   9) = (    0.17835814280    0.00099698580    0.17696957739  )
        10           O   tau(  10) = (    0.35289062950    0.17676124707    0.35503105371  )
        11           Mg  tau(  11) = (    0.35206603211    0.17466449273    0.17794962272  )
        12           O   tau(  12) = (    0.53208133895    0.35293993996    0.35163139733  )
        13           Mg  tau(  13) = (    0.53092026940    0.35334882098    0.17475236205  )
        14           O   tau(  14) = (    0.70651774067    0.52803727082    0.35202526724  )
        15           Ca  tau(  15) = (    0.70907641880    0.52824956715    0.17462175294  )
        16           O   tau(  16) = (    0.88711672787    0.70670267004    0.35136740096  )
        17           Mg  tau(  17) = (    0.35555175076   -0.00142378722    0.35368399837  )
        18           O   tau(  18) = (    0.53192111371    0.17465606825    0.53005718906  )
        19           Ca  tau(  19) = (    0.53258062580    0.17753257333    0.35166365537  )
        20           O   tau(  20) = (    0.70630773921    0.35163442077    0.52984124668  )
        21           Ca  tau(  21) = (    0.70622291760    0.35185510051    0.35359766285  )
        22           O   tau(  22) = (    0.88467295595    0.53117696473    0.53018259332  )
        23           Mg  tau(  23) = (    0.88387366073    0.52881299563    0.35356418305  )
        24           O   tau(  24) = (    1.06264032178    0.70798278239    0.52947137743  )
        25           Mg  tau(  25) = (    0.53305105215   -0.00003981014    0.52825688478  )
        26           O   tau(  26) = (    0.70942196029    0.17394230882    0.70558422656  )
        27           Ca  tau(  27) = (    0.70778013951    0.17520458474    0.53169847724  )
        28           O   tau(  28) = (    0.88715468743    0.35230333338    0.70481637791  )
        29           Ca  tau(  29) = (    0.88338259267    0.35006280616    0.53022511966  )
        30           O   tau(  30) = (    1.06386162299    0.52776831687    0.70571062166  )
        31           Ca  tau(  31) = (    1.06381506859    0.52913294500    0.53120879783  )
        32           O   tau(  32) = (    1.23840989976    0.70762231776    0.70441787283  )
        33           Mg  tau(  33) = (   -0.00156648222    0.17752054375    0.17786567481  )
        34           O   tau(  34) = (    0.17846497703    0.35543300633    0.35108253946  )
        35           Ca  tau(  35) = (    0.17744173665    0.35382447249    0.17462538847  )
        36           O   tau(  36) = (    0.35378029786    0.53017942468    0.35324739141  )
        37           Ca  tau(  37) = (    0.35290371550    0.53199442515    0.17649035937  )
        38           O   tau(  38) = (    0.53178192581    0.70950604325    0.35282066080  )
        39           Mg  tau(  39) = (    0.52963588408    0.70728763182    0.17795883861  )
        40           O   tau(  40) = (    0.70697388687    0.88539616577    0.35194726318  )
        41           Ca  tau(  41) = (    0.17927072497    0.17724053695    0.35191439524  )
        42           O   tau(  42) = (    0.35640119652    0.35187649843    0.52946501204  )
        43           Mg  tau(  43) = (    0.35410764727    0.35426639400    0.35405507761  )
        44           O   tau(  44) = (    0.53090694138    0.52852558843    0.52792014431  )
        45           Ca  tau(  45) = (    0.52995163483    0.52865317590    0.35144141242  )
        46           O   tau(  46) = (    0.70995753632    0.70817466347    0.52896381372  )
        47           Mg  tau(  47) = (    0.70731883471    0.70893991414    0.35198037385  )
        48           O   tau(  48) = (    0.88467769030    0.88271701449    0.53077802226  )
        49           Ca  tau(  49) = (    0.35510225573    0.17454712690    0.52801762242  )
        50           O   tau(  50) = (    0.53202023980    0.35422383444    0.70649891147  )
        51           Ca  tau(  51) = (    0.53331570521    0.35503813969    0.53089867199  )
        52           O   tau(  52) = (    0.70715677416    0.53075440340    0.70777966118  )
        53           Ca  tau(  53) = (    0.70901269263    0.52819590418    0.52745857481  )
        54           O   tau(  54) = (    0.88600130764    0.70482120529    0.70707511791  )
        55           Mg  tau(  55) = (    0.88349651118    0.70714605834    0.53120204264  )
        56           O   tau(  56) = (    1.06132920045    0.88524404703    0.70661445252  )
        57           Mg  tau(  57) = (    0.53068446422    0.17499624191    0.70682253953  )
        58           O   tau(  58) = (    0.70727228174    0.35409848936    0.88136678768  )
        59           Mg  tau(  59) = (    0.70867583520    0.35318031104    0.70428001056  )
        60           O   tau(  60) = (    0.88385450786    0.53009488402    0.88093147116  )
        61           Mg  tau(  61) = (    0.88506876770    0.52952181622    0.70518647461  )
        62           O   tau(  62) = (    1.06060170465    0.70752372345    0.88141256227  )
        63           Ca  tau(  63) = (    1.06449986451    0.70412505422    0.70503301262  )
        64           O   tau(  64) = (    1.24142251773    0.88389982045    0.88314042974  )
        65           Ca  tau(  65) = (   -0.00105938372    0.35328182906    0.35108116585  )
        66           O   tau(  66) = (    0.17733242442    0.53058542032    0.53001519565  )
        67           Mg  tau(  67) = (    0.17934238707    0.52921632089    0.35394556221  )
        68           O   tau(  68) = (    0.35659817829    0.70707087866    0.52869961453  )
        69           Ca  tau(  69) = (    0.35602440338    0.70833927284    0.35194526135  )
        70           O   tau(  70) = (    0.53134834324    0.88602527387    0.52794563342  )
        71           Mg  tau(  71) = (    0.53228995182    0.88292524085    0.35445707584  )
        72           O   tau(  72) = (    0.70804322475    1.05986298239    0.52852218016  )
        73           Mg  tau(  73) = (    0.17671313157    0.35561045402    0.52878632751  )
        74           O   tau(  74) = (    0.35394680468    0.53115372354    0.70506752199  )
        75           Mg  tau(  75) = (    0.35338318922    0.53173492202    0.52933383983  )
        76           O   tau(  76) = (    0.53240130266    0.70875366526    0.70502780924  )
        77           Mg  tau(  77) = (    0.53253457440    0.70642278854    0.52751302144  )
        78           O   tau(  78) = (    0.70772250157    0.88334504586    0.70437317823  )
        79           Mg  tau(  79) = (    0.70813733140    0.88386233401    0.52727896034  )
        80           O   tau(  80) = (    0.88705803504    1.06225437681    0.70580610799  )
        81           Ca  tau(  81) = (    0.35317972362    0.35170019580    0.70697095771  )
        82           O   tau(  82) = (    0.53045924722    0.53018334340    0.88238253103  )
        83           Mg  tau(  83) = (    0.53207643116    0.53105626466    0.70500550178  )
        84           O   tau(  84) = (    0.70971865456    0.70545413610    0.88281724064  )
        85           Mg  tau(  85) = (    0.70814517371    0.70577495162    0.70490407187  )
        86           O   tau(  86) = (    0.88700097792    0.88280072696    0.88323982770  )
        87           Ca  tau(  87) = (    0.88518111059    0.88326749099    0.70485107681  )
        88           O   tau(  88) = (    1.06306546839    1.06124844392    0.88025139740  )
        89           Mg  tau(  89) = (    0.52984962695    0.35174604534    0.88273565217  )
        90           O   tau(  90) = (    0.70841314833    0.52980413073    1.05899341898  )
        91           Mg  tau(  91) = (    0.70705917909    0.52998008228    0.88238794053  )
        92           O   tau(  92) = (    0.88453950868    0.70493261943    1.05839861662  )
        93           Ca  tau(  93) = (    0.88721019245    0.70534978755    0.88272230088  )
        94           O   tau(  94) = (    1.06489914223    0.88266079661    1.05752862201  )
        95           Ca  tau(  95) = (    1.06277690647    0.88308453982    0.88196064224  )
        96           O   tau(  96) = (    1.24138773736    1.05868310522    1.06028029541  )
        97           Ca  tau(  97) = (    0.00149886524    0.53278345388    0.53025455802  )
        98           O   tau(  98) = (    0.17692224186    0.70659025292    0.70706870087  )
        99           Ca  tau(  99) = (    0.17881805727    0.70815399291    0.52991406119  )
       100           O   tau( 100) = (    0.35573004401    0.88503200695    0.70727500645  )
       101           Mg  tau( 101) = (    0.35319265968    0.88727103861    0.52728160136  )
       102           O   tau( 102) = (    0.53342832971    1.06230276824    0.70557391451  )
       103           Ca  tau( 103) = (    0.53179846233    1.06034418435    0.53024143784  )
       104           O   tau( 104) = (    0.71021204353    1.24064823737    0.70665984056  )
       105           Mg  tau( 105) = (    0.17819254093    0.53096245445    0.70466755548  )
       106           O   tau( 106) = (    0.35419853012    0.70730909237    0.88229626363  )
       107           Mg  tau( 107) = (    0.35313916979    0.70653084375    0.70439982212  )
       108           O   tau( 108) = (    0.53329156572    0.88472380620    0.88397647089  )
       109           Mg  tau( 109) = (    0.53008888207    0.88453115742    0.70355949362  )
       110           O   tau( 110) = (    0.71100440422    1.05962976073    0.88091628370  )
       111           Ca  tau( 111) = (    0.70962785035    1.06152029502    0.70547159212  )
       112           O   tau( 112) = (    0.88691461302    1.23861876273    0.88297010286  )
       113           Mg  tau( 113) = (    0.35483827249    0.53174175403    0.88375798928  )
       114           O   tau( 114) = (    0.53352322749    0.70587223429    1.05941388310  )
       115           Mg  tau( 115) = (    0.52996468978    0.70898070088    0.88074755203  )
       116           O   tau( 116) = (    0.70797140852    0.88466013770    1.05712816524  )
       117           Mg  tau( 117) = (    0.70782441891    0.88507432986    0.88100955929  )
       118           O   tau( 118) = (    0.88537239528    1.06289671241    1.05866139534  )
       119           Mg  tau( 119) = (    0.88650321399    1.05925785302    0.88201541459  )
       120           O   tau( 120) = (    1.06442372343    1.23739043711    1.05857642004  )
       121           Mg  tau( 121) = (    0.53410608067    0.52973834904    1.06044066323  )
       122           O   tau( 122) = (    0.70815299605    0.70627003383    1.23320001013  )
       123           Ca  tau( 123) = (    0.70948945895    0.70627762486    1.06034697405  )
       124           O   tau( 124) = (    0.88566414784    0.88273250267    1.23476341652  )
       125           Ca  tau( 125) = (    0.88592907997    0.88478184332    1.05694096137  )
       126           O   tau( 126) = (    1.06197709822    1.05953228675    1.23360002535  )
       127           Mg  tau( 127) = (    1.06114328656    1.06258906769    1.06045702353  )
       128           O   tau( 128) = (    1.24155069226    1.23796082408    1.23687797111  )

   Crystallographic axes

     site n.     atom                  positions (cryst. coord.)
         1           Mg  tau(   1) = (   -0.00011691874   -0.00230759784    0.00261198107  )
         2           O   tau(   2) = (    0.12410592529    0.12538692611    0.12699645845  )
         3           Ca  tau(   3) = (    0.00177253733   -0.00257597721    0.25007004771  )
         4           O   tau(   4) = (    0.12637700127    0.12549397639    0.37339306165  )
         5           Ca  tau(   5) = (   -0.00046438017    0.00266325894    0.49759467818  )
         6           O   tau(   6) = (    0.12614074183    0.12463029407    0.62404285312  )
         7           Ca  tau(   7) = (    0.00022501213    0.00129177621    0.74851670227  )
         8           O   tau(   8) = (    0.12516544245    0.12450108659    0.87520555878  )
         9           Ca  tau(   9) = (    0.00047094244    0.25013113741    0.00166923340  )
        10           O   tau(  10) = (    0.12778499465    0.37511058231    0.12295232475  )
        11           Mg  tau(  11) = (    0.00125502592    0.25070110951    0.24647178247  )
        12           O   tau(  12) = (    0.12336786252    0.37467190073    0.37651734926  )
        13           Mg  tau(  13) = (   -0.00101246255    0.24840194363    0.50141958583  )
        14           O   tau(  14) = (    0.12423163738    0.37433194121    0.62325928998  )
        15           Ca  tau(  15) = (   -0.00328285972    0.25044904058    0.75103257134  )
        16           O   tau(  16) = (    0.12252191054    0.37507177487    0.87763004775  )
        17           Mg  tau(  17) = (   -0.00083050324    0.50167151005    0.00028631013  )
        18           O   tau(  18) = (    0.12421313340    0.62652734631    0.12429145710  )
        19           Ca  tau(  19) = (   -0.00078367593    0.49872786330    0.25329677614  )
        20           O   tau(  20) = (    0.12600721500    0.62439448682    0.37275549987  )
        21           Ca  tau(  21) = (    0.00118585019    0.49946482514    0.49783766617  )
        22           O   tau(  22) = (    0.12720091178    0.62364980501    0.62545157588  )
        23           Mg  tau(  23) = (    0.00079296125    0.49977421166    0.74847239557  )
        24           O   tau(  24) = (    0.12599655163    0.62380981689    0.87668432554  )
        25           Mg  tau(  25) = (   -0.00118103684    0.74922899180    0.00331881271  )
        26           O   tau(  26) = (    0.12305761864    0.87624023255    0.12517081575  )
        27           Ca  tau(  27) = (    0.00174236274    0.75114809938    0.24821051904  )
        28           O   tau(  28) = (    0.12307639658    0.87509833667    0.37737279351  )
        29           Ca  tau(  29) = (    0.00029028923    0.75047661633    0.49693503618  )
        30           O   tau(  30) = (    0.12295342926    0.87645220811    0.62562881836  )
        31           Ca  tau(  31) = (    0.00014830587    0.75197539838    0.75030867604  )
        32           O   tau(  32) = (    0.12589951917    0.87164356525    0.87699664468  )
        33           Mg  tau(  33) = (    0.25260653526   -0.00041255960   -0.00220777317  )
        34           O   tau(  34) = (    0.37412191217    0.12349656908    0.12792327200  )
        35           Ca  tau(  35) = (    0.24851957388   -0.00095528834    0.25120304419  )
        36           O   tau(  36) = (    0.37537455940    0.12527619798    0.37378532763  )
        37           Ca  tau(  37) = (    0.25187275687   -0.00169854989    0.49979319352  )
        38           O   tau(  38) = (    0.37612733160    0.12388420488    0.62661619994  )
        39           Mg  tau(  39) = (    0.25201812929    0.00020055637    0.74753888465  )
        40           O   tau(  40) = (    0.37611882960    0.12262058142    0.87535101486  )
        41           Ca  tau(  41) = (    0.24835548507    0.25029797178    0.00239120664  )
        42           O   tau(  42) = (    0.37267842736    0.37754108768    0.12508400158  )
        43           Mg  tau(  43) = (    0.25153745467    0.25011633720    0.24953675254  )
        44           O   tau(  44) = (    0.37321325759    0.37478390209    0.37434302136  )
        45           Ca  tau(  45) = (    0.24877324940    0.24914045807    0.49890914022  )
        46           O   tau(  46) = (    0.37449706825    0.37494375251    0.62710204989  )
        47           Mg  tau(  47) = (    0.25133632036    0.24730803588    0.75128159629  )
        48           O   tau(  48) = (    0.37577662990    0.37620001001    0.87264701680  )
        49           Ca  tau(  49) = (    0.24738855471    0.50063886510    0.00028387660  )
        50           O   tau(  50) = (    0.37607994889    0.62483662520    0.12571654820  )
        51           Ca  tau(  51) = (    0.25116062579    0.50091568510    0.25173932780  )
        52           O   tau(  52) = (    0.37809090671    0.62460671100    0.37333551379  )
        53           Ca  tau(  53) = (    0.24704619475    0.50011807225    0.50072788032  )
        54           O   tau(  54) = (    0.37433916256    0.62732048476    0.62325622503  )
        55           Mg  tau(  55) = (    0.25297267721    0.49946509880    0.74784181869  )
        56           O   tau(  56) = (    0.37772731608    0.62324858227    0.87498743996  )
        57           Mg  tau(  57) = (    0.25073253307    0.75050013320   -0.00170270036  )
        58           O   tau(  58) = (    0.37645809939    0.87208448845    0.12588326284  )
        59           Mg  tau(  59) = (    0.24918493399    0.74840934871    0.25181658444  )
        60           O   tau(  60) = (    0.37585494807    0.87203500193    0.37536805580  )
        61           Mg  tau(  61) = (    0.24991083108    0.74893269120    0.50045868812  )
        62           O   tau(  62) = (    0.37679678471    0.87174013488    0.62532890636  )
        63           Ca  tau(  63) = (    0.24651506512    0.75207125565    0.75078235346  )
        64           O   tau(  64) = (    0.37500714186    0.87593860070    0.87655254463  )
        65           Ca  tau(  65) = (    0.49920972232   -0.00141494498   -0.00088662189  )
        66           O   tau(  66) = (    0.62550770654    0.12581441279    0.12359847348  )
        67           Mg  tau(  67) = (    0.49821018568    0.00360403282    0.24892283829  )
        68           O   tau(  68) = (    0.62273275840    0.12668701995    0.37595482019  )
        69           Ca  tau(  69) = (    0.49863344881    0.00031283301    0.50179048530  )
        70           O   tau(  70) = (    0.62528365767    0.12303612035    0.62645006569  )
        71           Mg  tau(  71) = (    0.49934885031    0.00312030002    0.74796724816  )
        72           O   tau(  72) = (    0.62379508519    0.12530410078    0.87377664089  )
        73           Mg  tau(  73) = (    0.50155555668    0.24788533827    0.00078367143  )
        74           O   tau(  74) = (    0.62554559920    0.37366310553    0.12508896217  )
        75           Mg  tau(  75) = (    0.50167814513    0.24850287401    0.24972396040  )
        76           O   tau(  76) = (    0.62503467904    0.37408140025    0.37675027013  )
        77           Mg  tau(  77) = (    0.49735646766    0.25020492060    0.50109134106  )
        78           O   tau(  78) = (    0.62417344023    0.37397935146    0.62450678583  )
        79           Mg  tau(  79) = (    0.49860559520    0.24859049052    0.75075540810  )
        80           O   tau(  80) = (    0.62501026956    0.37513691694    0.87667075027  )
        81           Ca  tau(  81) = (    0.50075843116    0.50100432841   -0.00320653729  )
        82           O   tau(  82) = (    0.62617447836    0.62412608174    0.12381873760  )
        83           Mg  tau(  83) = (    0.49980909193    0.49913307595    0.25137097418  )
        84           O   tau(  84) = (    0.62378831123    0.62708924162    0.37407375411  )
        85           Mg  tau(  85) = (    0.49890299594    0.49985916741    0.49935490846  )
        86           O   tau(  86) = (    0.62425319016    0.62718782489    0.62439760371  )
        87           Ca  tau(  87) = (    0.49930725850    0.49934479321    0.74994412330  )
        88           O   tau(  88) = (    0.62393426492    0.62323863189    0.87705251814  )
        89           Mg  tau(  89) = (    0.50089375354    0.74976459916   -0.00254987052  )
        90           O   tau(  90) = (    0.62570455693    0.87468909199    0.12448635365  )
        91           Mg  tau(  91) = (    0.50148992045    0.74864110468    0.24889374331  )
        92           O   tau(  92) = (    0.62469708525    0.87481768199    0.37314968073  )
        93           Ca  tau(  93) = (    0.49847358956    0.75209141094    0.49992180828  )
        94           O   tau(  94) = (    0.62234406696    0.87589969196    0.62684100361  )
        95           Ca  tau(  95) = (    0.49958221928    0.74987010372    0.75014241012  )
        96           O   tau(  96) = (    0.62408626798    0.87802118800    0.87401753708  )
        97           Ca  tau(  97) = (    0.75123357977    0.00060576870    0.00029835412  )
        98           O   tau(  98) = (    0.87565261777    0.12671019207    0.12171894513  )
        99           Ca  tau(  99) = (    0.74973616322    0.00158367339    0.24979763128  )
       100           O   tau( 100) = (    0.87566131937    0.12695781424    0.37404924949  )
       101           Mg  tau( 101) = (    0.75133404348   -0.00377565511    0.50147330516  )
       102           O   tau( 102) = (    0.87427266139    0.12590003314    0.62612068607  )
       103           Ca  tau( 103) = (    0.74964894072    0.00206363894    0.74792616478  )
       104           O   tau( 104) = (    0.87626490892    0.12541255391    0.87632414498  )
       105           Mg  tau( 105) = (    0.74907533563    0.24974262074    0.00061550892  )
       106           O   tau( 106) = (    0.87545429592    0.37504288066    0.12366053466  )
       107           Mg  tau( 107) = (    0.74944242730    0.24896166612    0.24852022678  )
       108           O   tau( 108) = (    0.87558250684    0.37725852006    0.37442442486  )
       109           Mg  tau( 109) = (    0.74970736509    0.24747139605    0.49996431749  )
       110           O   tau( 110) = (    0.87155002079    0.37691670745    0.62580431213  )
       111           Ca  tau( 111) = (    0.74938518431    0.25046524702    0.75058019210  )
       112           O   tau( 112) = (    0.87529925202    0.37604521886    0.87515527684  )
       113           Mg  tau( 113) = (    0.75210492041    0.50032208130   -0.00058686195  )
       114           O   tau( 114) = (    0.87363053539    0.62767558609    0.12419581021  )
       115           Mg  tau( 115) = (    0.75157866038    0.49654900768    0.25056707635  )
       116           O   tau( 116) = (    0.87519017745    0.62284551903    0.37544591916  )
       117           Mg  tau( 117) = (    0.75063792500    0.49782406631    0.50053167756  )
       118           O   tau( 118) = (    0.87698757322    0.62318605106    0.62569315171  )
       119           Mg  tau( 119) = (    0.74829891235    0.50154914030    0.74920411799  )
       120           O   tau( 120) = (    0.87383091582    0.62618285090    0.87562182716  )
       121           Mg  tau( 121) = (    0.74961277310    0.75300642313   -0.00018253287  )
       122           O   tau( 122) = (    0.87404937815    0.87335087546    0.12505692127  )
       123           Ca  tau( 123) = (    0.75048069049    0.75197161880    0.24859230807  )
       124           O   tau( 124) = (    0.87453812605    0.87504128320    0.37411124122  )
       125           Ca  tau( 125) = (    0.74964083813    0.74795127450    0.50184915232  )
       126           O   tau( 126) = (    0.87417546450    0.87372048153    0.62448731151  )
       127           Mg  tau( 127) = (    0.75408408052    0.74845763950    0.74883721200  )
       128           O   tau( 128) = (    0.87581396277    0.87669028910    0.87517298908  )

     number of k points=     8  gaussian smearing, width (Ry)=  0.0050
                       cart. coord. in units 2pi/alat
        k(    1) = (   0.0000000   0.0000000   0.0000000), wk =   0.2500000
        k(    2) = (  -0.3545358  -0.3521851   0.3545856), wk =   0.2500000
        k(    3) = (  -0.3521176   0.3525551  -0.3538124), wk =   0.2500000
        k(    4) = (  -0.7066534   0.0003700   0.0007732), wk =   0.2500000
        k(    5) = (   0.3526188  -0.3529564  -0.3547277), wk =   0.2500000
        k(    6) = (  -0.0019171  -0.7051415  -0.0001421), wk =   0.2500000
        k(    7) = (   0.0005012  -0.0004013  -0.7085401), wk =   0.2500000
        k(    8) = (  -0.3540346  -0.3525864  -0.3539545), wk =   0.2500000

                       cryst. coord.
        k(    1) = (   0.0000000   0.0000000   0.0000000), wk =   0.2500000
        k(    2) = (   0.0000000   0.0000000  -0.5000000), wk =   0.2500000
        k(    3) = (  -0.0000000  -0.5000000   0.0000000), wk =   0.2500000
        k(    4) = (  -0.0000000  -0.5000000  -0.5000000), wk =   0.2500000
        k(    5) = (  -0.5000000   0.0000000  -0.0000000), wk =   0.2500000
        k(    6) = (  -0.5000000   0.0000000  -0.5000000), wk =   0.2500000
        k(    7) = (  -0.5000000  -0.5000000  -0.0000000), wk =   0.2500000
        k(    8) = (  -0.5000000  -0.5000000  -0.5000000), wk =   0.2500000

     Dense  grid:   472159 G-vectors     FFT dimensions: ( 120, 120, 120)

     Smooth grid:   337907 G-vectors     FFT dimensions: ( 100, 100, 100)

     Largest allocated arrays     est. size (Mb)     dimensions
        Kohn-Sham Wavefunctions        49.60 Mb     (    5294,  614)
        NL pseudopotentials           163.01 Mb     (    5294, 2018)
        Each V/rho on FFT grid          3.30 Mb     (  216000)
        Each G-vector array             0.45 Mb     (   59020)
        G-vector shells                 0.44 Mb     (   57885)
     Largest temporary arrays     est. size (Mb)     dimensions
        Auxiliary wavefunctions       198.40 Mb     (    5294, 2456)
        Each subspace H/S matrix       92.04 Mb     (    2456, 2456)
        Each <psi_i|beta_j> matrix     18.91 Mb     (    2018,  614)
        Arrays for rho mixing          26.37 Mb     (  216000,    8)

     Check: negative/imaginary core charge=   -0.000003    0.000000

     Initial potential from superposition of free atoms

     starting charge 1013.63689, renormalised to 1024.00000
     Starting wfc are  726 randomized atomic wfcs

     total cpu time spent up to now is      672.3 secs

     per-process dynamical memory:   704.7 Mb

     Self-consistent Calculation

     iteration #  1     ecut=    40.00 Ry     beta=0.30
     Davidson diagonalization with overlap
     ethr =  1.00E-02,  avg # of iterations =  3.1

     total cpu time spent up to now is     3002.2 secs

     total energy              =   -8580.69385243 Ry
     Harris-Foulkes estimate   =   -8585.39048880 Ry
     estimated scf accuracy    <      24.27409642 Ry

     iteration #  2     ecut=    40.00 Ry     beta=0.30
     Davidson diagonalization with overlap
     ethr =  2.37E-03,  avg # of iterations =  1.0

     total cpu time spent up to now is     4611.0 secs

     total energy              =   -8577.38136841 Ry
     Harris-Foulkes estimate   =   -8581.42996327 Ry
     estimated scf accuracy    <      10.23749585 Ry

     iteration #  3     ecut=    40.00 Ry     beta=0.30
     Davidson diagonalization with overlap
     ethr =  1.00E-03,  avg # of iterations =  2.0

     total cpu time spent up to now is     6652.2 secs

     total energy              =   -8578.61257329 Ry
     Harris-Foulkes estimate   =   -8579.01874433 Ry
     estimated scf accuracy    <       1.36912029 Ry

     iteration #  4     ecut=    40.00 Ry     beta=0.30
     Davidson diagonalization with overlap
     ethr =  1.34E-04,  avg # of iterations =  7.3

     total cpu time spent up to now is     9504.4 secs

     total energy              =   -8578.34939834 Ry
     Harris-Foulkes estimate   =   -8578.70425914 Ry
     estimated scf accuracy    <       0.66664405 Ry

     iteration #  5     ecut=    40.00 Ry     beta=0.30
     Davidson diagonalization with overlap
     ethr =  6.51E-05,  avg # of iterations =  4.4

     total cpu time spent up to now is    11986.0 secs

     total energy              =   -8578.42270713 Ry
     Harris-Foulkes estimate   =   -8578.44251597 Ry
     estimated scf accuracy    <       0.11139082 Ry

     iteration #  6     ecut=    40.00 Ry     beta=0.30
     Davidson diagonalization with overlap
     ethr =  1.09E-05,  avg # of iterations =  8.6

     total cpu time spent up to now is    15259.6 secs

     total energy              =   -8578.41591613 Ry
     Harris-Foulkes estimate   =   -8578.42976541 Ry
     estimated scf accuracy    <       0.05968649 Ry

     iteration #  7     ecut=    40.00 Ry     beta=0.30
     Davidson diagonalization with overlap
     ethr =  5.83E-06,  avg # of iterations =  3.5

     total cpu time spent up to now is    17259.7 secs

     total energy              =   -8578.41154398 Ry
     Harris-Foulkes estimate   =   -8578.41920967 Ry
     estimated scf accuracy    <       0.01956814 Ry

     iteration #  8     ecut=    40.00 Ry     beta=0.30
     Davidson diagonalization with overlap
     ethr =  1.91E-06,  avg # of iterations =  6.9

     total cpu time spent up to now is    20670.5 secs

     total energy              =   -8578.41399343 Ry
     Harris-Foulkes estimate   =   -8578.41632528 Ry
     estimated scf accuracy    <       0.01081874 Ry

     iteration #  9     ecut=    40.00 Ry     beta=0.30
     Davidson diagonalization with overlap
     ethr =  1.06E-06,  avg # of iterations =  2.0

     total cpu time spent up to now is    22475.3 secs

     total energy              =   -8578.41383390 Ry
     Harris-Foulkes estimate   =   -8578.41464937 Ry
     estimated scf accuracy    <       0.00331612 Ry

     iteration # 10     ecut=    40.00 Ry     beta=0.30
     Davidson diagonalization with overlap
     ethr =  3.24E-07,  avg # of iterations =  6.5

     total cpu time spent up to now is    24955.5 secs

     total energy              =   -8578.41360790 Ry
     Harris-Foulkes estimate   =   -8578.41406257 Ry
     estimated scf accuracy    <       0.00145728 Ry

     iteration # 11     ecut=    40.00 Ry     beta=0.30
     Davidson diagonalization with overlap
     ethr =  1.42E-07,  avg # of iterations =  2.9

     total cpu time spent up to now is    26938.9 secs

     total energy              =   -8578.41363757 Ry
     Harris-Foulkes estimate   =   -8578.41374157 Ry
     estimated scf accuracy    <       0.00033008 Ry

     iteration # 12     ecut=    40.00 Ry     beta=0.30
     Davidson diagonalization with overlap
     ethr =  3.22E-08,  avg # of iterations =  2.0

     total cpu time spent up to now is    28765.3 secs

     total energy              =   -8578.41360149 Ry
     Harris-Foulkes estimate   =   -8578.41366340 Ry
     estimated scf accuracy    <       0.00013730 Ry

     iteration # 13     ecut=    40.00 Ry     beta=0.30
     Davidson diagonalization with overlap
     ethr =  1.34E-08,  avg # of iterations =  2.0

     total cpu time spent up to now is    30860.9 secs

     total energy              =   -8578.41362095 Ry
     Harris-Foulkes estimate   =   -8578.41362242 Ry
     estimated scf accuracy    <       0.00000746 Ry

     iteration # 14     ecut=    40.00 Ry     beta=0.30
     Davidson diagonalization with overlap
     ethr =  7.28E-10,  avg # of iterations =  2.0

     total cpu time spent up to now is    32796.8 secs

     total energy              =   -8578.41362098 Ry
     Harris-Foulkes estimate   =   -8578.41362160 Ry
     estimated scf accuracy    <       0.00000371 Ry

     iteration # 15     ecut=    40.00 Ry     beta=0.30
     Davidson diagonalization with overlap
     ethr =  3.62E-10,  avg # of iterations =  2.0

     total cpu time spent up to now is    34713.3 secs

     total energy              =   -8578.41362111 Ry
     Harris-Foulkes estimate   =   -8578.41362127 Ry
     estimated scf accuracy    <       0.00000096 Ry

     iteration # 16     ecut=    40.00 Ry     beta=0.30
     Davidson diagonalization with overlap
     ethr =  9.42E-11,  avg # of iterations =  2.0

     total cpu time spent up to now is    36429.4 secs

     total energy              =   -8578.41362103 Ry
     Harris-Foulkes estimate   =   -8578.41362115 Ry
     estimated scf accuracy    <       0.00000049 Ry

     iteration # 17     ecut=    40.00 Ry     beta=0.30
     Davidson diagonalization with overlap
     ethr =  4.76E-11,  avg # of iterations =  2.0

     total cpu time spent up to now is    38200.4 secs

     total energy              =   -8578.41362099 Ry
     Harris-Foulkes estimate   =   -8578.41362105 Ry
     estimated scf accuracy    <       0.00000022 Ry

     iteration # 18     ecut=    40.00 Ry     beta=0.30
     Davidson diagonalization with overlap
     ethr =  2.15E-11,  avg # of iterations =  2.0

     total cpu time spent up to now is    40060.9 secs

     total energy              =   -8578.41362099 Ry
     Harris-Foulkes estimate   =   -8578.41362100 Ry
     estimated scf accuracy    <       0.00000009 Ry

     iteration # 19     ecut=    40.00 Ry     beta=0.30
     Davidson diagonalization with overlap
     ethr =  8.51E-12,  avg # of iterations =  2.0

     total cpu time spent up to now is    41760.0 secs

     total energy              =   -8578.41362099 Ry
     Harris-Foulkes estimate   =   -8578.41362099 Ry
     estimated scf accuracy    <       0.00000004 Ry

     iteration # 20     ecut=    40.00 Ry     beta=0.30
     Davidson diagonalization with overlap
     ethr =  3.79E-12,  avg # of iterations =  2.0

     total cpu time spent up to now is    43633.9 secs

     total energy              =   -8578.41362099 Ry
     Harris-Foulkes estimate   =   -8578.41362099 Ry
     estimated scf accuracy    <       0.00000002 Ry

     iteration # 21     ecut=    40.00 Ry     beta=0.30
     Davidson diagonalization with overlap
     ethr =  2.05E-12,  avg # of iterations =  1.0

     total cpu time spent up to now is    45237.2 secs

     total energy              =   -8578.41362098 Ry
     Harris-Foulkes estimate   =   -8578.41362099 Ry
     estimated scf accuracy    <       0.00000001 Ry

     iteration # 22     ecut=    40.00 Ry     beta=0.30
     Davidson diagonalization with overlap
     ethr =  1.02E-12,  avg # of iterations =  2.0

     total cpu time spent up to now is    47243.3 secs

     total energy              =   -8578.41362098 Ry
     Harris-Foulkes estimate   =   -8578.41362098 Ry
     estimated scf accuracy    <          3.9E-09 Ry

     iteration # 23     ecut=    40.00 Ry     beta=0.30
     Davidson diagonalization with overlap
     ethr =  3.79E-13,  avg # of iterations =  2.0

     total cpu time spent up to now is    49049.6 secs

     total energy              =   -8578.41362098 Ry
     Harris-Foulkes estimate   =   -8578.41362098 Ry
     estimated scf accuracy    <          2.1E-09 Ry

     iteration # 24     ecut=    40.00 Ry     beta=0.30
     Davidson diagonalization with overlap
     ethr =  2.09E-13,  avg # of iterations =  1.0

     total cpu time spent up to now is    50590.4 secs

     total energy              =   -8578.41362098 Ry
     Harris-Foulkes estimate   =   -8578.41362098 Ry
     estimated scf accuracy    <          1.1E-09 Ry

     iteration # 25     ecut=    40.00 Ry     beta=0.30
     Davidson diagonalization with overlap
     ethr =  1.11E-13,  avg # of iterations =  2.0

     total cpu time spent up to now is    52571.3 secs

     total energy              =   -8578.41362098 Ry
     Harris-Foulkes estimate   =   -8578.41362098 Ry
     estimated scf accuracy    <          2.9E-10 Ry

     iteration # 26     ecut=    40.00 Ry     beta=0.30
     Davidson diagonalization with overlap
     ethr =  1.00E-13,  avg # of iterations =  1.0

     total cpu time spent up to now is    54188.1 secs

     total energy              =   -8578.41362098 Ry
     Harris-Foulkes estimate   =   -8578.41362098 Ry
     estimated scf accuracy    <          1.8E-10 Ry

     iteration # 27     ecut=    40.00 Ry     beta=0.30
     Davidson diagonalization with overlap
     ethr =  1.00E-13,  avg # of iterations =  1.0

     total cpu time spent up to now is    55879.4 secs

     End of self-consistent calculation

          k = 0.0000 0.0000 0.0000 ( 42201 PWs)   bands (ev):

   -65.4121 -65.3503 -65.3475 -65.2717 -65.2575 -65.2524 -65.2343 -65.2299
   -65.2215 -65.2147 -65.2106 -65.1951 -65.1920 -65.1744 -65.1588 -65.1579
   -65.1461 -65.1437 -65.1300 -65.1294 -65.1200 -65.1190 -65.1188 -65.1142
   -65.1118 -65.0972 -65.0967 -65.0761 -65.0755 -65.0607 -65.0139 -64.9835
   -64.9303 -64.8983 -32.3779 -32.3777 -32.3684 -32.3188 -32.3164 -32.3130
   -32.3128 -32.3086 -32.3037 -32.2387 -32.2367 -32.2296 -32.2253 -32.2237
   -32.2192 -32.2162 -32.2156 -32.2091 -32.2046 -32.1997 -32.1978 -32.1924
   -32.1911 -32.1901 -32.1891 -32.1871 -32.1823 -32.1797 -32.1793 -32.1779
   -32.1738 -32.1732 -32.1648 -32.1606 -32.1603 -32.1580 -32.1577 -32.1547
   -32.1500 -32.1426 -32.1359 -32.1326 -32.1287 -32.1271 -32.1247 -32.1211
   -32.1167 -32.1142 -32.1132 -32.1112 -32.1086 -32.1068 -32.1044 -32.1014
   -32.1011 -32.0971 -32.0933 -32.0923 -32.0894 -32.0887 -32.0885 -32.0881
   -32.0845 -32.0835 -32.0829 -32.0826 -32.0820 -32.0810 -32.0789 -32.0772
   -32.0756 -32.0755 -32.0744 -32.0706 -32.0668 -32.0658 -32.0643 -32.0606
   -32.0602 -32.0546 -32.0541 -32.0426 -32.0419 -32.0396 -32.0358 -32.0331
   -32.0315 -32.0294 -32.0258 -32.0185 -31.9816 -31.9759 -31.9700 -31.9530
   -31.9451 -31.9396 -31.8981 -31.8926 -31.8863 -31.8650 -31.8613 -31.8574
   -28.9495 -28.9135 -28.8972 -28.8697 -28.8630 -28.8505 -28.8276 -28.8245
   -28.8124 -28.7946 -28.7675 -28.7579 -28.7544 -28.7507 -28.7187 -28.7116
   -28.7044 -28.6904 -28.6863 -28.6796 -28.6674 -28.6627 -28.6472 -28.6241
   -28.5699 -28.5508 -28.5447 -28.5146 -28.4738 -28.4595 -11.4142 -11.3987
   -11.3845 -11.3444 -11.2708 -11.2304 -11.1932 -11.1760 -11.0798 -11.0649
   -11.0529 -11.0390 -11.0215 -10.9968 -10.9919 -10.9794 -10.9478 -10.9152
   -10.8549 -10.8135 -10.7969 -10.7810 -10.7619 -10.7533 -10.7312 -10.7047
   -10.6862 -10.6460 -10.6403 -10.5932 -10.5840 -10.5637 -10.5580 -10.5494
   -10.5347 -10.4974 -10.4505 -10.4415 -10.4001 -10.3913 -10.3620 -10.3338
   -10.3225 -10.3093 -10.2965 -10.2760 -10.2652 -10.2351 -10.2280 -10.2143
   -10.2079 -10.1757 -10.1532 -10.1424 -10.1253 -10.1150 -10.0871 -10.0668
   -10.0589 -10.0524 -10.0441 -10.0292 -10.0096 -10.0018  -9.9844  -9.9804
    -9.9741  -9.9628  -9.9413  -9.9315  -9.9154  -9.9065  -9.9000  -9.8838
    -9.8730  -9.8555  -9.8475  -9.8425  -9.8349  -9.8149  -9.8071  -9.7934
    -9.7840  -9.7636  -9.7401  -9.7334  -9.7253  -9.7196  -9.6771  -9.6618
    -8.4398  -7.9704  -7.9065  -7.8558  -7.8440  -7.8193  -7.8014  -7.7934
    -7.7734  -7.7630  -7.7260  -7.6874  -7.6819  -7.6805  -7.6680  -7.6139
    -7.5869  -7.5645  -7.5536  -7.5041  -7.5003  -7.4833  -7.4654  -7.4531
    -7.4390  -7.4103  -7.3668  -7.3497  -7.3352  -7.3236  -7.2528  -7.2311
    -7.2225  -7.2094  -7.2010  -7.1721  -7.1493  -7.1364  -7.1174  -7.0997
    -7.0634  -7.0510  -7.0162  -6.9958  -6.9864  -6.9799  -6.8995  -6.8689
    -6.8601  -6.8402  -6.8226  -6.8150  -6.7893  -6.7363  -6.7149  -6.6859
    -6.6707  -6.6464  -6.6197  -6.5247  -6.4797  -6.4578  -6.4268  -6.3585
     3.7654   3.8135   3.8440   3.8758   4.3014   4.3314   4.3480   4.3598
     4.3791   4.4190   4.4321   4.4673   4.4812   4.4857   4.5285   4.5641
     4.5912   4.6062   4.6176   4.6581   4.6777   4.7103   4.7344   4.7840
     4.8127   4.8396   4.8581   4.8685   4.9106   4.9609   4.9849   5.0262
     5.0507   5.0726   5.1136   5.1360   5.1724   5.2138   5.2310   5.2401
     5.2547   5.2794   5.2915   5.3123   5.3227   5.3538   5.4300   5.4413
     5.4551   5.4793   5.5031   5.5231   5.5482   5.5531   5.5818   5.6094
     5.6241   5.6682   5.6781   5.6852   5.7251   5.7494   5.7895   5.8127
     5.8320   5.8344   5.8558   5.8884   5.8994   5.9104   5.9340   5.9431
     5.9605   5.9654   5.9744   5.9886   6.0026   6.0199   6.0338   6.0653
     6.0787   6.0852   6.1079   6.1155   6.1178   6.1460   6.1513   6.1757
     6.1977   6.2109   6.2205   6.2258   6.2415   6.2531   6.2709   6.2872
     6.2957   6.3146   6.3201   6.3419   6.3635   6.3711   6.3857   6.4039
     6.4171   6.4177   6.4252   6.4454   6.4564   6.4718   6.4748   6.4929
     6.4989   6.5078   6.5131   6.5280   6.5363   6.5491   6.5570   6.5826
     6.5986   6.6093   6.6136   6.6221   6.6304   6.6361   6.6632   6.6690
     6.6761   6.6924   6.7141   6.7198   6.7311   6.7375   6.7504   6.7619
     6.7753   6.7827   6.8054   6.8083   6.8235   6.8479   6.8526   6.8724
     6.8820   6.9059   6.9142   6.9294   6.9440   6.9519   6.9741   6.9908
     7.0028   7.0052   7.0171   7.0374   7.0438   7.0694   7.0766   7.0840
     7.0887   7.0960   7.0984   7.1085   7.1220   7.1288   7.1349   7.1535
     7.1574   7.1649   7.1848   7.1938   7.2107   7.2150   7.2239   7.2286
     7.2344   7.2538   7.2590   7.2739   7.2954   7.3050   7.3066   7.3091
     7.3210   7.3404   7.3590   7.3709   7.4264   7.6420   7.6547   7.6750
    11.6067  12.4539  12.4794  12.5254  13.2891  13.3008  13.3455  13.3627
    13.4034  13.4873  13.5306  13.5432  13.5709  13.5951  13.6443  13.6933
    13.7030  13.7535  13.8350  13.8743  13.9041  13.9130  13.9549  13.9947
    14.0399  14.0661  14.1143  14.1587  14.1863  14.2736  14.2907  14.3118
    14.3352  14.3501  14.3716  14.4468  14.5014  14.5567  14.6583  14.6899
    14.7174  14.7584  14.7993  14.8662  14.9026  14.9305  14.9661  14.9921
    15.0105  15.0478  15.0704  15.1076  15.1284  15.1698  15.1930  15.2315
    15.2350  15.2625  15.2845  15.2980  15.3169  15.3368  15.3696  15.4096
    15.4150  15.4406  15.4595  15.5071  15.5376  15.5746  15.5953  15.6107
    15.6408  15.6738  15.6838  15.7327  15.7431  15.7751  15.7998  15.8222
    15.8555  15.8827  15.8995  15.9216  15.9550  15.9906  16.0100  16.0348
    16.0545  16.1159  16.1175  16.1643  16.1767  16.2097  16.2282  16.2613
    16.2736  16.3096  16.3396  16.3717  16.3837  16.4337

     occupation numbers 
     1.0000   1.0000   1.0000   1.0000   1.0000   1.0000   1.0000   1.0000
     1.0000   1.0000   1.0000   1.0000   1.0000   1.0000   1.0000   1.0000
     1.0000   1.0000   1.0000   1.0000   1.0000   1.0000   1.0000   1.0000
     1.0000   1.0000   1.0000   1.0000   1.0000   1.0000   1.0000   1.0000
     1.0000   1.0000   1.0000   1.0000   1.0000   1.0000   1.0000   1.0000
     1.0000   1.0000   1.0000   1.0000   1.0000   1.0000   1.0000   1.0000
     1.0000   1.0000   1.0000   1.0000   1.0000   1.0000   1.0000   1.0000
     1.0000   1.0000   1.0000   1.0000   1.0000   1.0000   1.0000   1.0000
     1.0000   1.0000   1.0000   1.0000   1.0000   1.0000   1.0000   1.0000
     1.0000   1.0000   1.0000   1.0000   1.0000   1.0000   1.0000   1.0000
     1.0000   1.0000   1.0000   1.0000   1.0000   1.0000   1.0000   1.0000
     1.0000   1.0000   1.0000   1.0000   1.0000   1.0000   1.0000   1.0000
     1.0000   1.0000   1.0000   1.0000   1.0000   1.0000   1.0000   1.0000
     1.0000   1.0000   1.0000   1.0000   1.0000   1.0000   1.0000   1.0000
     1.0000   1.0000   1.0000   1.0000   1.0000   1.0000   1.0000   1.0000
     1.0000   1.0000   1.0000   1.0000   1.0000   1.0000   1.0000   1.0000
     1.0000   1.0000   1.0000   1.0000   1.0000   1.0000   1.0000   1.0000
     1.0000   1.0000   1.0000   1.0000   1.0000   1.0000   1.0000   1.0000
     1.0000   1.0000   1.0000   1.0000   1.0000   1.0000   1.0000   1.0000
     1.0000   1.0000   1.0000   1.0000   1.0000   1.0000   1.0000   1.0000
     1.0000   1.0000   1.0000   1.0000   1.0000   1.0000   1.0000   1.0000
     1.0000   1.0000   1.0000   1.0000   1.0000   1.0000   1.0000   1.0000
     1.0000   1.0000   1.0000   1.0000   1.0000   1.0000   1.0000   1.0000
     1.0000   1.0000   1.0000   1.0000   1.0000   1.0000   1.0000   1.0000
     1.0000   1.0000   1.0000   1.0000   1.0000   1.0000   1.0000   1.0000
     1.0000   1.0000   1.0000   1.0000   1.0000   1.0000   1.0000   1.0000
     1.0000   1.0000   1.0000   1.0000   1.0000   1.0000   1.0000   1.0000
     1.0000   1.0000   1.0000   1.0000   1.0000   1.0000   1.0000   1.0000
     1.0000   1.0000   1.0000   1.0000   1.0000   1.0000   1.0000   1.0000
     1.0000   1.0000   1.0000   1.0000   1.0000   1.0000   1.0000   1.0000
     1.0000   1.0000   1.0000   1.0000   1.0000   1.0000   1.0000   1.0000
     1.0000   1.0000   1.0000   1.0000   1.0000   1.0000   1.0000   1.0000
     1.0000   1.0000   1.0000   1.0000   1.0000   1.0000   1.0000   1.0000
     1.0000   1.0000   1.0000   1.0000   1.0000   1.0000   1.0000   1.0000
     1.0000   1.0000   1.0000   1.0000   1.0000   1.0000   1.0000   1.0000
     1.0000   1.0000   1.0000   1.0000   1.0000   1.0000   1.0000   1.0000
     1.0000   1.0000   1.0000   1.0000   1.0000   1.0000   1.0000   1.0000
     1.0000   1.0000   1.0000   1.0000   1.0000   1.0000   1.0000   1.0000
     1.0000   1.0000   1.0000   1.0000   1.0000   1.0000   1.0000   1.0000
     1.0000   1.0000   1.0000   1.0000   1.0000   1.0000   1.0000   1.0000
     1.0000   1.0000   1.0000   1.0000   1.0000   1.0000   1.0000   1.0000
     1.0000   1.0000   1.0000   1.0000   1.0000   1.0000   1.0000   1.0000
     1.0000   1.0000   1.0000   1.0000   1.0000   1.0000   1.0000   1.0000
     1.0000   1.0000   1.0000   1.0000   1.0000   1.0000   1.0000   1.0000
     1.0000   1.0000   1.0000   1.0000   1.0000   1.0000   1.0000   1.0000
     1.0000   1.0000   1.0000   1.0000   1.0000   1.0000   1.0000   1.0000
     1.0000   1.0000   1.0000   1.0000   1.0000   1.0000   1.0000   1.0000
     1.0000   1.0000   1.0000   1.0000   1.0000   1.0000   1.0000   1.0000
     1.0000   1.0000   1.0000   1.0000   1.0000   1.0000   1.0000   1.0000
     1.0000   1.0000   1.0000   1.0000   1.0000   1.0000   1.0000   1.0000
     1.0000   1.0000   1.0000   1.0000   1.0000   1.0000   1.0000   1.0000
     1.0000   1.0000   1.0000   1.0000   1.0000   1.0000   1.0000   1.0000
     1.0000   1.0000   1.0000   1.0000   1.0000   1.0000   1.0000   1.0000
     1.0000   1.0000   1.0000   1.0000   1.0000   1.0000   1.0000   1.0000
     1.0000   1.0000   1.0000   1.0000   1.0000   1.0000   1.0000   1.0000
     1.0000   1.0000   1.0000   1.0000   1.0000   1.0000   1.0000   1.0000
     1.0000   1.0000   1.0000   1.0000   1.0000   1.0000   1.0000   1.0000
     1.0000   1.0000   1.0000   1.0000   1.0000   1.0000   1.0000   1.0000
     1.0000   1.0000   1.0000   1.0000   1.0000   1.0000   1.0000   1.0000
     1.0000   1.0000   1.0000   1.0000   1.0000   1.0000   1.0000   1.0000
     1.0000   1.0000   1.0000   1.0000   1.0000   1.0000   1.0000   1.0000
     1.0000   1.0000   1.0000   1.0000   1.0000   1.0000   1.0000   1.0000
     1.0000   1.0000   1.0000   1.0000   1.0000   1.0000   1.0000   1.0000
     1.0000   1.0000   1.0000   1.0000   1.0000   1.0000   1.0000   1.0000
     0.0000   0.0000   0.0000   0.0000   0.0000   0.0000   0.0000   0.0000
     0.0000   0.0000   0.0000   0.0000   0.0000   0.0000   0.0000   0.0000
     0.0000   0.0000   0.0000   0.0000   0.0000   0.0000   0.0000   0.0000
     0.0000   0.0000   0.0000   0.0000   0.0000   0.0000   0.0000   0.0000
     0.0000   0.0000   0.0000   0.0000   0.0000   0.0000   0.0000   0.0000
     0.0000   0.0000   0.0000   0.0000   0.0000   0.0000   0.0000   0.0000
     0.0000   0.0000   0.0000   0.0000   0.0000   0.0000   0.0000   0.0000
     0.0000   0.0000   0.0000   0.0000   0.0000   0.0000   0.0000   0.0000
     0.0000   0.0000   0.0000   0.0000   0.0000   0.0000   0.0000   0.0000
     0.0000   0.0000   0.0000   0.0000   0.0000   0.0000   0.0000   0.0000
     0.0000   0.0000   0.0000   0.0000   0.0000   0.0000   0.0000   0.0000
     0.0000   0.0000   0.0000   0.0000   0.0000   0.0000   0.0000   0.0000
     0.0000   0.0000   0.0000   0.0000   0.0000   0.0000

          k =-0.3545-0.3522 0.3546 ( 42218 PWs)   bands (ev):

   -65.4121 -65.3503 -65.3475 -65.2717 -65.2575 -65.2524 -65.2343 -65.2299
   -65.2215 -65.2147 -65.2106 -65.1951 -65.1920 -65.1744 -65.1588 -65.1579
   -65.1461 -65.1437 -65.1300 -65.1294 -65.1200 -65.1190 -65.1188 -65.1142
   -65.1118 -65.0972 -65.0967 -65.0761 -65.0755 -65.0607 -65.0139 -64.9835
   -64.9303 -64.8983 -32.3779 -32.3777 -32.3684 -32.3188 -32.3164 -32.3130
   -32.3128 -32.3086 -32.3037 -32.2387 -32.2367 -32.2296 -32.2253 -32.2237
   -32.2192 -32.2162 -32.2156 -32.2091 -32.2046 -32.1997 -32.1978 -32.1924
   -32.1911 -32.1901 -32.1891 -32.1871 -32.1823 -32.1795 -32.1795 -32.1779
   -32.1738 -32.1731 -32.1648 -32.1606 -32.1603 -32.1580 -32.1577 -32.1547
   -32.1500 -32.1425 -32.1359 -32.1326 -32.1287 -32.1271 -32.1247 -32.1211
   -32.1167 -32.1142 -32.1132 -32.1112 -32.1086 -32.1068 -32.1044 -32.1014
   -32.1011 -32.0971 -32.0933 -32.0923 -32.0895 -32.0886 -32.0885 -32.0881
   -32.0845 -32.0835 -32.0829 -32.0826 -32.0820 -32.0810 -32.0789 -32.0772
   -32.0756 -32.0755 -32.0744 -32.0706 -32.0668 -32.0658 -32.0643 -32.0606
   -32.0602 -32.0546 -32.0541 -32.0426 -32.0419 -32.0396 -32.0358 -32.0331
   -32.0315 -32.0294 -32.0258 -32.0185 -31.9816 -31.9759 -31.9700 -31.9530
   -31.9451 -31.9396 -31.8981 -31.8926 -31.8863 -31.8650 -31.8613 -31.8573
   -28.9487 -28.9153 -28.8974 -28.8710 -28.8594 -28.8505 -28.8280 -28.8255
   -28.8124 -28.7947 -28.7671 -28.7576 -28.7547 -28.7508 -28.7194 -28.7114
   -28.7026 -28.6907 -28.6869 -28.6801 -28.6675 -28.6622 -28.6473 -28.6241
   -28.5699 -28.5504 -28.5447 -28.5151 -28.4735 -28.4596 -11.4031 -11.3746
   -11.3618 -11.3398 -11.2926 -11.2547 -11.2111 -11.1784 -11.1414 -11.0834
   -11.0597 -11.0413 -11.0394 -10.9969 -10.9716 -10.9507 -10.9202 -10.9025
   -10.8569 -10.8293 -10.7922 -10.7746 -10.7627 -10.7486 -10.7405 -10.7117
   -10.6869 -10.6487 -10.6128 -10.5989 -10.5653 -10.5451 -10.5243 -10.5187
   -10.5096 -10.4835 -10.4544 -10.4382 -10.4318 -10.3985 -10.3824 -10.3601
   -10.3341 -10.3282 -10.2929 -10.2794 -10.2622 -10.2546 -10.2327 -10.2280
   -10.1908 -10.1677 -10.1575 -10.1261 -10.1052 -10.0844 -10.0783 -10.0648
   -10.0556 -10.0449 -10.0382 -10.0322 -10.0198 -10.0106  -9.9865  -9.9722
    -9.9681  -9.9599  -9.9375  -9.9296  -9.9186  -9.9144  -9.8897  -9.8833
    -9.8662  -9.8547  -9.8424  -9.8410  -9.8367  -9.8209  -9.8122  -9.7993
    -9.7916  -9.7884  -9.7713  -9.7411  -9.7348  -9.7267  -9.7059  -9.6691
    -8.1890  -8.1409  -7.9296  -7.9025  -7.8641  -7.8143  -7.7945  -7.7601
    -7.7382  -7.7292  -7.7207  -7.7011  -7.6799  -7.6500  -7.6417  -7.6212
    -7.5987  -7.5718  -7.5622  -7.5368  -7.5194  -7.4925  -7.4584  -7.4508
    -7.4440  -7.4052  -7.3895  -7.3583  -7.3413  -7.3302  -7.3037  -7.2715
    -7.2628  -7.2287  -7.2000  -7.1632  -7.1449  -7.1205  -7.0937  -7.0886
    -7.0451  -7.0375  -7.0281  -7.0179  -6.9736  -6.9680  -6.9126  -6.8961
    -6.8813  -6.8267  -6.8034  -6.7773  -6.7551  -6.7043  -6.6755  -6.6555
    -6.6328  -6.6011  -6.5874  -6.5374  -6.5188  -6.4843  -6.4721  -6.4091
     3.9018   4.0030   4.0181   4.0652   4.1031   4.1659   4.1973   4.2212
     4.3269   4.3583   4.3907   4.4258   4.4375   4.4765   4.4841   4.5190
     4.5781   4.6074   4.6245   4.6641   4.7121   4.7293   4.7785   4.7809
     4.8272   4.8444   4.8635   4.9073   4.9251   4.9516   4.9649   4.9947
     5.0008   5.0395   5.0811   5.1110   5.1295   5.1443   5.1758   5.2033
     5.2407   5.2579   5.2780   5.3031   5.3226   5.3342   5.3465   5.4073
     5.4283   5.4319   5.4943   5.5042   5.5360   5.5637   5.5816   5.6317
     5.6437   5.6670   5.6820   5.6880   5.7277   5.7679   5.7862   5.7884
     5.8058   5.8364   5.8613   5.8836   5.9043   5.9181   5.9262   5.9747
     5.9820   6.0071   6.0105   6.0315   6.0478   6.0577   6.0923   6.1092
     6.1247   6.1380   6.1572   6.1614   6.1700   6.2062   6.2137   6.2319
     6.2461   6.2688   6.2779   6.2836   6.2980   6.3088   6.3162   6.3397
     6.3489   6.3554   6.3642   6.3817   6.3900   6.4009   6.4175   6.4194
     6.4327   6.4439   6.4617   6.4806   6.4851   6.4920   6.5076   6.5168
     6.5202   6.5285   6.5509   6.5758   6.5834   6.5932   6.6200   6.6296
     6.6361   6.6417   6.6548   6.6609   6.6709   6.6807   6.6960   6.7116
     6.7209   6.7274   6.7372   6.7384   6.7478   6.7644   6.7785   6.7820
     6.7909   6.7950   6.8165   6.8277   6.8334   6.8396   6.8483   6.8562
     6.8687   6.8796   6.8870   6.8964   6.9070   6.9198   6.9271   6.9407
     6.9493   6.9552   6.9610   6.9696   6.9839   6.9931   6.9998   7.0264
     7.0301   7.0379   7.0496   7.0546   7.0679   7.0716   7.0860   7.1034
     7.1082   7.1158   7.1183   7.1297   7.1437   7.1577   7.1836   7.1973
     7.2118   7.2263   7.2307   7.2569   7.2695   7.2784   7.2976   7.3142
     7.3400   7.3592   7.3675   7.3997   7.4954   7.5103   7.5327   7.5471
    12.2780  12.4034  12.7155  12.7453  12.7914  13.0363  13.1036  13.1997
    13.3103  13.3622  13.3790  13.4352  13.4557  13.5532  13.6024  13.6818
    13.7495  13.7702  13.9173  13.9499  13.9938  14.0574  14.0989  14.1904
    14.2465  14.2573  14.2711  14.3275  14.3566  14.3760  14.3873  14.4048
    14.4314  14.4919  14.5137  14.5488  14.5977  14.6240  14.6733  14.6909
    14.7123  14.7225  14.7537  14.7605  14.7974  14.8441  14.8792  14.9001
    14.9289  14.9423  14.9866  14.9926  15.0429  15.0678  15.1226  15.1609
    15.1744  15.1847  15.2108  15.2694  15.3083  15.3150  15.3322  15.3557
    15.3923  15.4266  15.4410  15.4869  15.5032  15.5412  15.5521  15.5626
    15.5735  15.6420  15.6563  15.6636  15.6907  15.7322  15.7628  15.7886
    15.8212  15.8422  15.8666  15.9280  15.9375  15.9591  15.9961  16.0416
    16.0504  16.0846  16.0890  16.1503  16.1873  16.2011  16.2450  16.2560
    16.3006  16.3310  16.3492  16.3568  16.3709  16.4097

     occupation numbers 
     1.0000   1.0000   1.0000   1.0000   1.0000   1.0000   1.0000   1.0000
     1.0000   1.0000   1.0000   1.0000   1.0000   1.0000   1.0000   1.0000
     1.0000   1.0000   1.0000   1.0000   1.0000   1.0000   1.0000   1.0000
     1.0000   1.0000   1.0000   1.0000   1.0000   1.0000   1.0000   1.0000
     1.0000   1.0000   1.0000   1.0000   1.0000   1.0000   1.0000   1.0000
     1.0000   1.0000   1.0000   1.0000   1.0000   1.0000   1.0000   1.0000
     1.0000   1.0000   1.0000   1.0000   1.0000   1.0000   1.0000   1.0000
     1.0000   1.0000   1.0000   1.0000   1.0000   1.0000   1.0000   1.0000
     1.0000   1.0000   1.0000   1.0000   1.0000   1.0000   1.0000   1.0000
     1.0000   1.0000   1.0000   1.0000   1.0000   1.0000   1.0000   1.0000
     1.0000   1.0000   1.0000   1.0000   1.0000   1.0000   1.0000   1.0000
     1.0000   1.0000   1.0000   1.0000   1.0000   1.0000   1.0000   1.0000
     1.0000   1.0000   1.0000   1.0000   1.0000   1.0000   1.0000   1.0000
     1.0000   1.0000   1.0000   1.0000   1.0000   1.0000   1.0000   1.0000
     1.0000   1.0000   1.0000   1.0000   1.0000   1.0000   1.0000   1.0000
     1.0000   1.0000   1.0000   1.0000   1.0000   1.0000   1.0000   1.0000
     1.0000   1.0000   1.0000   1.0000   1.0000   1.0000   1.0000   1.0000
     1.0000   1.0000   1.0000   1.0000   1.0000   1.0000   1.0000   1.0000
     1.0000   1.0000   1.0000   1.0000   1.0000   1.0000   1.0000   1.0000
     1.0000   1.0000   1.0000   1.0000   1.0000   1.0000   1.0000   1.0000
     1.0000   1.0000   1.0000   1.0000   1.0000   1.0000   1.0000   1.0000
     1.0000   1.0000   1.0000   1.0000   1.0000   1.0000   1.0000   1.0000
     1.0000   1.0000   1.0000   1.0000   1.0000   1.0000   1.0000   1.0000
     1.0000   1.0000   1.0000   1.0000   1.0000   1.0000   1.0000   1.0000
     1.0000   1.0000   1.0000   1.0000   1.0000   1.0000   1.0000   1.0000
     1.0000   1.0000   1.0000   1.0000   1.0000   1.0000   1.0000   1.0000
     1.0000   1.0000   1.0000   1.0000   1.0000   1.0000   1.0000   1.0000
     1.0000   1.0000   1.0000   1.0000   1.0000   1.0000   1.0000   1.0000
     1.0000   1.0000   1.0000   1.0000   1.0000   1.0000   1.0000   1.0000
     1.0000   1.0000   1.0000   1.0000   1.0000   1.0000   1.0000   1.0000
     1.0000   1.0000   1.0000   1.0000   1.0000   1.0000   1.0000   1.0000
     1.0000   1.0000   1.0000   1.0000   1.0000   1.0000   1.0000   1.0000
     1.0000   1.0000   1.0000   1.0000   1.0000   1.0000   1.0000   1.0000
     1.0000   1.0000   1.0000   1.0000   1.0000   1.0000   1.0000   1.0000
     1.0000   1.0000   1.0000   1.0000   1.0000   1.0000   1.0000   1.0000
     1.0000   1.0000   1.0000   1.0000   1.0000   1.0000   1.0000   1.0000
     1.0000   1.0000   1.0000   1.0000   1.0000   1.0000   1.0000   1.0000
     1.0000   1.0000   1.0000   1.0000   1.0000   1.0000   1.0000   1.0000
     1.0000   1.0000   1.0000   1.0000   1.0000   1.0000   1.0000   1.0000
     1.0000   1.0000   1.0000   1.0000   1.0000   1.0000   1.0000   1.0000
     1.0000   1.0000   1.0000   1.0000   1.0000   1.0000   1.0000   1.0000
     1.0000   1.0000   1.0000   1.0000   1.0000   1.0000   1.0000   1.0000
     1.0000   1.0000   1.0000   1.0000   1.0000   1.0000   1.0000   1.0000
     1.0000   1.0000   1.0000   1.0000   1.0000   1.0000   1.0000   1.0000
     1.0000   1.0000   1.0000   1.0000   1.0000   1.0000   1.0000   1.0000
     1.0000   1.0000   1.0000   1.0000   1.0000   1.0000   1.0000   1.0000
     1.0000   1.0000   1.0000   1.0000   1.0000   1.0000   1.0000   1.0000
     1.0000   1.0000   1.0000   1.0000   1.0000   1.0000   1.0000   1.0000
     1.0000   1.0000   1.0000   1.0000   1.0000   1.0000   1.0000   1.0000
     1.0000   1.0000   1.0000   1.0000   1.0000   1.0000   1.0000   1.0000
     1.0000   1.0000   1.0000   1.0000   1.0000   1.0000   1.0000   1.0000
     1.0000   1.0000   1.0000   1.0000   1.0000   1.0000   1.0000   1.0000
     1.0000   1.0000   1.0000   1.0000   1.0000   1.0000   1.0000   1.0000
     1.0000   1.0000   1.0000   1.0000   1.0000   1.0000   1.0000   1.0000
     1.0000   1.0000   1.0000   1.0000   1.0000   1.0000   1.0000   1.0000
     1.0000   1.0000   1.0000   1.0000   1.0000   1.0000   1.0000   1.0000
     1.0000   1.0000   1.0000   1.0000   1.0000   1.0000   1.0000   1.0000
     1.0000   1.0000   1.0000   1.0000   1.0000   1.0000   1.0000   1.0000
     1.0000   1.0000   1.0000   1.0000   1.0000   1.0000   1.0000   1.0000
     1.0000   1.0000   1.0000   1.0000   1.0000   1.0000   1.0000   1.0000
     1.0000   1.0000   1.0000   1.0000   1.0000   1.0000   1.0000   1.0000
     1.0000   1.0000   1.0000   1.0000   1.0000   1.0000   1.0000   1.0000
     1.0000   1.0000   1.0000   1.0000   1.0000   1.0000   1.0000   1.0000
     1.0000   1.0000   1.0000   1.0000   1.0000   1.0000   1.0000   1.0000
     0.0000   0.0000   0.0000   0.0000   0.0000   0.0000   0.0000   0.0000
     0.0000   0.0000   0.0000   0.0000   0.0000   0.0000   0.0000   0.0000
     0.0000   0.0000   0.0000   0.0000   0.0000   0.0000   0.0000   0.0000
     0.0000   0.0000   0.0000   0.0000   0.0000   0.0000   0.0000   0.0000
     0.0000   0.0000   0.0000   0.0000   0.0000   0.0000   0.0000   0.0000
     0.0000   0.0000   0.0000   0.0000   0.0000   0.0000   0.0000   0.0000
     0.0000   0.0000   0.0000   0.0000   0.0000   0.0000   0.0000   0.0000
     0.0000   0.0000   0.0000   0.0000   0.0000   0.0000   0.0000   0.0000
     0.0000   0.0000   0.0000   0.0000   0.0000   0.0000   0.0000   0.0000
     0.0000   0.0000   0.0000   0.0000   0.0000   0.0000   0.0000   0.0000
     0.0000   0.0000   0.0000   0.0000   0.0000   0.0000   0.0000   0.0000
     0.0000   0.0000   0.0000   0.0000   0.0000   0.0000   0.0000   0.0000
     0.0000   0.0000   0.0000   0.0000   0.0000   0.0000

          k =-0.3521 0.3526-0.3538 ( 42226 PWs)   bands (ev):

   -65.4121 -65.3503 -65.3475 -65.2717 -65.2575 -65.2524 -65.2343 -65.2299
   -65.2215 -65.2147 -65.2106 -65.1951 -65.1920 -65.1744 -65.1588 -65.1579
   -65.1461 -65.1437 -65.1300 -65.1294 -65.1200 -65.1190 -65.1188 -65.1142
   -65.1118 -65.0972 -65.0967 -65.0761 -65.0755 -65.0607 -65.0139 -64.9835
   -64.9303 -64.8983 -32.3779 -32.3777 -32.3684 -32.3188 -32.3164 -32.3130
   -32.3128 -32.3086 -32.3037 -32.2387 -32.2367 -32.2296 -32.2253 -32.2237
   -32.2192 -32.2162 -32.2156 -32.2091 -32.2046 -32.1997 -32.1978 -32.1924
   -32.1911 -32.1901 -32.1891 -32.1871 -32.1823 -32.1797 -32.1793 -32.1779
   -32.1738 -32.1732 -32.1648 -32.1606 -32.1603 -32.1580 -32.1577 -32.1547
   -32.1500 -32.1425 -32.1359 -32.1326 -32.1287 -32.1271 -32.1247 -32.1211
   -32.1167 -32.1142 -32.1132 -32.1112 -32.1086 -32.1068 -32.1044 -32.1014
   -32.1011 -32.0971 -32.0933 -32.0923 -32.0894 -32.0887 -32.0885 -32.0881
   -32.0845 -32.0835 -32.0829 -32.0826 -32.0820 -32.0810 -32.0789 -32.0772
   -32.0756 -32.0755 -32.0744 -32.0706 -32.0668 -32.0658 -32.0643 -32.0606
   -32.0602 -32.0546 -32.0541 -32.0426 -32.0419 -32.0396 -32.0358 -32.0331
   -32.0315 -32.0294 -32.0258 -32.0185 -31.9816 -31.9759 -31.9700 -31.9530
   -31.9451 -31.9396 -31.8981 -31.8926 -31.8863 -31.8650 -31.8613 -31.8573
   -28.9478 -28.9168 -28.8960 -28.8732 -28.8617 -28.8475 -28.8289 -28.8202
   -28.8135 -28.7971 -28.7675 -28.7606 -28.7536 -28.7507 -28.7117 -28.7093
   -28.7038 -28.7012 -28.6847 -28.6792 -28.6675 -28.6613 -28.6475 -28.6240
   -28.5699 -28.5508 -28.5446 -28.5146 -28.4738 -28.4595 -11.3858 -11.3775
   -11.3756 -11.3356 -11.2728 -11.2553 -11.2126 -11.1760 -11.1268 -11.0914
   -11.0728 -11.0383 -11.0331 -11.0078 -10.9877 -10.9817 -10.9198 -10.8948
   -10.8610 -10.8563 -10.8068 -10.7895 -10.7640 -10.7531 -10.7262 -10.6884
   -10.6756 -10.6461 -10.6136 -10.5920 -10.5758 -10.5531 -10.5345 -10.5163
   -10.5068 -10.4685 -10.4436 -10.4358 -10.4104 -10.3978 -10.3626 -10.3567
   -10.3227 -10.3048 -10.2965 -10.2746 -10.2477 -10.2407 -10.2343 -10.2079
   -10.1878 -10.1792 -10.1430 -10.1275 -10.1076 -10.0995 -10.0924 -10.0774
   -10.0681 -10.0474 -10.0401 -10.0252 -10.0119 -10.0024  -9.9862  -9.9828
    -9.9779  -9.9685  -9.9574  -9.9393  -9.9288  -9.9070  -9.9017  -9.8909
    -9.8797  -9.8645  -9.8614  -9.8506  -9.8442  -9.8293  -9.8199  -9.8052
    -9.7924  -9.7838  -9.7426  -9.7332  -9.7229  -9.7140  -9.6831  -9.6629
    -8.1871  -8.1554  -7.9155  -7.9095  -7.8438  -7.8276  -7.7982  -7.7761
    -7.7541  -7.7182  -7.7046  -7.6946  -7.6631  -7.6521  -7.6337  -7.6141
    -7.6044  -7.5859  -7.5601  -7.5478  -7.5315  -7.4977  -7.4643  -7.4587
    -7.4305  -7.3881  -7.3838  -7.3494  -7.3484  -7.3216  -7.2712  -7.2637
    -7.2464  -7.2393  -7.2279  -7.1872  -7.1582  -7.1431  -7.1180  -7.0933
    -7.0732  -7.0309  -7.0152  -6.9966  -6.9573  -6.9485  -6.9162  -6.8879
    -6.8614  -6.8157  -6.7911  -6.7604  -6.7545  -6.7277  -6.6858  -6.6704
    -6.6531  -6.6173  -6.5867  -6.5198  -6.5134  -6.4963  -6.4719  -6.3959
     3.9608   3.9684   3.9996   4.0447   4.0661   4.1499   4.1716   4.2871
     4.3340   4.3617   4.3893   4.4148   4.4415   4.5021   4.5270   4.5415
     4.5650   4.6068   4.6295   4.6648   4.6921   4.7296   4.7617   4.7833
     4.8090   4.8417   4.8571   4.8757   4.9018   4.9413   4.9638   4.9855
     5.0086   5.0682   5.0835   5.1318   5.1479   5.1537   5.1891   5.2194
     5.2386   5.2556   5.2732   5.3100   5.3435   5.3602   5.3749   5.3976
     5.4061   5.4265   5.4478   5.4857   5.5193   5.5334   5.5662   5.6045
     5.6292   5.6730   5.6986   5.7377   5.7477   5.7608   5.7750   5.8107
     5.8312   5.8574   5.8732   5.8907   5.9022   5.9391   5.9555   5.9640
     5.9945   6.0027   6.0286   6.0386   6.0433   6.0563   6.0859   6.0948
     6.1039   6.1260   6.1560   6.1640   6.1801   6.1956   6.2058   6.2188
     6.2537   6.2613   6.2691   6.2735   6.2997   6.3152   6.3243   6.3323
     6.3404   6.3514   6.3582   6.3713   6.3762   6.3883   6.4046   6.4133
     6.4333   6.4389   6.4489   6.4656   6.4783   6.4989   6.5166   6.5358
     6.5393   6.5610   6.5662   6.5750   6.5877   6.5923   6.6034   6.6119
     6.6162   6.6221   6.6484   6.6565   6.6654   6.6810   6.6832   6.6981
     6.7019   6.7072   6.7340   6.7449   6.7563   6.7710   6.7756   6.7867
     6.7895   6.8019   6.8167   6.8307   6.8345   6.8508   6.8560   6.8573
     6.8821   6.8838   6.8920   6.9064   6.9183   6.9277   6.9312   6.9363
     6.9474   6.9619   6.9658   6.9732   6.9749   6.9849   6.9890   7.0105
     7.0264   7.0317   7.0370   7.0503   7.0649   7.0772   7.0946   7.0983
     7.1058   7.1102   7.1140   7.1353   7.1506   7.1581   7.1789   7.1840
     7.2051   7.2361   7.2387   7.2530   7.2712   7.2884   7.3250   7.3379
     7.3447   7.3628   7.3720   7.4002   7.4779   7.5077   7.5433   7.5610
    12.2288  12.4777  12.7113  12.7396  12.8200  13.0288  13.1320  13.1685
    13.2833  13.3280  13.3888  13.4400  13.4968  13.5321  13.5957  13.6694
    13.6941  13.7851  13.8396  13.9699  14.0470  14.0776  14.1738  14.2135
    14.2296  14.2351  14.2616  14.2656  14.3151  14.3259  14.3875  14.4267
    14.4637  14.4831  14.5046  14.5360  14.5788  14.5955  14.6279  14.6741
    14.7052  14.7258  14.7392  14.8057  14.8162  14.8519  14.8975  14.9340
    14.9366  14.9608  15.0082  15.0204  15.0523  15.0839  15.1160  15.1362
    15.1930  15.1998  15.2322  15.2804  15.3199  15.3317  15.3443  15.3908
    15.4272  15.4454  15.4800  15.4990  15.5203  15.5456  15.5734  15.5898
    15.6084  15.6307  15.6591  15.6789  15.6967  15.7221  15.7283  15.7660
    15.8074  15.8433  15.8564  15.8602  15.9293  15.9442  15.9785  16.0052
    16.0146  16.0526  16.0746  16.1175  16.1403  16.1793  16.1983  16.2379
    16.2815  16.3073  16.3202  16.3775  16.3929  16.4568

     occupation numbers 
     1.0000   1.0000   1.0000   1.0000   1.0000   1.0000   1.0000   1.0000
     1.0000   1.0000   1.0000   1.0000   1.0000   1.0000   1.0000   1.0000
     1.0000   1.0000   1.0000   1.0000   1.0000   1.0000   1.0000   1.0000
     1.0000   1.0000   1.0000   1.0000   1.0000   1.0000   1.0000   1.0000
     1.0000   1.0000   1.0000   1.0000   1.0000   1.0000   1.0000   1.0000
     1.0000   1.0000   1.0000   1.0000   1.0000   1.0000   1.0000   1.0000
     1.0000   1.0000   1.0000   1.0000   1.0000   1.0000   1.0000   1.0000
     1.0000   1.0000   1.0000   1.0000   1.0000   1.0000   1.0000   1.0000
     1.0000   1.0000   1.0000   1.0000   1.0000   1.0000   1.0000   1.0000
     1.0000   1.0000   1.0000   1.0000   1.0000   1.0000   1.0000   1.0000
     1.0000   1.0000   1.0000   1.0000   1.0000   1.0000   1.0000   1.0000
     1.0000   1.0000   1.0000   1.0000   1.0000   1.0000   1.0000   1.0000
     1.0000   1.0000   1.0000   1.0000   1.0000   1.0000   1.0000   1.0000
     1.0000   1.0000   1.0000   1.0000   1.0000   1.0000   1.0000   1.0000
     1.0000   1.0000   1.0000   1.0000   1.0000   1.0000   1.0000   1.0000
     1.0000   1.0000   1.0000   1.0000   1.0000   1.0000   1.0000   1.0000
     1.0000   1.0000   1.0000   1.0000   1.0000   1.0000   1.0000   1.0000
     1.0000   1.0000   1.0000   1.0000   1.0000   1.0000   1.0000   1.0000
     1.0000   1.0000   1.0000   1.0000   1.0000   1.0000   1.0000   1.0000
     1.0000   1.0000   1.0000   1.0000   1.0000   1.0000   1.0000   1.0000
     1.0000   1.0000   1.0000   1.0000   1.0000   1.0000   1.0000   1.0000
     1.0000   1.0000   1.0000   1.0000   1.0000   1.0000   1.0000   1.0000
     1.0000   1.0000   1.0000   1.0000   1.0000   1.0000   1.0000   1.0000
     1.0000   1.0000   1.0000   1.0000   1.0000   1.0000   1.0000   1.0000
     1.0000   1.0000   1.0000   1.0000   1.0000   1.0000   1.0000   1.0000
     1.0000   1.0000   1.0000   1.0000   1.0000   1.0000   1.0000   1.0000
     1.0000   1.0000   1.0000   1.0000   1.0000   1.0000   1.0000   1.0000
     1.0000   1.0000   1.0000   1.0000   1.0000   1.0000   1.0000   1.0000
     1.0000   1.0000   1.0000   1.0000   1.0000   1.0000   1.0000   1.0000
     1.0000   1.0000   1.0000   1.0000   1.0000   1.0000   1.0000   1.0000
     1.0000   1.0000   1.0000   1.0000   1.0000   1.0000   1.0000   1.0000
     1.0000   1.0000   1.0000   1.0000   1.0000   1.0000   1.0000   1.0000
     1.0000   1.0000   1.0000   1.0000   1.0000   1.0000   1.0000   1.0000
     1.0000   1.0000   1.0000   1.0000   1.0000   1.0000   1.0000   1.0000
     1.0000   1.0000   1.0000   1.0000   1.0000   1.0000   1.0000   1.0000
     1.0000   1.0000   1.0000   1.0000   1.0000   1.0000   1.0000   1.0000
     1.0000   1.0000   1.0000   1.0000   1.0000   1.0000   1.0000   1.0000
     1.0000   1.0000   1.0000   1.0000   1.0000   1.0000   1.0000   1.0000
     1.0000   1.0000   1.0000   1.0000   1.0000   1.0000   1.0000   1.0000
     1.0000   1.0000   1.0000   1.0000   1.0000   1.0000   1.0000   1.0000
     1.0000   1.0000   1.0000   1.0000   1.0000   1.0000   1.0000   1.0000
     1.0000   1.0000   1.0000   1.0000   1.0000   1.0000   1.0000   1.0000
     1.0000   1.0000   1.0000   1.0000   1.0000   1.0000   1.0000   1.0000
     1.0000   1.0000   1.0000   1.0000   1.0000   1.0000   1.0000   1.0000
     1.0000   1.0000   1.0000   1.0000   1.0000   1.0000   1.0000   1.0000
     1.0000   1.0000   1.0000   1.0000   1.0000   1.0000   1.0000   1.0000
     1.0000   1.0000   1.0000   1.0000   1.0000   1.0000   1.0000   1.0000
     1.0000   1.0000   1.0000   1.0000   1.0000   1.0000   1.0000   1.0000
     1.0000   1.0000   1.0000   1.0000   1.0000   1.0000   1.0000   1.0000
     1.0000   1.0000   1.0000   1.0000   1.0000   1.0000   1.0000   1.0000
     1.0000   1.0000   1.0000   1.0000   1.0000   1.0000   1.0000   1.0000
     1.0000   1.0000   1.0000   1.0000   1.0000   1.0000   1.0000   1.0000
     1.0000   1.0000   1.0000   1.0000   1.0000   1.0000   1.0000   1.0000
     1.0000   1.0000   1.0000   1.0000   1.0000   1.0000   1.0000   1.0000
     1.0000   1.0000   1.0000   1.0000   1.0000   1.0000   1.0000   1.0000
     1.0000   1.0000   1.0000   1.0000   1.0000   1.0000   1.0000   1.0000
     1.0000   1.0000   1.0000   1.0000   1.0000   1.0000   1.0000   1.0000
     1.0000   1.0000   1.0000   1.0000   1.0000   1.0000   1.0000   1.0000
     1.0000   1.0000   1.0000   1.0000   1.0000   1.0000   1.0000   1.0000
     1.0000   1.0000   1.0000   1.0000   1.0000   1.0000   1.0000   1.0000
     1.0000   1.0000   1.0000   1.0000   1.0000   1.0000   1.0000   1.0000
     1.0000   1.0000   1.0000   1.0000   1.0000   1.0000   1.0000   1.0000
     1.0000   1.0000   1.0000   1.0000   1.0000   1.0000   1.0000   1.0000
     1.0000   1.0000   1.0000   1.0000   1.0000   1.0000   1.0000   1.0000
     0.0000   0.0000   0.0000   0.0000   0.0000   0.0000   0.0000   0.0000
     0.0000   0.0000   0.0000   0.0000   0.0000   0.0000   0.0000   0.0000
     0.0000   0.0000   0.0000   0.0000   0.0000   0.0000   0.0000   0.0000
     0.0000   0.0000   0.0000   0.0000   0.0000   0.0000   0.0000   0.0000
     0.0000   0.0000   0.0000   0.0000   0.0000   0.0000   0.0000   0.0000
     0.0000   0.0000   0.0000   0.0000   0.0000   0.0000   0.0000   0.0000
     0.0000   0.0000   0.0000   0.0000   0.0000   0.0000   0.0000   0.0000
     0.0000   0.0000   0.0000   0.0000   0.0000   0.0000   0.0000   0.0000
     0.0000   0.0000   0.0000   0.0000   0.0000   0.0000   0.0000   0.0000
     0.0000   0.0000   0.0000   0.0000   0.0000   0.0000   0.0000   0.0000
     0.0000   0.0000   0.0000   0.0000   0.0000   0.0000   0.0000   0.0000
     0.0000   0.0000   0.0000   0.0000   0.0000   0.0000   0.0000   0.0000
     0.0000   0.0000   0.0000   0.0000   0.0000   0.0000

          k =-0.7067 0.0004 0.0008 ( 42280 PWs)   bands (ev):

   -65.4121 -65.3503 -65.3475 -65.2717 -65.2575 -65.2524 -65.2343 -65.2299
   -65.2215 -65.2147 -65.2106 -65.1951 -65.1920 -65.1744 -65.1588 -65.1579
   -65.1461 -65.1437 -65.1300 -65.1294 -65.1200 -65.1190 -65.1188 -65.1142
   -65.1118 -65.0972 -65.0967 -65.0761 -65.0755 -65.0607 -65.0139 -64.9835
   -64.9303 -64.8983 -32.3779 -32.3777 -32.3684 -32.3188 -32.3164 -32.3130
   -32.3128 -32.3086 -32.3037 -32.2387 -32.2367 -32.2296 -32.2253 -32.2237
   -32.2192 -32.2162 -32.2156 -32.2091 -32.2046 -32.1997 -32.1978 -32.1924
   -32.1911 -32.1901 -32.1891 -32.1871 -32.1823 -32.1795 -32.1795 -32.1779
   -32.1738 -32.1731 -32.1648 -32.1606 -32.1603 -32.1580 -32.1577 -32.1547
   -32.1500 -32.1425 -32.1359 -32.1326 -32.1287 -32.1271 -32.1247 -32.1211
   -32.1167 -32.1142 -32.1132 -32.1112 -32.1086 -32.1068 -32.1044 -32.1014
   -32.1011 -32.0971 -32.0933 -32.0923 -32.0895 -32.0886 -32.0885 -32.0881
   -32.0845 -32.0835 -32.0829 -32.0826 -32.0820 -32.0810 -32.0789 -32.0772
   -32.0756 -32.0755 -32.0744 -32.0706 -32.0668 -32.0658 -32.0643 -32.0606
   -32.0602 -32.0546 -32.0541 -32.0426 -32.0419 -32.0396 -32.0358 -32.0331
   -32.0315 -32.0294 -32.0258 -32.0185 -31.9816 -31.9759 -31.9700 -31.9530
   -31.9451 -31.9396 -31.8981 -31.8926 -31.8863 -31.8650 -31.8613 -31.8573
   -28.9470 -28.9183 -28.8966 -28.8737 -28.8584 -28.8473 -28.8302 -28.8203
   -28.8137 -28.7975 -28.7677 -28.7601 -28.7540 -28.7507 -28.7117 -28.7088
   -28.7048 -28.6993 -28.6854 -28.6797 -28.6673 -28.6614 -28.6473 -28.6242
   -28.5699 -28.5504 -28.5446 -28.5151 -28.4735 -28.4596 -11.3840 -11.3693
   -11.3608 -11.3263 -11.2908 -11.2492 -11.2155 -11.1565 -11.1449 -11.1259
   -11.0921 -11.0628 -11.0433 -11.0147 -10.9448 -10.9360 -10.9099 -10.8971
   -10.8645 -10.8422 -10.8308 -10.8255 -10.7801 -10.7685 -10.7142 -10.6856
   -10.6791 -10.6648 -10.6308 -10.5778 -10.5567 -10.5368 -10.5205 -10.5074
   -10.4864 -10.4676 -10.4377 -10.4217 -10.4041 -10.3942 -10.3706 -10.3435
   -10.3252 -10.3019 -10.2911 -10.2755 -10.2629 -10.2396 -10.2228 -10.2070
   -10.1951 -10.1817 -10.1777 -10.1305 -10.1166 -10.1023 -10.0793 -10.0741
   -10.0670 -10.0369 -10.0258 -10.0237 -10.0143 -10.0043  -9.9870  -9.9826
    -9.9657  -9.9571  -9.9485  -9.9421  -9.9283  -9.9200  -9.9015  -9.8906
    -9.8830  -9.8655  -9.8527  -9.8446  -9.8367  -9.8275  -9.8127  -9.8096
    -9.8026  -9.7844  -9.7563  -9.7487  -9.7340  -9.7191  -9.6990  -9.6774
    -8.1295  -8.0983  -7.9923  -7.9185  -7.8615  -7.8065  -7.7880  -7.7698
    -7.7643  -7.7154  -7.7084  -7.6753  -7.6576  -7.6345  -7.6212  -7.6072
    -7.5938  -7.5731  -7.5621  -7.5531  -7.5262  -7.5172  -7.4883  -7.4728
    -7.4443  -7.4368  -7.4000  -7.3943  -7.3648  -7.3490  -7.3406  -7.2715
[...]
     atom   77 type  1   force =   0.00000000E+00  0.00000000E+00  0.00000000E+00
     atom   78 type  3   force =   0.00000000E+00  0.00000000E+00  0.00000000E+00
     atom   79 type  1   force =   0.00000000E+00  0.00000000E+00  0.00000000E+00
     atom   80 type  3   force =   0.00000000E+00  0.00000000E+00  0.00000000E+00
     atom   81 type  2   force =   0.00000000E+00  0.00000000E+00  0.00000000E+00
     atom   82 type  3   force =   0.00000000E+00  0.00000000E+00  0.00000000E+00
     atom   83 type  1   force =   0.00000000E+00  0.00000000E+00  0.00000000E+00
     atom   84 type  3   force =   0.00000000E+00  0.00000000E+00  0.00000000E+00
     atom   85 type  1   force =   0.00000000E+00  0.00000000E+00  0.00000000E+00
     atom   86 type  3   force =   0.00000000E+00  0.00000000E+00  0.00000000E+00
     atom   87 type  2   force =   0.00000000E+00  0.00000000E+00  0.00000000E+00
     atom   88 type  3   force =   0.00000000E+00  0.00000000E+00  0.00000000E+00
     atom   89 type  1   force =   0.00000000E+00  0.00000000E+00  0.00000000E+00
     atom   90 type  3   force =   0.00000000E+00  0.00000000E+00  0.00000000E+00
     atom   91 type  1   force =   0.00000000E+00  0.00000000E+00  0.00000000E+00
     atom   92 type  3   force =   0.00000000E+00  0.00000000E+00  0.00000000E+00
     atom   93 type  2   force =   0.00000000E+00  0.00000000E+00  0.00000000E+00
     atom   94 type  3   force =   0.00000000E+00  0.00000000E+00  0.00000000E+00
     atom   95 type  2   force =   0.00000000E+00  0.00000000E+00  0.00000000E+00
     atom   96 type  3   force =   0.00000000E+00  0.00000000E+00  0.00000000E+00
     atom   97 type  2   force =   0.00000000E+00  0.00000000E+00  0.00000000E+00
     atom   98 type  3   force =   0.00000000E+00  0.00000000E+00  0.00000000E+00
     atom   99 type  2   force =   0.00000000E+00  0.00000000E+00  0.00000000E+00
     atom  100 type  3   force =   0.00000000E+00  0.00000000E+00  0.00000000E+00
     atom  101 type  1   force =   0.00000000E+00  0.00000000E+00  0.00000000E+00
     atom  102 type  3   force =   0.00000000E+00  0.00000000E+00  0.00000000E+00
     atom  103 type  2   force =   0.00000000E+00  0.00000000E+00  0.00000000E+00
     atom  104 type  3   force =   0.00000000E+00  0.00000000E+00  0.00000000E+00
     atom  105 type  1   force =   0.00000000E+00  0.00000000E+00  0.00000000E+00
     atom  106 type  3   force =   0.00000000E+00  0.00000000E+00  0.00000000E+00
     atom  107 type  1   force =   0.00000000E+00  0.00000000E+00  0.00000000E+00
     atom  108 type  3   force =   0.00000000E+00  0.00000000E+00  0.00000000E+00
     atom  109 type  1   force =   0.00000000E+00  0.00000000E+00  0.00000000E+00
     atom  110 type  3   force =   0.00000000E+00  0.00000000E+00  0.00000000E+00
     atom  111 type  2   force =   0.00000000E+00  0.00000000E+00  0.00000000E+00
     atom  112 type  3   force =   0.00000000E+00  0.00000000E+00  0.00000000E+00
     atom  113 type  1   force =   0.00000000E+00  0.00000000E+00  0.00000000E+00
     atom  114 type  3   force =   0.00000000E+00  0.00000000E+00  0.00000000E+00
     atom  115 type  1   force =   0.00000000E+00  0.00000000E+00  0.00000000E+00
     atom  116 type  3   force =   0.00000000E+00  0.00000000E+00  0.00000000E+00
     atom  117 type  1   force =   0.00000000E+00  0.00000000E+00  0.00000000E+00
     atom  118 type  3   force =   0.00000000E+00  0.00000000E+00  0.00000000E+00
     atom  119 type  1   force =   0.00000000E+00  0.00000000E+00  0.00000000E+00
     atom  120 type  3   force =   0.00000000E+00  0.00000000E+00  0.00000000E+00
     atom  121 type  1   force =   0.00000000E+00  0.00000000E+00  0.00000000E+00
     atom  122 type  3   force =   0.00000000E+00  0.00000000E+00  0.00000000E+00
     atom  123 type  2   force =   0.00000000E+00  0.00000000E+00  0.00000000E+00
     atom  124 type  3   force =   0.00000000E+00  0.00000000E+00  0.00000000E+00
     atom  125 type  2   force =   0.00000000E+00  0.00000000E+00  0.00000000E+00
     atom  126 type  3   force =   0.00000000E+00  0.00000000E+00  0.00000000E+00
     atom  127 type  1   force =   0.00000000E+00  0.00000000E+00  0.00000000E+00
     atom  128 type  3   force =   0.00000000E+00  0.00000000E+00  0.00000000E+00
     The SCF correction term to forces
     atom    1 type  1   force =   0.44805620E-06  0.18080032E-06 -0.12061820E-06
     atom    2 type  3   force =  -0.88073212E-06  0.10023398E-05 -0.14231395E-05
     atom    3 type  2   force =   0.32060235E-06  0.91616703E-06 -0.19789939E-05
     atom    4 type  3   force =   0.64835972E-06  0.11779735E-07 -0.31513948E-06
     atom    5 type  2   force =   0.17707001E-06  0.89182925E-07 -0.23817291E-05
     atom    6 type  3   force =  -0.66307760E-06  0.20688851E-06 -0.81184406E-07
     atom    7 type  2   force =  -0.70559064E-06 -0.13955557E-05 -0.16889286E-06
     atom    8 type  3   force =  -0.15616713E-05  0.11044471E-05 -0.48431232E-06
     atom    9 type  2   force =  -0.51312738E-06 -0.71840432E-06 -0.16471095E-05
     atom   10 type  3   force =   0.78851870E-06  0.63336548E-06 -0.76722435E-06
     atom   11 type  1   force =   0.33842341E-05  0.27526428E-06 -0.32609511E-05
     atom   12 type  3   force =  -0.39807015E-07  0.67549767E-06 -0.55299595E-06
     atom   13 type  1   force =   0.77511275E-06 -0.23702084E-05 -0.23705184E-05
     atom   14 type  3   force =   0.42304262E-06 -0.18093548E-07  0.80332501E-06
     atom   15 type  2   force =   0.58595838E-07 -0.83277508E-06 -0.21725924E-06
     atom   16 type  3   force =  -0.43084828E-06 -0.21127726E-05  0.85685083E-06
     atom   17 type  1   force =   0.11832080E-05 -0.28896392E-05 -0.11945912E-06
     atom   18 type  3   force =   0.86124942E-06 -0.20832502E-06  0.12587561E-05
     atom   19 type  2   force =   0.22384961E-05 -0.14775290E-07 -0.16827973E-05
     atom   20 type  3   force =   0.12772012E-05  0.35148536E-07  0.33825146E-06
     atom   21 type  2   force =   0.16543740E-05 -0.16573898E-06  0.52937596E-06
     atom   22 type  3   force =   0.45707058E-06 -0.11524171E-05  0.11513972E-06
     atom   23 type  1   force =   0.10771313E-05 -0.27805798E-05  0.20064884E-05
     atom   24 type  3   force =  -0.63891767E-07 -0.13144783E-05  0.82773721E-06
     atom   25 type  1   force =   0.12156333E-07  0.53949687E-07  0.98978308E-06
     atom   26 type  3   force =  -0.50308307E-06  0.31462639E-06  0.68900489E-06
     atom   27 type  2   force =   0.20507915E-05  0.39295072E-06 -0.28106232E-06
     atom   28 type  3   force =  -0.11319352E-06  0.57897018E-06 -0.12773851E-05
     atom   29 type  2   force =   0.16874148E-05  0.38755814E-06 -0.17903228E-06
     atom   30 type  3   force =  -0.62359218E-06 -0.45395944E-06 -0.49402601E-06
     atom   31 type  2   force =  -0.17505635E-05 -0.29483244E-05  0.26351191E-06
     atom   32 type  3   force =  -0.35902384E-07  0.90976428E-06  0.81978536E-06
     atom   33 type  1   force =  -0.24904330E-05  0.12046829E-05 -0.12698389E-05
     atom   34 type  3   force =   0.68070807E-06  0.17219871E-05  0.30177061E-07
     atom   35 type  2   force =  -0.59884258E-06  0.65991891E-06 -0.14627375E-05
     atom   36 type  3   force =  -0.46532394E-06  0.80027394E-06  0.99264195E-06
     atom   37 type  2   force =  -0.24274892E-06  0.95228978E-06  0.17505201E-06
     atom   38 type  3   force =  -0.82269689E-06  0.10096816E-05  0.99358364E-06
     atom   39 type  1   force =  -0.16156402E-05  0.22983024E-05  0.13244236E-05
     atom   40 type  3   force =  -0.25775805E-05 -0.18983149E-06 -0.49116633E-06
     atom   41 type  2   force =  -0.13220887E-05  0.11790070E-05 -0.77449040E-06
     atom   42 type  3   force =  -0.17665528E-06  0.14613839E-05 -0.44166743E-06
     atom   43 type  1   force =  -0.32633601E-06  0.29768667E-05 -0.61764825E-06
     atom   44 type  3   force =  -0.67950842E-06  0.24096484E-05  0.71625829E-06
     atom   45 type  2   force =  -0.92472601E-06  0.16737178E-05  0.14676801E-05
     atom   46 type  3   force =  -0.22300523E-05  0.32036060E-06  0.22053515E-05
     atom   47 type  1   force =  -0.29331195E-05 -0.86136063E-06  0.13010025E-05
     atom   48 type  3   force =  -0.12932898E-05  0.68519447E-07  0.14822373E-05
     atom   49 type  2   force =   0.82076077E-06  0.21481209E-06  0.22446205E-05
     atom   50 type  3   force =   0.75350225E-06 -0.25872218E-06  0.16031909E-05
     atom   51 type  2   force =   0.91481207E-06  0.12706184E-05  0.36772920E-06
     atom   52 type  3   force =  -0.37163525E-06  0.14611952E-05  0.15924847E-06
     atom   53 type  2   force =   0.26785559E-06  0.38829597E-06  0.71701900E-06
     atom   54 type  3   force =  -0.14137513E-05 -0.80058013E-06  0.44884641E-07
     atom   55 type  1   force =  -0.14021167E-05 -0.36123097E-05  0.20415762E-05
     atom   56 type  3   force =   0.10155787E-05 -0.54748631E-06  0.17038668E-05
     atom   57 type  1   force =  -0.93997875E-07  0.78217287E-07  0.29122649E-05
     atom   58 type  3   force =  -0.12668021E-05 -0.65063671E-06 -0.99585332E-06
     atom   59 type  1   force =   0.10852522E-05  0.16196515E-06  0.93758759E-06
     atom   60 type  3   force =  -0.14834026E-06  0.32474839E-06 -0.22126165E-06
     atom   61 type  1   force =   0.30925487E-08 -0.94400379E-06 -0.18763508E-05
     atom   62 type  3   force =   0.58080213E-06  0.78317924E-06  0.53543182E-06
     atom   63 type  2   force =  -0.32264597E-06 -0.18454639E-06  0.16074020E-05
     atom   64 type  3   force =  -0.24738211E-06  0.49932106E-06  0.33675670E-06
     atom   65 type  2   force =  -0.18976408E-05 -0.35025631E-06 -0.35654269E-06
     atom   66 type  3   force =   0.12234076E-05  0.31803061E-06 -0.24087462E-06
     atom   67 type  1   force =   0.19453150E-05  0.12472567E-05  0.33457588E-06
     atom   68 type  3   force =   0.16702559E-05  0.24384332E-06  0.23790571E-06
     atom   69 type  2   force =   0.26066735E-06  0.96099124E-06  0.99947555E-06
     atom   70 type  3   force =  -0.50287063E-06 -0.14097202E-05  0.15147346E-05
     atom   71 type  1   force =  -0.26653542E-05  0.24487246E-06 -0.58396021E-06
     atom   72 type  3   force =  -0.90281083E-06 -0.90134865E-06  0.12317324E-05
     atom   73 type  1   force =  -0.60538598E-06  0.20496410E-05  0.38299313E-06
     atom   74 type  3   force =   0.80595249E-06  0.17223288E-05 -0.26005591E-06
     atom   75 type  1   force =   0.10767181E-05  0.34313066E-05 -0.14720752E-05
     atom   76 type  3   force =   0.11314747E-05  0.15968694E-05 -0.36756818E-06
     atom   77 type  1   force =  -0.88124369E-06  0.78747301E-06  0.33492411E-05
     atom   78 type  3   force =  -0.32587997E-05 -0.17629367E-05  0.65028009E-06
     atom   79 type  1   force =  -0.44342125E-05 -0.70926812E-06  0.40427342E-05
     atom   80 type  3   force =  -0.77478339E-06  0.37294074E-06  0.42104047E-06
     atom   81 type  2   force =   0.48518216E-06 -0.45080333E-06  0.19362154E-05
     atom   82 type  3   force =  -0.22309626E-06  0.34419599E-06 -0.75851092E-06
     atom   83 type  1   force =   0.28814002E-06  0.47968995E-05 -0.49009783E-06
     atom   84 type  3   force =  -0.17519820E-05  0.11545024E-05 -0.23016254E-05
     atom   85 type  1   force =  -0.48710895E-05  0.23732254E-05  0.64607001E-06
     atom   86 type  3   force =  -0.33012082E-07 -0.70468932E-07  0.31022963E-06
     atom   87 type  2   force =  -0.18352037E-05 -0.65422896E-06  0.17051621E-05
     atom   88 type  3   force =   0.95089678E-06 -0.22941596E-06  0.19355336E-05
     atom   89 type  1   force =  -0.10420491E-05 -0.17779529E-05  0.15476997E-05
     atom   90 type  3   force =   0.31252618E-06  0.30552145E-06 -0.69951380E-06
     atom   91 type  1   force =  -0.90938563E-06  0.11580378E-05 -0.16823711E-05
     atom   92 type  3   force =   0.10021196E-05  0.73724223E-07  0.34209022E-06
     atom   93 type  2   force =  -0.19060415E-06  0.65044210E-06  0.22655211E-06
     atom   94 type  3   force =   0.95170419E-06  0.67508444E-06  0.49373115E-06
     atom   95 type  2   force =   0.12831250E-05  0.15611970E-06  0.13396833E-05
     atom   96 type  3   force =  -0.21001053E-05 -0.10637161E-05 -0.78016400E-06
     atom   97 type  2   force =   0.49692056E-06 -0.51572152E-06  0.75390267E-06
     atom   98 type  3   force =   0.29704698E-06 -0.23842954E-06 -0.13771468E-05
     atom   99 type  2   force =   0.16212813E-05  0.11043961E-05 -0.82459297E-06
     atom  100 type  3   force =   0.22460323E-05 -0.78395259E-06 -0.12781396E-05
     atom  101 type  1   force =   0.12633832E-05 -0.48696055E-06 -0.72466647E-06
     atom  102 type  3   force =   0.24786853E-06 -0.20469602E-05 -0.19610966E-06
     atom  103 type  2   force =  -0.16122197E-05 -0.19177219E-05  0.35593038E-06
     atom  104 type  3   force =   0.24809247E-06 -0.15517273E-06 -0.15575480E-06
     atom  105 type  1   force =  -0.16710076E-06  0.87017054E-06 -0.15843040E-06
     atom  106 type  3   force =   0.25812302E-05 -0.63644943E-06 -0.16527363E-05
     atom  107 type  1   force =   0.45843279E-05  0.52819796E-06 -0.23904972E-05
     atom  108 type  3   force =   0.15272941E-05 -0.11749348E-05 -0.35251137E-05
     atom  109 type  1   force =   0.27950692E-05 -0.34175898E-05  0.14145224E-06
     atom  110 type  3   force =  -0.43291695E-06 -0.14513552E-05 -0.74543896E-06
     atom  111 type  2   force =  -0.17397886E-05 -0.23523629E-05 -0.87656529E-07
     atom  112 type  3   force =   0.10290596E-05 -0.14783316E-05  0.26579337E-06
     atom  113 type  1   force =   0.93481794E-06 -0.19117297E-05  0.27899479E-06
     atom  114 type  3   force =   0.37550324E-06 -0.46863433E-06 -0.14952918E-05
     atom  115 type  1   force =   0.26744117E-05  0.16091879E-05 -0.50387163E-05
     atom  116 type  3   force =   0.80283594E-06 -0.22567633E-06 -0.64513270E-06
     atom  117 type  1   force =  -0.27751450E-05 -0.24796573E-05 -0.36273484E-05
     atom  118 type  3   force =   0.17247229E-05  0.61715795E-06  0.72415554E-06
     atom  119 type  1   force =   0.15295616E-05  0.63791744E-06  0.11916244E-05
     atom  120 type  3   force =  -0.55163538E-06 -0.22180507E-05 -0.14506943E-06
     atom  121 type  1   force =  -0.20854111E-05 -0.23164162E-05 -0.12305527E-05
     atom  122 type  3   force =   0.74420626E-06  0.76747514E-06  0.42413160E-06
     atom  123 type  2   force =   0.14449408E-05  0.12326757E-05 -0.14020347E-05
     atom  124 type  3   force =   0.87078677E-06  0.49671047E-06 -0.40006985E-06
     atom  125 type  2   force =   0.15174371E-05  0.68050432E-07  0.12435107E-05
     atom  126 type  3   force =  -0.48291973E-06 -0.43229185E-06 -0.90401535E-06
     atom  127 type  1   force =   0.55480275E-06 -0.93636217E-06  0.33169704E-06
     atom  128 type  3   force =  -0.82280198E-06 -0.10606261E-05  0.19211064E-06

     Total force =     0.464288     Total SCF correction =     0.000027


     entering subroutine stress ...

          total   stress  (Ry/bohr**3)                   (kbar)     P=   17.83
   0.0001181855   0.0000171261  -0.0000135755         17.39      2.52     -2.00
   0.0000171261   0.0000735947   0.0000045802          2.52     10.83      0.67
  -0.0000135755   0.0000045802   0.0001717355         -2.00      0.67     25.26

     kinetic stress (kbar)  21100.77      2.97     -1.29
                                2.97  21091.01      0.11
                               -1.29      0.11  21112.54

     local   stress (kbar)  -3231.37     29.45    -24.71
                               29.45  -2976.07      6.55
                              -24.71      6.55  -3557.45

     nonloc. stress (kbar)   5351.92     -0.16      0.15
                               -0.16   5352.05     -0.03
                                0.15     -0.03   5351.79

     hartree stress (kbar)  11408.65    -13.96      8.60
                              -13.96  11320.70     -1.20
                                8.60     -1.20  11526.22

     exc-cor stress (kbar)  -5474.23     -0.03      0.03
                               -0.03  -5474.49     -0.01
                                0.03     -0.01  -5473.97

     corecor stress (kbar)  -1015.34     -0.01      0.00
                               -0.01  -1015.30      0.00
                                0.00      0.00  -1015.38

     ewald   stress (kbar) -28123.02    -15.74     15.23
                              -15.74 -28287.07     -4.75
                               15.23     -4.75 -27918.49

     hubbard stress (kbar)      0.00      0.00      0.00
                                0.00      0.00      0.00
                                0.00      0.00      0.00

     london  stress (kbar)      0.00      0.00      0.00
                                0.00      0.00      0.00
                                0.00      0.00      0.00

     XDM     stress (kbar)      0.00      0.00      0.00
                                0.00      0.00      0.00
                                0.00      0.00      0.00

     dft-nl  stress (kbar)      0.00      0.00      0.00
                                0.00      0.00      0.00
                                0.00      0.00      0.00



     Writing output data file mix_rocksalt.relax.in.up_1.00.super.444.a.099.save

     init_run     :    938.17s CPU    671.39s WALL (       1 calls)
     electrons    :  72893.15s CPU  55207.21s WALL (       1 calls)
     forces       :    940.52s CPU    668.07s WALL (       1 calls)
     stress       :   2937.75s CPU   2879.21s WALL (       1 calls)

     Called by init_run:
     wfcinit      :    892.38s CPU    625.55s WALL (       1 calls)
     potinit      :      7.29s CPU      7.30s WALL (       1 calls)

     Called by electrons:
     c_bands      :  64409.26s CPU  48243.62s WALL (      27 calls)
     sum_band     :   7621.07s CPU   6086.65s WALL (      27 calls)
     v_of_rho     :     21.77s CPU     22.71s WALL (      28 calls)
     v_h          :      1.38s CPU      1.54s WALL (      28 calls)
     v_xc         :     21.86s CPU     22.66s WALL (      30 calls)
     newd         :    832.41s CPU    844.14s WALL (      28 calls)
     mix_rho      :     30.05s CPU     31.34s WALL (      27 calls)

     Called by c_bands:
     init_us_2    :     75.17s CPU     77.70s WALL (     456 calls)
     cegterg      :  63860.23s CPU  47672.77s WALL (     216 calls)

     Called by sum_band:
     sum_band:bec :     23.93s CPU     24.30s WALL (     216 calls)
     addusdens    :    637.67s CPU    651.36s WALL (      27 calls)

     Called by *egterg:
     h_psi        :  27567.89s CPU  21018.14s WALL (     833 calls)
     s_psi        :   8163.68s CPU   4805.87s WALL (     833 calls)
     g_psi        :     13.72s CPU     16.55s WALL (     609 calls)
     cdiaghg      :  13474.33s CPU  12248.43s WALL (     825 calls)
     cegterg:over :   6694.38s CPU   4330.84s WALL (     609 calls)
     cegterg:upda :   3052.38s CPU   1845.38s WALL (     609 calls)
     cegterg:last :   2356.46s CPU   1382.36s WALL (     216 calls)

     Called by h_psi:
     h_psi:vloc   :  10349.89s CPU  10571.24s WALL (     833 calls)
     h_psi:vnl    :  17191.76s CPU  10419.70s WALL (     833 calls)
     add_vuspsi   :   7996.49s CPU   4725.23s WALL (     833 calls)

     General routines
     calbec       :  14895.18s CPU   9644.61s WALL (    1065 calls)
     fft          :    182.73s CPU    184.07s WALL (     469 calls)
     ffts         :     16.40s CPU     17.02s WALL (     731 calls)
     fftw         :  11600.06s CPU  11865.46s WALL (  725948 calls)
     interpolate  :      4.53s CPU      4.62s WALL (      55 calls)

     Parallel routines
     fft_scatter  :   7221.82s CPU   7411.46s WALL (  727148 calls)

     PWSCF        :    21h35m CPU       16h30m WALL


   This run was terminated on:  12:25: 9   4Nov2017            

=------------------------------------------------------------------------------=
   JOB DONE.
=------------------------------------------------------------------------------=
