
     Program PWSCF v.5.1 starts on  3Nov2017 at 19:52:30 

     This program is part of the open-source Quantum ESPRESSO suite
     for quantum simulation of materials; please cite
         "P. Giannozzi et al., J. Phys.:Condens. Matter 21 395502 (2009);
          URL http://www.quantum-espresso.org", 
     in publications or presentations arising from this work. More details at
     http://www.quantum-espresso.org/quote

     Parallel version (MPI), running on     8 processors
     R & G space division:  proc/nbgrp/npool/nimage =       8
     Reading input from /tmp/mix_rocksalt.relax.in.up_1.00.super.444.a.04.29572/mix_rocksalt.relax.in.up_1.00.super.444.a.04.t
Warning: card &IONS ignored
Warning: card   ION_DYNAMICS='BFGS', ignored
Warning: card / ignored
Warning: card &CELL ignored
Warning: card  CELL_DYNAMICS = 'BFGS' ignored
Warning: card / ignored
     Message from routine read_cards :
     DEPRECATED: no units specified in CELL_PARAMETERS card

     Current dimensions of program PWSCF are:
     Max number of different atomic species (ntypx) = 10
     Max number of k-points (npk) =  40000
     Max angular momentum in pseudopotentials (lmaxx) =  3
 kfg - two_fermi_energies  F

     Subspace diagonalization in iterative solution of the eigenvalue problem:
     a serial algorithm will be used


     Parallelization info
     --------------------
     sticks:   dense  smooth     PW     G-vecs:    dense   smooth      PW
     Min        1000     799    209                58922    42155    5729
     Max        1001     800    210                58925    42189    5733
     Sum        8005    6397   1675               471387   337379   45843



     bravais-lattice index     =            0
     lattice parameter (alat)  =    24.083266038  a.u.
     unit-cell volume          =    9869.5374 (a.u.)^3
     number of atoms/cell      =          128
     number of atomic types    =            3
     number of electrons       =      1024.00
     number of Kohn-Sham states=          614
     kinetic-energy cutoff     =      40.0000  Ry
     charge density cutoff     =     200.0000  Ry
     convergence threshold     =      1.0E-10
     mixing beta               =       0.3000
     number of iterations used =            8  local-TF  mixing
     Exchange-correlation      = SLA  PW   PSX  PSC ( 1  4 10  8 0)
     A smooth kinetic-energy cutoff is imposed at      39.5000 Ry
     height of the smooth step-function =             800.0000 Ry
     width of the smooth step-function  =               1.0000 Ry


     celldm(1)=  24.083266  celldm(2)=   0.000000  celldm(3)=   0.000000
     celldm(4)=   0.000000  celldm(5)=   0.000000  celldm(6)=   0.000000

     crystal axes: (cart. coord. in units of alat)
               a(1) = (   0.000227644586   0.708117763130   0.706094315030 )  
               a(2) = (   0.706153805437  -0.001282841600   0.706942787092 )  
               a(3) = (   0.704947728527   0.708609819829   0.000357242856 )  

     reciprocal axes: (cart. coord. in units 2 pi/alat)
               b(1) = ( -0.708992  0.704970  0.709480 )  
               b(2) = (  0.707782 -0.704480  0.706271 )  
               b(3) = (  0.709781  0.705458 -0.707708 )  


     PseudoPot. # 1 for Mg read from file:
     /users/kfg/psuedo/gbrv_1.5/mg.pbesol.UPF
     MD5 check sum: 4059f37963cf5867752dbf5ab2400678
     Pseudo is Ultrasoft, Zval = 10.0
     Generated by new atomic code, or converted to UPF format
     Using radial grid of  821 points,  7 beta functions with: 
                l(1) =   0
                l(2) =   0
                l(3) =   0
                l(4) =   1
                l(5) =   1
                l(6) =   2
                l(7) =   2
     Q(r) pseudized with  8 coefficients,  rinner =    1.200   1.200   1.200
                                                       1.200   1.200

     PseudoPot. # 2 for Ca read from file:
     /users/kfg/psuedo/gbrv_1.5/ca.pbesol.UPF
     MD5 check sum: 0533207b58cddeaa036efa5b63902087
     Pseudo is Ultrasoft + core correction, Zval = 10.0
     Generated by new atomic code, or converted to UPF format
     Using radial grid of  845 points,  6 beta functions with: 
                l(1) =   0
                l(2) =   0
                l(3) =   1
                l(4) =   1
                l(5) =   2
                l(6) =   2
     Q(r) pseudized with  8 coefficients,  rinner =    1.500   1.500   1.500
                                                       1.500   1.500

     PseudoPot. # 3 for O  read from file:
     /users/kfg/psuedo/gbrv_1.5/o.pbesol.UPF
     MD5 check sum: 501638753501ef6325af9037351f7734
     Pseudo is Ultrasoft + core correction, Zval =  6.0
     Generated by new atomic code, or converted to UPF format
     Using radial grid of  737 points,  5 beta functions with: 
                l(1) =   0
                l(2) =   0
                l(3) =   1
                l(4) =   1
                l(5) =   2
     Q(r) pseudized with  8 coefficients,  rinner =    0.900   0.900   0.900
                                                       0.900   0.900

     atomic species   valence    mass     pseudopotential
        Mg            10.00    24.30500     Mg( 1.00)
        Ca            10.00    24.30500     Ca( 1.00)
        O              6.00    15.99940     O ( 1.00)

     No symmetry found


                                    s                        frac. trans.

      isym =  1     identity                                     

 cryst.   s( 1) = (     1          0          0      )
                  (     0          1          0      )
                  (     0          0          1      )

 cart.    s( 1) = (  1.0000000 -0.0000000  0.0000000 )
                  ( -0.0000000  1.0000000  0.0000000 )
                  ( -0.0000000  0.0000000  1.0000000 )


     point group C_1 (1)    
     there are  1 classes
     the character table:

       E    
A      1.00

     the symmetry operations in each class:
     E        1

   Cartesian axes

     site n.     atom                  positions (alat units)
         1           Ca  tau(   1) = (    0.00071148583    0.00032079972    0.00183476387  )
         2           O   tau(   2) = (    0.17727750361    0.17774207633    0.17825992821  )
         3           Ca  tau(   3) = (    0.17636381187    0.17660747752    0.00176740249  )
         4           O   tau(   4) = (    0.35343118004    0.35285547044    0.17622884796  )
         5           Ca  tau(   5) = (    0.35193783140    0.35598793396    0.00085120377  )
         6           O   tau(   6) = (    0.53003923804    0.53090509764    0.17805470763  )
         7           Mg  tau(   7) = (    0.52685691754    0.53274835324    0.00072379359  )
         8           O   tau(   8) = (    0.70641892137    0.70993573175    0.17841113069  )
         9           Mg  tau(   9) = (    0.17550200572   -0.00035177934    0.17814328117  )
        10           O   tau(  10) = (    0.35408418408    0.17789288950    0.35271503603  )
        11           Ca  tau(  11) = (    0.35439661478    0.17575932226    0.17485738208  )
        12           O   tau(  12) = (    0.53009780885    0.35536532374    0.35157642750  )
        13           Ca  tau(  13) = (    0.52757626770    0.35556841777    0.17714542496  )
        14           O   tau(  14) = (    0.70697951049    0.53208354642    0.35504785521  )
        15           Mg  tau(  15) = (    0.70625942272    0.53142566335    0.17786343281  )
        16           O   tau(  16) = (    0.87994234375    0.70858779548    0.35320760249  )
        17           Ca  tau(  17) = (    0.35506418578   -0.00156830342    0.35227522895  )
        18           O   tau(  18) = (    0.52906388858    0.17829137763    0.53007969752  )
        19           Ca  tau(  19) = (    0.52799876479    0.17637460242    0.35412856961  )
        20           O   tau(  20) = (    0.70652126140    0.35160898440    0.53102665664  )
        21           Ca  tau(  21) = (    0.70581288128    0.35264505620    0.35361729422  )
        22           O   tau(  22) = (    0.88078872160    0.53047258171    0.53137344467  )
        23           Mg  tau(  23) = (    0.87971794033    0.53219247820    0.35379674616  )
        24           O   tau(  24) = (    1.05845005484    0.70696503234    0.52996136602  )
        25           Mg  tau(  25) = (    0.52888834055   -0.00009797266    0.53088803086  )
        26           O   tau(  26) = (    0.70734672106    0.17659807075    0.70635934208  )
        27           Mg  tau(  27) = (    0.70516930439    0.17793171190    0.52825653928  )
        28           O   tau(  28) = (    0.88316293728    0.35366168363    0.70775796983  )
        29           Mg  tau(  29) = (    0.88377477089    0.35267338277    0.53091118764  )
        30           O   tau(  30) = (    1.05775706380    0.53107224544    0.70686193436  )
        31           Mg  tau(  31) = (    1.05648403513    0.52954508188    0.52874399213  )
        32           O   tau(  32) = (    1.23513003114    0.70681209432    0.70573794696  )
        33           Ca  tau(  33) = (    0.00199697114    0.17530968901    0.17521608308  )
        34           O   tau(  34) = (    0.17607889652    0.35387661883    0.35448062582  )
        35           Ca  tau(  35) = (    0.17731211235    0.35211871380    0.17713971713  )
        36           O   tau(  36) = (    0.35433024296    0.52912517081    0.35150854350  )
        37           Ca  tau(  37) = (    0.35251766627    0.53144415689    0.17752159275  )
        38           O   tau(  38) = (    0.53052905934    0.70684121477    0.35474847533  )
        39           Ca  tau(  39) = (    0.53012360231    0.70834750410    0.17858999861  )
        40           O   tau(  40) = (    0.70458367938    0.88497805170    0.35384373621  )
        41           Ca  tau(  41) = (    0.17508016861    0.17512250386    0.35461432107  )
        42           O   tau(  42) = (    0.35362839117    0.35440191474    0.53106823272  )
        43           Mg  tau(  43) = (    0.35103439377    0.35236578612    0.35405800552  )
        44           O   tau(  44) = (    0.53001416902    0.52963962768    0.52941014168  )
        45           Ca  tau(  45) = (    0.52808900559    0.53247594711    0.35250644385  )
        46           O   tau(  46) = (    0.70525561857    0.70726247239    0.53135457265  )
        47           Mg  tau(  47) = (    0.70696662777    0.70802816277    0.35202180159  )
        48           O   tau(  48) = (    0.88148790842    0.88636400209    0.53066878314  )
        49           Ca  tau(  49) = (    0.35351656883    0.17662009769    0.52900621477  )
        50           O   tau(  50) = (    0.52910392523    0.35428509892    0.70817749958  )
        51           Mg  tau(  51) = (    0.52998584831    0.35347179395    0.53113732170  )
        52           O   tau(  52) = (    0.70594957315    0.53162718925    0.70605199386  )
        53           Mg  tau(  53) = (    0.70370576091    0.53217175492    0.52965331094  )
        54           O   tau(  54) = (    0.88139784565    0.70878850544    0.70503407044  )
        55           Mg  tau(  55) = (    0.88060467073    0.70850733014    0.52882767622  )
        56           O   tau(  56) = (    1.05918855223    0.88369095037    0.70493221630  )
        57           Ca  tau(  57) = (    0.53022837655    0.17514458780    0.70690243032  )
        58           O   tau(  58) = (    0.70607935060    0.35206779801    0.88317279136  )
        59           Ca  tau(  59) = (    0.70771773572    0.35197539174    0.70545802143  )
        60           O   tau(  60) = (    0.88198201637    0.52966241662    0.88262131613  )
        61           Mg  tau(  61) = (    0.88044808690    0.53048714014    0.70634633820  )
        62           O   tau(  62) = (    1.05775064485    0.70560498967    0.88259932128  )
        63           Mg  tau(  63) = (    1.05826114338    0.70714908922    0.70906717385  )
        64           O   tau(  64) = (    1.23435890340    0.88399390229    0.88399430557  )
        65           Ca  tau(  65) = (   -0.00114921761    0.35366013053    0.35277233921  )
        66           O   tau(  66) = (    0.17830865854    0.53184867290    0.53134020825  )
        67           Ca  tau(  67) = (    0.17561025208    0.52921130049    0.35201985185  )
        68           O   tau(  68) = (    0.35333641949    0.70861184422    0.53168021708  )
        69           Mg  tau(  69) = (    0.35352233849    0.71043490582    0.35371023610  )
        70           O   tau(  70) = (    0.53065346506    0.88378579005    0.53116961482  )
        71           Ca  tau(  71) = (    0.53080023143    0.88671582882    0.35153904917  )
        72           O   tau(  72) = (    0.70498276649    1.06374799729    0.52905319883  )
        73           Ca  tau(  73) = (    0.17745773226    0.35306391940    0.52785780014  )
        74           O   tau(  74) = (    0.35122037200    0.52994967167    0.70755730139  )
        75           Mg  tau(  75) = (    0.35253882080    0.53176214537    0.53154463039  )
        76           O   tau(  76) = (    0.52941836093    0.70930783149    0.70608913679  )
        77           Ca  tau(  77) = (    0.52991881370    0.70640995445    0.53112314584  )
        78           O   tau(  78) = (    0.70603301398    0.88361656870    0.70839156824  )
        79           Ca  tau(  79) = (    0.70416274368    0.88451115234    0.52919213686  )
        80           O   tau(  80) = (    0.88304230207    1.06027902715    0.70827545902  )
        81           Mg  tau(  81) = (    0.35125224104    0.35208371204    0.70760524949  )
        82           O   tau(  82) = (    0.53166510680    0.53135170697    0.88523824337  )
        83           Mg  tau(  83) = (    0.52973054810    0.52940863378    0.70634555117  )
        84           O   tau(  84) = (    0.70761339846    0.70949126270    0.88319041659  )
        85           Ca  tau(  85) = (    0.70598343400    0.70693588469    0.70517222792  )
        86           O   tau(  86) = (    0.88228765177    0.88587933464    0.88209555032  )
        87           Ca  tau(  87) = (    0.88135720989    0.88628569063    0.70634212358  )
        88           O   tau(  88) = (    1.05782290131    1.06229751819    0.88544873923  )
        89           Mg  tau(  89) = (    0.53069996962    0.35511802702    0.88324376945  )
        90           O   tau(  90) = (    0.70533292057    0.52795162111    1.06105280798  )
        91           Mg  tau(  91) = (    0.70557270648    0.52950024637    0.88479970375  )
        92           O   tau(  92) = (    0.88193015272    0.70650465997    1.05904397790  )
        93           Mg  tau(  93) = (    0.88382417837    0.70683065258    0.88543320259  )
        94           O   tau(  94) = (    1.05781251795    0.88522163788    1.06114937554  )
        95           Mg  tau(  95) = (    1.06008899583    0.88530373210    0.88311067042  )
        96           O   tau(  96) = (    1.23667418992    1.06068467777    1.05877497774  )
        97           Ca  tau(  97) = (   -0.00136118933    0.53227916735    0.52925489063  )
        98           O   tau(  98) = (    0.17841216076    0.71007755371    0.70739414541  )
        99           Mg  tau(  99) = (    0.17571917794    0.70752847683    0.53162053069  )
       100           O   tau( 100) = (    0.35201770961    0.88698571116    0.70824358034  )
       101           Ca  tau( 101) = (    0.35232224292    0.88411981631    0.52969471970  )
       102           O   tau( 102) = (    0.52756830067    1.06423312918    0.70671711554  )
       103           Mg  tau( 103) = (    0.53089360061    1.06268315110    0.53052873079  )
       104           O   tau( 104) = (    0.70673620647    1.24108323146    0.70673017552  )
       105           Ca  tau( 105) = (    0.17722514866    0.53250718091    0.70807664946  )
       106           O   tau( 106) = (    0.35282691995    0.70864016262    0.88325041672  )
       107           Ca  tau( 107) = (    0.35181413366    0.70955439474    0.70664127792  )
       108           O   tau( 108) = (    0.53108364254    0.88482569293    0.88371572621  )
       109           Mg  tau( 109) = (    0.53101226252    0.88453794238    0.70620478906  )
       110           O   tau( 110) = (    0.70495240462    1.06270364307    0.88246971331  )
       111           Ca  tau( 111) = (    0.70634302045    1.06349819012    0.70486069210  )
       112           O   tau( 112) = (    0.88120473987    1.23723597947    0.88443626569  )
       113           Ca  tau( 113) = (    0.35230827424    0.53205514410    0.88503429310  )
       114           O   tau( 114) = (    0.53071986443    0.70537112224    1.05846775817  )
       115           Mg  tau( 115) = (    0.53116512961    0.70933843708    0.88437765277  )
       116           O   tau( 116) = (    0.70571647373    0.88327705260    1.05993921952  )
       117           Mg  tau( 117) = (    0.70400463432    0.88355946763    0.88224102655  )
       118           O   tau( 118) = (    0.88308973415    1.06348454337    1.06063112351  )
       119           Ca  tau( 119) = (    0.88284198933    1.06327295401    0.88485413867  )
       120           O   tau( 120) = (    1.05839726297    1.23841097297    1.05910213360  )
       121           Ca  tau( 121) = (    0.52809397541    0.52924520821    1.06131589281  )
       122           O   tau( 122) = (    0.70624421744    0.70877193902    1.23841279646  )
       123           Ca  tau( 123) = (    0.70685387683    0.70563332562    1.05929781504  )
       124           O   tau( 124) = (    0.88195669805    0.88348855969    1.23581085412  )
       125           Ca  tau( 125) = (    0.88422732491    0.88292654398    1.06136761017  )
       126           O   tau( 126) = (    1.05790528995    1.06229478514    1.23849067261  )
       127           Ca  tau( 127) = (    1.05740092522    1.06327905374    1.05947443845  )
       128           O   tau( 128) = (    1.23628504616    1.23836749327    1.23468613729  )

   Crystallographic axes

     site n.     atom                  positions (cryst. coord.)
         1           Ca  tau(   1) = (    0.00102344440    0.00157342042   -0.00056716824  )
         2           O   tau(   2) = (    0.12608635311    0.12615786640    0.12506167440  )
         3           Ca  tau(   3) = (    0.00071642269    0.00165891674    0.24851799831  )
         4           O   tau(   4) = (    0.12320352954    0.12603784718    0.37506472794  )
         5           Ca  tau(   5) = (    0.00204370789   -0.00109002650    0.50033084476  )
         6           O   tau(   6) = (    0.12480493019    0.12689495741    0.62473209287  )
         7           Mg  tau(   7) = (    0.00254791736   -0.00189965661    0.74927227352  )
         8           O   tau(   8) = (    0.12621729154    0.12586150747    0.87596935380  )
         9           Mg  tau(   9) = (    0.00171158136    0.25028244583   -0.00175372644  )
        10           O   tau(  10) = (    0.12461055919    0.37440482116    0.12719869048  )
        11           Ca  tau(  11) = (   -0.00330145553    0.25051330222    0.25178667506  )
        12           O   tau(  12) = (    0.12412327423    0.37315410528    0.37813493202  )
        13           Ca  tau(  13) = (    0.00229893805    0.24803076423    0.49993476405  )
        14           O   tau(  14) = (    0.12575956074    0.37630506099    0.62589269151  )
        15           Mg  tau(  15) = (    0.00009755032    0.25111863729    0.75031239590  )
        16           O   tau(  16) = (    0.12625491795    0.37308156587    0.87447708542  )
        17           Ca  tau(  17) = (   -0.00291104630    0.50121471770    0.00160319435  )
        18           O   tau(  18) = (    0.12666894898    0.62323912626    0.12615456263  )
        19           Ca  tau(  19) = (    0.00123908251    0.49956639722    0.24856845858  )
        20           O   tau(  20) = (    0.12370869781    0.62741023997    0.37370851853  )
        21           Ca  tau(  21) = (   -0.00092701625    0.50087987612    0.49949073878  )
        22           O   tau(  22) = (    0.12649401615    0.62499266543    0.62333554543  )
        23           Mg  tau(  23) = (    0.00247859584    0.49760587481    0.74946137510  )
        24           O   tau(  24) = (    0.12395363891    0.62540540340    0.87494349858  )
        25           Mg  tau(  25) = (    0.00160776597    0.74935757863   -0.00038830005  )
        26           O   tau(  26) = (    0.12414099799    0.87511863891    0.12674713364  )
        27           Mg  tau(  27) = (    0.00026461428    0.74684912860    0.25218733632  )
        28           O   tau(  28) = (    0.12530558502    0.87580818389    0.37545922845  )
        29           Mg  tau(  29) = (   -0.00129413242    0.75203570872    0.50035225831  )
        30           O   tau(  30) = (    0.12595319508    0.87376768274    0.62517261801  )
        31           Mg  tau(  31) = (   -0.00059191489    0.74814297040    0.74924727458  )
        32           O   tau(  32) = (    0.12329110014    0.87470998416    0.87584108104  )
        33           Ca  tau(  33) = (    0.24648449834    0.00166122491    0.00108913038  )
        34           O   tau(  34) = (    0.37613074070    0.12568575512    0.12375357009  )
        35           Ca  tau(  35) = (    0.24819734779    0.00254626700    0.24889441917  )
        36           O   tau(  36) = (    0.37118834673    0.12629061071    0.37600681280  )
        37           Ca  tau(  37) = (    0.25066804677    0.00049207851    0.49948826798  )
        38           O   tau(  38) = (    0.37384798569    0.12809178807    0.62414762609  )
        39           Ca  tau(  39) = (    0.25021646898    0.00232803308    0.74959131164  )
        40           O   tau(  40) = (    0.37538392851    0.12515164015    0.87399660057  )
        41           Ca  tau(  41) = (    0.25091739522    0.25100206770   -0.00315344893  )
        42           O   tau(  42) = (    0.37590526165    0.37570076706    0.12517281557  )
        43           Mg  tau(  43) = (    0.25072380389    0.25028199958    0.24716688113  )
        44           O   tau(  44) = (    0.37321014943    0.37592087639    0.37516434431  )
        45           Ca  tau(  45) = (    0.25106500406    0.24761819212    0.50099505118  )
        46           O   tau(  46) = (    0.37556371928    0.37619512891    0.62347672581  )
        47           Mg  tau(  47) = (    0.24765744788    0.25020919625    0.75214665195  )
        48           O   tau(  48) = (    0.37639113194    0.37427132743    0.87539696621  )
        49           Ca  tau(  49) = (    0.24919073426    0.49940908214    0.00113514529  )
        50           O   tau(  50) = (    0.37706764123    0.62506865518    0.12429783764  )
        51           Mg  tau(  51) = (    0.25026258911    0.50122747355    0.24964289184  )
        52           O   tau(  52) = (    0.37519838660    0.62380163827    0.37643111657  )
        53           Mg  tau(  53) = (    0.25202184080    0.49724459306    0.50006151325  )
        54           O   tau(  54) = (    0.37497822649    0.62245518910    0.62666119133  )
        55           Mg  tau(  55) = (    0.25032749312    0.49764240536    0.75060261255  )
        56           O   tau(  56) = (    0.37215479605    0.62500499666    0.87631203194  )
        57           Ca  tau(  57) = (    0.24907709159    0.75116495506   -0.00037778124  )
        58           O   tau(  58) = (    0.37418600874    0.87548485078    0.12450172778  )
        59           Ca  tau(  59) = (    0.24687423385    0.75119477566    0.25136968246  )
        60           O   tau(  60) = (    0.37428008830    0.87448419885    0.37502988949  )
        61           Mg  tau(  61) = (    0.25088551054    0.74831959954    0.49927423982  )
        62           O   tau(  62) = (    0.37368021223    0.87492646808    0.62392274755  )
        63           Mg  tau(  63) = (    0.25128927308    0.75163927380    0.74818455878  )
        64           O   tau(  64) = (    0.37521495938    0.87524038553    0.87413454062  )
        65           Ca  tau(  65) = (    0.50041939934   -0.00080714101   -0.00098329231  )
        66           O   tau(  66) = (    0.62549310924    0.12679691725    0.12572299931  )
        67           Ca  tau(  67) = (    0.49832282794    0.00009623803    0.24885370310  )
        68           O   tau(  68) = (    0.62625383359    0.12639239099    0.37441270840  )
        69           Mg  tau(  69) = (    0.50114112552   -0.00045537145    0.50178162776  )
        70           O   tau(  70) = (    0.62366762638    0.12812699573    0.62420816052  )
        71           Ca  tau(  71) = (    0.49818491171   -0.00070114479    0.75350542586  )
        72           O   tau(  72) = (    0.62543599347    0.12323955252    0.87639733470  )
        73           Ca  tau(  73) = (    0.49758782229    0.24968547640    0.00145841986  )
        74           O   tau(  74) = (    0.62658385004    0.37497557715    0.12240241274  )
        75           Mg  tau(  75) = (    0.50204939532    0.25031924939    0.24918250578  )
        76           O   tau(  76) = (    0.62564343552    0.37370970262    0.37645260381  )
        77           Ca  tau(  77) = (    0.49911087554    0.25253200141    0.49858839996  )
        78           O   tau(  78) = (    0.62494106312    0.37754345319    0.62314833507  )
        79           Ca  tau(  79) = (    0.49975935704    0.24902612601    0.74927290104  )
        80           O   tau(  80) = (    0.62390229500    0.37829022374    0.87349624394  )
        81           Mg  tau(  81) = (    0.50120510683    0.50033507910   -0.00308586807  )
        82           O   tau(  82) = (    0.62569944367    0.62719433355    0.12572138434  )
        83           Mg  tau(  83) = (    0.49878047981    0.50084721879    0.24958138996  )
        84           O   tau(  84) = (    0.62508370805    0.62478524755    0.37772534136  )
        85           Ca  tau(  85) = (    0.49813757541    0.49970271239    0.50075069321  )
        86           O   tau(  86) = (    0.62481261777    0.62338135434    0.62691499394  )
        87           Ca  tau(  87) = (    0.50106526573    0.49830698097    0.75092344125  )
        88           O   tau(  88) = (    0.62710812109    0.62570717835    0.87358908121  )
        89           Mg  tau(  89) = (    0.50072922081    0.74925575977    0.00212239185  )
        90           O   tau(  90) = (    0.62491031010    0.87668133820    0.12216338390  )
        91           Mg  tau(  91) = (    0.50078403072    0.75127761714    0.24816188540  )
        92           O   tau(  92) = (    0.62415364160    0.87446781217    0.37489204311  )
        93           Mg  tau(  93) = (    0.49986727939    0.75296245355    0.49933217758  )
        94           O   tau(  94) = (    0.62693834121    0.87453858409    0.62431728178  )
        95           Mg  tau(  95) = (    0.49906735596    0.75034842141    0.75199049690  )
        96           O   tau(  96) = (    0.62213848407    0.87584644192    0.87673204765  )
        97           Ca  tau(  97) = (    0.75170154453   -0.00214626716   -0.00002371153  )
        98           O   tau(  98) = (    0.87597244460    0.12565321735    0.12693459267  )
        99           Mg  tau(  99) = (    0.75137690507    0.00139913531    0.24762137569  )
       100           O   tau( 100) = (    0.87820514396    0.12449972776    0.37435659943  )
       101           Ca  tau( 101) = (    0.74929206228    0.00063035038    0.49891152505  )
       102           O   tau( 102) = (    0.87761234023    0.12280587275    0.62507993822  )
       103           Mg  tau( 103) = (    0.74915995160    0.00181463822    0.75103674116  )
       104           O   tau( 104) = (    0.87526705616    0.12503951143    0.87700095314  )
       105           Ca  tau( 105) = (    0.75211646251    0.25038995034    0.00034061694  )
       106           O   tau( 106) = (    0.87606696388    0.37431567288    0.12526184232  )
       107           Ca  tau( 107) = (    0.75212892042    0.24822086421    0.25017572311  )
       108           O   tau( 108) = (    0.87422005975    0.37669198099    0.37574722849  )
       109           Mg  tau( 109) = (    0.74812739762    0.25147334204    0.50111956337  )
       110           O   tau( 110) = (    0.87546314007    0.37356163501    0.62552317315  )
       111           Ca  tau( 111) = (    0.74902733363    0.24854603924    0.75276613502  )
       112           O   tau( 112) = (    0.87493697934    0.37674420061    0.87235718250  )
       113           Ca  tau( 113) = (    0.75321316211    0.49960916827   -0.00094206427  )
       114           O   tau( 114) = (    0.87195091289    0.62627902920    0.12521786540  )
       115           Mg  tau( 115) = (    0.75091865787    0.50084448673    0.25153772349  )
       116           O   tau( 116) = (    0.87434207699    0.62584651516    0.37389089364  )
       117           Mg  tau( 117) = (    0.74968158243    0.49893286452    0.49863361241  )
       118           O   tau( 118) = (    0.87611766594    0.62492416937    0.62642617676  )
       119           Ca  tau( 119) = (    0.75143394038    0.50075168878    0.75049992707  )
       120           O   tau( 120) = (    0.87405917260    0.62469158667    0.87534142179  )
       121           Ca  tau( 121) = (    0.75166985380    0.75050928008   -0.00291102762  )
       122           O   tau( 122) = (    0.87757042810    0.87520619050    0.12485218088  )
       123           Ca  tau( 123) = (    0.74784710490    0.75134506608    0.24983193611  )
       124           O   tau( 124) = (    0.87431568026    0.87465023652    0.37466617904  )
       125           Ca  tau( 125) = (    0.74854567203    0.75344906548    0.49933631035  )
       126           O   tau( 126) = (    0.87752388248    0.87511070616    0.62379486204  )
       127           Ca  tau( 127) = (    0.75156696054    0.74762634814    0.75082254027  )
       128           O   tau( 128) = (    0.87248084388    0.87463790861    0.87730978915  )

     number of k points=     8  gaussian smearing, width (Ry)=  0.0050
                       cart. coord. in units 2pi/alat
        k(    1) = (   0.0000000   0.0000000   0.0000000), wk =   0.2500000
        k(    2) = (  -0.3548904  -0.3527290   0.3538542), wk =   0.2500000
        k(    3) = (  -0.3538911   0.3522402  -0.3531355), wk =   0.2500000
        k(    4) = (  -0.7087815  -0.0004888   0.0007187), wk =   0.2500000
        k(    5) = (   0.3544959  -0.3524850  -0.3547399), wk =   0.2500000
        k(    6) = (  -0.0003945  -0.7052140  -0.0008856), wk =   0.2500000
        k(    7) = (   0.0006048  -0.0002448  -0.7078754), wk =   0.2500000
        k(    8) = (  -0.3542856  -0.3529738  -0.3540211), wk =   0.2500000

                       cryst. coord.
        k(    1) = (   0.0000000   0.0000000   0.0000000), wk =   0.2500000
        k(    2) = (   0.0000000   0.0000000  -0.5000000), wk =   0.2500000
        k(    3) = (  -0.0000000  -0.5000000  -0.0000000), wk =   0.2500000
        k(    4) = (  -0.0000000  -0.5000000  -0.5000000), wk =   0.2500000
        k(    5) = (  -0.5000000   0.0000000  -0.0000000), wk =   0.2500000
        k(    6) = (  -0.5000000  -0.0000000  -0.5000000), wk =   0.2500000
        k(    7) = (  -0.5000000  -0.5000000  -0.0000000), wk =   0.2500000
        k(    8) = (  -0.5000000  -0.5000000  -0.5000000), wk =   0.2500000

     Dense  grid:   471387 G-vectors     FFT dimensions: ( 120, 120, 120)

     Smooth grid:   337379 G-vectors     FFT dimensions: ( 100, 100, 100)

     Largest allocated arrays     est. size (Mb)     dimensions
        Kohn-Sham Wavefunctions        49.59 Mb     (    5293,  614)
        NL pseudopotentials           162.50 Mb     (    5293, 2012)
        Each V/rho on FFT grid          3.30 Mb     (  216000)
        Each G-vector array             0.45 Mb     (   58923)
        G-vector shells                 0.44 Mb     (   58228)
     Largest temporary arrays     est. size (Mb)     dimensions
        Auxiliary wavefunctions       198.36 Mb     (    5293, 2456)
        Each subspace H/S matrix       92.04 Mb     (    2456, 2456)
        Each <psi_i|beta_j> matrix     18.85 Mb     (    2012,  614)
        Arrays for rho mixing          26.37 Mb     (  216000,    8)

     Check: negative/imaginary core charge=   -0.000003    0.000000

     Initial potential from superposition of free atoms

     starting charge 1015.40720, renormalised to 1024.00000
     Starting wfc are  756 randomized atomic wfcs

     total cpu time spent up to now is      612.1 secs

     Self-consistent Calculation

     iteration #  1     ecut=    40.00 Ry     beta=0.30
     Davidson diagonalization with overlap
     ethr =  1.00E-02,  avg # of iterations =  3.0

     total cpu time spent up to now is     2396.6 secs

     total energy              =   -8279.02072045 Ry
     Harris-Foulkes estimate   =   -8283.94358549 Ry
     estimated scf accuracy    <      25.23557058 Ry

     iteration #  2     ecut=    40.00 Ry     beta=0.30
     Davidson diagonalization with overlap
     ethr =  2.46E-03,  avg # of iterations =  1.0

     total cpu time spent up to now is     3766.9 secs

     total energy              =   -8275.90142104 Ry
     Harris-Foulkes estimate   =   -8279.88907633 Ry
     estimated scf accuracy    <      10.23533447 Ry

     iteration #  3     ecut=    40.00 Ry     beta=0.30
     Davidson diagonalization with overlap
     ethr =  1.00E-03,  avg # of iterations =  2.0

     total cpu time spent up to now is     5443.8 secs

     total energy              =   -8277.17832231 Ry
     Harris-Foulkes estimate   =   -8277.55522031 Ry
     estimated scf accuracy    <       1.29931504 Ry

     iteration #  4     ecut=    40.00 Ry     beta=0.30
     Davidson diagonalization with overlap
     ethr =  1.27E-04,  avg # of iterations =  6.4

     total cpu time spent up to now is     8002.0 secs

     total energy              =   -8276.93071067 Ry
     Harris-Foulkes estimate   =   -8277.26227982 Ry
     estimated scf accuracy    <       0.61285965 Ry

     iteration #  5     ecut=    40.00 Ry     beta=0.30
     Davidson diagonalization with overlap
     ethr =  5.98E-05,  avg # of iterations =  3.9

     total cpu time spent up to now is    10161.4 secs

     total energy              =   -8277.00397364 Ry
     Harris-Foulkes estimate   =   -8277.02189460 Ry
     estimated scf accuracy    <       0.10895013 Ry

     iteration #  6     ecut=    40.00 Ry     beta=0.30
     Davidson diagonalization with overlap
     ethr =  1.06E-05,  avg # of iterations = 10.5

     total cpu time spent up to now is    13306.4 secs

     total energy              =   -8276.99357663 Ry
     Harris-Foulkes estimate   =   -8277.00912763 Ry
     estimated scf accuracy    <       0.05199639 Ry

     iteration #  7     ecut=    40.00 Ry     beta=0.30
     Davidson diagonalization with overlap
     ethr =  5.08E-06,  avg # of iterations =  4.9

     total cpu time spent up to now is    15578.5 secs

     total energy              =   -8276.99425118 Ry
     Harris-Foulkes estimate   =   -8276.99810159 Ry
     estimated scf accuracy    <       0.01041972 Ry

     iteration #  8     ecut=    40.00 Ry     beta=0.30
     Davidson diagonalization with overlap
     ethr =  1.02E-06,  avg # of iterations =  6.5

     total cpu time spent up to now is    18546.9 secs

     total energy              =   -8276.99549497 Ry
     Harris-Foulkes estimate   =   -8276.99673823 Ry
     estimated scf accuracy    <       0.00683484 Ry

     iteration #  9     ecut=    40.00 Ry     beta=0.30
     Davidson diagonalization with overlap
     ethr =  6.67E-07,  avg # of iterations =  1.0

     total cpu time spent up to now is    19974.5 secs

     total energy              =   -8276.99493818 Ry
     Harris-Foulkes estimate   =   -8276.99578184 Ry
     estimated scf accuracy    <       0.00295281 Ry

     iteration # 10     ecut=    40.00 Ry     beta=0.30
     Davidson diagonalization with overlap
     ethr =  2.88E-07,  avg # of iterations =  4.4

     total cpu time spent up to now is    22086.1 secs

     total energy              =   -8276.99509734 Ry
     Harris-Foulkes estimate   =   -8276.99524425 Ry
     estimated scf accuracy    <       0.00075419 Ry

     iteration # 11     ecut=    40.00 Ry     beta=0.30
     Davidson diagonalization with overlap
     ethr =  7.37E-08,  avg # of iterations =  1.3

     total cpu time spent up to now is    23461.8 secs

     total energy              =   -8276.99503924 Ry
     Harris-Foulkes estimate   =   -8276.99513226 Ry
     estimated scf accuracy    <       0.00031417 Ry

     iteration # 12     ecut=    40.00 Ry     beta=0.30
     Davidson diagonalization with overlap
     ethr =  3.07E-08,  avg # of iterations =  2.0

     total cpu time spent up to now is    25122.1 secs

     total energy              =   -8276.99503074 Ry
     Harris-Foulkes estimate   =   -8276.99506748 Ry
     estimated scf accuracy    <       0.00009180 Ry

     iteration # 13     ecut=    40.00 Ry     beta=0.30
     Davidson diagonalization with overlap
     ethr =  8.97E-09,  avg # of iterations =  2.0

     total cpu time spent up to now is    26936.9 secs

     total energy              =   -8276.99503047 Ry
     Harris-Foulkes estimate   =   -8276.99504220 Ry
     estimated scf accuracy    <       0.00003023 Ry

     iteration # 14     ecut=    40.00 Ry     beta=0.30
     Davidson diagonalization with overlap
     ethr =  2.95E-09,  avg # of iterations =  2.0

     total cpu time spent up to now is    28616.8 secs

     total energy              =   -8276.99503388 Ry
     Harris-Foulkes estimate   =   -8276.99503444 Ry
     estimated scf accuracy    <       0.00000311 Ry

     iteration # 15     ecut=    40.00 Ry     beta=0.30
     Davidson diagonalization with overlap
     ethr =  3.03E-10,  avg # of iterations =  2.0

     total cpu time spent up to now is    30305.4 secs

     total energy              =   -8276.99503406 Ry
     Harris-Foulkes estimate   =   -8276.99503439 Ry
     estimated scf accuracy    <       0.00000156 Ry

     iteration # 16     ecut=    40.00 Ry     beta=0.30
     Davidson diagonalization with overlap
     ethr =  1.52E-10,  avg # of iterations =  2.0

     total cpu time spent up to now is    31906.9 secs

     total energy              =   -8276.99503402 Ry
     Harris-Foulkes estimate   =   -8276.99503416 Ry
     estimated scf accuracy    <       0.00000044 Ry

     iteration # 17     ecut=    40.00 Ry     beta=0.30
     Davidson diagonalization with overlap
     ethr =  4.34E-11,  avg # of iterations =  2.0

     total cpu time spent up to now is    33493.5 secs

     total energy              =   -8276.99503403 Ry
     Harris-Foulkes estimate   =   -8276.99503406 Ry
     estimated scf accuracy    <       0.00000014 Ry

     iteration # 18     ecut=    40.00 Ry     beta=0.30
     Davidson diagonalization with overlap
     ethr =  1.34E-11,  avg # of iterations =  2.0

     total cpu time spent up to now is    34999.9 secs

     total energy              =   -8276.99503403 Ry
     Harris-Foulkes estimate   =   -8276.99503404 Ry
     estimated scf accuracy    <       0.00000009 Ry

     iteration # 19     ecut=    40.00 Ry     beta=0.30
     Davidson diagonalization with overlap
     ethr =  8.41E-12,  avg # of iterations =  1.0

     total cpu time spent up to now is    36344.0 secs

     total energy              =   -8276.99503402 Ry
     Harris-Foulkes estimate   =   -8276.99503403 Ry
     estimated scf accuracy    <       0.00000005 Ry

     iteration # 20     ecut=    40.00 Ry     beta=0.30
     Davidson diagonalization with overlap
     ethr =  4.98E-12,  avg # of iterations =  2.0

     total cpu time spent up to now is    37854.4 secs

     total energy              =   -8276.99503402 Ry
     Harris-Foulkes estimate   =   -8276.99503403 Ry
     estimated scf accuracy    <       0.00000003 Ry

     iteration # 21     ecut=    40.00 Ry     beta=0.30
     Davidson diagonalization with overlap
     ethr =  2.63E-12,  avg # of iterations =  2.0

     total cpu time spent up to now is    39639.3 secs

     total energy              =   -8276.99503402 Ry
     Harris-Foulkes estimate   =   -8276.99503402 Ry
     estimated scf accuracy    <          6.6E-09 Ry

     iteration # 22     ecut=    40.00 Ry     beta=0.30
     Davidson diagonalization with overlap
     ethr =  6.43E-13,  avg # of iterations =  1.0

     total cpu time spent up to now is    41025.0 secs

     total energy              =   -8276.99503402 Ry
     Harris-Foulkes estimate   =   -8276.99503402 Ry
     estimated scf accuracy    <          3.9E-09 Ry

     iteration # 23     ecut=    40.00 Ry     beta=0.30
     Davidson diagonalization with overlap
     ethr =  3.76E-13,  avg # of iterations =  2.0

     total cpu time spent up to now is    42653.0 secs

     total energy              =   -8276.99503402 Ry
     Harris-Foulkes estimate   =   -8276.99503402 Ry
     estimated scf accuracy    <          2.0E-09 Ry

     iteration # 24     ecut=    40.00 Ry     beta=0.30
     Davidson diagonalization with overlap
     ethr =  1.95E-13,  avg # of iterations =  1.0

     total cpu time spent up to now is    44050.9 secs

     total energy              =   -8276.99503402 Ry
     Harris-Foulkes estimate   =   -8276.99503402 Ry
     estimated scf accuracy    <          1.4E-09 Ry

     iteration # 25     ecut=    40.00 Ry     beta=0.30
     Davidson diagonalization with overlap
     ethr =  1.39E-13,  avg # of iterations =  2.0

     total cpu time spent up to now is    45681.0 secs

     total energy              =   -8276.99503402 Ry
     Harris-Foulkes estimate   =   -8276.99503402 Ry
     estimated scf accuracy    <          6.4E-10 Ry

     iteration # 26     ecut=    40.00 Ry     beta=0.30
     Davidson diagonalization with overlap
     ethr =  1.00E-13,  avg # of iterations =  2.0

     total cpu time spent up to now is    47198.7 secs

     total energy              =   -8276.99503402 Ry
     Harris-Foulkes estimate   =   -8276.99503402 Ry
     estimated scf accuracy    <          2.1E-10 Ry

     iteration # 27     ecut=    40.00 Ry     beta=0.30
     Davidson diagonalization with overlap
     ethr =  1.00E-13,  avg # of iterations =  1.0

     total cpu time spent up to now is    48528.1 secs

     End of self-consistent calculation

          k = 0.0000 0.0000 0.0000 ( 42109 PWs)   bands (ev):

   -65.0161 -64.9981 -64.9535 -64.9425 -64.9071 -64.8505 -64.8379 -64.8044
   -64.8006 -64.7955 -64.7826 -64.7823 -64.7683 -64.7666 -64.7608 -64.7475
   -64.7438 -64.7426 -64.7346 -64.7342 -64.6897 -64.6886 -64.6798 -64.6773
   -64.6646 -64.6316 -64.6257 -64.6125 -31.9840 -31.9827 -31.9749 -31.9651
   -31.9594 -31.9576 -31.9244 -31.9145 -31.9135 -31.9101 -31.9082 -31.8956
   -31.8733 -31.8713 -31.8668 -31.8205 -31.8130 -31.8090 -31.8072 -31.8042
   -31.7949 -31.7707 -31.7698 -31.7695 -31.7663 -31.7633 -31.7627 -31.7596
   -31.7580 -31.7550 -31.7514 -31.7484 -31.7469 -31.7467 -31.7427 -31.7407
   -31.7371 -31.7367 -31.7327 -31.7306 -31.7293 -31.7273 -31.7258 -31.7235
   -31.7232 -31.7173 -31.7146 -31.7126 -31.7108 -31.7086 -31.7061 -31.7054
   -31.7022 -31.7002 -31.7001 -31.6985 -31.6970 -31.6956 -31.6928 -31.6881
   -31.6592 -31.6574 -31.6535 -31.6503 -31.6490 -31.6478 -31.6455 -31.6446
   -31.6433 -31.6422 -31.6364 -31.6353 -31.6332 -31.6279 -31.6256 -31.5993
   -31.5941 -31.5939 -31.5909 -31.5893 -31.5856 -31.5793 -31.5739 -31.5715
   -28.5339 -28.4744 -28.4488 -28.4250 -28.4094 -28.3995 -28.3838 -28.3771
   -28.3463 -28.3401 -28.3238 -28.3087 -28.3022 -28.2992 -28.2929 -28.2826
   -28.2797 -28.2755 -28.2503 -28.2406 -28.2383 -28.2373 -28.2248 -28.2113
   -28.1913 -28.1772 -28.1600 -28.1543 -28.1436 -28.1230 -28.1073 -28.1052
   -28.0988 -28.0472 -28.0126 -27.9715 -11.1043 -11.0386 -10.9585 -10.9220
   -10.8051 -10.7832 -10.7743 -10.7596 -10.7405 -10.7289 -10.6898 -10.6760
   -10.6460 -10.6297 -10.6186 -10.5949 -10.5665 -10.5424 -10.5097 -10.5032
   -10.4893 -10.4577 -10.4439 -10.4288 -10.4074 -10.3767 -10.3745 -10.3637
   -10.3599 -10.3429 -10.3156 -10.2629 -10.2473 -10.2314 -10.2229 -10.1973
   -10.1734 -10.1503 -10.1396 -10.1192 -10.1068 -10.0641 -10.0605 -10.0393
   -10.0188  -9.9732  -9.9405  -9.9213  -9.9031  -9.8795  -9.8518  -9.8472
    -9.8305  -9.8179  -9.8090  -9.7682  -9.7588  -9.7461  -9.7180  -9.6968
    -9.6956  -9.6809  -9.6593  -9.6488  -9.6393  -9.6305  -9.6157  -9.5991
    -9.5817  -9.5719  -9.5660  -9.5543  -9.5448  -9.5298  -9.5134  -9.4970
    -9.4905  -9.4736  -9.4684  -9.4658  -9.4630  -9.4451  -9.4365  -9.4252
    -9.4169  -9.4130  -9.3969  -9.3914  -9.3799  -9.3756  -9.3662  -9.3394
    -9.3381  -9.3348  -9.3274  -9.3189  -9.3136  -9.3079  -9.3012  -9.2878
    -9.2817  -9.2753  -9.2687  -9.2451  -9.2388  -9.2186  -9.1971  -9.1871
    -7.9594  -7.5078  -7.4122  -7.4078  -7.3757  -7.3707  -7.3486  -7.2966
    -7.2278  -7.2136  -7.1925  -7.1760  -7.1021  -7.0955  -7.0692  -7.0550
    -6.9957  -6.9851  -6.9642  -6.9358  -6.9110  -6.8877  -6.8714  -6.8504
    -6.8228  -6.8070  -6.7907  -6.7616  -6.7298  -6.7109  -6.6687  -6.6601
    -6.6415  -6.6182  -6.5994  -6.5828  -6.5783  -6.5498  -6.5186  -6.5111
    -6.4938  -6.4722  -6.4570  -6.4391  -6.4220  -6.3982  -6.3911  -6.3810
    -6.3614  -6.3556  -6.3163  -6.2836  -6.2574  -6.2342  -6.2110  -6.1960
    -6.1618  -6.1075  -6.0945  -6.0493  -5.9180  -5.8865  -5.8535  -5.7648
     4.0001   4.2598   4.3569   4.4556   4.6298   4.7555   4.7948   4.8351
     4.8463   4.8818   4.9360   4.9447   4.9528   4.9812   5.0270   5.0512
     5.0830   5.1037   5.1075   5.1429   5.1828   5.1941   5.2341   5.3107
     5.3747   5.3974   5.4262   5.4710   5.4861   5.5200   5.5560   5.5879
     5.6336   5.6561   5.6659   5.6889   5.7056   5.7361   5.7618   5.7892
     5.8204   5.8418   5.8600   5.8744   5.8862   5.8920   5.9258   5.9431
     5.9554   5.9817   6.0111   6.0406   6.0638   6.0874   6.1051   6.1256
     6.1304   6.1532   6.1889   6.1918   6.2253   6.2403   6.2542   6.2796
     6.2938   6.3088   6.3404   6.3657   6.3862   6.3932   6.4124   6.4229
     6.4270   6.4362   6.4600   6.4891   6.5074   6.5174   6.5335   6.5450
     6.5606   6.5705   6.5858   6.6046   6.6156   6.6175   6.6416   6.6485
     6.6669   6.6716   6.6749   6.6859   6.6943   6.7096   6.7284   6.7347
     6.7440   6.7531   6.7663   6.7742   6.7864   6.8057   6.8193   6.8253
     6.8299   6.8588   6.8626   6.8817   6.8950   6.9024   6.9171   6.9281
     6.9335   6.9349   6.9486   6.9579   6.9745   6.9865   6.9970   7.0026
     7.0309   7.0383   7.0514   7.0714   7.0783   7.0897   7.1025   7.1182
     7.1216   7.1462   7.1539   7.1667   7.1737   7.1910   7.1973   7.2087
     7.2289   7.2385   7.2600   7.2641   7.2766   7.2826   7.2960   7.3044
     7.3170   7.3256   7.3286   7.3476   7.3627   7.3695   7.3827   7.3883
     7.4009   7.4071   7.4278   7.4378   7.4506   7.4603   7.4726   7.4801
     7.4930   7.4986   7.5137   7.5229   7.5377   7.5409   7.5501   7.5602
     7.5685   7.5843   7.5866   7.6003   7.6118   7.6177   7.6269   7.6453
     7.6564   7.6721   7.6813   7.7036   7.7129   7.7469   7.7753   7.7928
     7.8126   7.8397   7.8806   7.8961   7.9141   8.1156   8.1318   8.1411
    12.2653  12.6888  12.6995  12.7144  13.5755  13.6486  13.7332  13.8139
    13.8413  13.9125  14.0063  14.0340  14.0589  14.1200  14.1251  14.1409
    14.1673  14.2322  14.2391  14.2670  14.2882  14.3371  14.3531  14.3710
    14.3772  14.4226  14.4582  14.4879  14.5123  14.5345  14.5812  14.5936
    14.6180  14.6450  14.6962  14.7655  14.8205  14.8459  14.8920  14.9133
    14.9808  15.0044  15.0272  15.1138  15.1651  15.1958  15.2258  15.2427
    15.3210  15.3568  15.3870  15.4227  15.4372  15.4691  15.5085  15.5411
    15.5602  15.6228  15.6394  15.6750  15.6844  15.7017  15.7146  15.7604
    15.7856  15.8018  15.8230  15.8561  15.8681  15.8999  15.9165  15.9282
    15.9527  15.9764  16.0167  16.0623  16.0700  16.0792  16.0999  16.1383
    16.1603  16.1874  16.1987  16.2070  16.2407  16.2740  16.3099  16.3289
    16.3635  16.4190  16.4374  16.4470  16.4603  16.4999  16.5208  16.5452
    16.5711  16.6082  16.6355  16.6569  16.6619  16.6944

     occupation numbers 
     1.0000   1.0000   1.0000   1.0000   1.0000   1.0000   1.0000   1.0000
     1.0000   1.0000   1.0000   1.0000   1.0000   1.0000   1.0000   1.0000
     1.0000   1.0000   1.0000   1.0000   1.0000   1.0000   1.0000   1.0000
     1.0000   1.0000   1.0000   1.0000   1.0000   1.0000   1.0000   1.0000
     1.0000   1.0000   1.0000   1.0000   1.0000   1.0000   1.0000   1.0000
     1.0000   1.0000   1.0000   1.0000   1.0000   1.0000   1.0000   1.0000
     1.0000   1.0000   1.0000   1.0000   1.0000   1.0000   1.0000   1.0000
     1.0000   1.0000   1.0000   1.0000   1.0000   1.0000   1.0000   1.0000
     1.0000   1.0000   1.0000   1.0000   1.0000   1.0000   1.0000   1.0000
     1.0000   1.0000   1.0000   1.0000   1.0000   1.0000   1.0000   1.0000
     1.0000   1.0000   1.0000   1.0000   1.0000   1.0000   1.0000   1.0000
     1.0000   1.0000   1.0000   1.0000   1.0000   1.0000   1.0000   1.0000
     1.0000   1.0000   1.0000   1.0000   1.0000   1.0000   1.0000   1.0000
     1.0000   1.0000   1.0000   1.0000   1.0000   1.0000   1.0000   1.0000
     1.0000   1.0000   1.0000   1.0000   1.0000   1.0000   1.0000   1.0000
     1.0000   1.0000   1.0000   1.0000   1.0000   1.0000   1.0000   1.0000
     1.0000   1.0000   1.0000   1.0000   1.0000   1.0000   1.0000   1.0000
     1.0000   1.0000   1.0000   1.0000   1.0000   1.0000   1.0000   1.0000
     1.0000   1.0000   1.0000   1.0000   1.0000   1.0000   1.0000   1.0000
     1.0000   1.0000   1.0000   1.0000   1.0000   1.0000   1.0000   1.0000
     1.0000   1.0000   1.0000   1.0000   1.0000   1.0000   1.0000   1.0000
     1.0000   1.0000   1.0000   1.0000   1.0000   1.0000   1.0000   1.0000
     1.0000   1.0000   1.0000   1.0000   1.0000   1.0000   1.0000   1.0000
     1.0000   1.0000   1.0000   1.0000   1.0000   1.0000   1.0000   1.0000
     1.0000   1.0000   1.0000   1.0000   1.0000   1.0000   1.0000   1.0000
     1.0000   1.0000   1.0000   1.0000   1.0000   1.0000   1.0000   1.0000
     1.0000   1.0000   1.0000   1.0000   1.0000   1.0000   1.0000   1.0000
     1.0000   1.0000   1.0000   1.0000   1.0000   1.0000   1.0000   1.0000
     1.0000   1.0000   1.0000   1.0000   1.0000   1.0000   1.0000   1.0000
     1.0000   1.0000   1.0000   1.0000   1.0000   1.0000   1.0000   1.0000
     1.0000   1.0000   1.0000   1.0000   1.0000   1.0000   1.0000   1.0000
     1.0000   1.0000   1.0000   1.0000   1.0000   1.0000   1.0000   1.0000
     1.0000   1.0000   1.0000   1.0000   1.0000   1.0000   1.0000   1.0000
     1.0000   1.0000   1.0000   1.0000   1.0000   1.0000   1.0000   1.0000
     1.0000   1.0000   1.0000   1.0000   1.0000   1.0000   1.0000   1.0000
     1.0000   1.0000   1.0000   1.0000   1.0000   1.0000   1.0000   1.0000
     1.0000   1.0000   1.0000   1.0000   1.0000   1.0000   1.0000   1.0000
     1.0000   1.0000   1.0000   1.0000   1.0000   1.0000   1.0000   1.0000
     1.0000   1.0000   1.0000   1.0000   1.0000   1.0000   1.0000   1.0000
     1.0000   1.0000   1.0000   1.0000   1.0000   1.0000   1.0000   1.0000
     1.0000   1.0000   1.0000   1.0000   1.0000   1.0000   1.0000   1.0000
     1.0000   1.0000   1.0000   1.0000   1.0000   1.0000   1.0000   1.0000
     1.0000   1.0000   1.0000   1.0000   1.0000   1.0000   1.0000   1.0000
     1.0000   1.0000   1.0000   1.0000   1.0000   1.0000   1.0000   1.0000
     1.0000   1.0000   1.0000   1.0000   1.0000   1.0000   1.0000   1.0000
     1.0000   1.0000   1.0000   1.0000   1.0000   1.0000   1.0000   1.0000
     1.0000   1.0000   1.0000   1.0000   1.0000   1.0000   1.0000   1.0000
     1.0000   1.0000   1.0000   1.0000   1.0000   1.0000   1.0000   1.0000
     1.0000   1.0000   1.0000   1.0000   1.0000   1.0000   1.0000   1.0000
     1.0000   1.0000   1.0000   1.0000   1.0000   1.0000   1.0000   1.0000
     1.0000   1.0000   1.0000   1.0000   1.0000   1.0000   1.0000   1.0000
     1.0000   1.0000   1.0000   1.0000   1.0000   1.0000   1.0000   1.0000
     1.0000   1.0000   1.0000   1.0000   1.0000   1.0000   1.0000   1.0000
     1.0000   1.0000   1.0000   1.0000   1.0000   1.0000   1.0000   1.0000
     1.0000   1.0000   1.0000   1.0000   1.0000   1.0000   1.0000   1.0000
     1.0000   1.0000   1.0000   1.0000   1.0000   1.0000   1.0000   1.0000
     1.0000   1.0000   1.0000   1.0000   1.0000   1.0000   1.0000   1.0000
     1.0000   1.0000   1.0000   1.0000   1.0000   1.0000   1.0000   1.0000
     1.0000   1.0000   1.0000   1.0000   1.0000   1.0000   1.0000   1.0000
     1.0000   1.0000   1.0000   1.0000   1.0000   1.0000   1.0000   1.0000
     1.0000   1.0000   1.0000   1.0000   1.0000   1.0000   1.0000   1.0000
     1.0000   1.0000   1.0000   1.0000   1.0000   1.0000   1.0000   1.0000
     1.0000   1.0000   1.0000   1.0000   1.0000   1.0000   1.0000   1.0000
     1.0000   1.0000   1.0000   1.0000   1.0000   1.0000   1.0000   1.0000
     0.0000   0.0000   0.0000   0.0000   0.0000   0.0000   0.0000   0.0000
     0.0000   0.0000   0.0000   0.0000   0.0000   0.0000   0.0000   0.0000
     0.0000   0.0000   0.0000   0.0000   0.0000   0.0000   0.0000   0.0000
     0.0000   0.0000   0.0000   0.0000   0.0000   0.0000   0.0000   0.0000
     0.0000   0.0000   0.0000   0.0000   0.0000   0.0000   0.0000   0.0000
     0.0000   0.0000   0.0000   0.0000   0.0000   0.0000   0.0000   0.0000
     0.0000   0.0000   0.0000   0.0000   0.0000   0.0000   0.0000   0.0000
     0.0000   0.0000   0.0000   0.0000   0.0000   0.0000   0.0000   0.0000
     0.0000   0.0000   0.0000   0.0000   0.0000   0.0000   0.0000   0.0000
     0.0000   0.0000   0.0000   0.0000   0.0000   0.0000   0.0000   0.0000
     0.0000   0.0000   0.0000   0.0000   0.0000   0.0000   0.0000   0.0000
     0.0000   0.0000   0.0000   0.0000   0.0000   0.0000   0.0000   0.0000
     0.0000   0.0000   0.0000   0.0000   0.0000   0.0000

          k =-0.3549-0.3527 0.3539 ( 42168 PWs)   bands (ev):

   -65.0161 -64.9981 -64.9535 -64.9425 -64.9071 -64.8505 -64.8379 -64.8044
   -64.8006 -64.7955 -64.7826 -64.7823 -64.7683 -64.7666 -64.7608 -64.7475
   -64.7438 -64.7426 -64.7346 -64.7342 -64.6897 -64.6886 -64.6798 -64.6773
   -64.6646 -64.6316 -64.6257 -64.6125 -31.9840 -31.9827 -31.9749 -31.9651
   -31.9594 -31.9576 -31.9244 -31.9145 -31.9135 -31.9101 -31.9082 -31.8956
   -31.8733 -31.8713 -31.8668 -31.8205 -31.8130 -31.8090 -31.8072 -31.8042
   -31.7949 -31.7707 -31.7698 -31.7695 -31.7663 -31.7633 -31.7627 -31.7596
   -31.7580 -31.7550 -31.7514 -31.7484 -31.7469 -31.7467 -31.7427 -31.7407
   -31.7371 -31.7367 -31.7327 -31.7306 -31.7293 -31.7273 -31.7258 -31.7235
   -31.7232 -31.7173 -31.7146 -31.7126 -31.7108 -31.7086 -31.7061 -31.7054
   -31.7022 -31.7002 -31.7001 -31.6985 -31.6970 -31.6956 -31.6928 -31.6881
   -31.6592 -31.6574 -31.6535 -31.6503 -31.6490 -31.6478 -31.6455 -31.6446
   -31.6433 -31.6422 -31.6364 -31.6353 -31.6332 -31.6279 -31.6256 -31.5993
   -31.5941 -31.5939 -31.5909 -31.5893 -31.5856 -31.5793 -31.5739 -31.5715
   -28.5329 -28.4760 -28.4482 -28.4254 -28.4127 -28.3998 -28.3813 -28.3749
   -28.3453 -28.3392 -28.3252 -28.3078 -28.3068 -28.2976 -28.2889 -28.2851
   -28.2796 -28.2755 -28.2521 -28.2402 -28.2376 -28.2359 -28.2244 -28.2134
   -28.1936 -28.1739 -28.1628 -28.1504 -28.1450 -28.1228 -28.1079 -28.1051
   -28.0988 -28.0472 -28.0126 -27.9715 -11.0746 -10.9907 -10.9299 -10.8710
   -10.8419 -10.8222 -10.7998 -10.7774 -10.7720 -10.7436 -10.7207 -10.7118
   -10.6793 -10.6644 -10.6499 -10.6205 -10.5960 -10.5382 -10.5182 -10.5072
   -10.4923 -10.4652 -10.4586 -10.4114 -10.3919 -10.3650 -10.3561 -10.3332
   -10.3210 -10.2974 -10.2706 -10.2613 -10.2391 -10.2260 -10.2089 -10.1788
   -10.1616 -10.1261 -10.1127 -10.1064 -10.0858 -10.0761 -10.0313 -10.0266
   -10.0096  -9.9637  -9.9420  -9.9143  -9.8985  -9.8850  -9.8721  -9.8501
    -9.8153  -9.8126  -9.8041  -9.7864  -9.7577  -9.7310  -9.7180  -9.7083
    -9.7038  -9.6903  -9.6611  -9.6527  -9.6309  -9.6192  -9.6130  -9.6060
    -9.5960  -9.5741  -9.5594  -9.5500  -9.5415  -9.5304  -9.5293  -9.5079
    -9.4946  -9.4873  -9.4841  -9.4609  -9.4565  -9.4457  -9.4294  -9.4266
    -9.4130  -9.4114  -9.4019  -9.3934  -9.3885  -9.3721  -9.3589  -9.3534
    -9.3473  -9.3450  -9.3401  -9.3276  -9.3194  -9.3111  -9.3102  -9.2983
    -9.2936  -9.2826  -9.2672  -9.2622  -9.2505  -9.2305  -9.2230  -9.1953
    -7.6707  -7.6230  -7.4467  -7.3900  -7.3504  -7.3260  -7.2923  -7.2595
    -7.2351  -7.2221  -7.1732  -7.1681  -7.1458  -7.1243  -7.0723  -7.0407
    -6.9993  -6.9914  -6.9776  -6.9512  -6.9140  -6.9061  -6.8906  -6.8899
    -6.8719  -6.8561  -6.8320  -6.8093  -6.7868  -6.7617  -6.7322  -6.7066
    -6.6885  -6.6462  -6.6111  -6.5862  -6.5743  -6.5557  -6.5185  -6.5086
    -6.4767  -6.4559  -6.4367  -6.4330  -6.4015  -6.3861  -6.3578  -6.3187
    -6.2988  -6.2821  -6.2547  -6.2298  -6.2185  -6.2048  -6.1831  -6.1744
    -6.1065  -6.0875  -6.0459  -6.0345  -5.9780  -5.9557  -5.9315  -5.8276
     4.1526   4.3951   4.4622   4.5123   4.5863   4.6486   4.6605   4.6992
     4.7929   4.8520   4.8714   4.8746   4.9308   4.9361   4.9500   4.9956
     5.0144   5.1196   5.1649   5.1950   5.2480   5.2806   5.3112   5.3338
     5.3524   5.4006   5.4031   5.4540   5.4833   5.5212   5.5470   5.5814
     5.5937   5.6225   5.6607   5.6708   5.6957   5.7161   5.7396   5.7489
     5.7790   5.8057   5.8326   5.8381   5.8541   5.8698   5.8846   5.9202
     5.9244   5.9432   5.9732   6.0055   6.0307   6.0839   6.0878   6.1221
     6.1319   6.1600   6.1766   6.2112   6.2323   6.2550   6.2663   6.2946
     6.3258   6.3312   6.3389   6.3498   6.3706   6.3887   6.4096   6.4265
     6.4390   6.4792   6.5041   6.5182   6.5370   6.5597   6.5660   6.5726
     6.6027   6.6211   6.6270   6.6487   6.6711   6.6752   6.6900   6.6927
     6.7009   6.7094   6.7181   6.7333   6.7437   6.7468   6.7885   6.7971
     6.8049   6.8146   6.8220   6.8315   6.8451   6.8550   6.8634   6.8702
     6.8718   6.8909   6.9068   6.9135   6.9289   6.9365   6.9456   6.9538
     6.9688   6.9768   6.9819   7.0047   7.0123   7.0132   7.0285   7.0409
     7.0515   7.0539   7.0592   7.0737   7.0769   7.0929   7.1081   7.1120
     7.1184   7.1408   7.1458   7.1490   7.1751   7.1772   7.1910   7.2000
     7.2067   7.2335   7.2405   7.2482   7.2512   7.2551   7.2614   7.2747
     7.2910   7.2914   7.3021   7.3210   7.3399   7.3512   7.3571   7.3699
     7.3805   7.3947   7.4085   7.4112   7.4251   7.4295   7.4458   7.4589
     7.4788   7.4882   7.4930   7.4940   7.5148   7.5224   7.5327   7.5425
     7.5542   7.5782   7.5913   7.6008   7.6109   7.6164   7.6341   7.6551
     7.6555   7.6769   7.6819   7.6977   7.7221   7.7374   7.7441   7.7661
     7.7752   7.8111   7.8189   7.8372   7.9048   7.9222   7.9779   7.9789
    12.9083  12.9938  13.0338  13.0422  13.0878  13.3598  13.3982  13.4262
    13.5951  13.7045  13.7843  13.8856  13.9102  13.9565  14.0272  14.0560
    14.1178  14.1546  14.2369  14.3255  14.3326  14.3572  14.4173  14.4748
    14.5128  14.5905  14.5980  14.6524  14.6739  14.7214  14.7296  14.8026
    14.8313  14.8399  14.8830  14.9105  14.9560  14.9681  14.9863  15.0407
    15.0423  15.0558  15.0836  15.1320  15.1433  15.1819  15.1944  15.2097
    15.2611  15.2841  15.3328  15.3662  15.4387  15.4511  15.4766  15.5011
    15.5099  15.5380  15.5412  15.5847  15.5924  15.6159  15.6589  15.6803
    15.7055  15.7463  15.7673  15.7931  15.8323  15.8402  15.8673  15.9132
    15.9240  15.9471  15.9813  15.9993  16.0290  16.0919  16.0989  16.1203
    16.1378  16.1705  16.1783  16.2301  16.2447  16.2747  16.3057  16.3462
    16.3592  16.3718  16.3996  16.4165  16.4525  16.4767  16.5064  16.5252
    16.5379  16.5967  16.6207  16.6476  16.6677  16.6766

     occupation numbers 
     1.0000   1.0000   1.0000   1.0000   1.0000   1.0000   1.0000   1.0000
     1.0000   1.0000   1.0000   1.0000   1.0000   1.0000   1.0000   1.0000
     1.0000   1.0000   1.0000   1.0000   1.0000   1.0000   1.0000   1.0000
     1.0000   1.0000   1.0000   1.0000   1.0000   1.0000   1.0000   1.0000
     1.0000   1.0000   1.0000   1.0000   1.0000   1.0000   1.0000   1.0000
     1.0000   1.0000   1.0000   1.0000   1.0000   1.0000   1.0000   1.0000
     1.0000   1.0000   1.0000   1.0000   1.0000   1.0000   1.0000   1.0000
     1.0000   1.0000   1.0000   1.0000   1.0000   1.0000   1.0000   1.0000
     1.0000   1.0000   1.0000   1.0000   1.0000   1.0000   1.0000   1.0000
     1.0000   1.0000   1.0000   1.0000   1.0000   1.0000   1.0000   1.0000
     1.0000   1.0000   1.0000   1.0000   1.0000   1.0000   1.0000   1.0000
     1.0000   1.0000   1.0000   1.0000   1.0000   1.0000   1.0000   1.0000
     1.0000   1.0000   1.0000   1.0000   1.0000   1.0000   1.0000   1.0000
     1.0000   1.0000   1.0000   1.0000   1.0000   1.0000   1.0000   1.0000
     1.0000   1.0000   1.0000   1.0000   1.0000   1.0000   1.0000   1.0000
     1.0000   1.0000   1.0000   1.0000   1.0000   1.0000   1.0000   1.0000
     1.0000   1.0000   1.0000   1.0000   1.0000   1.0000   1.0000   1.0000
     1.0000   1.0000   1.0000   1.0000   1.0000   1.0000   1.0000   1.0000
     1.0000   1.0000   1.0000   1.0000   1.0000   1.0000   1.0000   1.0000
     1.0000   1.0000   1.0000   1.0000   1.0000   1.0000   1.0000   1.0000
     1.0000   1.0000   1.0000   1.0000   1.0000   1.0000   1.0000   1.0000
     1.0000   1.0000   1.0000   1.0000   1.0000   1.0000   1.0000   1.0000
     1.0000   1.0000   1.0000   1.0000   1.0000   1.0000   1.0000   1.0000
     1.0000   1.0000   1.0000   1.0000   1.0000   1.0000   1.0000   1.0000
     1.0000   1.0000   1.0000   1.0000   1.0000   1.0000   1.0000   1.0000
     1.0000   1.0000   1.0000   1.0000   1.0000   1.0000   1.0000   1.0000
     1.0000   1.0000   1.0000   1.0000   1.0000   1.0000   1.0000   1.0000
     1.0000   1.0000   1.0000   1.0000   1.0000   1.0000   1.0000   1.0000
     1.0000   1.0000   1.0000   1.0000   1.0000   1.0000   1.0000   1.0000
     1.0000   1.0000   1.0000   1.0000   1.0000   1.0000   1.0000   1.0000
     1.0000   1.0000   1.0000   1.0000   1.0000   1.0000   1.0000   1.0000
     1.0000   1.0000   1.0000   1.0000   1.0000   1.0000   1.0000   1.0000
     1.0000   1.0000   1.0000   1.0000   1.0000   1.0000   1.0000   1.0000
     1.0000   1.0000   1.0000   1.0000   1.0000   1.0000   1.0000   1.0000
     1.0000   1.0000   1.0000   1.0000   1.0000   1.0000   1.0000   1.0000
     1.0000   1.0000   1.0000   1.0000   1.0000   1.0000   1.0000   1.0000
     1.0000   1.0000   1.0000   1.0000   1.0000   1.0000   1.0000   1.0000
     1.0000   1.0000   1.0000   1.0000   1.0000   1.0000   1.0000   1.0000
     1.0000   1.0000   1.0000   1.0000   1.0000   1.0000   1.0000   1.0000
     1.0000   1.0000   1.0000   1.0000   1.0000   1.0000   1.0000   1.0000
     1.0000   1.0000   1.0000   1.0000   1.0000   1.0000   1.0000   1.0000
     1.0000   1.0000   1.0000   1.0000   1.0000   1.0000   1.0000   1.0000
     1.0000   1.0000   1.0000   1.0000   1.0000   1.0000   1.0000   1.0000
     1.0000   1.0000   1.0000   1.0000   1.0000   1.0000   1.0000   1.0000
     1.0000   1.0000   1.0000   1.0000   1.0000   1.0000   1.0000   1.0000
     1.0000   1.0000   1.0000   1.0000   1.0000   1.0000   1.0000   1.0000
     1.0000   1.0000   1.0000   1.0000   1.0000   1.0000   1.0000   1.0000
     1.0000   1.0000   1.0000   1.0000   1.0000   1.0000   1.0000   1.0000
     1.0000   1.0000   1.0000   1.0000   1.0000   1.0000   1.0000   1.0000
     1.0000   1.0000   1.0000   1.0000   1.0000   1.0000   1.0000   1.0000
     1.0000   1.0000   1.0000   1.0000   1.0000   1.0000   1.0000   1.0000
     1.0000   1.0000   1.0000   1.0000   1.0000   1.0000   1.0000   1.0000
     1.0000   1.0000   1.0000   1.0000   1.0000   1.0000   1.0000   1.0000
     1.0000   1.0000   1.0000   1.0000   1.0000   1.0000   1.0000   1.0000
     1.0000   1.0000   1.0000   1.0000   1.0000   1.0000   1.0000   1.0000
     1.0000   1.0000   1.0000   1.0000   1.0000   1.0000   1.0000   1.0000
     1.0000   1.0000   1.0000   1.0000   1.0000   1.0000   1.0000   1.0000
     1.0000   1.0000   1.0000   1.0000   1.0000   1.0000   1.0000   1.0000
     1.0000   1.0000   1.0000   1.0000   1.0000   1.0000   1.0000   1.0000
     1.0000   1.0000   1.0000   1.0000   1.0000   1.0000   1.0000   1.0000
     1.0000   1.0000   1.0000   1.0000   1.0000   1.0000   1.0000   1.0000
     1.0000   1.0000   1.0000   1.0000   1.0000   1.0000   1.0000   1.0000
     1.0000   1.0000   1.0000   1.0000   1.0000   1.0000   1.0000   1.0000
     1.0000   1.0000   1.0000   1.0000   1.0000   1.0000   1.0000   1.0000
     0.0000   0.0000   0.0000   0.0000   0.0000   0.0000   0.0000   0.0000
     0.0000   0.0000   0.0000   0.0000   0.0000   0.0000   0.0000   0.0000
     0.0000   0.0000   0.0000   0.0000   0.0000   0.0000   0.0000   0.0000
     0.0000   0.0000   0.0000   0.0000   0.0000   0.0000   0.0000   0.0000
     0.0000   0.0000   0.0000   0.0000   0.0000   0.0000   0.0000   0.0000
     0.0000   0.0000   0.0000   0.0000   0.0000   0.0000   0.0000   0.0000
     0.0000   0.0000   0.0000   0.0000   0.0000   0.0000   0.0000   0.0000
     0.0000   0.0000   0.0000   0.0000   0.0000   0.0000   0.0000   0.0000
     0.0000   0.0000   0.0000   0.0000   0.0000   0.0000   0.0000   0.0000
     0.0000   0.0000   0.0000   0.0000   0.0000   0.0000   0.0000   0.0000
     0.0000   0.0000   0.0000   0.0000   0.0000   0.0000   0.0000   0.0000
     0.0000   0.0000   0.0000   0.0000   0.0000   0.0000   0.0000   0.0000
     0.0000   0.0000   0.0000   0.0000   0.0000   0.0000

          k =-0.3539 0.3522-0.3531 ( 42156 PWs)   bands (ev):

   -65.0161 -64.9981 -64.9535 -64.9425 -64.9071 -64.8505 -64.8379 -64.8044
   -64.8006 -64.7955 -64.7826 -64.7823 -64.7683 -64.7666 -64.7608 -64.7475
   -64.7438 -64.7426 -64.7346 -64.7342 -64.6897 -64.6886 -64.6798 -64.6773
   -64.6646 -64.6316 -64.6257 -64.6125 -31.9840 -31.9827 -31.9749 -31.9651
   -31.9594 -31.9576 -31.9244 -31.9145 -31.9135 -31.9101 -31.9082 -31.8956
   -31.8733 -31.8713 -31.8668 -31.8205 -31.8130 -31.8090 -31.8072 -31.8042
   -31.7949 -31.7707 -31.7698 -31.7695 -31.7663 -31.7633 -31.7627 -31.7596
   -31.7580 -31.7550 -31.7514 -31.7484 -31.7469 -31.7467 -31.7427 -31.7407
   -31.7371 -31.7367 -31.7327 -31.7306 -31.7293 -31.7273 -31.7258 -31.7235
   -31.7232 -31.7173 -31.7146 -31.7126 -31.7108 -31.7086 -31.7061 -31.7054
   -31.7022 -31.7002 -31.7001 -31.6985 -31.6970 -31.6956 -31.6928 -31.6881
   -31.6592 -31.6574 -31.6535 -31.6503 -31.6490 -31.6478 -31.6455 -31.6446
   -31.6433 -31.6422 -31.6364 -31.6353 -31.6332 -31.6279 -31.6256 -31.5993
   -31.5941 -31.5939 -31.5909 -31.5893 -31.5856 -31.5793 -31.5739 -31.5715
   -28.5337 -28.4736 -28.4472 -28.4286 -28.4092 -28.4012 -28.3840 -28.3765
   -28.3448 -28.3391 -28.3239 -28.3076 -28.3033 -28.2987 -28.2926 -28.2839
   -28.2811 -28.2733 -28.2489 -28.2421 -28.2377 -28.2362 -28.2269 -28.2107
   -28.1921 -28.1774 -28.1604 -28.1543 -28.1432 -28.1228 -28.1073 -28.1050
   -28.0990 -28.0472 -28.0126 -27.9715 -11.0398 -11.0181 -10.9313 -10.9091
   -10.9052 -10.7985 -10.7741 -10.7599 -10.7404 -10.7304 -10.7145 -10.7022
   -10.6537 -10.6428 -10.6217 -10.6024 -10.5953 -10.5603 -10.5420 -10.5348
   -10.5104 -10.5001 -10.4398 -10.4221 -10.4125 -10.3844 -10.3738 -10.3629
   -10.3412 -10.2903 -10.2813 -10.2699 -10.2571 -10.2194 -10.1980 -10.1695
   -10.1591 -10.1411 -10.1149 -10.0721 -10.0566 -10.0450 -10.0078 -10.0013
    -9.9709  -9.9601  -9.9301  -9.9152  -9.9078  -9.8852  -9.8781  -9.8463
    -9.8259  -9.8109  -9.8034  -9.7800  -9.7581  -9.7328  -9.7228  -9.7134
    -9.7084  -9.6861  -9.6550  -9.6435  -9.6396  -9.6219  -9.6089  -9.6013
    -9.5938  -9.5768  -9.5645  -9.5546  -9.5517  -9.5273  -9.5228  -9.5161
    -9.4972  -9.4873  -9.4827  -9.4705  -9.4615  -9.4553  -9.4475  -9.4337
    -9.4299  -9.4248  -9.4103  -9.3981  -9.3852  -9.3811  -9.3731  -9.3627
    -9.3513  -9.3482  -9.3319  -9.3256  -9.3199  -9.3119  -9.3002  -9.2984
    -9.2861  -9.2802  -9.2678  -9.2589  -9.2450  -9.2184  -9.2001  -9.1873
    -7.6583  -7.6200  -7.4353  -7.3899  -7.3707  -7.3029  -7.2850  -7.2578
    -7.2349  -7.1962  -7.1689  -7.1494  -7.1353  -7.1207  -7.0854  -7.0521
    -7.0347  -7.0316  -7.0178  -6.9839  -6.9535  -6.9352  -6.9240  -6.8922
    -6.8593  -6.8286  -6.8010  -6.7929  -6.7552  -6.7256  -6.7249  -6.6835
    -6.6639  -6.6462  -6.6263  -6.6045  -6.5710  -6.5508  -6.5189  -6.5005
    -6.4624  -6.4422  -6.4315  -6.4088  -6.4003  -6.3810  -6.3770  -6.3185
    -6.3055  -6.2941  -6.2767  -6.2478  -6.2346  -6.2089  -6.1953  -6.1737
    -6.1505  -6.0801  -6.0205  -5.9820  -5.9640  -5.9292  -5.9243  -5.8843
     4.1996   4.3240   4.4220   4.4856   4.6304   4.6793   4.6829   4.7123
     4.7373   4.8251   4.8526   4.8747   4.9302   4.9689   5.0174   5.0212
     5.0627   5.0715   5.1400   5.2138   5.2506   5.2711   5.3081   5.3561
     5.3749   5.3831   5.3951   5.4602   5.4960   5.5223   5.5633   5.5652
     5.5929   5.6187   5.6433   5.6638   5.6796   5.7048   5.7067   5.7306
     5.7426   5.7987   5.8015   5.8396   5.8611   5.8757   5.8875   5.9118
     5.9617   5.9773   5.9977   6.0192   6.0294   6.0634   6.0813   6.1361
     6.1512   6.1663   6.1956   6.2325   6.2420   6.2736   6.2828   6.2979
     6.3035   6.3444   6.3512   6.3622   6.3678   6.3887   6.3922   6.4269
     6.4569   6.4712   6.4952   6.5248   6.5412   6.5487   6.5664   6.5727
     6.5966   6.6080   6.6320   6.6382   6.6534   6.6652   6.6695   6.6830
     6.6929   6.7097   6.7226   6.7337   6.7467   6.7696   6.7744   6.7815
     6.7884   6.8035   6.8156   6.8334   6.8395   6.8482   6.8589   6.8619
     6.8820   6.8910   6.9024   6.9189   6.9287   6.9317   6.9456   6.9587
     6.9647   6.9798   6.9841   6.9894   6.9979   7.0093   7.0259   7.0325
     7.0428   7.0490   7.0605   7.0740   7.0789   7.0919   7.1017   7.1041
     7.1082   7.1344   7.1478   7.1504   7.1720   7.1749   7.1895   7.1996
     7.2224   7.2283   7.2318   7.2405   7.2521   7.2648   7.2713   7.2807
     7.2929   7.3077   7.3161   7.3251   7.3413   7.3626   7.3723   7.3785
     7.3818   7.4023   7.4093   7.4261   7.4299   7.4407   7.4462   7.4527
     7.4607   7.4822   7.4848   7.5030   7.5101   7.5173   7.5232   7.5441
     7.5508   7.5652   7.5801   7.5891   7.6071   7.6222   7.6381   7.6583
     7.6710   7.6741   7.6961   7.7061   7.7248   7.7493   7.7554   7.7661
     7.7874   7.7929   7.8076   7.8429   7.9203   7.9387   7.9649   7.9839
    12.8349  12.9630  12.9815  13.0257  13.1777  13.3526  13.5065  13.5236
    13.6681  13.7228  13.7693  13.8347  13.8742  13.9031  13.9913  14.0244
    14.1541  14.2168  14.2897  14.3447  14.3535  14.3853  14.4487  14.4704
    14.4974  14.5179  14.5777  14.5947  14.6351  14.6712  14.6871  14.7657
    14.7796  14.8051  14.8475  14.8735  14.9094  14.9278  14.9771  15.0270
    15.0530  15.0714  15.1029  15.1310  15.1518  15.1977  15.2135  15.2289
    15.2786  15.3110  15.3312  15.3475  15.4262  15.4431  15.4790  15.5224
    15.5446  15.5922  15.6001  15.6069  15.6403  15.6470  15.6609  15.6804
    15.7085  15.7299  15.7924  15.8039  15.8288  15.8581  15.8708  15.8905
    15.9065  15.9603  15.9700  16.0020  16.0626  16.0766  16.0918  16.1535
    16.1593  16.1847  16.2091  16.2205  16.2556  16.2855  16.2942  16.3266
    16.3556  16.3984  16.4084  16.4379  16.4603  16.5043  16.5255  16.5417
    16.5495  16.5867  16.5983  16.6345  16.6580  16.6605

     occupation numbers 
     1.0000   1.0000   1.0000   1.0000   1.0000   1.0000   1.0000   1.0000
     1.0000   1.0000   1.0000   1.0000   1.0000   1.0000   1.0000   1.0000
     1.0000   1.0000   1.0000   1.0000   1.0000   1.0000   1.0000   1.0000
     1.0000   1.0000   1.0000   1.0000   1.0000   1.0000   1.0000   1.0000
     1.0000   1.0000   1.0000   1.0000   1.0000   1.0000   1.0000   1.0000
     1.0000   1.0000   1.0000   1.0000   1.0000   1.0000   1.0000   1.0000
     1.0000   1.0000   1.0000   1.0000   1.0000   1.0000   1.0000   1.0000
     1.0000   1.0000   1.0000   1.0000   1.0000   1.0000   1.0000   1.0000
     1.0000   1.0000   1.0000   1.0000   1.0000   1.0000   1.0000   1.0000
     1.0000   1.0000   1.0000   1.0000   1.0000   1.0000   1.0000   1.0000
     1.0000   1.0000   1.0000   1.0000   1.0000   1.0000   1.0000   1.0000
     1.0000   1.0000   1.0000   1.0000   1.0000   1.0000   1.0000   1.0000
     1.0000   1.0000   1.0000   1.0000   1.0000   1.0000   1.0000   1.0000
     1.0000   1.0000   1.0000   1.0000   1.0000   1.0000   1.0000   1.0000
     1.0000   1.0000   1.0000   1.0000   1.0000   1.0000   1.0000   1.0000
     1.0000   1.0000   1.0000   1.0000   1.0000   1.0000   1.0000   1.0000
     1.0000   1.0000   1.0000   1.0000   1.0000   1.0000   1.0000   1.0000
     1.0000   1.0000   1.0000   1.0000   1.0000   1.0000   1.0000   1.0000
     1.0000   1.0000   1.0000   1.0000   1.0000   1.0000   1.0000   1.0000
     1.0000   1.0000   1.0000   1.0000   1.0000   1.0000   1.0000   1.0000
     1.0000   1.0000   1.0000   1.0000   1.0000   1.0000   1.0000   1.0000
     1.0000   1.0000   1.0000   1.0000   1.0000   1.0000   1.0000   1.0000
     1.0000   1.0000   1.0000   1.0000   1.0000   1.0000   1.0000   1.0000
     1.0000   1.0000   1.0000   1.0000   1.0000   1.0000   1.0000   1.0000
     1.0000   1.0000   1.0000   1.0000   1.0000   1.0000   1.0000   1.0000
     1.0000   1.0000   1.0000   1.0000   1.0000   1.0000   1.0000   1.0000
     1.0000   1.0000   1.0000   1.0000   1.0000   1.0000   1.0000   1.0000
     1.0000   1.0000   1.0000   1.0000   1.0000   1.0000   1.0000   1.0000
     1.0000   1.0000   1.0000   1.0000   1.0000   1.0000   1.0000   1.0000
     1.0000   1.0000   1.0000   1.0000   1.0000   1.0000   1.0000   1.0000
     1.0000   1.0000   1.0000   1.0000   1.0000   1.0000   1.0000   1.0000
     1.0000   1.0000   1.0000   1.0000   1.0000   1.0000   1.0000   1.0000
     1.0000   1.0000   1.0000   1.0000   1.0000   1.0000   1.0000   1.0000
     1.0000   1.0000   1.0000   1.0000   1.0000   1.0000   1.0000   1.0000
     1.0000   1.0000   1.0000   1.0000   1.0000   1.0000   1.0000   1.0000
     1.0000   1.0000   1.0000   1.0000   1.0000   1.0000   1.0000   1.0000
     1.0000   1.0000   1.0000   1.0000   1.0000   1.0000   1.0000   1.0000
     1.0000   1.0000   1.0000   1.0000   1.0000   1.0000   1.0000   1.0000
     1.0000   1.0000   1.0000   1.0000   1.0000   1.0000   1.0000   1.0000
     1.0000   1.0000   1.0000   1.0000   1.0000   1.0000   1.0000   1.0000
     1.0000   1.0000   1.0000   1.0000   1.0000   1.0000   1.0000   1.0000
     1.0000   1.0000   1.0000   1.0000   1.0000   1.0000   1.0000   1.0000
     1.0000   1.0000   1.0000   1.0000   1.0000   1.0000   1.0000   1.0000
     1.0000   1.0000   1.0000   1.0000   1.0000   1.0000   1.0000   1.0000
     1.0000   1.0000   1.0000   1.0000   1.0000   1.0000   1.0000   1.0000
     1.0000   1.0000   1.0000   1.0000   1.0000   1.0000   1.0000   1.0000
     1.0000   1.0000   1.0000   1.0000   1.0000   1.0000   1.0000   1.0000
     1.0000   1.0000   1.0000   1.0000   1.0000   1.0000   1.0000   1.0000
     1.0000   1.0000   1.0000   1.0000   1.0000   1.0000   1.0000   1.0000
     1.0000   1.0000   1.0000   1.0000   1.0000   1.0000   1.0000   1.0000
     1.0000   1.0000   1.0000   1.0000   1.0000   1.0000   1.0000   1.0000
     1.0000   1.0000   1.0000   1.0000   1.0000   1.0000   1.0000   1.0000
     1.0000   1.0000   1.0000   1.0000   1.0000   1.0000   1.0000   1.0000
     1.0000   1.0000   1.0000   1.0000   1.0000   1.0000   1.0000   1.0000
     1.0000   1.0000   1.0000   1.0000   1.0000   1.0000   1.0000   1.0000
     1.0000   1.0000   1.0000   1.0000   1.0000   1.0000   1.0000   1.0000
     1.0000   1.0000   1.0000   1.0000   1.0000   1.0000   1.0000   1.0000
     1.0000   1.0000   1.0000   1.0000   1.0000   1.0000   1.0000   1.0000
     1.0000   1.0000   1.0000   1.0000   1.0000   1.0000   1.0000   1.0000
     1.0000   1.0000   1.0000   1.0000   1.0000   1.0000   1.0000   1.0000
     1.0000   1.0000   1.0000   1.0000   1.0000   1.0000   1.0000   1.0000
     1.0000   1.0000   1.0000   1.0000   1.0000   1.0000   1.0000   1.0000
     1.0000   1.0000   1.0000   1.0000   1.0000   1.0000   1.0000   1.0000
     1.0000   1.0000   1.0000   1.0000   1.0000   1.0000   1.0000   1.0000
     0.0000   0.0000   0.0000   0.0000   0.0000   0.0000   0.0000   0.0000
     0.0000   0.0000   0.0000   0.0000   0.0000   0.0000   0.0000   0.0000
     0.0000   0.0000   0.0000   0.0000   0.0000   0.0000   0.0000   0.0000
     0.0000   0.0000   0.0000   0.0000   0.0000   0.0000   0.0000   0.0000
     0.0000   0.0000   0.0000   0.0000   0.0000   0.0000   0.0000   0.0000
     0.0000   0.0000   0.0000   0.0000   0.0000   0.0000   0.0000   0.0000
     0.0000   0.0000   0.0000   0.0000   0.0000   0.0000   0.0000   0.0000
     0.0000   0.0000   0.0000   0.0000   0.0000   0.0000   0.0000   0.0000
     0.0000   0.0000   0.0000   0.0000   0.0000   0.0000   0.0000   0.0000
     0.0000   0.0000   0.0000   0.0000   0.0000   0.0000   0.0000   0.0000
     0.0000   0.0000   0.0000   0.0000   0.0000   0.0000   0.0000   0.0000
     0.0000   0.0000   0.0000   0.0000   0.0000   0.0000   0.0000   0.0000
     0.0000   0.0000   0.0000   0.0000   0.0000   0.0000

          k =-0.7088-0.0005 0.0007 ( 42236 PWs)   bands (ev):

   -65.0161 -64.9981 -64.9535 -64.9425 -64.9071 -64.8505 -64.8379 -64.8044
   -64.8006 -64.7955 -64.7826 -64.7823 -64.7683 -64.7666 -64.7608 -64.7475
   -64.7438 -64.7426 -64.7346 -64.7342 -64.6897 -64.6886 -64.6798 -64.6773
   -64.6646 -64.6316 -64.6257 -64.6125 -31.9840 -31.9827 -31.9749 -31.9651
   -31.9594 -31.9576 -31.9244 -31.9145 -31.9135 -31.9101 -31.9082 -31.8956
   -31.8733 -31.8713 -31.8668 -31.8205 -31.8130 -31.8090 -31.8072 -31.8042
   -31.7949 -31.7707 -31.7698 -31.7695 -31.7663 -31.7633 -31.7627 -31.7596
   -31.7580 -31.7550 -31.7514 -31.7484 -31.7469 -31.7467 -31.7427 -31.7407
   -31.7371 -31.7367 -31.7327 -31.7306 -31.7293 -31.7273 -31.7258 -31.7235
   -31.7232 -31.7173 -31.7146 -31.7126 -31.7108 -31.7086 -31.7061 -31.7054
   -31.7022 -31.7002 -31.7001 -31.6985 -31.6970 -31.6956 -31.6928 -31.6881
   -31.6592 -31.6574 -31.6535 -31.6503 -31.6490 -31.6478 -31.6455 -31.6446
   -31.6433 -31.6422 -31.6364 -31.6353 -31.6332 -31.6279 -31.6256 -31.5993
   -31.5941 -31.5939 -31.5909 -31.5893 -31.5856 -31.5793 -31.5739 -31.5715
   -28.5328 -28.4754 -28.4475 -28.4288 -28.4126 -28.3994 -28.3804 -28.3746
   -28.3451 -28.3377 -28.3255 -28.3085 -28.3056 -28.2979 -28.2929 -28.2859
   -28.2778 -28.2741 -28.2500 -28.2406 -28.2372 -28.2354 -28.2261 -28.2134
   -28.1952 -28.1730 -28.1624 -28.1508 -28.1446 -28.1231 -28.1077 -28.1051
   -28.0990 -28.0472 -28.0125 -27.9715 -11.0153 -10.9715 -10.9354 -10.9144
   -10.8742 -10.8390 -10.8137 -10.7855 -10.7587 -10.7260 -10.7102 -10.7077
   -10.6980 -10.6670 -10.6588 -10.6231 -10.5763 -10.5634 -10.5394 -10.5193
   -10.4885 -10.4725 -10.4571 -10.4288 -10.4081 -10.3818 -10.3439 -10.3202
   -10.3083 -10.3025 -10.2861 -10.2539 -10.2352 -10.2144 -10.1956 -10.1671
   -10.1453 -10.1238 -10.1034 -10.0877 -10.0635 -10.0295 -10.0198 -10.0093
    -9.9905  -9.9877  -9.9497  -9.9256  -9.9027  -9.8824  -9.8711  -9.8427
    -9.8206  -9.8028  -9.7883  -9.7806  -9.7603  -9.7508  -9.7458  -9.6905
    -9.6841  -9.6794  -9.6733  -9.6649  -9.6401  -9.6289  -9.6144  -9.6019
    -9.5869  -9.5686  -9.5624  -9.5605  -9.5323  -9.5271  -9.5212  -9.5109
    -9.5044  -9.4882  -9.4757  -9.4673  -9.4614  -9.4472  -9.4407  -9.4265
    -9.4203  -9.4047  -9.3982  -9.3949  -9.3919  -9.3819  -9.3707  -9.3648
    -9.3513  -9.3483  -9.3417  -9.3302  -9.3202  -9.3059  -9.3035  -9.2968
    -9.2924  -9.2892  -9.2716  -9.2690  -9.2630  -9.2370  -9.2240  -9.2002
    -7.6277  -7.5764  -7.4397  -7.4088  -7.3541  -7.3198  -7.3088  -7.2714
    -7.2408  -7.1896  -7.1648  -7.1536  -7.1373  -7.1067  -7.0584  -7.0453
    -7.0357  -7.0095  -6.9840  -6.9589  -6.9560  -6.9401  -6.9165  -6.8855
    -6.8509  -6.8248  -6.8122  -6.7961  -6.7738  -6.7697  -6.7431  -6.7138
    -6.6984  -6.6476  -6.6163  -6.5961  -6.5793  -6.5593  -6.5500  -6.5166
[...]
     atom   77 type  2   force =   0.00000000E+00  0.00000000E+00  0.00000000E+00
     atom   78 type  3   force =   0.00000000E+00  0.00000000E+00  0.00000000E+00
     atom   79 type  2   force =   0.00000000E+00  0.00000000E+00  0.00000000E+00
     atom   80 type  3   force =   0.00000000E+00  0.00000000E+00  0.00000000E+00
     atom   81 type  1   force =   0.00000000E+00  0.00000000E+00  0.00000000E+00
     atom   82 type  3   force =   0.00000000E+00  0.00000000E+00  0.00000000E+00
     atom   83 type  1   force =   0.00000000E+00  0.00000000E+00  0.00000000E+00
     atom   84 type  3   force =   0.00000000E+00  0.00000000E+00  0.00000000E+00
     atom   85 type  2   force =   0.00000000E+00  0.00000000E+00  0.00000000E+00
     atom   86 type  3   force =   0.00000000E+00  0.00000000E+00  0.00000000E+00
     atom   87 type  2   force =   0.00000000E+00  0.00000000E+00  0.00000000E+00
     atom   88 type  3   force =   0.00000000E+00  0.00000000E+00  0.00000000E+00
     atom   89 type  1   force =   0.00000000E+00  0.00000000E+00  0.00000000E+00
     atom   90 type  3   force =   0.00000000E+00  0.00000000E+00  0.00000000E+00
     atom   91 type  1   force =   0.00000000E+00  0.00000000E+00  0.00000000E+00
     atom   92 type  3   force =   0.00000000E+00  0.00000000E+00  0.00000000E+00
     atom   93 type  1   force =   0.00000000E+00  0.00000000E+00  0.00000000E+00
     atom   94 type  3   force =   0.00000000E+00  0.00000000E+00  0.00000000E+00
     atom   95 type  1   force =   0.00000000E+00  0.00000000E+00  0.00000000E+00
     atom   96 type  3   force =   0.00000000E+00  0.00000000E+00  0.00000000E+00
     atom   97 type  2   force =   0.00000000E+00  0.00000000E+00  0.00000000E+00
     atom   98 type  3   force =   0.00000000E+00  0.00000000E+00  0.00000000E+00
     atom   99 type  1   force =   0.00000000E+00  0.00000000E+00  0.00000000E+00
     atom  100 type  3   force =   0.00000000E+00  0.00000000E+00  0.00000000E+00
     atom  101 type  2   force =   0.00000000E+00  0.00000000E+00  0.00000000E+00
     atom  102 type  3   force =   0.00000000E+00  0.00000000E+00  0.00000000E+00
     atom  103 type  1   force =   0.00000000E+00  0.00000000E+00  0.00000000E+00
     atom  104 type  3   force =   0.00000000E+00  0.00000000E+00  0.00000000E+00
     atom  105 type  2   force =   0.00000000E+00  0.00000000E+00  0.00000000E+00
     atom  106 type  3   force =   0.00000000E+00  0.00000000E+00  0.00000000E+00
     atom  107 type  2   force =   0.00000000E+00  0.00000000E+00  0.00000000E+00
     atom  108 type  3   force =   0.00000000E+00  0.00000000E+00  0.00000000E+00
     atom  109 type  1   force =   0.00000000E+00  0.00000000E+00  0.00000000E+00
     atom  110 type  3   force =   0.00000000E+00  0.00000000E+00  0.00000000E+00
     atom  111 type  2   force =   0.00000000E+00  0.00000000E+00  0.00000000E+00
     atom  112 type  3   force =   0.00000000E+00  0.00000000E+00  0.00000000E+00
     atom  113 type  2   force =   0.00000000E+00  0.00000000E+00  0.00000000E+00
     atom  114 type  3   force =   0.00000000E+00  0.00000000E+00  0.00000000E+00
     atom  115 type  1   force =   0.00000000E+00  0.00000000E+00  0.00000000E+00
     atom  116 type  3   force =   0.00000000E+00  0.00000000E+00  0.00000000E+00
     atom  117 type  1   force =   0.00000000E+00  0.00000000E+00  0.00000000E+00
     atom  118 type  3   force =   0.00000000E+00  0.00000000E+00  0.00000000E+00
     atom  119 type  2   force =   0.00000000E+00  0.00000000E+00  0.00000000E+00
     atom  120 type  3   force =   0.00000000E+00  0.00000000E+00  0.00000000E+00
     atom  121 type  2   force =   0.00000000E+00  0.00000000E+00  0.00000000E+00
     atom  122 type  3   force =   0.00000000E+00  0.00000000E+00  0.00000000E+00
     atom  123 type  2   force =   0.00000000E+00  0.00000000E+00  0.00000000E+00
     atom  124 type  3   force =   0.00000000E+00  0.00000000E+00  0.00000000E+00
     atom  125 type  2   force =   0.00000000E+00  0.00000000E+00  0.00000000E+00
     atom  126 type  3   force =   0.00000000E+00  0.00000000E+00  0.00000000E+00
     atom  127 type  2   force =   0.00000000E+00  0.00000000E+00  0.00000000E+00
     atom  128 type  3   force =   0.00000000E+00  0.00000000E+00  0.00000000E+00
     The SCF correction term to forces
     atom    1 type  2   force =  -0.13847157E-05  0.73119547E-06 -0.10744647E-05
     atom    2 type  3   force =  -0.83667758E-06 -0.12275618E-05 -0.51604035E-06
     atom    3 type  2   force =  -0.19274557E-05 -0.14613200E-05  0.34291938E-06
     atom    4 type  3   force =  -0.13708521E-05 -0.77536943E-06  0.22164660E-06
     atom    5 type  2   force =   0.26354026E-06  0.15759440E-05 -0.29565075E-05
     atom    6 type  3   force =   0.10296993E-05  0.15823234E-05 -0.30594817E-05
     atom    7 type  1   force =   0.81271361E-06  0.24157630E-05 -0.16719800E-05
     atom    8 type  3   force =   0.62314516E-06  0.96423148E-06 -0.47046242E-06
     atom    9 type  1   force =  -0.95108194E-06  0.18686448E-05 -0.66499362E-06
     atom   10 type  3   force =  -0.59489918E-06 -0.15761520E-06 -0.16463079E-06
     atom   11 type  2   force =  -0.18812363E-05 -0.15300463E-05 -0.19154218E-07
     atom   12 type  3   force =  -0.19636027E-05 -0.12061180E-05  0.15837185E-05
     atom   13 type  2   force =  -0.16546953E-05  0.14696666E-05 -0.21069587E-05
     atom   14 type  3   force =   0.14786311E-05  0.24158688E-05 -0.10985679E-05
     atom   15 type  1   force =  -0.10571275E-05  0.37750590E-05 -0.36477592E-05
     atom   16 type  3   force =  -0.17252055E-06  0.41111476E-06 -0.72805298E-06
     atom   17 type  2   force =   0.81632611E-06 -0.19517515E-05  0.14395283E-05
     atom   18 type  3   force =   0.14980040E-05 -0.12316705E-05  0.13351566E-05
     atom   19 type  2   force =  -0.16749109E-06 -0.35468165E-05  0.30548373E-05
     atom   20 type  3   force =  -0.77194098E-06 -0.23012754E-05  0.17585037E-05
     atom   21 type  2   force =   0.61874447E-06 -0.12139045E-05  0.21696905E-05
     atom   22 type  3   force =   0.26389294E-05  0.51238109E-07 -0.42839404E-06
     atom   23 type  1   force =   0.42497518E-05  0.14249352E-05 -0.76187354E-06
     atom   24 type  3   force =   0.15571975E-05 -0.14002094E-05  0.20174275E-06
     atom   25 type  1   force =   0.14136019E-05 -0.50325263E-06  0.47050161E-06
     atom   26 type  3   force =  -0.74124242E-06 -0.10826607E-05  0.81934734E-07
     atom   27 type  1   force =  -0.16905455E-05 -0.39629407E-05  0.27053150E-05
     atom   28 type  3   force =   0.27591852E-06 -0.67957519E-06  0.15372098E-06
     atom   29 type  1   force =   0.30870529E-05 -0.16224458E-05  0.92839334E-06
     atom   30 type  3   force =   0.16384612E-05  0.67703929E-06 -0.19504221E-05
     atom   31 type  1   force =   0.37446852E-05 -0.58593747E-06 -0.15025376E-05
     atom   32 type  3   force =   0.13945058E-06 -0.23977965E-06 -0.12132702E-05
     atom   33 type  2   force =  -0.17792872E-05 -0.83363816E-06 -0.13684608E-05
     atom   34 type  3   force =  -0.73613045E-06  0.86352445E-06  0.44034838E-06
     atom   35 type  2   force =  -0.14711259E-05  0.95201432E-06 -0.24096138E-07
     atom   36 type  3   force =  -0.25799055E-05  0.55625649E-06  0.15999415E-05
     atom   37 type  2   force =  -0.11242429E-05  0.19580842E-05 -0.13030671E-05
     atom   38 type  3   force =  -0.64067668E-07  0.19560657E-05 -0.16913917E-05
     atom   39 type  2   force =   0.74986656E-06  0.21732954E-05 -0.26654171E-05
     atom   40 type  3   force =  -0.17098169E-06  0.12911974E-06 -0.80869789E-06
     atom   41 type  2   force =  -0.53113201E-06 -0.13741070E-05  0.33258295E-06
     atom   42 type  3   force =   0.19361907E-06  0.11946842E-05  0.72206009E-06
     atom   43 type  1   force =  -0.24018283E-05 -0.11945408E-05 -0.61785344E-06
     atom   44 type  3   force =  -0.17098204E-05 -0.16070380E-05  0.21028534E-05
     atom   45 type  2   force =  -0.15287266E-05  0.15946959E-05  0.12446261E-06
     atom   46 type  3   force =   0.15744711E-05  0.10156784E-05 -0.22952785E-05
     atom   47 type  1   force =   0.94520627E-06  0.33180002E-05 -0.22138122E-05
     atom   48 type  3   force =  -0.32069381E-06 -0.65035707E-07 -0.12485887E-05
     atom   49 type  2   force =   0.14389137E-05 -0.14122747E-05  0.76906803E-06
     atom   50 type  3   force =  -0.77615823E-06 -0.69003872E-06  0.80243243E-06
     atom   51 type  1   force =  -0.10656451E-05 -0.21160314E-05  0.31426372E-05
     atom   52 type  3   force =  -0.60869082E-06 -0.16001020E-05  0.19255777E-05
     atom   53 type  1   force =  -0.10307648E-05  0.65591694E-06  0.12859863E-05
     atom   54 type  3   force =   0.24659442E-05 -0.42663876E-06  0.37124526E-06
     atom   55 type  1   force =   0.18757044E-05  0.24926469E-05 -0.14226599E-05
     atom   56 type  3   force =   0.20453398E-05 -0.11081564E-06  0.11277681E-05
     atom   57 type  2   force =   0.72541481E-06 -0.52540608E-06  0.66677437E-06
     atom   58 type  3   force =  -0.14286633E-05  0.19267082E-06  0.10146589E-05
     atom   59 type  2   force =  -0.24330686E-05 -0.14870610E-05  0.11812039E-05
     atom   60 type  3   force =  -0.22066659E-05  0.78044418E-06  0.12748389E-05
     atom   61 type  1   force =   0.15226814E-05 -0.11147500E-05  0.24261674E-05
     atom   62 type  3   force =  -0.49280694E-06  0.17231578E-05 -0.71707223E-07
     atom   63 type  1   force =   0.35107145E-05  0.15564154E-06 -0.86294232E-06
     atom   64 type  3   force =   0.10172662E-06  0.92776869E-06 -0.77357970E-06
     atom   65 type  2   force =  -0.12208564E-05  0.25499751E-05 -0.17642117E-06
     atom   66 type  3   force =  -0.21152085E-06  0.14708795E-05 -0.11898790E-05
     atom   67 type  2   force =  -0.29110875E-05  0.31033170E-05  0.13149108E-05
     atom   68 type  3   force =  -0.30117388E-05 -0.15537457E-05 -0.10517544E-05
     atom   69 type  1   force =  -0.28990132E-05  0.81739659E-06  0.74238566E-07
     atom   70 type  3   force =   0.30003591E-06  0.28991589E-05 -0.35766117E-06
     atom   71 type  2   force =   0.17096945E-06  0.12188584E-05 -0.27250283E-05
     atom   72 type  3   force =  -0.98311989E-06  0.12265131E-05 -0.15011785E-05
     atom   73 type  2   force =  -0.16818433E-06  0.21301045E-05 -0.10615608E-05
     atom   74 type  3   force =   0.40107177E-06 -0.98127915E-06 -0.20011877E-05
     atom   75 type  1   force =  -0.36593603E-05  0.38053242E-06  0.80033321E-06
     atom   76 type  3   force =  -0.15561392E-05 -0.43650556E-06  0.14736536E-05
     atom   77 type  2   force =  -0.11466990E-05 -0.50025916E-06 -0.67812760E-06
     atom   78 type  3   force =  -0.57542130E-06  0.10030805E-05 -0.58329449E-06
     atom   79 type  2   force =   0.45389561E-06  0.11033495E-05 -0.25590588E-05
     atom   80 type  3   force =   0.13407387E-05  0.82231504E-06 -0.20528177E-05
     atom   81 type  1   force =   0.23418043E-05 -0.23354014E-06 -0.24835085E-06
     atom   82 type  3   force =   0.19799551E-05 -0.64396928E-06  0.56698386E-06
     atom   83 type  1   force =  -0.13699533E-05 -0.32592512E-05  0.87812456E-06
     atom   84 type  3   force =   0.59427358E-06 -0.16848668E-05  0.34731522E-05
     atom   85 type  2   force =   0.37741704E-06 -0.18572236E-05  0.16107009E-05
     atom   86 type  3   force =   0.12749212E-05 -0.22578972E-05  0.65291877E-06
     atom   87 type  2   force =   0.29886541E-05 -0.11242107E-05 -0.10177572E-05
     atom   88 type  3   force =   0.27186148E-05 -0.17782821E-05 -0.57499074E-06
     atom   89 type  1   force =   0.15695601E-05 -0.25000514E-05 -0.76906244E-07
     atom   90 type  3   force =   0.63591336E-06  0.52699839E-06 -0.12780096E-06
     atom   91 type  1   force =   0.71229083E-06 -0.68671501E-06  0.47583380E-05
     atom   92 type  3   force =  -0.68773636E-06 -0.16659593E-05  0.58868043E-06
     atom   93 type  1   force =  -0.15410043E-06 -0.19084333E-05  0.38446347E-05
     atom   94 type  3   force =   0.75591003E-06 -0.74994605E-06 -0.13317882E-05
     atom   95 type  1   force =   0.41421884E-05 -0.55419026E-06 -0.21867283E-06
     atom   96 type  3   force =   0.86903014E-06  0.27571306E-06  0.15181728E-06
     atom   97 type  2   force =  -0.41573429E-06  0.19474423E-05 -0.18578067E-05
     atom   98 type  3   force =  -0.11273290E-05  0.57798892E-06 -0.35419867E-06
     atom   99 type  1   force =  -0.22368266E-05 -0.30353503E-05 -0.14539916E-05
     atom  100 type  3   force =  -0.79984459E-06  0.30853712E-06  0.44306385E-06
     atom  101 type  2   force =  -0.42380785E-06  0.11154370E-05 -0.26952776E-06
     atom  102 type  3   force =  -0.66037020E-06  0.15343485E-05 -0.28353039E-05
     atom  103 type  1   force =   0.88854932E-07  0.21121932E-05 -0.10464113E-05
     atom  104 type  3   force =  -0.14004625E-05  0.14371275E-05 -0.80981255E-06
     atom  105 type  2   force =  -0.35913048E-06  0.22474383E-05 -0.30600361E-05
     atom  106 type  3   force =  -0.73007360E-06  0.71420990E-06  0.80568384E-06
     atom  107 type  2   force =  -0.18751662E-05 -0.84360516E-06 -0.31459531E-07
     atom  108 type  3   force =  -0.47620300E-06 -0.19756317E-05 -0.33480826E-07
     atom  109 type  1   force =  -0.26069081E-05  0.12833495E-05 -0.20578035E-05
     atom  110 type  3   force =  -0.19244906E-06  0.83719468E-06 -0.11570657E-05
     atom  111 type  2   force =  -0.14863076E-05  0.30399448E-05 -0.34668562E-05
     atom  112 type  3   force =  -0.74748011E-06  0.25898222E-05  0.41653910E-06
     atom  113 type  2   force =   0.11812055E-05  0.93515986E-06  0.10234732E-05
     atom  114 type  3   force =   0.78261546E-06 -0.10608161E-05  0.11608434E-05
     atom  115 type  1   force =  -0.24933600E-06 -0.18769598E-05  0.34873327E-05
     atom  116 type  3   force =  -0.86897986E-07 -0.31619855E-05  0.15034434E-05
     atom  117 type  1   force =   0.66150837E-06 -0.28056789E-05  0.19521610E-05
     atom  118 type  3   force =   0.21749450E-05  0.61769034E-06  0.15238243E-05
     atom  119 type  2   force =   0.23627028E-05  0.57713678E-06  0.68216021E-08
     atom  120 type  3   force =   0.56093162E-06  0.28096285E-06  0.22979601E-05
     atom  121 type  2   force =   0.12132342E-05  0.72831916E-06  0.19895611E-05
     atom  122 type  3   force =  -0.60807210E-07 -0.23886262E-07 -0.49025591E-06
     atom  123 type  2   force =   0.10187495E-05 -0.29397952E-05  0.14217478E-05
     atom  124 type  3   force =  -0.14105406E-05 -0.13435016E-05  0.80424970E-06
     atom  125 type  2   force =   0.57856733E-06 -0.41873794E-05  0.10389261E-05
     atom  126 type  3   force =   0.12558558E-05  0.18433166E-05 -0.21980051E-06
     atom  127 type  2   force =   0.21388256E-05  0.16003631E-05  0.20930589E-05
     atom  128 type  3   force =  -0.44389932E-06  0.17523170E-06  0.32777714E-06

     Total force =     0.450479     Total SCF correction =     0.000031


     entering subroutine stress ...

          total   stress  (Ry/bohr**3)                   (kbar)     P=   67.45
   0.0004818346   0.0000139318  -0.0000007132         70.88      2.05     -0.10
   0.0000139318   0.0004105380   0.0000092634          2.05     60.39      1.36
  -0.0000007132   0.0000092634   0.0004832724         -0.10      1.36     71.09

     kinetic stress (kbar)  21476.48      2.02      1.03
                                2.02  21461.92      0.87
                                1.03      0.87  21478.32

     local   stress (kbar)  -2941.41     16.91    -18.67
                               16.91  -2316.61     26.16
                              -18.67     26.16  -2780.75

     nonloc. stress (kbar)   5356.17     -0.24     -0.21
                               -0.24   5355.04     -0.06
                               -0.21     -0.06   5354.94

     hartree stress (kbar)  10543.29     -7.71      3.36
                               -7.71  10315.23    -11.77
                                3.36    -11.77  10480.38

     exc-cor stress (kbar)  -5188.16     -0.01      0.05
                               -0.01  -5188.65     -0.03
                                0.05     -0.03  -5188.24

     corecor stress (kbar)  -1169.00     -0.00     -0.00
                               -0.00  -1168.93     -0.00
                               -0.00     -0.00  -1169.00

     ewald   stress (kbar) -28006.50     -8.93     14.34
                               -8.93 -28397.61    -13.82
                               14.34    -13.82 -28104.56

     hubbard stress (kbar)      0.00      0.00      0.00
                                0.00      0.00      0.00
                                0.00      0.00      0.00

     london  stress (kbar)      0.00      0.00      0.00
                                0.00      0.00      0.00
                                0.00      0.00      0.00

     XDM     stress (kbar)      0.00      0.00      0.00
                                0.00      0.00      0.00
                                0.00      0.00      0.00

     dft-nl  stress (kbar)      0.00      0.00      0.00
                                0.00      0.00      0.00
                                0.00      0.00      0.00



     Writing output data file mix_rocksalt.relax.in.up_1.00.super.444.a.044.save

     init_run     :    820.12s CPU    611.56s WALL (       1 calls)
     electrons    :  58401.92s CPU  47916.14s WALL (       1 calls)
     forces       :    564.56s CPU    386.57s WALL (       1 calls)
     stress       :   2098.14s CPU   2074.11s WALL (       1 calls)

     Called by init_run:
     wfcinit      :    769.41s CPU    560.26s WALL (       1 calls)
     potinit      :      6.94s CPU      7.03s WALL (       1 calls)

     Called by electrons:
     c_bands      :  51467.10s CPU  41718.04s WALL (      27 calls)
     sum_band     :   6238.30s CPU   5481.35s WALL (      27 calls)
     v_of_rho     :     14.75s CPU     16.46s WALL (      28 calls)
     v_h          :      0.87s CPU      1.10s WALL (      28 calls)
     v_xc         :     14.84s CPU     16.41s WALL (      30 calls)
     newd         :    689.50s CPU    705.16s WALL (      28 calls)
     mix_rho      :     22.76s CPU     25.56s WALL (      27 calls)

     Called by c_bands:
     init_us_2    :     68.46s CPU     70.73s WALL (     456 calls)
     cegterg      :  51021.38s CPU  41255.89s WALL (     216 calls)

     Called by sum_band:
     sum_band:bec :     19.60s CPU     19.77s WALL (     216 calls)
     addusdens    :    539.83s CPU    545.88s WALL (      27 calls)

     Called by *egterg:
     h_psi        :  21908.91s CPU  18472.67s WALL (     806 calls)
     s_psi        :   6309.00s CPU   3976.09s WALL (     806 calls)
     g_psi        :     12.11s CPU     13.35s WALL (     582 calls)
     cdiaghg      :  10999.78s CPU  10603.83s WALL (     798 calls)
     cegterg:over :   5501.33s CPU   3754.60s WALL (     582 calls)
     cegterg:upda :   2419.79s CPU   1608.38s WALL (     582 calls)
     cegterg:last :   1846.82s CPU   1168.65s WALL (     216 calls)

     Called by h_psi:
     h_psi:vloc   :   8091.83s CPU   9584.07s WALL (     806 calls)
     h_psi:vnl    :  13792.05s CPU   8862.92s WALL (     806 calls)
     add_vuspsi   :   6267.30s CPU   3955.00s WALL (     806 calls)

     General routines
     calbec       :  11297.51s CPU   7392.19s WALL (    1038 calls)
     fft          :    189.90s CPU    192.84s WALL (     469 calls)
     ffts         :     13.70s CPU     15.50s WALL (     731 calls)
     fftw         :   9047.43s CPU  10899.93s WALL (  727732 calls)
     interpolate  :      3.05s CPU      3.74s WALL (      55 calls)

     Parallel routines
     fft_scatter  :   5290.56s CPU   6405.27s WALL (  728932 calls)

     PWSCF        :    17h11m CPU       14h10m WALL


   This run was terminated on:  10: 2:43   4Nov2017            

=------------------------------------------------------------------------------=
   JOB DONE.
=------------------------------------------------------------------------------=
