
     Program PWSCF v.5.1 starts on  3Nov2017 at 13:47:44 

     This program is part of the open-source Quantum ESPRESSO suite
     for quantum simulation of materials; please cite
         "P. Giannozzi et al., J. Phys.:Condens. Matter 21 395502 (2009);
          URL http://www.quantum-espresso.org", 
     in publications or presentations arising from this work. More details at
     http://www.quantum-espresso.org/quote

     Parallel version (MPI), running on     8 processors
     R & G space division:  proc/nbgrp/npool/nimage =       8
     Reading input from /tmp/mix_rocksalt.relax.in.up_1.00.super.444.a.01.18090/mix_rocksalt.relax.in.up_1.00.super.444.a.01.t
Warning: card &IONS ignored
Warning: card   ION_DYNAMICS='BFGS', ignored
Warning: card / ignored
Warning: card &CELL ignored
Warning: card  CELL_DYNAMICS = 'BFGS' ignored
Warning: card / ignored
     Message from routine read_cards :
     DEPRECATED: no units specified in CELL_PARAMETERS card

     Current dimensions of program PWSCF are:
     Max number of different atomic species (ntypx) = 10
     Max number of k-points (npk) =  40000
     Max angular momentum in pseudopotentials (lmaxx) =  3
 kfg - two_fermi_energies  F

     Subspace diagonalization in iterative solution of the eigenvalue problem:
     a serial algorithm will be used


     Parallelization info
     --------------------
     sticks:   dense  smooth     PW     G-vecs:    dense   smooth      PW
     Min         996     797    209                58779    42060    5723
     Max         997     798    210                58780    42085    5724
     Sum        7973    6377   1675               470235   336607   45787



     bravais-lattice index     =            0
     lattice parameter (alat)  =    24.049011673  a.u.
     unit-cell volume          =    9845.7090 (a.u.)^3
     number of atoms/cell      =          128
     number of atomic types    =            3
     number of electrons       =      1024.00
     number of Kohn-Sham states=          614
     kinetic-energy cutoff     =      40.0000  Ry
     charge density cutoff     =     200.0000  Ry
     convergence threshold     =      1.0E-10
     mixing beta               =       0.3000
     number of iterations used =            8  local-TF  mixing
     Exchange-correlation      = SLA  PW   PSX  PSC ( 1  4 10  8 0)
     A smooth kinetic-energy cutoff is imposed at      39.5000 Ry
     height of the smooth step-function =             800.0000 Ry
     width of the smooth step-function  =               1.0000 Ry


     celldm(1)=  24.049012  celldm(2)=   0.000000  celldm(3)=   0.000000
     celldm(4)=   0.000000  celldm(5)=   0.000000  celldm(6)=   0.000000

     crystal axes: (cart. coord. in units of alat)
               a(1) = (   0.001108996281   0.706382708254   0.707829244668 )  
               a(2) = (   0.707089568720   0.000716581909   0.709248955505 )  
               a(3) = (   0.709054500221   0.708193005159   0.001796322690 )  

     reciprocal axes: (cart. coord. in units 2 pi/alat)
               b(1) = ( -0.709568  0.708638  0.706692 )  
               b(2) = (  0.706357 -0.709008  0.706452 )  
               b(3) = (  0.707039  0.705935 -0.705600 )  


     PseudoPot. # 1 for Mg read from file:
     /users/kfg/psuedo/gbrv_1.5/mg.pbesol.UPF
     MD5 check sum: 4059f37963cf5867752dbf5ab2400678
     Pseudo is Ultrasoft, Zval = 10.0
     Generated by new atomic code, or converted to UPF format
     Using radial grid of  821 points,  7 beta functions with: 
                l(1) =   0
                l(2) =   0
                l(3) =   0
                l(4) =   1
                l(5) =   1
                l(6) =   2
                l(7) =   2
     Q(r) pseudized with  8 coefficients,  rinner =    1.200   1.200   1.200
                                                       1.200   1.200

     PseudoPot. # 2 for Ca read from file:
     /users/kfg/psuedo/gbrv_1.5/ca.pbesol.UPF
     MD5 check sum: 0533207b58cddeaa036efa5b63902087
     Pseudo is Ultrasoft + core correction, Zval = 10.0
     Generated by new atomic code, or converted to UPF format
     Using radial grid of  845 points,  6 beta functions with: 
                l(1) =   0
                l(2) =   0
                l(3) =   1
                l(4) =   1
                l(5) =   2
                l(6) =   2
     Q(r) pseudized with  8 coefficients,  rinner =    1.500   1.500   1.500
                                                       1.500   1.500

     PseudoPot. # 3 for O  read from file:
     /users/kfg/psuedo/gbrv_1.5/o.pbesol.UPF
     MD5 check sum: 501638753501ef6325af9037351f7734
     Pseudo is Ultrasoft + core correction, Zval =  6.0
     Generated by new atomic code, or converted to UPF format
     Using radial grid of  737 points,  5 beta functions with: 
                l(1) =   0
                l(2) =   0
                l(3) =   1
                l(4) =   1
                l(5) =   2
     Q(r) pseudized with  8 coefficients,  rinner =    0.900   0.900   0.900
                                                       0.900   0.900

     atomic species   valence    mass     pseudopotential
        Mg            10.00    24.30500     Mg( 1.00)
        Ca            10.00    24.30500     Ca( 1.00)
        O              6.00    15.99940     O ( 1.00)

     No symmetry found


                                    s                        frac. trans.

      isym =  1     identity                                     

 cryst.   s( 1) = (     1          0          0      )
                  (     0          1          0      )
                  (     0          0          1      )

 cart.    s( 1) = (  1.0000000 -0.0000000  0.0000000 )
                  ( -0.0000000  1.0000000  0.0000000 )
                  (  0.0000000  0.0000000  1.0000000 )


     point group C_1 (1)    
     there are  1 classes
     the character table:

       E    
A      1.00

     the symmetry operations in each class:
     E        1

   Cartesian axes

     site n.     atom                  positions (alat units)
         1           Mg  tau(   1) = (    0.00032384846   -0.00163979792    0.00108156261  )
         2           O   tau(   2) = (    0.17881841079    0.17591295122    0.17665476360  )
         3           Mg  tau(   3) = (    0.17572501626    0.17855418115    0.00200570000  )
         4           O   tau(   4) = (    0.35506508405    0.35340789527    0.17729044849  )
         5           Ca  tau(   5) = (    0.35468773057    0.35247856976    0.00254395151  )
         6           O   tau(   6) = (    0.52978536061    0.53063680189    0.17940667760  )
         7           Ca  tau(   7) = (    0.53078398987    0.53050492798    0.00093995503  )
         8           O   tau(   8) = (    0.70743794397    0.70888641230    0.17714330408  )
         9           Mg  tau(   9) = (    0.17524516490   -0.00067608040    0.17923177417  )
        10           O   tau(  10) = (    0.35193545966    0.17901989091    0.35427523317  )
        11           Mg  tau(  11) = (    0.35393974126    0.17579147750    0.17900692922  )
        12           O   tau(  12) = (    0.53326403419    0.35297790212    0.35456110756  )
        13           Mg  tau(  13) = (    0.53272502822    0.35630197227    0.17964585360  )
        14           O   tau(  14) = (    0.70823336180    0.53187812072    0.35632514771  )
        15           Mg  tau(  15) = (    0.70802928592    0.53005827141    0.17738618111  )
        16           O   tau(  16) = (    0.88437152984    0.70771308703    0.35585229553  )
        17           Ca  tau(  17) = (    0.35369247021   -0.00143402324    0.35489545376  )
        18           O   tau(  18) = (    0.52892593655    0.17843058489    0.53166647039  )
        19           Ca  tau(  19) = (    0.53184343503    0.17653076868    0.35460558961  )
        20           O   tau(  20) = (    0.70815350913    0.35564888728    0.53102591965  )
        21           Ca  tau(  21) = (    0.70716951721    0.35477276969    0.35724585993  )
        22           O   tau(  22) = (    0.88601131218    0.53131142204    0.53247398231  )
        23           Mg  tau(  23) = (    0.88540277414    0.53244321782    0.35773845957  )
        24           O   tau(  24) = (    1.06217624067    0.70752513249    0.53139557179  )
        25           Ca  tau(  25) = (    0.52941575162   -0.00027357863    0.53165065724  )
        26           O   tau(  26) = (    0.70913687178    0.17827911680    0.71071041636  )
        27           Mg  tau(  27) = (    0.70626361653    0.17889873048    0.53357618770  )
        28           O   tau(  28) = (    0.88560261387    0.35451030723    0.71029713313  )
        29           Mg  tau(  29) = (    0.88564516950    0.35394635785    0.53404564614  )
        30           O   tau(  30) = (    1.06072095979    0.53062666391    0.70869249465  )
        31           Mg  tau(  31) = (    1.06110241132    0.53301365624    0.53133256766  )
        32           O   tau(  32) = (    1.23888025114    0.70865899836    0.71270575601  )
        33           Ca  tau(  33) = (   -0.00055083656    0.17672407375    0.17782273622  )
        34           O   tau(  34) = (    0.17686746851    0.35281639565    0.35586572781  )
        35           Mg  tau(  35) = (    0.17734009160    0.35468472752    0.17573762808  )
        36           O   tau(  36) = (    0.35295807352    0.52879361877    0.35508118563  )
        37           Ca  tau(  37) = (    0.35593881589    0.53117248080    0.17579028424  )
        38           O   tau(  38) = (    0.53323535899    0.70948011843    0.35580747505  )
        39           Ca  tau(  39) = (    0.53410460684    0.70838971646    0.17764433763  )
        40           O   tau(  40) = (    0.70871729659    0.88280129762    0.35672189927  )
        41           Mg  tau(  41) = (    0.17548198946    0.17485231881    0.35219567178  )
        42           O   tau(  42) = (    0.35483121711    0.35352835890    0.53341676398  )
        43           Mg  tau(  43) = (    0.35490811290    0.35570538312    0.35580367638  )
        44           O   tau(  44) = (    0.53029509547    0.52926789427    0.53155116354  )
        45           Mg  tau(  45) = (    0.53306319353    0.53271127519    0.35651949676  )
        46           O   tau(  46) = (    0.71043478055    0.70634542622    0.53055211324  )
        47           Mg  tau(  47) = (    0.70883436279    0.70795717754    0.35648304309  )
        48           O   tau(  48) = (    0.88558771112    0.88498200992    0.53139640621  )
        49           Ca  tau(  49) = (    0.35387213290    0.17869615568    0.53082499669  )
        50           O   tau(  50) = (    0.52965108672    0.35356332921    0.71020161742  )
        51           Mg  tau(  51) = (    0.53119080136    0.35323964770    0.53050391142  )
        52           O   tau(  52) = (    0.70621998904    0.53027902371    0.70838484087  )
        53           Ca  tau(  53) = (    0.70745235136    0.53164603220    0.53253268725  )
        54           O   tau(  54) = (    0.88563437286    0.70974366745    0.71126650437  )
        55           Mg  tau(  55) = (    0.88475908890    0.70812092701    0.53303594601  )
        56           O   tau(  56) = (    1.06252086380    0.88683489926    0.71113924832  )
        57           Mg  tau(  57) = (    0.53201581925    0.17915085030    0.70824825446  )
        58           O   tau(  58) = (    0.70908755578    0.35406488061    0.88639575738  )
        59           Ca  tau(  59) = (    0.70913543997    0.35540375050    0.70967152558  )
        60           O   tau(  60) = (    0.88589321540    0.53041846764    0.88744336642  )
        61           Ca  tau(  61) = (    0.88562712360    0.53174810117    0.71033242850  )
        62           O   tau(  62) = (    1.06061641912    0.71018842223    0.88595824041  )
        63           Mg  tau(  63) = (    1.06250956873    0.70892830588    0.71016611433  )
        64           O   tau(  64) = (    1.24065489721    0.88664502323    0.88674531400  )
        65           Ca  tau(  65) = (    0.00104900189    0.35480405760    0.35437946132  )
        66           O   tau(  66) = (    0.17937084052    0.53134776674    0.53156867248  )
        67           Ca  tau(  67) = (    0.17938461584    0.53033112337    0.35350129733  )
        68           O   tau(  68) = (    0.35340660075    0.70826522117    0.53010665180  )
        69           Mg  tau(  69) = (    0.35656335804    0.70658758098    0.35543559312  )
        70           O   tau(  70) = (    0.53103890809    0.88505238879    0.53051010531  )
        71           Mg  tau(  71) = (    0.53057840799    0.88523772717    0.35432469801  )
        72           O   tau(  72) = (    0.70994346402    1.05945310672    0.53399559905  )
        73           Mg  tau(  73) = (    0.17702451465    0.35263099909    0.52984083769  )
        74           O   tau(  74) = (    0.35639694968    0.53098138504    0.70929300825  )
        75           Ca  tau(  75) = (    0.35635012582    0.52940235676    0.53130128283  )
        76           O   tau(  76) = (    0.53083442172    0.70538051522    0.70852002122  )
        77           Ca  tau(  77) = (    0.53003288764    0.70580153546    0.53135412027  )
        78           O   tau(  78) = (    0.70741639196    0.88566372664    0.70858250382  )
        79           Mg  tau(  79) = (    0.70715143706    0.88333575960    0.53268571637  )
        80           O   tau(  80) = (    0.88796811306    1.05949781240    0.70846180834  )
        81           Ca  tau(  81) = (    0.35362322695    0.35201577953    0.70905294466  )
        82           O   tau(  82) = (    0.53078410366    0.53082862972    0.88462969013  )
        83           Ca  tau(  83) = (    0.53306547122    0.53061054576    0.70792357431  )
        84           O   tau(  84) = (    0.70709120246    0.70602819461    0.88446577066  )
        85           Mg  tau(  85) = (    0.70783407127    0.70660161197    0.70787468716  )
        86           O   tau(  86) = (    0.88755207402    0.88535827698    0.88612957485  )
        87           Mg  tau(  87) = (    0.88574976192    0.88320162715    0.71090070962  )
        88           O   tau(  88) = (    1.06129915725    1.06190527786    0.88680756184  )
        89           Mg  tau(  89) = (    0.53087706876    0.35363430561    0.88495116547  )
        90           O   tau(  90) = (    0.70663968745    0.53154619618    1.06363593779  )
        91           Mg  tau(  91) = (    0.70661671573    0.53283744888    0.88585498812  )
        92           O   tau(  92) = (    0.88407805232    0.70775396695    1.06260830741  )
        93           Ca  tau(  93) = (    0.88503972701    0.70630958393    0.88531425561  )
        94           O   tau(  94) = (    1.06156840533    0.88401035700    1.06387258484  )
        95           Ca  tau(  95) = (    1.06105359810    0.88515430263    0.88900862991  )
        96           O   tau(  96) = (    1.23881537836    1.05998021342    1.06624935197  )
        97           Mg  tau(  97) = (    0.00158174260    0.53053116071    0.53282891624  )
        98           O   tau(  98) = (    0.17839835804    0.70796335093    0.71007886226  )
        99           Ca  tau(  99) = (    0.17610508068    0.70820302014    0.53077357873  )
       100           O   tau( 100) = (    0.35574708389    0.88432084829    0.70711104115  )
       101           Ca  tau( 101) = (    0.35422715399    0.88506621441    0.53212043668  )
       102           O   tau( 102) = (    0.53304081119    1.05894001002    0.70794848552  )
       103           Ca  tau( 103) = (    0.53399717976    1.06131664569    0.53202251860  )
       104           O   tau( 104) = (    0.70927271575    1.23880943417    0.70910709413  )
       105           Mg  tau( 105) = (    0.17908711074    0.52907830202    0.70724919247  )
       106           O   tau( 106) = (    0.35422234793    0.70892222467    0.88465210423  )
       107           Ca  tau( 107) = (    0.35627692567    0.70767083742    0.70975615742  )
       108           O   tau( 108) = (    0.53007401851    0.88407050777    0.88571289341  )
       109           Ca  tau( 109) = (    0.53370270213    0.88531955459    0.70971216628  )
       110           O   tau( 110) = (    0.71108961306    1.05997568679    0.88692818427  )
       111           Mg  tau( 111) = (    0.70847467381    1.06088133629    0.71018782916  )
       112           O   tau( 112) = (    0.88784118656    1.23696724126    0.88804479397  )
       113           Ca  tau( 113) = (    0.35252619722    0.53179184739    0.88666187687  )
       114           O   tau( 114) = (    0.53194301880    0.70653895252    1.06486909588  )
       115           Mg  tau( 115) = (    0.53346725729    0.70592947304    0.88797704447  )
       116           O   tau( 116) = (    0.70961123588    0.88435884427    1.06261652169  )
       117           Ca  tau( 117) = (    0.71046644073    0.88245419905    0.88736203018  )
       118           O   tau( 118) = (    0.88546962275    1.05988234604    1.06203695655  )
       119           Mg  tau( 119) = (    0.88539446502    1.06216090962    0.88566974756  )
       120           O   tau( 120) = (    1.06125148488    1.23669362302    1.06413121787  )
       121           Ca  tau( 121) = (    0.53317759239    0.52908122106    1.06455762715  )
       122           O   tau( 122) = (    0.70786297493    0.70780308573    1.23917370850  )
       123           Mg  tau( 123) = (    0.70663121323    0.70718354362    1.06172530952  )
       124           O   tau( 124) = (    0.88558115378    0.88413312344    1.23992483377  )
       125           Mg  tau( 125) = (    0.88734506738    0.88545383689    1.06426643255  )
       126           O   tau( 126) = (    1.06101496750    1.06121008113    1.24313827864  )
       127           Ca  tau( 127) = (    1.06136468098    1.06232661380    1.06621338132  )
       128           O   tau( 128) = (    1.23891098327    1.23719660431    1.24097163580  )

   Crystallographic axes

     site n.     atom                  positions (cryst. coord.)
         1           Mg  tau(   1) = (   -0.00062748526    0.00215545469   -0.00169176726  )
         2           O   tau(   2) = (    0.12261531900    0.12638408086    0.12596713737  )
         3           Mg  tau(   3) = (    0.00325895688   -0.00105484566    0.24887688096  )
         4           O   tau(   4) = (    0.12378533061    0.12548086833    0.37543178052  )
         5           Ca  tau(   5) = (   -0.00009733531    0.00242315593    0.49781004158  )
         6           O   tau(   6) = (    0.12689618790    0.12473403171    0.62258472429  )
         7           Ca  tau(   7) = (   -0.00002677809   -0.00054530743    0.74912379881  )
         8           O   tau(   8) = (    0.12555465653    0.12224078237    0.87562172166  )
         9           Mg  tau(   9) = (    0.00183414471    0.25088365474   -0.00303796730  )
        10           O   tau(  10) = (    0.12750160479    0.37194402531    0.12523201022  )
        11           Mg  tau(  11) = (   -0.00006897154    0.25183003680    0.24803936169  )
        12           O   tau(  12) = (    0.12231204776    0.37689103718    0.37603973963  )
        13           Mg  tau(  13) = (    0.00143894606    0.25058423039    0.50142540091  )
        14           O   tau(  14) = (    0.12618165350    0.37488634128    0.62479711405  )
        15           Mg  tau(  15) = (   -0.00141780680    0.24962063329    0.74962744353  )
        16           O   tau(  16) = (    0.12546893904    0.37430029419    0.87379538733  )
        17           Ca  tau(  17) = (   -0.00118339953    0.50156651552   -0.00135203788  )
        18           O   tau(  18) = (    0.12685813203    0.62269871770    0.12478798681  )
        19           Ca  tau(  19) = (   -0.00168573735    0.50102143012    0.25044376351  )
        20           O   tau(  20) = (    0.12481504950    0.62319562512    0.37706546369  )
        21           Ca  tau(  21) = (    0.00208351293    0.50035442653    0.49837045083  )
        22           O   tau(  22) = (    0.12411743992    0.62530354391    0.62580246381  )
        23           Mg  tau(  23) = (    0.00186716045    0.50062893415    0.74946454210  )
        24           O   tau(  24) = (    0.12322618683    0.62404006858    0.87551430834  )
        25           Ca  tau(  25) = (   -0.00013725010    0.74973620121   -0.00100802313  )
        26           O   tau(  26) = (    0.12540774967    0.87658533196    0.12576388797  )
        27           Mg  tau(  27) = (    0.00270634362    0.74897959371    0.24915568162  )
        28           O   tau(  28) = (    0.12478547574    0.87599182560    0.37523144553  )
        29           Mg  tau(  29) = (   -0.00019978826    0.75190846059    0.49922645133  )
        30           O   tau(  30) = (    0.12419597452    0.87368635921    0.62450589602  )
        31           Mg  tau(  31) = (    0.00027806663    0.74696707453    0.75160580210  )
        32           O   tau(  32) = (    0.12677657400    0.87613922004    0.87331898036  )
        33           Ca  tau(  33) = (    0.25129015832   -0.00006457663   -0.00110549322  )
        34           O   tau(  34) = (    0.37600710524    0.12618407169    0.12301880486  )
        35           Mg  tau(  35) = (    0.24970071799   -0.00205866098    0.25177025472  )
        36           O   tau(  36) = (    0.37520867994    0.12524337280    0.37230380167  )
        37           Ca  tau(  37) = (    0.24807603418   -0.00099826206    0.50259826440  )
        38           O   tau(  38) = (    0.37584438735    0.12498838003    0.62680734569  )
        39           Ca  tau(  39) = (    0.24854851741    0.00051172388    0.75236407452  )
        40           O   tau(  40) = (    0.37479632304    0.12670113975    0.87258820641  )
        41           Mg  tau(  41) = (    0.24828440296    0.24879065287   -0.00100222545  )
        42           O   tau(  42) = (    0.37570808824    0.37681652123    0.12406877994  )
        43           Mg  tau(  43) = (    0.25167858539    0.24985213470    0.25098375944  )
        44           O   tau(  44) = (    0.37442195863    0.37483793614    0.37350565890  )
        45           Mg  tau(  45) = (    0.25120452249    0.25070029229    0.50139593923  )
        46           O   tau(  46) = (    0.37137856642    0.37582566493    0.62658161768  )
        47           Mg  tau(  47) = (    0.25064318428    0.25058095888    0.74941096646  )
        48           O   tau(  48) = (    0.37428109404    0.37348781994    0.87593167107  )
        49           Ca  tau(  49) = (    0.25066421362    0.49826552560    0.00179928569  )
        50           O   tau(  50) = (    0.37661866858    0.62516699237    0.12295861457  )
        51           Mg  tau(  51) = (    0.24830591800    0.49953621459    0.25061343583  )
        52           O   tau(  52) = (    0.37527469687    0.62331133561    0.37383144347  )
        53           Ca  tau(  53) = (    0.25109574090    0.49898144414    0.49974905013  )
        54           O   tau(  54) = (    0.37718002198    0.62483580095    0.62534149979  )
        55           Mg  tau(  55) = (    0.25069713438    0.49945668547    0.74933655201  )
        56           O   tau(  56) = (    0.37707078960    0.62413178177    0.87551185572  )
        57           Mg  tau(  57) = (    0.24996490822    0.74911721154    0.00288502938  )
        58           O   tau(  58) = (    0.37416664352    0.87603030921    0.12585874967  )
        59           Ca  tau(  59) = (    0.25019192479    0.75026762243    0.25153435798  )
        60           O   tau(  60) = (    0.37442231015    0.87662217643    0.37462224089  )
        61           Ca  tau(  61) = (    0.25039055151    0.75037106982    0.50034219536  )
        62           O   tau(  62) = (    0.37678672771    0.87153159862    0.62611218420  )
        63           Mg  tau(  63) = (    0.25031963749    0.74957351768    0.75060005921  )
        64           O   tau(  64) = (    0.37463737178    0.87414989547    0.87741796008  )
        65           Ca  tau(  65) = (    0.50112043758   -0.00046573693    0.00116010675  )
        66           O   tau(  66) = (    0.62491277713    0.12549793616    0.12684431590  )
        67           Ca  tau(  67) = (    0.49834386556    0.00043236725    0.25178069093  )
        68           O   tau(  68) = (    0.62575991939    0.12196054605    0.37581822742  )
        69           Mg  tau(  69) = (    0.49889258914    0.00198303132    0.50011375309  )
        70           O   tau(  70) = (    0.62528105604    0.12237384426    0.62592678676  )
        71           Mg  tau(  71) = (    0.50123041632   -0.00254942638    0.75004843486  )
        72           O   tau(  72) = (    0.62438636756    0.12755513007    0.87307551078  )
        73           Mg  tau(  73) = (    0.49871102645    0.24933156713    0.00024214740  )
        74           O   tau(  74) = (    0.62463739153    0.37635506077    0.12634782164  )
        75           Ca  tau(  75) = (    0.49776641262    0.25169886551    0.25079096515  )
        76           O   tau(  76) = (    0.62390184475    0.37537370381    0.37334180444  )
        77           Ca  tau(  77) = (    0.49956729847    0.24934976919    0.49808054035  )
        78           O   tau(  78) = (    0.62640473679    0.37232548680    0.62541630215  )
        79           Mg  tau(  79) = (    0.50063828472    0.24952619049    0.74769832852  )
        80           O   tau(  80) = (    0.62139127216    0.37652440490    0.87587415802  )
        81           Ca  tau(  81) = (    0.49961396713    0.50111426447   -0.00178196772  )
        82           O   tau(  82) = (    0.62469857280    0.62350991513    0.12582101694  )
        83           Ca  tau(  83) = (    0.49804853106    0.50044155518    0.25196389526  )
        84           O   tau(  84) = (    0.62363404072    0.62371194430    0.37427219606  )
        85           Mg  tau(  85) = (    0.49871784889    0.49907693948    0.49980487681  )
        86           O   tau(  86) = (    0.62384080556    0.62521064890    0.62728649019  )
        87           Mg  tau(  87) = (    0.49975862967    0.50167581984    0.74813119753  )
        88           O   tau(  88) = (    0.62614259139    0.62324381769    0.87428479051  )
        89           Mg  tau(  89) = (    0.49929307189    0.74943487109    0.00057227593  )
        90           O   tau(  90) = (    0.62692779803    0.87367731297    0.12435759508  )
        91           Mg  tau(  91) = (    0.50222283945    0.74715181685    0.25069511084  )
        92           O   tau(  92) = (    0.62516463225    0.87335342306    0.37492978570  )
        93           Ca  tau(  93) = (    0.49816651004    0.74980699615    0.49968874968  )
        94           O   tau(  94) = (    0.62501870266    0.87465090742    0.62395588614  )
        95           Ca  tau(  95) = (    0.50261976273    0.74994315948    0.74778343453  )
        96           O   tau(  96) = (    0.62562860595    0.87676555421    0.87182266071  )
        97           Mg  tau(  97) = (    0.75137812933    0.00138468555   -0.00032526365  )
        98           O   tau(  98) = (    0.87691105955    0.12569810019    0.12487904873  )
        99           Ca  tau(  99) = (    0.75199461049   -0.00276232983    0.24994458959  )
       100           O   tau( 100) = (    0.87394648442    0.12383408360    0.37686255660  )
       101           Ca  tau( 101) = (    0.75188879628   -0.00139051537    0.49978743652  )
       102           O   tau( 102) = (    0.87247823179    0.12585195072    0.62489503187  )
       103           Ca  tau( 103) = (    0.74915840956    0.00055912994    0.75138231371  )
       104           O   tau( 104) = (    0.87571091655    0.12362420167    0.87565648617  )
       105           Mg  tau( 105) = (    0.74765780668    0.25101649832    0.00108145916  )
       106           O   tau( 106) = (    0.87620093489    0.37254038560    0.12669156424  )
       107           Ca  tau( 107) = (    0.75025880852    0.25132324943    0.25066739346  )
       108           O   tau( 108) = (    0.87628871100    0.37332227742    0.37392038182  )
       109           Ca  tau( 109) = (    0.75022081467    0.25066371938    0.50155384205  )
       110           O   tau( 110) = (    0.87335788332    0.37732424473    0.62522559944  )
       111           Mg  tau( 111) = (    0.75095422763    0.24997642095    0.74872403816  )
       112           O   tau( 112) = (    0.87415277819    0.37747432956    0.87435252620  )
       113           Ca  tau( 113) = (    0.75330335360    0.49834895020   -0.00096827207  )
       114           O   tau( 114) = (    0.87576500321    0.62707905241    0.12350354158  )
       115           Mg  tau( 115) = (    0.74924343888    0.50362203711    0.24896599630  )
       116           O   tau( 116) = (    0.87411549526    0.62490914921    0.37624061925  )
       117           Ca  tau( 117) = (    0.74830810108    0.50305469823    0.49916027627  )
       118           O   tau( 118) = (    0.87330517561    0.62427092001    0.62489649925  )
       119           Mg  tau( 119) = (    0.75033597160    0.49800729105    0.75089655929  )
       120           O   tau( 120) = (    0.87535129303    0.62455452507    0.87252070692  )
       121           Ca  tau( 121) = (    0.74891549682    0.75355000435   -0.00067738050  )
       122           O   tau( 122) = (    0.87501326452    0.87358291902    0.12578894710  )
       123           Mg  tau( 123) = (    0.75004697242    0.74779328580    0.24968825659  )
       124           O   tau( 124) = (    0.87439522633    0.87462659540    0.37539019992  )
       125           Mg  tau( 125) = (    0.74994321539    0.75084186915    0.50151424128  )
       126           O   tau( 126) = (    0.87766749681    0.87526663417    0.62216618116  )
       127           Ca  tau( 127) = (    0.75317924440    0.74973302479    0.74803982864  )
       128           O   tau( 128) = (    0.87461788166    0.87461821739    0.87370944966  )

     number of k points=     8  gaussian smearing, width (Ry)=  0.0050
                       cart. coord. in units 2pi/alat
        k(    1) = (   0.0000000   0.0000000   0.0000000), wk =   0.2500000
        k(    2) = (  -0.3535197  -0.3529674   0.3527999), wk =   0.2500000
        k(    3) = (  -0.3531784   0.3545040  -0.3532262), wk =   0.2500000
        k(    4) = (  -0.7066980   0.0015366  -0.0004262), wk =   0.2500000
        k(    5) = (   0.3547839  -0.3543192  -0.3533458), wk =   0.2500000
        k(    6) = (   0.0012643  -0.7072866  -0.0005458), wk =   0.2500000
        k(    7) = (   0.0016055   0.0001847  -0.7065719), wk =   0.2500000
        k(    8) = (  -0.3519141  -0.3527827  -0.3537720), wk =   0.2500000

                       cryst. coord.
        k(    1) = (   0.0000000   0.0000000   0.0000000), wk =   0.2500000
        k(    2) = (   0.0000000   0.0000000  -0.5000000), wk =   0.2500000
        k(    3) = (   0.0000000  -0.5000000  -0.0000000), wk =   0.2500000
        k(    4) = (   0.0000000  -0.5000000  -0.5000000), wk =   0.2500000
        k(    5) = (  -0.5000000  -0.0000000  -0.0000000), wk =   0.2500000
        k(    6) = (  -0.5000000  -0.0000000  -0.5000000), wk =   0.2500000
        k(    7) = (  -0.5000000  -0.5000000  -0.0000000), wk =   0.2500000
        k(    8) = (  -0.5000000  -0.5000000  -0.5000000), wk =   0.2500000

     Dense  grid:   470235 G-vectors     FFT dimensions: ( 120, 120, 120)

     Smooth grid:   336607 G-vectors     FFT dimensions: ( 100, 100, 100)

     Largest allocated arrays     est. size (Mb)     dimensions
        Kohn-Sham Wavefunctions        49.63 Mb     (    5297,  614)
        NL pseudopotentials           163.11 Mb     (    5297, 2018)
        Each V/rho on FFT grid          3.30 Mb     (  216000)
        Each G-vector array             0.45 Mb     (   58780)
        G-vector shells                 0.44 Mb     (   57787)
     Largest temporary arrays     est. size (Mb)     dimensions
        Auxiliary wavefunctions       198.51 Mb     (    5297, 2456)
        Each subspace H/S matrix       92.04 Mb     (    2456, 2456)
        Each <psi_i|beta_j> matrix     18.91 Mb     (    2018,  614)
        Arrays for rho mixing          26.37 Mb     (  216000,    8)

     Check: negative/imaginary core charge=   -0.000003    0.000000

     Initial potential from superposition of free atoms

     starting charge 1013.63689, renormalised to 1024.00000
     Starting wfc are  726 randomized atomic wfcs

     total cpu time spent up to now is      530.1 secs

     Self-consistent Calculation

     iteration #  1     ecut=    40.00 Ry     beta=0.30
     Davidson diagonalization with overlap
     ethr =  1.00E-02,  avg # of iterations =  3.0

     total cpu time spent up to now is     2269.7 secs

     total energy              =   -8580.75998406 Ry
     Harris-Foulkes estimate   =   -8585.46372322 Ry
     estimated scf accuracy    <      24.30620605 Ry

     iteration #  2     ecut=    40.00 Ry     beta=0.30
     Davidson diagonalization with overlap
     ethr =  2.37E-03,  avg # of iterations =  1.0

     total cpu time spent up to now is     3476.6 secs

     total energy              =   -8577.39617337 Ry
     Harris-Foulkes estimate   =   -8581.48854076 Ry
     estimated scf accuracy    <      10.29481208 Ry

     iteration #  3     ecut=    40.00 Ry     beta=0.30
     Davidson diagonalization with overlap
     ethr =  1.01E-03,  avg # of iterations =  2.0

     total cpu time spent up to now is     4981.7 secs

     total energy              =   -8578.62354311 Ry
     Harris-Foulkes estimate   =   -8579.04695223 Ry
     estimated scf accuracy    <       1.38652365 Ry

     iteration #  4     ecut=    40.00 Ry     beta=0.30
     Davidson diagonalization with overlap
     ethr =  1.35E-04,  avg # of iterations =  6.5

     total cpu time spent up to now is     7251.8 secs

     total energy              =   -8578.33101466 Ry
     Harris-Foulkes estimate   =   -8578.71685940 Ry
     estimated scf accuracy    <       0.67130667 Ry

     iteration #  5     ecut=    40.00 Ry     beta=0.30
     Davidson diagonalization with overlap
     ethr =  6.56E-05,  avg # of iterations =  2.8

     total cpu time spent up to now is     9047.5 secs

     total energy              =   -8578.41768698 Ry
     Harris-Foulkes estimate   =   -8578.43379650 Ry
     estimated scf accuracy    <       0.09867264 Ry

     iteration #  6     ecut=    40.00 Ry     beta=0.30
     Davidson diagonalization with overlap
     ethr =  9.64E-06,  avg # of iterations =  9.3

     total cpu time spent up to now is    12002.6 secs

     total energy              =   -8578.40843487 Ry
     Harris-Foulkes estimate   =   -8578.42256867 Ry
     estimated scf accuracy    <       0.04731570 Ry

     iteration #  7     ecut=    40.00 Ry     beta=0.30
     Davidson diagonalization with overlap
     ethr =  4.62E-06,  avg # of iterations =  5.8

     total cpu time spent up to now is    14285.2 secs

     total energy              =   -8578.40932211 Ry
     Harris-Foulkes estimate   =   -8578.41235323 Ry
     estimated scf accuracy    <       0.00767752 Ry

     iteration #  8     ecut=    40.00 Ry     beta=0.30
     Davidson diagonalization with overlap
     ethr =  7.50E-07,  avg # of iterations =  6.3

     total cpu time spent up to now is    16912.8 secs

     total energy              =   -8578.41028705 Ry
     Harris-Foulkes estimate   =   -8578.41082770 Ry
     estimated scf accuracy    <       0.00289859 Ry

     iteration #  9     ecut=    40.00 Ry     beta=0.30
     Davidson diagonalization with overlap
     ethr =  2.83E-07,  avg # of iterations =  1.0

     total cpu time spent up to now is    18208.2 secs

     total energy              =   -8578.41013245 Ry
     Harris-Foulkes estimate   =   -8578.41042972 Ry
     estimated scf accuracy    <       0.00129095 Ry

     iteration # 10     ecut=    40.00 Ry     beta=0.30
     Davidson diagonalization with overlap
     ethr =  1.26E-07,  avg # of iterations =  2.0

     total cpu time spent up to now is    19747.6 secs

     total energy              =   -8578.41009702 Ry
     Harris-Foulkes estimate   =   -8578.41022530 Ry
     estimated scf accuracy    <       0.00055177 Ry

     iteration # 11     ecut=    40.00 Ry     beta=0.30
     Davidson diagonalization with overlap
     ethr =  5.39E-08,  avg # of iterations =  1.0

     total cpu time spent up to now is    21011.1 secs

     total energy              =   -8578.41008061 Ry
     Harris-Foulkes estimate   =   -8578.41012697 Ry
     estimated scf accuracy    <       0.00018290 Ry

     iteration # 12     ecut=    40.00 Ry     beta=0.30
     Davidson diagonalization with overlap
     ethr =  1.79E-08,  avg # of iterations =  2.0

     total cpu time spent up to now is    22504.2 secs

     total energy              =   -8578.41006635 Ry
     Harris-Foulkes estimate   =   -8578.41009439 Ry
     estimated scf accuracy    <       0.00007231 Ry

     iteration # 13     ecut=    40.00 Ry     beta=0.30
     Davidson diagonalization with overlap
     ethr =  7.06E-09,  avg # of iterations =  2.0

     total cpu time spent up to now is    23997.4 secs

     total energy              =   -8578.41006799 Ry
     Harris-Foulkes estimate   =   -8578.41007311 Ry
     estimated scf accuracy    <       0.00001232 Ry

     iteration # 14     ecut=    40.00 Ry     beta=0.30
     Davidson diagonalization with overlap
     ethr =  1.20E-09,  avg # of iterations =  2.0

     total cpu time spent up to now is    25612.2 secs

     total energy              =   -8578.41006972 Ry
     Harris-Foulkes estimate   =   -8578.41007030 Ry
     estimated scf accuracy    <       0.00000314 Ry

     iteration # 15     ecut=    40.00 Ry     beta=0.30
     Davidson diagonalization with overlap
     ethr =  3.07E-10,  avg # of iterations =  2.0

     total cpu time spent up to now is    27196.2 secs

     total energy              =   -8578.41006992 Ry
     Harris-Foulkes estimate   =   -8578.41007003 Ry
     estimated scf accuracy    <       0.00000090 Ry

     iteration # 16     ecut=    40.00 Ry     beta=0.30
     Davidson diagonalization with overlap
     ethr =  8.76E-11,  avg # of iterations =  1.0

     total cpu time spent up to now is    28478.8 secs

     total energy              =   -8578.41006971 Ry
     Harris-Foulkes estimate   =   -8578.41006993 Ry
     estimated scf accuracy    <       0.00000057 Ry

     iteration # 17     ecut=    40.00 Ry     beta=0.30
     Davidson diagonalization with overlap
     ethr =  5.53E-11,  avg # of iterations =  2.0

     total cpu time spent up to now is    30149.6 secs

     total energy              =   -8578.41006976 Ry
     Harris-Foulkes estimate   =   -8578.41006978 Ry
     estimated scf accuracy    <       0.00000014 Ry

     iteration # 18     ecut=    40.00 Ry     beta=0.30
     Davidson diagonalization with overlap
     ethr =  1.36E-11,  avg # of iterations =  1.0

     total cpu time spent up to now is    31432.2 secs

     total energy              =   -8578.41006975 Ry
     Harris-Foulkes estimate   =   -8578.41006977 Ry
     estimated scf accuracy    <       0.00000009 Ry

     iteration # 19     ecut=    40.00 Ry     beta=0.30
     Davidson diagonalization with overlap
     ethr =  8.76E-12,  avg # of iterations =  1.4

     total cpu time spent up to now is    32765.4 secs

     total energy              =   -8578.41006975 Ry
     Harris-Foulkes estimate   =   -8578.41006976 Ry
     estimated scf accuracy    <       0.00000004 Ry

     iteration # 20     ecut=    40.00 Ry     beta=0.30
     Davidson diagonalization with overlap
     ethr =  3.81E-12,  avg # of iterations =  1.1

     total cpu time spent up to now is    34187.5 secs

     total energy              =   -8578.41006975 Ry
     Harris-Foulkes estimate   =   -8578.41006975 Ry
     estimated scf accuracy    <       0.00000002 Ry

     iteration # 21     ecut=    40.00 Ry     beta=0.30
     Davidson diagonalization with overlap
     ethr =  2.13E-12,  avg # of iterations =  1.0

     total cpu time spent up to now is    35541.2 secs

     total energy              =   -8578.41006975 Ry
     Harris-Foulkes estimate   =   -8578.41006975 Ry
     estimated scf accuracy    <       0.00000001 Ry

     iteration # 22     ecut=    40.00 Ry     beta=0.30
     Davidson diagonalization with overlap
     ethr =  1.13E-12,  avg # of iterations =  2.0

     total cpu time spent up to now is    37027.2 secs

     total energy              =   -8578.41006975 Ry
     Harris-Foulkes estimate   =   -8578.41006975 Ry
     estimated scf accuracy    <          3.1E-09 Ry

     iteration # 23     ecut=    40.00 Ry     beta=0.30
     Davidson diagonalization with overlap
     ethr =  3.00E-13,  avg # of iterations =  2.0

     total cpu time spent up to now is    38699.6 secs

     total energy              =   -8578.41006975 Ry
     Harris-Foulkes estimate   =   -8578.41006975 Ry
     estimated scf accuracy    <          8.5E-10 Ry

     iteration # 24     ecut=    40.00 Ry     beta=0.30
     Davidson diagonalization with overlap
     ethr =  1.00E-13,  avg # of iterations =  1.0

     total cpu time spent up to now is    40019.4 secs

     total energy              =   -8578.41006975 Ry
     Harris-Foulkes estimate   =   -8578.41006975 Ry
     estimated scf accuracy    <          4.5E-10 Ry

     iteration # 25     ecut=    40.00 Ry     beta=0.30
     Davidson diagonalization with overlap
     ethr =  1.00E-13,  avg # of iterations =  1.0

     total cpu time spent up to now is    41353.5 secs

     total energy              =   -8578.41006975 Ry
     Harris-Foulkes estimate   =   -8578.41006975 Ry
     estimated scf accuracy    <          1.5E-10 Ry

     iteration # 26     ecut=    40.00 Ry     beta=0.30
     Davidson diagonalization with overlap
     ethr =  1.00E-13,  avg # of iterations =  1.0

     total cpu time spent up to now is    42696.3 secs

     End of self-consistent calculation

          k = 0.0000 0.0000 0.0000 ( 41991 PWs)   bands (ev):

   -65.3417 -65.3391 -65.2530 -65.2505 -65.2457 -65.2451 -65.2381 -65.2311
   -65.2304 -65.2123 -65.2116 -65.2111 -65.2101 -65.1760 -65.1609 -65.1591
   -65.1537 -65.1531 -65.1393 -65.1284 -65.1082 -65.0921 -65.0883 -65.0848
   -65.0709 -65.0691 -65.0592 -65.0445 -65.0357 -65.0287 -65.0085 -64.9997
   -64.9362 -64.7988 -32.3103 -32.3077 -32.3055 -32.3029 -32.2971 -32.2969
   -32.2230 -32.2209 -32.2199 -32.2152 -32.2135 -32.2120 -32.2110 -32.2107
   -32.2096 -32.2068 -32.2067 -32.2061 -32.2026 -32.2024 -32.2010 -32.2000
   -32.1964 -32.1957 -32.1919 -32.1881 -32.1864 -32.1854 -32.1840 -32.1821
   -32.1802 -32.1766 -32.1753 -32.1749 -32.1732 -32.1684 -32.1673 -32.1669
   -32.1641 -32.1425 -32.1386 -32.1368 -32.1299 -32.1280 -32.1248 -32.1227
   -32.1212 -32.1199 -32.1190 -32.1169 -32.1138 -32.1130 -32.1126 -32.1089
   -32.1086 -32.1049 -32.0986 -32.0974 -32.0896 -32.0854 -32.0771 -32.0724
   -32.0676 -32.0643 -32.0588 -32.0553 -32.0525 -32.0508 -32.0506 -32.0468
   -32.0442 -32.0419 -32.0411 -32.0399 -32.0344 -32.0324 -32.0316 -32.0295
   -32.0270 -32.0202 -32.0181 -32.0172 -32.0079 -32.0013 -31.9990 -31.9988
   -31.9978 -31.9955 -31.9899 -31.9888 -31.9774 -31.9705 -31.9703 -31.9670
   -31.9620 -31.9529 -31.9075 -31.8981 -31.8921 -31.7696 -31.7617 -31.7584
   -28.8103 -28.7931 -28.7770 -28.7645 -28.7516 -28.7319 -28.7181 -28.7039
   -28.7008 -28.6869 -28.6756 -28.6618 -28.6563 -28.6281 -28.6160 -28.6098
   -28.5799 -28.5671 -28.5385 -28.5380 -28.5315 -28.5234 -28.5117 -28.4934
   -28.4861 -28.4750 -28.4579 -28.4453 -28.3388 -28.2948 -11.2328 -11.2170
   -11.1966 -11.1107 -11.0716 -11.0616 -11.0386 -11.0318 -10.9760 -10.9521
   -10.9386 -10.9065 -10.8926 -10.8741 -10.8616 -10.8345 -10.8188 -10.8005
   -10.7766 -10.7549 -10.7170 -10.6985 -10.6896 -10.6773 -10.6490 -10.6153
   -10.6005 -10.5905 -10.5650 -10.5463 -10.5313 -10.4887 -10.4801 -10.4548
   -10.4190 -10.4072 -10.3979 -10.3615 -10.3509 -10.3436 -10.3255 -10.3086
   -10.2898 -10.2668 -10.2522 -10.2349 -10.2229 -10.1823 -10.1813 -10.1351
   -10.1230 -10.0947 -10.0775 -10.0469 -10.0389 -10.0172 -10.0031  -9.9952
    -9.9857  -9.9711  -9.9616  -9.9327  -9.9278  -9.9146  -9.9028  -9.8867
    -9.8752  -9.8654  -9.8444  -9.8398  -9.8235  -9.8166  -9.8119  -9.7868
    -9.7805  -9.7741  -9.7646  -9.7387  -9.7340  -9.7299  -9.7213  -9.6987
    -9.6815  -9.6650  -9.6422  -9.6388  -9.6331  -9.5336  -9.5095  -9.4963
    -8.4086  -7.8980  -7.8541  -7.8347  -7.7932  -7.7667  -7.7459  -7.7382
    -7.7210  -7.6916  -7.6894  -7.6804  -7.6318  -7.6201  -7.5928  -7.5828
    -7.5403  -7.5234  -7.4456  -7.4412  -7.4217  -7.4070  -7.3825  -7.3680
    -7.3418  -7.3173  -7.3135  -7.2903  -7.2669  -7.2596  -7.2323  -7.1884
    -7.1459  -7.1287  -7.0895  -7.0617  -7.0597  -7.0544  -6.9961  -6.9899
    -6.9458  -6.9401  -6.9272  -6.8944  -6.8887  -6.8663  -6.8571  -6.8208
    -6.7967  -6.7948  -6.7773  -6.7611  -6.7341  -6.7106  -6.7046  -6.6628
    -6.6234  -6.6024  -6.5927  -6.4962  -6.4509  -6.4482  -6.2597  -6.1965
     3.6621   3.7677   3.7873   3.9226   4.3078   4.3628   4.3722   4.3819
     4.4116   4.4219   4.4390   4.4887   4.5036   4.5227   4.5735   4.5919
     4.6066   4.6392   4.6487   4.6719   4.6772   4.6901   4.7477   4.7584
     4.7978   4.8227   4.8555   4.8699   4.9303   4.9693   5.0107   5.0304
     5.0721   5.1033   5.1327   5.1719   5.1834   5.2271   5.2404   5.2809
     5.3017   5.3199   5.3679   5.3832   5.4174   5.4347   5.4587   5.5246
     5.5261   5.5535   5.5684   5.5863   5.6155   5.6192   5.6272   5.6509
     5.6677   5.6848   5.6989   5.7212   5.7393   5.7850   5.7937   5.8270
     5.8284   5.8480   5.8691   5.8712   5.9081   5.9354   5.9579   5.9665
     5.9929   6.0169   6.0308   6.0437   6.0687   6.0842   6.0893   6.1013
     6.1437   6.1453   6.1572   6.1748   6.1814   6.2018   6.2157   6.2375
     6.2515   6.2603   6.2815   6.2854   6.2944   6.3054   6.3206   6.3359
     6.3577   6.3729   6.3831   6.3884   6.3885   6.4221   6.4267   6.4437
     6.4584   6.4661   6.4773   6.4922   6.5014   6.5150   6.5262   6.5411
     6.5537   6.5666   6.5794   6.5833   6.5927   6.5973   6.6099   6.6168
     6.6297   6.6530   6.6590   6.6757   6.6997   6.7110   6.7262   6.7381
     6.7431   6.7492   6.7664   6.7747   6.7836   6.7945   6.8146   6.8233
     6.8396   6.8577   6.8629   6.8716   6.8792   6.8988   6.9100   6.9224
     6.9240   6.9404   6.9447   6.9706   6.9773   6.9852   7.0019   7.0150
     7.0209   7.0341   7.0391   7.0592   7.0835   7.0928   7.1017   7.1080
     7.1206   7.1335   7.1367   7.1539   7.1780   7.1913   7.1985   7.2054
     7.2226   7.2339   7.2399   7.2555   7.2609   7.2686   7.2808   7.2939
     7.3041   7.3105   7.3379   7.3474   7.3618   7.3655   7.3903   7.3967
     7.4003   7.4090   7.4171   7.4354   7.4461   7.7114   7.7447   7.7562
    11.6541  12.6244  12.7154  12.7631  13.4173  13.4821  13.5224  13.5560
    13.5930  13.6233  13.6446  13.6933  13.7133  13.7659  13.7683  13.8053
    13.8505  13.8897  13.9168  13.9824  14.0200  14.0343  14.0650  14.0679
    14.1222  14.1388  14.1575  14.1896  14.2207  14.2817  14.3450  14.3634
    14.3963  14.4134  14.4647  14.4994  14.5235  14.5536  14.5904  14.6667
    14.7114  14.7467  14.7719  14.8374  14.9007  14.9361  15.0372  15.0430
    15.0625  15.1072  15.1444  15.1621  15.1730  15.2077  15.2121  15.2484
    15.2866  15.3165  15.3246  15.3654  15.3875  15.4268  15.4515  15.4797
    15.4997  15.5292  15.5575  15.5734  15.6116  15.6306  15.6589  15.6626
    15.6819  15.7085  15.7394  15.7641  15.8045  15.8106  15.8408  15.8487
    15.8551  15.8933  15.9515  15.9650  15.9968  16.0243  16.0494  16.0732
    16.0866  16.1171  16.1425  16.1995  16.2330  16.2572  16.2835  16.3068
    16.3206  16.3470  16.3667  16.4115  16.4379  16.4656

     occupation numbers 
     1.0000   1.0000   1.0000   1.0000   1.0000   1.0000   1.0000   1.0000
     1.0000   1.0000   1.0000   1.0000   1.0000   1.0000   1.0000   1.0000
     1.0000   1.0000   1.0000   1.0000   1.0000   1.0000   1.0000   1.0000
     1.0000   1.0000   1.0000   1.0000   1.0000   1.0000   1.0000   1.0000
     1.0000   1.0000   1.0000   1.0000   1.0000   1.0000   1.0000   1.0000
     1.0000   1.0000   1.0000   1.0000   1.0000   1.0000   1.0000   1.0000
     1.0000   1.0000   1.0000   1.0000   1.0000   1.0000   1.0000   1.0000
     1.0000   1.0000   1.0000   1.0000   1.0000   1.0000   1.0000   1.0000
     1.0000   1.0000   1.0000   1.0000   1.0000   1.0000   1.0000   1.0000
     1.0000   1.0000   1.0000   1.0000   1.0000   1.0000   1.0000   1.0000
     1.0000   1.0000   1.0000   1.0000   1.0000   1.0000   1.0000   1.0000
     1.0000   1.0000   1.0000   1.0000   1.0000   1.0000   1.0000   1.0000
     1.0000   1.0000   1.0000   1.0000   1.0000   1.0000   1.0000   1.0000
     1.0000   1.0000   1.0000   1.0000   1.0000   1.0000   1.0000   1.0000
     1.0000   1.0000   1.0000   1.0000   1.0000   1.0000   1.0000   1.0000
     1.0000   1.0000   1.0000   1.0000   1.0000   1.0000   1.0000   1.0000
     1.0000   1.0000   1.0000   1.0000   1.0000   1.0000   1.0000   1.0000
     1.0000   1.0000   1.0000   1.0000   1.0000   1.0000   1.0000   1.0000
     1.0000   1.0000   1.0000   1.0000   1.0000   1.0000   1.0000   1.0000
     1.0000   1.0000   1.0000   1.0000   1.0000   1.0000   1.0000   1.0000
     1.0000   1.0000   1.0000   1.0000   1.0000   1.0000   1.0000   1.0000
     1.0000   1.0000   1.0000   1.0000   1.0000   1.0000   1.0000   1.0000
     1.0000   1.0000   1.0000   1.0000   1.0000   1.0000   1.0000   1.0000
     1.0000   1.0000   1.0000   1.0000   1.0000   1.0000   1.0000   1.0000
     1.0000   1.0000   1.0000   1.0000   1.0000   1.0000   1.0000   1.0000
     1.0000   1.0000   1.0000   1.0000   1.0000   1.0000   1.0000   1.0000
     1.0000   1.0000   1.0000   1.0000   1.0000   1.0000   1.0000   1.0000
     1.0000   1.0000   1.0000   1.0000   1.0000   1.0000   1.0000   1.0000
     1.0000   1.0000   1.0000   1.0000   1.0000   1.0000   1.0000   1.0000
     1.0000   1.0000   1.0000   1.0000   1.0000   1.0000   1.0000   1.0000
     1.0000   1.0000   1.0000   1.0000   1.0000   1.0000   1.0000   1.0000
     1.0000   1.0000   1.0000   1.0000   1.0000   1.0000   1.0000   1.0000
     1.0000   1.0000   1.0000   1.0000   1.0000   1.0000   1.0000   1.0000
     1.0000   1.0000   1.0000   1.0000   1.0000   1.0000   1.0000   1.0000
     1.0000   1.0000   1.0000   1.0000   1.0000   1.0000   1.0000   1.0000
     1.0000   1.0000   1.0000   1.0000   1.0000   1.0000   1.0000   1.0000
     1.0000   1.0000   1.0000   1.0000   1.0000   1.0000   1.0000   1.0000
     1.0000   1.0000   1.0000   1.0000   1.0000   1.0000   1.0000   1.0000
     1.0000   1.0000   1.0000   1.0000   1.0000   1.0000   1.0000   1.0000
     1.0000   1.0000   1.0000   1.0000   1.0000   1.0000   1.0000   1.0000
     1.0000   1.0000   1.0000   1.0000   1.0000   1.0000   1.0000   1.0000
     1.0000   1.0000   1.0000   1.0000   1.0000   1.0000   1.0000   1.0000
     1.0000   1.0000   1.0000   1.0000   1.0000   1.0000   1.0000   1.0000
     1.0000   1.0000   1.0000   1.0000   1.0000   1.0000   1.0000   1.0000
     1.0000   1.0000   1.0000   1.0000   1.0000   1.0000   1.0000   1.0000
     1.0000   1.0000   1.0000   1.0000   1.0000   1.0000   1.0000   1.0000
     1.0000   1.0000   1.0000   1.0000   1.0000   1.0000   1.0000   1.0000
     1.0000   1.0000   1.0000   1.0000   1.0000   1.0000   1.0000   1.0000
     1.0000   1.0000   1.0000   1.0000   1.0000   1.0000   1.0000   1.0000
     1.0000   1.0000   1.0000   1.0000   1.0000   1.0000   1.0000   1.0000
     1.0000   1.0000   1.0000   1.0000   1.0000   1.0000   1.0000   1.0000
     1.0000   1.0000   1.0000   1.0000   1.0000   1.0000   1.0000   1.0000
     1.0000   1.0000   1.0000   1.0000   1.0000   1.0000   1.0000   1.0000
     1.0000   1.0000   1.0000   1.0000   1.0000   1.0000   1.0000   1.0000
     1.0000   1.0000   1.0000   1.0000   1.0000   1.0000   1.0000   1.0000
     1.0000   1.0000   1.0000   1.0000   1.0000   1.0000   1.0000   1.0000
     1.0000   1.0000   1.0000   1.0000   1.0000   1.0000   1.0000   1.0000
     1.0000   1.0000   1.0000   1.0000   1.0000   1.0000   1.0000   1.0000
     1.0000   1.0000   1.0000   1.0000   1.0000   1.0000   1.0000   1.0000
     1.0000   1.0000   1.0000   1.0000   1.0000   1.0000   1.0000   1.0000
     1.0000   1.0000   1.0000   1.0000   1.0000   1.0000   1.0000   1.0000
     1.0000   1.0000   1.0000   1.0000   1.0000   1.0000   1.0000   1.0000
     1.0000   1.0000   1.0000   1.0000   1.0000   1.0000   1.0000   1.0000
     1.0000   1.0000   1.0000   1.0000   1.0000   1.0000   1.0000   1.0000
     0.0000   0.0000   0.0000   0.0000   0.0000   0.0000   0.0000   0.0000
     0.0000   0.0000   0.0000   0.0000   0.0000   0.0000   0.0000   0.0000
     0.0000   0.0000   0.0000   0.0000   0.0000   0.0000   0.0000   0.0000
     0.0000   0.0000   0.0000   0.0000   0.0000   0.0000   0.0000   0.0000
     0.0000   0.0000   0.0000   0.0000   0.0000   0.0000   0.0000   0.0000
     0.0000   0.0000   0.0000   0.0000   0.0000   0.0000   0.0000   0.0000
     0.0000   0.0000   0.0000   0.0000   0.0000   0.0000   0.0000   0.0000
     0.0000   0.0000   0.0000   0.0000   0.0000   0.0000   0.0000   0.0000
     0.0000   0.0000   0.0000   0.0000   0.0000   0.0000   0.0000   0.0000
     0.0000   0.0000   0.0000   0.0000   0.0000   0.0000   0.0000   0.0000
     0.0000   0.0000   0.0000   0.0000   0.0000   0.0000   0.0000   0.0000
     0.0000   0.0000   0.0000   0.0000   0.0000   0.0000   0.0000   0.0000
     0.0000   0.0000   0.0000   0.0000   0.0000   0.0000

          k =-0.3535-0.3530 0.3528 ( 42054 PWs)   bands (ev):

   -65.3417 -65.3391 -65.2530 -65.2505 -65.2457 -65.2451 -65.2381 -65.2311
   -65.2304 -65.2123 -65.2116 -65.2111 -65.2101 -65.1760 -65.1609 -65.1591
   -65.1537 -65.1531 -65.1393 -65.1284 -65.1082 -65.0921 -65.0883 -65.0848
   -65.0709 -65.0691 -65.0592 -65.0445 -65.0357 -65.0287 -65.0085 -64.9997
   -64.9362 -64.7988 -32.3103 -32.3077 -32.3055 -32.3029 -32.2971 -32.2969
   -32.2230 -32.2209 -32.2199 -32.2152 -32.2135 -32.2120 -32.2109 -32.2107
   -32.2096 -32.2067 -32.2067 -32.2061 -32.2026 -32.2024 -32.2010 -32.2000
   -32.1964 -32.1957 -32.1919 -32.1881 -32.1864 -32.1854 -32.1840 -32.1821
   -32.1802 -32.1766 -32.1753 -32.1749 -32.1732 -32.1684 -32.1673 -32.1669
   -32.1641 -32.1425 -32.1386 -32.1368 -32.1299 -32.1279 -32.1248 -32.1227
   -32.1212 -32.1199 -32.1190 -32.1169 -32.1138 -32.1130 -32.1126 -32.1089
   -32.1086 -32.1049 -32.0986 -32.0974 -32.0896 -32.0854 -32.0771 -32.0724
   -32.0676 -32.0643 -32.0588 -32.0553 -32.0525 -32.0508 -32.0506 -32.0468
   -32.0442 -32.0420 -32.0411 -32.0399 -32.0344 -32.0324 -32.0316 -32.0295
   -32.0270 -32.0202 -32.0181 -32.0172 -32.0079 -32.0013 -31.9990 -31.9988
   -31.9978 -31.9955 -31.9899 -31.9888 -31.9774 -31.9705 -31.9703 -31.9670
   -31.9620 -31.9529 -31.9075 -31.8981 -31.8921 -31.7696 -31.7617 -31.7584
   -28.8092 -28.7951 -28.7759 -28.7647 -28.7519 -28.7315 -28.7179 -28.7053
   -28.6999 -28.6875 -28.6747 -28.6606 -28.6572 -28.6273 -28.6175 -28.6097
   -28.5794 -28.5668 -28.5395 -28.5382 -28.5315 -28.5253 -28.5074 -28.4955
   -28.4876 -28.4727 -28.4559 -28.4476 -28.3388 -28.2947 -11.2279 -11.2048
   -11.1931 -11.1070 -11.0684 -11.0613 -11.0365 -11.0319 -10.9961 -10.9583
   -10.9420 -10.9184 -10.9153 -10.8953 -10.8657 -10.8554 -10.8227 -10.7870
   -10.7630 -10.7331 -10.7215 -10.7093 -10.6693 -10.6621 -10.6302 -10.6244
   -10.6063 -10.5794 -10.5477 -10.5279 -10.5134 -10.5051 -10.4893 -10.4642
   -10.4503 -10.4231 -10.3802 -10.3705 -10.3586 -10.3414 -10.3317 -10.3175
   -10.2848 -10.2535 -10.2245 -10.2132 -10.2120 -10.1865 -10.1564 -10.1473
   -10.1195 -10.0939 -10.0661 -10.0466 -10.0381 -10.0300 -10.0100  -9.9972
    -9.9890  -9.9739  -9.9531  -9.9431  -9.9211  -9.9153  -9.8907  -9.8889
    -9.8829  -9.8687  -9.8547  -9.8416  -9.8294  -9.8185  -9.8037  -9.7944
    -9.7824  -9.7663  -9.7493  -9.7390  -9.7279  -9.7204  -9.7132  -9.6919
    -9.6830  -9.6642  -9.6527  -9.6462  -9.6381  -9.6046  -9.5185  -9.5057
    -8.1273  -8.1009  -7.9344  -7.8447  -7.7974  -7.7870  -7.7598  -7.7540
    -7.7232  -7.7160  -7.6689  -7.6517  -7.6238  -7.5983  -7.5944  -7.5568
    -7.5197  -7.5062  -7.4878  -7.4727  -7.4317  -7.4195  -7.3695  -7.3592
    -7.3413  -7.3189  -7.2902  -7.2700  -7.2508  -7.2354  -7.2178  -7.1925
    -7.1365  -7.1111  -7.0933  -7.0764  -7.0414  -7.0287  -7.0114  -7.0007
    -6.9801  -6.9718  -6.9266  -6.9154  -6.8920  -6.8683  -6.8656  -6.8235
    -6.8119  -6.7852  -6.7689  -6.7551  -6.7305  -6.7194  -6.7117  -6.6682
    -6.6373  -6.6157  -6.5015  -6.4629  -6.4554  -6.3707  -6.3361  -6.2302
     3.8529   3.9135   3.9374   4.0139   4.0496   4.1362   4.1631   4.3204
     4.3575   4.3993   4.4190   4.4471   4.4514   4.4972   4.5111   4.5760
     4.6418   4.6524   4.6687   4.7009   4.7230   4.7487   4.7719   4.8113
     4.8460   4.8636   4.8710   4.9227   4.9389   4.9708   4.9869   5.0377
     5.0557   5.0899   5.1126   5.1329   5.1827   5.1983   5.2126   5.2425
     5.2700   5.2888   5.3029   5.3306   5.3689   5.3845   5.3989   5.4124
     5.4635   5.4789   5.5024   5.5126   5.5693   5.6053   5.6372   5.6563
     5.7015   5.7259   5.7451   5.7562   5.7730   5.7879   5.8353   5.8463
     5.8571   5.8810   5.8956   5.9035   5.9230   5.9373   5.9497   5.9875
     6.0175   6.0322   6.0599   6.0749   6.0809   6.0983   6.1299   6.1509
     6.1681   6.1810   6.1907   6.2181   6.2405   6.2626   6.2771   6.2775
     6.3097   6.3179   6.3324   6.3427   6.3548   6.3739   6.3782   6.4009
     6.4155   6.4229   6.4401   6.4431   6.4515   6.4705   6.4786   6.4820
     6.5052   6.5101   6.5234   6.5391   6.5526   6.5581   6.5618   6.5749
     6.5788   6.5977   6.6023   6.6138   6.6233   6.6327   6.6417   6.6563
     6.6595   6.6752   6.6840   6.6970   6.7063   6.7171   6.7211   6.7410
     6.7474   6.7580   6.7591   6.7665   6.7923   6.7958   6.8041   6.8185
     6.8230   6.8288   6.8465   6.8505   6.8640   6.8697   6.8868   6.8909
     6.9069   6.9133   6.9286   6.9424   6.9432   6.9511   6.9636   6.9683
     6.9932   7.0050   7.0069   7.0254   7.0306   7.0475   7.0481   7.0704
     7.0802   7.0891   7.1026   7.1093   7.1116   7.1250   7.1439   7.1576
     7.1629   7.1820   7.1967   7.2031   7.2110   7.2316   7.2441   7.2757
     7.2971   7.3088   7.3218   7.3263   7.3422   7.3487   7.3656   7.3938
     7.3977   7.4196   7.4460   7.4662   7.5684   7.5882   7.6146   7.6328
    12.3174  12.5059  13.0199  13.0554  13.0852  13.0932  13.2645  13.3470
    13.3849  13.5145  13.5364  13.5496  13.6259  13.6512  13.7073  13.7798
    13.8475  13.9108  13.9570  14.0101  14.1499  14.1932  14.2247  14.2388
    14.2716  14.3129  14.3392  14.3562  14.4011  14.4307  14.4758  14.5289
    14.5405  14.5504  14.5581  14.5770  14.6234  14.6529  14.6938  14.7324
    14.7527  14.7753  14.8070  14.8239  14.8471  14.8875  14.9067  14.9265
    14.9496  15.0037  15.0157  15.0829  15.0919  15.1032  15.1568  15.1880
    15.2066  15.2281  15.2657  15.2791  15.2905  15.3095  15.3866  15.4041
    15.4343  15.4507  15.4654  15.4921  15.5474  15.5700  15.6096  15.6532
    15.6822  15.6872  15.7146  15.7508  15.7834  15.8075  15.8274  15.8568
    15.8833  15.8933  15.9404  15.9503  15.9718  15.9763  16.0142  16.0699
    16.0846  16.1346  16.1458  16.1668  16.2115  16.2423  16.2692  16.3032
    16.3233  16.3437  16.3877  16.3920  16.4219  16.4788

     occupation numbers 
     1.0000   1.0000   1.0000   1.0000   1.0000   1.0000   1.0000   1.0000
     1.0000   1.0000   1.0000   1.0000   1.0000   1.0000   1.0000   1.0000
     1.0000   1.0000   1.0000   1.0000   1.0000   1.0000   1.0000   1.0000
     1.0000   1.0000   1.0000   1.0000   1.0000   1.0000   1.0000   1.0000
     1.0000   1.0000   1.0000   1.0000   1.0000   1.0000   1.0000   1.0000
     1.0000   1.0000   1.0000   1.0000   1.0000   1.0000   1.0000   1.0000
     1.0000   1.0000   1.0000   1.0000   1.0000   1.0000   1.0000   1.0000
     1.0000   1.0000   1.0000   1.0000   1.0000   1.0000   1.0000   1.0000
     1.0000   1.0000   1.0000   1.0000   1.0000   1.0000   1.0000   1.0000
     1.0000   1.0000   1.0000   1.0000   1.0000   1.0000   1.0000   1.0000
     1.0000   1.0000   1.0000   1.0000   1.0000   1.0000   1.0000   1.0000
     1.0000   1.0000   1.0000   1.0000   1.0000   1.0000   1.0000   1.0000
     1.0000   1.0000   1.0000   1.0000   1.0000   1.0000   1.0000   1.0000
     1.0000   1.0000   1.0000   1.0000   1.0000   1.0000   1.0000   1.0000
     1.0000   1.0000   1.0000   1.0000   1.0000   1.0000   1.0000   1.0000
     1.0000   1.0000   1.0000   1.0000   1.0000   1.0000   1.0000   1.0000
     1.0000   1.0000   1.0000   1.0000   1.0000   1.0000   1.0000   1.0000
     1.0000   1.0000   1.0000   1.0000   1.0000   1.0000   1.0000   1.0000
     1.0000   1.0000   1.0000   1.0000   1.0000   1.0000   1.0000   1.0000
     1.0000   1.0000   1.0000   1.0000   1.0000   1.0000   1.0000   1.0000
     1.0000   1.0000   1.0000   1.0000   1.0000   1.0000   1.0000   1.0000
     1.0000   1.0000   1.0000   1.0000   1.0000   1.0000   1.0000   1.0000
     1.0000   1.0000   1.0000   1.0000   1.0000   1.0000   1.0000   1.0000
     1.0000   1.0000   1.0000   1.0000   1.0000   1.0000   1.0000   1.0000
     1.0000   1.0000   1.0000   1.0000   1.0000   1.0000   1.0000   1.0000
     1.0000   1.0000   1.0000   1.0000   1.0000   1.0000   1.0000   1.0000
     1.0000   1.0000   1.0000   1.0000   1.0000   1.0000   1.0000   1.0000
     1.0000   1.0000   1.0000   1.0000   1.0000   1.0000   1.0000   1.0000
     1.0000   1.0000   1.0000   1.0000   1.0000   1.0000   1.0000   1.0000
     1.0000   1.0000   1.0000   1.0000   1.0000   1.0000   1.0000   1.0000
     1.0000   1.0000   1.0000   1.0000   1.0000   1.0000   1.0000   1.0000
     1.0000   1.0000   1.0000   1.0000   1.0000   1.0000   1.0000   1.0000
     1.0000   1.0000   1.0000   1.0000   1.0000   1.0000   1.0000   1.0000
     1.0000   1.0000   1.0000   1.0000   1.0000   1.0000   1.0000   1.0000
     1.0000   1.0000   1.0000   1.0000   1.0000   1.0000   1.0000   1.0000
     1.0000   1.0000   1.0000   1.0000   1.0000   1.0000   1.0000   1.0000
     1.0000   1.0000   1.0000   1.0000   1.0000   1.0000   1.0000   1.0000
     1.0000   1.0000   1.0000   1.0000   1.0000   1.0000   1.0000   1.0000
     1.0000   1.0000   1.0000   1.0000   1.0000   1.0000   1.0000   1.0000
     1.0000   1.0000   1.0000   1.0000   1.0000   1.0000   1.0000   1.0000
     1.0000   1.0000   1.0000   1.0000   1.0000   1.0000   1.0000   1.0000
     1.0000   1.0000   1.0000   1.0000   1.0000   1.0000   1.0000   1.0000
     1.0000   1.0000   1.0000   1.0000   1.0000   1.0000   1.0000   1.0000
     1.0000   1.0000   1.0000   1.0000   1.0000   1.0000   1.0000   1.0000
     1.0000   1.0000   1.0000   1.0000   1.0000   1.0000   1.0000   1.0000
     1.0000   1.0000   1.0000   1.0000   1.0000   1.0000   1.0000   1.0000
     1.0000   1.0000   1.0000   1.0000   1.0000   1.0000   1.0000   1.0000
     1.0000   1.0000   1.0000   1.0000   1.0000   1.0000   1.0000   1.0000
     1.0000   1.0000   1.0000   1.0000   1.0000   1.0000   1.0000   1.0000
     1.0000   1.0000   1.0000   1.0000   1.0000   1.0000   1.0000   1.0000
     1.0000   1.0000   1.0000   1.0000   1.0000   1.0000   1.0000   1.0000
     1.0000   1.0000   1.0000   1.0000   1.0000   1.0000   1.0000   1.0000
     1.0000   1.0000   1.0000   1.0000   1.0000   1.0000   1.0000   1.0000
     1.0000   1.0000   1.0000   1.0000   1.0000   1.0000   1.0000   1.0000
     1.0000   1.0000   1.0000   1.0000   1.0000   1.0000   1.0000   1.0000
     1.0000   1.0000   1.0000   1.0000   1.0000   1.0000   1.0000   1.0000
     1.0000   1.0000   1.0000   1.0000   1.0000   1.0000   1.0000   1.0000
     1.0000   1.0000   1.0000   1.0000   1.0000   1.0000   1.0000   1.0000
     1.0000   1.0000   1.0000   1.0000   1.0000   1.0000   1.0000   1.0000
     1.0000   1.0000   1.0000   1.0000   1.0000   1.0000   1.0000   1.0000
     1.0000   1.0000   1.0000   1.0000   1.0000   1.0000   1.0000   1.0000
     1.0000   1.0000   1.0000   1.0000   1.0000   1.0000   1.0000   1.0000
     1.0000   1.0000   1.0000   1.0000   1.0000   1.0000   1.0000   1.0000
     1.0000   1.0000   1.0000   1.0000   1.0000   1.0000   1.0000   1.0000
     0.0000   0.0000   0.0000   0.0000   0.0000   0.0000   0.0000   0.0000
     0.0000   0.0000   0.0000   0.0000   0.0000   0.0000   0.0000   0.0000
     0.0000   0.0000   0.0000   0.0000   0.0000   0.0000   0.0000   0.0000
     0.0000   0.0000   0.0000   0.0000   0.0000   0.0000   0.0000   0.0000
     0.0000   0.0000   0.0000   0.0000   0.0000   0.0000   0.0000   0.0000
     0.0000   0.0000   0.0000   0.0000   0.0000   0.0000   0.0000   0.0000
     0.0000   0.0000   0.0000   0.0000   0.0000   0.0000   0.0000   0.0000
     0.0000   0.0000   0.0000   0.0000   0.0000   0.0000   0.0000   0.0000
     0.0000   0.0000   0.0000   0.0000   0.0000   0.0000   0.0000   0.0000
     0.0000   0.0000   0.0000   0.0000   0.0000   0.0000   0.0000   0.0000
     0.0000   0.0000   0.0000   0.0000   0.0000   0.0000   0.0000   0.0000
     0.0000   0.0000   0.0000   0.0000   0.0000   0.0000   0.0000   0.0000
     0.0000   0.0000   0.0000   0.0000   0.0000   0.0000

          k =-0.3532 0.3545-0.3532 ( 42066 PWs)   bands (ev):

   -65.3417 -65.3391 -65.2530 -65.2505 -65.2457 -65.2451 -65.2381 -65.2311
   -65.2304 -65.2123 -65.2116 -65.2111 -65.2101 -65.1760 -65.1609 -65.1591
   -65.1537 -65.1531 -65.1393 -65.1284 -65.1082 -65.0921 -65.0883 -65.0848
   -65.0709 -65.0691 -65.0592 -65.0445 -65.0357 -65.0287 -65.0085 -64.9997
   -64.9362 -64.7988 -32.3103 -32.3077 -32.3055 -32.3029 -32.2971 -32.2969
   -32.2230 -32.2209 -32.2199 -32.2152 -32.2135 -32.2120 -32.2109 -32.2107
   -32.2096 -32.2067 -32.2067 -32.2061 -32.2026 -32.2024 -32.2010 -32.2000
   -32.1964 -32.1958 -32.1919 -32.1881 -32.1864 -32.1854 -32.1840 -32.1821
   -32.1802 -32.1766 -32.1753 -32.1749 -32.1732 -32.1684 -32.1673 -32.1669
   -32.1641 -32.1425 -32.1386 -32.1368 -32.1299 -32.1279 -32.1248 -32.1227
   -32.1212 -32.1198 -32.1190 -32.1169 -32.1138 -32.1130 -32.1126 -32.1089
   -32.1086 -32.1049 -32.0986 -32.0974 -32.0896 -32.0854 -32.0771 -32.0724
   -32.0676 -32.0643 -32.0588 -32.0553 -32.0525 -32.0508 -32.0506 -32.0468
   -32.0442 -32.0420 -32.0411 -32.0399 -32.0344 -32.0324 -32.0316 -32.0295
   -32.0270 -32.0202 -32.0181 -32.0172 -32.0079 -32.0013 -31.9990 -31.9988
   -31.9978 -31.9955 -31.9899 -31.9888 -31.9774 -31.9705 -31.9703 -31.9670
   -31.9620 -31.9529 -31.9075 -31.8981 -31.8921 -31.7696 -31.7617 -31.7584
   -28.8098 -28.7932 -28.7776 -28.7646 -28.7521 -28.7313 -28.7176 -28.7042
   -28.7008 -28.6868 -28.6757 -28.6622 -28.6560 -28.6277 -28.6167 -28.6093
   -28.5802 -28.5666 -28.5394 -28.5382 -28.5314 -28.5253 -28.5074 -28.4957
   -28.4875 -28.4727 -28.4559 -28.4476 -28.3388 -28.2947 -11.2140 -11.1812
   -11.1736 -11.1075 -11.1042 -11.0497 -11.0467 -11.0458 -11.0124 -10.9861
   -10.9557 -10.9425 -10.9193 -10.8849 -10.8538 -10.8444 -10.8250 -10.8002
   -10.7761 -10.7686 -10.7451 -10.6942 -10.6559 -10.6100 -10.5923 -10.5723
   -10.5668 -10.5588 -10.5449 -10.5377 -10.5157 -10.4958 -10.4841 -10.4684
   -10.4541 -10.4271 -10.4237 -10.3863 -10.3761 -10.3419 -10.3239 -10.3052
   -10.2968 -10.2632 -10.2421 -10.2030 -10.1883 -10.1728 -10.1611 -10.1291
   -10.1215 -10.1037 -10.0774 -10.0655 -10.0449 -10.0325 -10.0203 -10.0034
    -9.9845  -9.9697  -9.9612  -9.9362  -9.9165  -9.9076  -9.9026  -9.8810
    -9.8707  -9.8673  -9.8582  -9.8482  -9.8318  -9.8114  -9.8020  -9.7942
    -9.7827  -9.7739  -9.7569  -9.7463  -9.7405  -9.7359  -9.7065  -9.6944
    -9.6843  -9.6614  -9.6488  -9.6390  -9.6282  -9.6050  -9.5183  -9.5056
    -8.1481  -8.0968  -7.9203  -7.8282  -7.8137  -7.7658  -7.7465  -7.7194
    -7.7007  -7.6702  -7.6557  -7.6382  -7.6318  -7.6114  -7.5716  -7.5588
    -7.5383  -7.5105  -7.4954  -7.4867  -7.4483  -7.4240  -7.4097  -7.3752
    -7.3604  -7.3366  -7.3098  -7.2790  -7.2692  -7.2440  -7.1945  -7.1773
    -7.1374  -7.1219  -7.1112  -7.0677  -7.0515  -7.0320  -7.0241  -7.0087
    -6.9864  -6.9756  -6.9376  -6.9230  -6.9024  -6.8668  -6.8612  -6.8100
    -6.8081  -6.7817  -6.7647  -6.7421  -6.7212  -6.7144  -6.6603  -6.6435
    -6.6225  -6.5911  -6.5160  -6.4696  -6.4465  -6.3790  -6.3435  -6.2572
     3.8306   3.9279   3.9960   4.0182   4.0488   4.0699   4.1026   4.3657
     4.3973   4.4083   4.4307   4.4391   4.4796   4.5267   4.5725   4.5838
     4.6064   4.6421   4.6583   4.6889   4.7067   4.7294   4.7585   4.8006
     4.8222   4.8513   4.8694   4.9025   4.9312   4.9648   5.0084   5.0320
     5.0502   5.1045   5.1184   5.1361   5.1785   5.2133   5.2238   5.2350
     5.2384   5.2738   5.3131   5.3268   5.3585   5.3894   5.3973   5.4380
     5.4532   5.4930   5.5019   5.5311   5.5447   5.5669   5.5968   5.6526
     5.6908   5.7169   5.7322   5.7425   5.7798   5.8268   5.8490   5.8504
     5.8663   5.8690   5.9100   5.9222   5.9549   5.9573   5.9850   6.0048
     6.0079   6.0368   6.0694   6.0773   6.1030   6.1059   6.1292   6.1547
     6.1593   6.1973   6.2130   6.2206   6.2258   6.2378   6.2589   6.2769
     6.2955   6.3047   6.3256   6.3441   6.3491   6.3620   6.3778   6.3948
     6.3987   6.4202   6.4335   6.4397   6.4512   6.4624   6.4763   6.4878
     6.4932   6.5088   6.5137   6.5188   6.5491   6.5596   6.5677   6.5713
     6.5796   6.5829   6.5973   6.6155   6.6264   6.6524   6.6544   6.6651
     6.6741   6.6838   6.6962   6.7004   6.7077   6.7135   6.7350   6.7392
     6.7492   6.7640   6.7762   6.7788   6.7964   6.7976   6.8022   6.8180
     6.8288   6.8356   6.8453   6.8564   6.8629   6.8775   6.8828   6.8998
     6.9084   6.9194   6.9304   6.9476   6.9589   6.9651   6.9710   6.9828
     6.9920   7.0010   7.0124   7.0250   7.0295   7.0412   7.0438   7.0542
     7.0647   7.0742   7.0918   7.0950   7.1125   7.1174   7.1359   7.1382
     7.1633   7.1786   7.1985   7.2041   7.2211   7.2299   7.2407   7.2627
     7.2700   7.3009   7.3160   7.3351   7.3412   7.3602   7.3679   7.3930
     7.4127   7.4243   7.4471   7.4768   7.5532   7.5781   7.6073   7.6392
    12.3360  12.4914  13.0071  13.0611  13.1099  13.1515  13.2169  13.3118
    13.4296  13.4781  13.5256  13.5937  13.6083  13.6508  13.6899  13.7427
    13.8033  13.8986  13.9267  13.9961  14.1267  14.1467  14.1956  14.2757
    14.2946  14.3209  14.3721  14.3939  14.4230  14.4748  14.4893  14.5135
    14.5246  14.5444  14.5681  14.5745  14.6523  14.6706  14.6894  14.7152
    14.7305  14.7726  14.8178  14.8623  14.8867  14.9149  14.9297  14.9473
    14.9802  15.0080  15.0532  15.0720  15.0891  15.1085  15.1144  15.1339
    15.1854  15.2220  15.2785  15.2840  15.3116  15.3431  15.3698  15.4125
    15.4266  15.4734  15.5098  15.5277  15.5676  15.5993  15.6124  15.6275
    15.6484  15.6776  15.7168  15.7345  15.7668  15.8012  15.8114  15.8327
    15.8482  15.9058  15.9440  15.9508  15.9644  15.9974  16.0242  16.0564
    16.0726  16.0949  16.1369  16.1628  16.2015  16.2147  16.2423  16.2724
    16.2884  16.3105  16.3599  16.3792  16.4164  16.4843

     occupation numbers 
     1.0000   1.0000   1.0000   1.0000   1.0000   1.0000   1.0000   1.0000
     1.0000   1.0000   1.0000   1.0000   1.0000   1.0000   1.0000   1.0000
     1.0000   1.0000   1.0000   1.0000   1.0000   1.0000   1.0000   1.0000
     1.0000   1.0000   1.0000   1.0000   1.0000   1.0000   1.0000   1.0000
     1.0000   1.0000   1.0000   1.0000   1.0000   1.0000   1.0000   1.0000
     1.0000   1.0000   1.0000   1.0000   1.0000   1.0000   1.0000   1.0000
     1.0000   1.0000   1.0000   1.0000   1.0000   1.0000   1.0000   1.0000
     1.0000   1.0000   1.0000   1.0000   1.0000   1.0000   1.0000   1.0000
     1.0000   1.0000   1.0000   1.0000   1.0000   1.0000   1.0000   1.0000
     1.0000   1.0000   1.0000   1.0000   1.0000   1.0000   1.0000   1.0000
     1.0000   1.0000   1.0000   1.0000   1.0000   1.0000   1.0000   1.0000
     1.0000   1.0000   1.0000   1.0000   1.0000   1.0000   1.0000   1.0000
     1.0000   1.0000   1.0000   1.0000   1.0000   1.0000   1.0000   1.0000
     1.0000   1.0000   1.0000   1.0000   1.0000   1.0000   1.0000   1.0000
     1.0000   1.0000   1.0000   1.0000   1.0000   1.0000   1.0000   1.0000
     1.0000   1.0000   1.0000   1.0000   1.0000   1.0000   1.0000   1.0000
     1.0000   1.0000   1.0000   1.0000   1.0000   1.0000   1.0000   1.0000
     1.0000   1.0000   1.0000   1.0000   1.0000   1.0000   1.0000   1.0000
     1.0000   1.0000   1.0000   1.0000   1.0000   1.0000   1.0000   1.0000
     1.0000   1.0000   1.0000   1.0000   1.0000   1.0000   1.0000   1.0000
     1.0000   1.0000   1.0000   1.0000   1.0000   1.0000   1.0000   1.0000
     1.0000   1.0000   1.0000   1.0000   1.0000   1.0000   1.0000   1.0000
     1.0000   1.0000   1.0000   1.0000   1.0000   1.0000   1.0000   1.0000
     1.0000   1.0000   1.0000   1.0000   1.0000   1.0000   1.0000   1.0000
     1.0000   1.0000   1.0000   1.0000   1.0000   1.0000   1.0000   1.0000
     1.0000   1.0000   1.0000   1.0000   1.0000   1.0000   1.0000   1.0000
     1.0000   1.0000   1.0000   1.0000   1.0000   1.0000   1.0000   1.0000
     1.0000   1.0000   1.0000   1.0000   1.0000   1.0000   1.0000   1.0000
     1.0000   1.0000   1.0000   1.0000   1.0000   1.0000   1.0000   1.0000
     1.0000   1.0000   1.0000   1.0000   1.0000   1.0000   1.0000   1.0000
     1.0000   1.0000   1.0000   1.0000   1.0000   1.0000   1.0000   1.0000
     1.0000   1.0000   1.0000   1.0000   1.0000   1.0000   1.0000   1.0000
     1.0000   1.0000   1.0000   1.0000   1.0000   1.0000   1.0000   1.0000
     1.0000   1.0000   1.0000   1.0000   1.0000   1.0000   1.0000   1.0000
     1.0000   1.0000   1.0000   1.0000   1.0000   1.0000   1.0000   1.0000
     1.0000   1.0000   1.0000   1.0000   1.0000   1.0000   1.0000   1.0000
     1.0000   1.0000   1.0000   1.0000   1.0000   1.0000   1.0000   1.0000
     1.0000   1.0000   1.0000   1.0000   1.0000   1.0000   1.0000   1.0000
     1.0000   1.0000   1.0000   1.0000   1.0000   1.0000   1.0000   1.0000
     1.0000   1.0000   1.0000   1.0000   1.0000   1.0000   1.0000   1.0000
     1.0000   1.0000   1.0000   1.0000   1.0000   1.0000   1.0000   1.0000
     1.0000   1.0000   1.0000   1.0000   1.0000   1.0000   1.0000   1.0000
     1.0000   1.0000   1.0000   1.0000   1.0000   1.0000   1.0000   1.0000
     1.0000   1.0000   1.0000   1.0000   1.0000   1.0000   1.0000   1.0000
     1.0000   1.0000   1.0000   1.0000   1.0000   1.0000   1.0000   1.0000
     1.0000   1.0000   1.0000   1.0000   1.0000   1.0000   1.0000   1.0000
     1.0000   1.0000   1.0000   1.0000   1.0000   1.0000   1.0000   1.0000
     1.0000   1.0000   1.0000   1.0000   1.0000   1.0000   1.0000   1.0000
     1.0000   1.0000   1.0000   1.0000   1.0000   1.0000   1.0000   1.0000
     1.0000   1.0000   1.0000   1.0000   1.0000   1.0000   1.0000   1.0000
     1.0000   1.0000   1.0000   1.0000   1.0000   1.0000   1.0000   1.0000
     1.0000   1.0000   1.0000   1.0000   1.0000   1.0000   1.0000   1.0000
     1.0000   1.0000   1.0000   1.0000   1.0000   1.0000   1.0000   1.0000
     1.0000   1.0000   1.0000   1.0000   1.0000   1.0000   1.0000   1.0000
     1.0000   1.0000   1.0000   1.0000   1.0000   1.0000   1.0000   1.0000
     1.0000   1.0000   1.0000   1.0000   1.0000   1.0000   1.0000   1.0000
     1.0000   1.0000   1.0000   1.0000   1.0000   1.0000   1.0000   1.0000
     1.0000   1.0000   1.0000   1.0000   1.0000   1.0000   1.0000   1.0000
     1.0000   1.0000   1.0000   1.0000   1.0000   1.0000   1.0000   1.0000
     1.0000   1.0000   1.0000   1.0000   1.0000   1.0000   1.0000   1.0000
     1.0000   1.0000   1.0000   1.0000   1.0000   1.0000   1.0000   1.0000
     1.0000   1.0000   1.0000   1.0000   1.0000   1.0000   1.0000   1.0000
     1.0000   1.0000   1.0000   1.0000   1.0000   1.0000   1.0000   1.0000
     1.0000   1.0000   1.0000   1.0000   1.0000   1.0000   1.0000   1.0000
     0.0000   0.0000   0.0000   0.0000   0.0000   0.0000   0.0000   0.0000
     0.0000   0.0000   0.0000   0.0000   0.0000   0.0000   0.0000   0.0000
     0.0000   0.0000   0.0000   0.0000   0.0000   0.0000   0.0000   0.0000
     0.0000   0.0000   0.0000   0.0000   0.0000   0.0000   0.0000   0.0000
     0.0000   0.0000   0.0000   0.0000   0.0000   0.0000   0.0000   0.0000
     0.0000   0.0000   0.0000   0.0000   0.0000   0.0000   0.0000   0.0000
     0.0000   0.0000   0.0000   0.0000   0.0000   0.0000   0.0000   0.0000
     0.0000   0.0000   0.0000   0.0000   0.0000   0.0000   0.0000   0.0000
     0.0000   0.0000   0.0000   0.0000   0.0000   0.0000   0.0000   0.0000
     0.0000   0.0000   0.0000   0.0000   0.0000   0.0000   0.0000   0.0000
     0.0000   0.0000   0.0000   0.0000   0.0000   0.0000   0.0000   0.0000
     0.0000   0.0000   0.0000   0.0000   0.0000   0.0000   0.0000   0.0000
     0.0000   0.0000   0.0000   0.0000   0.0000   0.0000

          k =-0.7067 0.0015-0.0004 ( 42124 PWs)   bands (ev):

   -65.3417 -65.3391 -65.2530 -65.2505 -65.2457 -65.2451 -65.2381 -65.2311
   -65.2304 -65.2123 -65.2116 -65.2111 -65.2101 -65.1760 -65.1609 -65.1591
   -65.1537 -65.1531 -65.1393 -65.1284 -65.1082 -65.0921 -65.0883 -65.0848
   -65.0709 -65.0691 -65.0592 -65.0445 -65.0357 -65.0287 -65.0085 -64.9997
   -64.9362 -64.7988 -32.3103 -32.3077 -32.3055 -32.3029 -32.2971 -32.2969
   -32.2230 -32.2209 -32.2199 -32.2152 -32.2135 -32.2120 -32.2109 -32.2107
   -32.2096 -32.2067 -32.2067 -32.2061 -32.2026 -32.2024 -32.2010 -32.2000
   -32.1964 -32.1958 -32.1919 -32.1881 -32.1864 -32.1854 -32.1840 -32.1821
   -32.1802 -32.1766 -32.1753 -32.1749 -32.1732 -32.1684 -32.1673 -32.1669
   -32.1641 -32.1425 -32.1386 -32.1368 -32.1299 -32.1280 -32.1248 -32.1227
   -32.1212 -32.1198 -32.1190 -32.1169 -32.1138 -32.1130 -32.1126 -32.1088
   -32.1086 -32.1049 -32.0986 -32.0974 -32.0896 -32.0854 -32.0771 -32.0724
   -32.0676 -32.0643 -32.0588 -32.0553 -32.0525 -32.0508 -32.0506 -32.0468
   -32.0442 -32.0419 -32.0411 -32.0399 -32.0344 -32.0324 -32.0316 -32.0295
   -32.0270 -32.0202 -32.0181 -32.0172 -32.0079 -32.0013 -31.9990 -31.9988
   -31.9978 -31.9955 -31.9899 -31.9888 -31.9774 -31.9705 -31.9703 -31.9670
   -31.9620 -31.9529 -31.9075 -31.8981 -31.8921 -31.7696 -31.7617 -31.7584
   -28.8089 -28.7955 -28.7757 -28.7647 -28.7523 -28.7321 -28.7167 -28.7056
   -28.7003 -28.6874 -28.6746 -28.6608 -28.6570 -28.6274 -28.6166 -28.6103
   -28.5797 -28.5674 -28.5387 -28.5382 -28.5314 -28.5232 -28.5118 -28.4932
   -28.4860 -28.4750 -28.4579 -28.4453 -28.3388 -28.2948 -11.2095 -11.1838
   -11.1764 -11.1389 -11.1264 -11.0921 -11.0354 -11.0131 -11.0037 -10.9683
   -10.9455 -10.9353 -10.9128 -10.8802 -10.8710 -10.8185 -10.8036 -10.7704
   -10.7572 -10.7319 -10.7189 -10.6943 -10.6817 -10.6562 -10.6287 -10.5919
   -10.5768 -10.5633 -10.5455 -10.5382 -10.5246 -10.5057 -10.4841 -10.4760
   -10.4658 -10.4342 -10.4110 -10.3744 -10.3474 -10.3358 -10.3207 -10.2940
   -10.2840 -10.2560 -10.2545 -10.2303 -10.2133 -10.1800 -10.1610 -10.1264
   -10.1207 -10.1043 -10.0973 -10.0664 -10.0551 -10.0351 -10.0081  -9.9985
    -9.9778  -9.9671  -9.9536  -9.9329  -9.9171  -9.9058  -9.8949  -9.8730
    -9.8657  -9.8618  -9.8513  -9.8406  -9.8315  -9.8258  -9.8152  -9.7970
    -9.7879  -9.7845  -9.7728  -9.7522  -9.7421  -9.7374  -9.7214  -9.6960
    -9.6861  -9.6695  -9.6530  -9.6421  -9.6296  -9.5344  -9.5099  -9.4956
    -8.0736  -8.0319  -7.9524  -7.9277  -7.8378  -7.7882  -7.7717  -7.7495
    -7.7186  -7.6881  -7.6799  -7.6647  -7.6179  -7.5875  -7.5733  -7.5400
    -7.5365  -7.5165  -7.4783  -7.4621  -7.4553  -7.4259  -7.4098  -7.3736
    -7.3430  -7.3171  -7.3090  -7.2906  -7.2369  -7.2224  -7.2042  -7.1816
    -7.1630  -7.1023  -7.0858  -7.0714  -7.0534  -7.0246  -7.0214  -7.0001
    -6.9866  -6.9455  -6.9371  -6.8911  -6.8614  -6.8496  -6.8381  -6.8130
    -6.8114  -6.7937  -6.7682  -6.7555  -6.7366  -6.7180  -6.7051  -6.6580
    -6.6226  -6.5720  -6.5306  -6.4987  -6.4809  -6.4687  -6.2709  -6.2226
     3.9667   3.9791   3.9988   4.0307   4.0643   4.0710   4.1020   4.1765
     4.3022   4.3550   4.4001   4.4258   4.4756   4.5353   4.5411   4.5794
[...]
     atom   77 type  2   force =   0.00000000E+00  0.00000000E+00  0.00000000E+00
     atom   78 type  3   force =   0.00000000E+00  0.00000000E+00  0.00000000E+00
     atom   79 type  1   force =   0.00000000E+00  0.00000000E+00  0.00000000E+00
     atom   80 type  3   force =   0.00000000E+00  0.00000000E+00  0.00000000E+00
     atom   81 type  2   force =   0.00000000E+00  0.00000000E+00  0.00000000E+00
     atom   82 type  3   force =   0.00000000E+00  0.00000000E+00  0.00000000E+00
     atom   83 type  2   force =   0.00000000E+00  0.00000000E+00  0.00000000E+00
     atom   84 type  3   force =   0.00000000E+00  0.00000000E+00  0.00000000E+00
     atom   85 type  1   force =   0.00000000E+00  0.00000000E+00  0.00000000E+00
     atom   86 type  3   force =   0.00000000E+00  0.00000000E+00  0.00000000E+00
     atom   87 type  1   force =   0.00000000E+00  0.00000000E+00  0.00000000E+00
     atom   88 type  3   force =   0.00000000E+00  0.00000000E+00  0.00000000E+00
     atom   89 type  1   force =   0.00000000E+00  0.00000000E+00  0.00000000E+00
     atom   90 type  3   force =   0.00000000E+00  0.00000000E+00  0.00000000E+00
     atom   91 type  1   force =   0.00000000E+00  0.00000000E+00  0.00000000E+00
     atom   92 type  3   force =   0.00000000E+00  0.00000000E+00  0.00000000E+00
     atom   93 type  2   force =   0.00000000E+00  0.00000000E+00  0.00000000E+00
     atom   94 type  3   force =   0.00000000E+00  0.00000000E+00  0.00000000E+00
     atom   95 type  2   force =   0.00000000E+00  0.00000000E+00  0.00000000E+00
     atom   96 type  3   force =   0.00000000E+00  0.00000000E+00  0.00000000E+00
     atom   97 type  1   force =   0.00000000E+00  0.00000000E+00  0.00000000E+00
     atom   98 type  3   force =   0.00000000E+00  0.00000000E+00  0.00000000E+00
     atom   99 type  2   force =   0.00000000E+00  0.00000000E+00  0.00000000E+00
     atom  100 type  3   force =   0.00000000E+00  0.00000000E+00  0.00000000E+00
     atom  101 type  2   force =   0.00000000E+00  0.00000000E+00  0.00000000E+00
     atom  102 type  3   force =   0.00000000E+00  0.00000000E+00  0.00000000E+00
     atom  103 type  2   force =   0.00000000E+00  0.00000000E+00  0.00000000E+00
     atom  104 type  3   force =   0.00000000E+00  0.00000000E+00  0.00000000E+00
     atom  105 type  1   force =   0.00000000E+00  0.00000000E+00  0.00000000E+00
     atom  106 type  3   force =   0.00000000E+00  0.00000000E+00  0.00000000E+00
     atom  107 type  2   force =   0.00000000E+00  0.00000000E+00  0.00000000E+00
     atom  108 type  3   force =   0.00000000E+00  0.00000000E+00  0.00000000E+00
     atom  109 type  2   force =   0.00000000E+00  0.00000000E+00  0.00000000E+00
     atom  110 type  3   force =   0.00000000E+00  0.00000000E+00  0.00000000E+00
     atom  111 type  1   force =   0.00000000E+00  0.00000000E+00  0.00000000E+00
     atom  112 type  3   force =   0.00000000E+00  0.00000000E+00  0.00000000E+00
     atom  113 type  2   force =   0.00000000E+00  0.00000000E+00  0.00000000E+00
     atom  114 type  3   force =   0.00000000E+00  0.00000000E+00  0.00000000E+00
     atom  115 type  1   force =   0.00000000E+00  0.00000000E+00  0.00000000E+00
     atom  116 type  3   force =   0.00000000E+00  0.00000000E+00  0.00000000E+00
     atom  117 type  2   force =   0.00000000E+00  0.00000000E+00  0.00000000E+00
     atom  118 type  3   force =   0.00000000E+00  0.00000000E+00  0.00000000E+00
     atom  119 type  1   force =   0.00000000E+00  0.00000000E+00  0.00000000E+00
     atom  120 type  3   force =   0.00000000E+00  0.00000000E+00  0.00000000E+00
     atom  121 type  2   force =   0.00000000E+00  0.00000000E+00  0.00000000E+00
     atom  122 type  3   force =   0.00000000E+00  0.00000000E+00  0.00000000E+00
     atom  123 type  1   force =   0.00000000E+00  0.00000000E+00  0.00000000E+00
     atom  124 type  3   force =   0.00000000E+00  0.00000000E+00  0.00000000E+00
     atom  125 type  1   force =   0.00000000E+00  0.00000000E+00  0.00000000E+00
     atom  126 type  3   force =   0.00000000E+00  0.00000000E+00  0.00000000E+00
     atom  127 type  2   force =   0.00000000E+00  0.00000000E+00  0.00000000E+00
     atom  128 type  3   force =   0.00000000E+00  0.00000000E+00  0.00000000E+00
     The SCF correction term to forces
     atom    1 type  1   force =   0.50961894E-06 -0.19823381E-05  0.48598925E-05
     atom    2 type  3   force =   0.15031121E-05  0.19440360E-06 -0.93951362E-06
     atom    3 type  1   force =   0.27568302E-05  0.65863492E-06 -0.32104331E-05
     atom    4 type  3   force =   0.19003400E-05  0.12811943E-05 -0.23462644E-06
     atom    5 type  2   force =   0.24748619E-05 -0.14128955E-05  0.36942548E-06
     atom    6 type  3   force =   0.98712575E-06 -0.26052184E-06  0.89842312E-06
     atom    7 type  2   force =   0.63241627E-06 -0.38661254E-05  0.56574791E-05
     atom    8 type  3   force =  -0.22889293E-05 -0.31965031E-05  0.27777840E-06
     atom    9 type  1   force =  -0.49533688E-05  0.87685050E-06 -0.20956668E-05
     atom   10 type  3   force =  -0.24106644E-06  0.20899179E-05 -0.18337744E-05
     atom   11 type  1   force =   0.36971020E-05  0.26191107E-05 -0.14515740E-05
     atom   12 type  3   force =  -0.12846731E-05  0.26125496E-05 -0.33266166E-05
     atom   13 type  1   force =   0.56909830E-06  0.35863993E-05 -0.35055427E-05
     atom   14 type  3   force =  -0.31224314E-05  0.19161343E-05 -0.21636466E-05
     atom   15 type  1   force =  -0.82551355E-05  0.14005719E-05  0.11833801E-05
     atom   16 type  3   force =  -0.28410933E-05  0.81673740E-06  0.95467280E-06
     atom   17 type  2   force =   0.11170393E-05  0.15045682E-05 -0.13294775E-06
     atom   18 type  3   force =   0.11798543E-05 -0.21827864E-06 -0.20751281E-05
     atom   19 type  2   force =  -0.54428836E-06  0.91487057E-06 -0.42787058E-05
     atom   20 type  3   force =   0.20370337E-05  0.75673800E-06  0.21216631E-06
     atom   21 type  2   force =  -0.11756259E-05  0.20051721E-05 -0.24096861E-05
     atom   22 type  3   force =  -0.12434591E-05 -0.47711640E-06  0.88857646E-06
     atom   23 type  1   force =  -0.28158606E-05 -0.85233186E-06  0.91789070E-06
     atom   24 type  3   force =  -0.12810371E-05 -0.72230305E-06 -0.22938572E-06
     atom   25 type  2   force =   0.18690795E-05 -0.29118577E-05 -0.97453552E-06
     atom   26 type  3   force =   0.26872309E-05 -0.15339052E-05 -0.43230472E-06
     atom   27 type  1   force =   0.48418952E-05  0.18071438E-06 -0.12859417E-05
     atom   28 type  3   force =   0.10549006E-05  0.57439280E-07 -0.15390373E-06
     atom   29 type  1   force =   0.10622925E-05 -0.21727424E-05  0.31682826E-05
     atom   30 type  3   force =   0.78428636E-06 -0.17403890E-05  0.30069013E-05
     atom   31 type  1   force =   0.18269668E-05 -0.42062562E-05  0.55938039E-06
     atom   32 type  3   force =   0.12407119E-05 -0.25023739E-05  0.40271059E-05
     atom   33 type  2   force =  -0.60230360E-06 -0.38471143E-05  0.57061013E-06
     atom   34 type  3   force =   0.23674408E-05  0.70449438E-06  0.78493403E-06
     atom   35 type  1   force =   0.17886839E-05  0.56174015E-05 -0.24059386E-05
     atom   36 type  3   force =   0.79194843E-06  0.11263340E-05 -0.71297637E-06
     atom   37 type  2   force =   0.18320904E-05  0.50334086E-06  0.12099813E-05
     atom   38 type  3   force =   0.26435984E-07 -0.19575747E-05 -0.53381303E-06
     atom   39 type  2   force =   0.53098685E-06 -0.54145489E-05  0.22987060E-05
     atom   40 type  3   force =  -0.77023360E-06 -0.22704677E-05  0.28573616E-05
     atom   41 type  1   force =   0.20979638E-07  0.11493531E-05  0.30744813E-05
     atom   42 type  3   force =  -0.26177084E-05  0.26684922E-05 -0.34926699E-05
     atom   43 type  1   force =  -0.86538089E-06  0.24399532E-05 -0.19591221E-05
     atom   44 type  3   force =  -0.60355566E-06  0.28863734E-05 -0.25397161E-05
     atom   45 type  1   force =   0.64070967E-06  0.29362787E-05 -0.48194014E-05
     atom   46 type  3   force =  -0.79934143E-06  0.15382234E-05  0.41629473E-06
     atom   47 type  1   force =  -0.37952650E-05 -0.19059681E-05 -0.26810889E-06
     atom   48 type  3   force =  -0.31224973E-05  0.19249559E-06 -0.55277947E-08
     atom   49 type  2   force =  -0.41988992E-05  0.11657303E-05 -0.32121806E-05
     atom   50 type  3   force =   0.14220033E-05  0.80249481E-06  0.85420494E-08
     atom   51 type  1   force =   0.11063654E-05  0.42261529E-05 -0.52663024E-05
     atom   52 type  3   force =   0.22018030E-05  0.14847672E-05 -0.43592883E-06
     atom   53 type  2   force =  -0.87098105E-06  0.27417789E-05 -0.63852024E-07
     atom   54 type  3   force =  -0.17577717E-05  0.36848651E-06  0.67797300E-06
     atom   55 type  1   force =  -0.59849763E-05  0.23733360E-05  0.12261723E-05
     atom   56 type  3   force =  -0.27258012E-05 -0.17112970E-05  0.29361033E-05
     atom   57 type  1   force =   0.11513062E-05 -0.44858923E-05  0.45164480E-05
     atom   58 type  3   force =   0.23888390E-05  0.16735179E-05 -0.67082997E-06
     atom   59 type  2   force =   0.63860716E-05  0.25992336E-05 -0.78259533E-06
     atom   60 type  3   force =   0.15202056E-05  0.74837877E-07 -0.35603803E-06
     atom   61 type  2   force =  -0.86444497E-06 -0.12017022E-05  0.35222178E-05
     atom   62 type  3   force =   0.38470352E-06 -0.16257378E-05  0.16771020E-05
     atom   63 type  1   force =  -0.88865919E-06 -0.27788747E-05  0.72536280E-05
     atom   64 type  3   force =  -0.13939498E-05 -0.29171122E-05  0.20308697E-05
     atom   65 type  2   force =   0.67296829E-06 -0.10165671E-06  0.25281996E-05
     atom   66 type  3   force =   0.14933775E-05  0.65190545E-06 -0.39224149E-06
     atom   67 type  2   force =   0.35716080E-05  0.15939189E-05 -0.49687162E-06
     atom   68 type  3   force =   0.27346081E-06 -0.26365649E-06 -0.41962443E-06
     atom   69 type  1   force =  -0.54471786E-06 -0.19272875E-05  0.99575542E-06
     atom   70 type  3   force =   0.24054975E-06 -0.30174438E-06  0.17052798E-05
     atom   71 type  1   force =  -0.13649886E-05 -0.17248883E-05  0.27888857E-05
     atom   72 type  3   force =  -0.43268749E-06 -0.16476769E-05  0.26602181E-05
     atom   73 type  1   force =  -0.84292147E-06  0.55472617E-06 -0.18331131E-05
     atom   74 type  3   force =  -0.16288822E-05  0.27519227E-05 -0.37079671E-05
     atom   75 type  2   force =  -0.18305300E-05  0.49028293E-05 -0.32920334E-05
     atom   76 type  3   force =   0.33002423E-06  0.25709129E-05 -0.25844801E-05
     atom   77 type  2   force =  -0.11237601E-05  0.16498534E-05 -0.40378845E-06
     atom   78 type  3   force =  -0.10379457E-05  0.11645060E-05 -0.20209694E-05
     atom   79 type  1   force =  -0.20778324E-05 -0.10173447E-05  0.27817834E-05
     atom   80 type  3   force =  -0.29844563E-05 -0.10002339E-05 -0.67483611E-06
     atom   81 type  2   force =  -0.44820486E-05  0.61070762E-06  0.10156643E-06
     atom   82 type  3   force =   0.13778637E-05  0.96404112E-06  0.76864854E-06
     atom   83 type  2   force =   0.19078319E-05  0.54151719E-05 -0.41800945E-05
     atom   84 type  3   force =   0.11248645E-05 -0.25518266E-06 -0.11469083E-05
     atom   85 type  1   force =   0.10977581E-06  0.68412683E-06 -0.29853667E-05
     atom   86 type  3   force =   0.10047304E-05 -0.52648575E-06 -0.25489511E-06
     atom   87 type  1   force =  -0.39851435E-05 -0.11526815E-05  0.15553400E-05
     atom   88 type  3   force =  -0.14261668E-05 -0.25064278E-05  0.24420145E-05
     atom   89 type  1   force =  -0.69329303E-06 -0.28038238E-05  0.46189743E-05
     atom   90 type  3   force =   0.14378119E-05  0.90947265E-06  0.64142947E-06
     atom   91 type  1   force =   0.68450441E-05  0.12972259E-06 -0.19896590E-05
     atom   92 type  3   force =   0.23245954E-05 -0.57078754E-06  0.82045173E-07
     atom   93 type  2   force =   0.30412857E-05 -0.15236018E-05  0.61395504E-06
     atom   94 type  3   force =   0.16861387E-06 -0.15086658E-05  0.33280619E-06
     atom   95 type  2   force =  -0.22587707E-05 -0.31374096E-05  0.30527708E-05
     atom   96 type  3   force =  -0.15818407E-05 -0.12036561E-05  0.20268175E-05
     atom   97 type  1   force =   0.16117675E-05 -0.68328422E-06  0.36321918E-06
     atom   98 type  3   force =   0.49797125E-07  0.46154218E-06 -0.14641857E-05
     atom   99 type  2   force =   0.41691173E-05 -0.81934185E-06 -0.48886842E-06
     atom  100 type  3   force =   0.12466468E-05  0.59851766E-06 -0.13534155E-05
     atom  101 type  2   force =   0.17304986E-05 -0.18464573E-05  0.23482753E-05
     atom  102 type  3   force =   0.72575356E-06 -0.91278236E-06  0.13910013E-05
     atom  103 type  2   force =  -0.74621841E-06 -0.31659267E-05  0.36889684E-05
     atom  104 type  3   force =  -0.14175056E-05 -0.64250878E-06  0.21300413E-05
     atom  105 type  1   force =   0.14885597E-06  0.22423714E-05 -0.49637057E-05
     atom  106 type  3   force =   0.59314174E-06  0.29700772E-05 -0.14319786E-05
     atom  107 type  2   force =   0.49236570E-06  0.34368115E-05 -0.61551281E-05
     atom  108 type  3   force =  -0.98794327E-06  0.22737450E-05 -0.18710358E-05
     atom  109 type  2   force =  -0.12701017E-06  0.29507590E-05 -0.22936019E-05
     atom  110 type  3   force =  -0.28632943E-05  0.16103511E-05 -0.22139291E-05
     atom  111 type  1   force =  -0.60679751E-05 -0.32849711E-05  0.11863840E-05
     atom  112 type  3   force =  -0.35430956E-05 -0.76195300E-07 -0.21954625E-06
     atom  113 type  2   force =  -0.93166537E-06 -0.75801764E-06  0.44803463E-06
     atom  114 type  3   force =   0.65369083E-06  0.35121558E-06 -0.72137542E-06
     atom  115 type  1   force =   0.10745364E-05  0.45712820E-05 -0.75057410E-06
     atom  116 type  3   force =   0.75929785E-06 -0.36362043E-06 -0.24121789E-06
     atom  117 type  2   force =  -0.34642328E-06  0.23388925E-05 -0.28814509E-05
     atom  118 type  3   force =   0.58305940E-06 -0.94901691E-06  0.86607658E-07
     atom  119 type  1   force =  -0.17455564E-05 -0.41188751E-05  0.76356409E-06
     atom  120 type  3   force =   0.62991439E-06 -0.17593560E-05  0.16493932E-05
     atom  121 type  2   force =   0.36730529E-07 -0.10693704E-05  0.30277597E-05
     atom  122 type  3   force =   0.19894861E-05 -0.77010487E-06  0.19690968E-08
     atom  123 type  1   force =   0.23080460E-05  0.22368619E-06  0.42761268E-06
     atom  124 type  3   force =   0.14438316E-05 -0.68864978E-07  0.10117855E-05
     atom  125 type  1   force =   0.21291402E-05 -0.19230701E-05 -0.66723344E-06
     atom  126 type  3   force =   0.98126477E-06 -0.15739881E-05  0.14388688E-05
     atom  127 type  2   force =   0.81556387E-06 -0.23472781E-05  0.18365795E-05
     atom  128 type  3   force =   0.26725739E-06 -0.22347520E-05  0.72245937E-06

     Total force =     0.464320     Total SCF correction =     0.000044


     entering subroutine stress ...

          total   stress  (Ry/bohr**3)                   (kbar)     P=   23.59
   0.0001621493  -0.0000242922  -0.0000107773         23.85     -3.57     -1.59
  -0.0000242922   0.0001546580   0.0000047516         -3.57     22.75      0.70
  -0.0000107773   0.0000047516   0.0001642917         -1.59      0.70     24.17

     kinetic stress (kbar)  21193.89     -2.90     -1.22
                               -2.90  21190.91      0.02
                               -1.22      0.02  21195.96

     local   stress (kbar)  -3182.49    -46.24    -20.20
                              -46.24  -3287.60      4.42
                              -20.20      4.42  -3161.87

     nonloc. stress (kbar)   5373.45      0.16      0.06
                                0.16   5374.48     -0.09
                                0.06     -0.09   5372.94

     hartree stress (kbar)  11433.09     17.64      9.31
                               17.64  11477.32      0.13
                                9.31      0.13  11426.91

     exc-cor stress (kbar)  -5497.55      0.06      0.02
                                0.06  -5497.50     -0.01
                                0.02     -0.01  -5497.57

     corecor stress (kbar)  -1019.48      0.01      0.00
                                0.01  -1019.48      0.00
                                0.00      0.00  -1019.48

     ewald   stress (kbar) -28277.05     27.69     10.43
                               27.69 -28215.38     -3.77
                               10.43     -3.77 -28292.72

     hubbard stress (kbar)      0.00      0.00      0.00
                                0.00      0.00      0.00
                                0.00      0.00      0.00

     london  stress (kbar)      0.00      0.00      0.00
                                0.00      0.00      0.00
                                0.00      0.00      0.00

     XDM     stress (kbar)      0.00      0.00      0.00
                                0.00      0.00      0.00
                                0.00      0.00      0.00

     dft-nl  stress (kbar)      0.00      0.00      0.00
                                0.00      0.00      0.00
                                0.00      0.00      0.00



     Writing output data file mix_rocksalt.relax.in.up_1.00.super.444.a.011.save

     init_run     :    722.54s CPU    529.14s WALL (       1 calls)
     electrons    :  50994.84s CPU  42166.58s WALL (       1 calls)
     forces       :    540.78s CPU    378.96s WALL (       1 calls)
     stress       :   2426.60s CPU   2472.64s WALL (       1 calls)

     Called by init_run:
     wfcinit      :    685.08s CPU    491.09s WALL (       1 calls)
     potinit      :      5.57s CPU      5.66s WALL (       1 calls)

     Called by electrons:
     c_bands      :  44888.04s CPU  36665.33s WALL (      26 calls)
     sum_band     :   5503.38s CPU   4867.26s WALL (      26 calls)
     v_of_rho     :     13.55s CPU     15.15s WALL (      27 calls)
     v_h          :      0.74s CPU      1.00s WALL (      27 calls)
     v_xc         :     13.84s CPU     15.81s WALL (      29 calls)
     newd         :    589.83s CPU    615.94s WALL (      27 calls)
     mix_rho      :     19.55s CPU     22.28s WALL (      26 calls)

     Called by c_bands:
     init_us_2    :     56.02s CPU     59.44s WALL (     440 calls)
     cegterg      :  44494.03s CPU  36246.44s WALL (     208 calls)

     Called by sum_band:
     sum_band:bec :     18.41s CPU     19.14s WALL (     208 calls)
     addusdens    :    444.27s CPU    459.14s WALL (      26 calls)

     Called by *egterg:
     h_psi        :  19589.86s CPU  16489.19s WALL (     720 calls)
     s_psi        :   5681.63s CPU   3530.40s WALL (     720 calls)
     g_psi        :     10.36s CPU     12.01s WALL (     504 calls)
     cdiaghg      :   8901.72s CPU   9187.41s WALL (     712 calls)
     cegterg:over :   4760.59s CPU   3179.74s WALL (     504 calls)
     cegterg:upda :   2119.33s CPU   1373.24s WALL (     504 calls)
     cegterg:last :   1651.22s CPU   1018.45s WALL (     208 calls)

     Called by h_psi:
     h_psi:vloc   :   7194.15s CPU   8639.45s WALL (     720 calls)
     h_psi:vnl    :  12374.71s CPU   7827.60s WALL (     720 calls)
     add_vuspsi   :   5642.64s CPU   3511.35s WALL (     720 calls)

     General routines
     calbec       :  10170.30s CPU   6586.55s WALL (     944 calls)
     fft          :     52.17s CPU     55.31s WALL (     453 calls)
     ffts         :     11.32s CPU     13.07s WALL (     704 calls)
     fftw         :   8082.58s CPU   9873.04s WALL (  697344 calls)
     interpolate  :      2.39s CPU      3.05s WALL (      53 calls)

     Parallel routines
     fft_scatter  :   4517.61s CPU   5571.89s WALL (  698501 calls)

     PWSCF        :    15h11m CPU       12h39m WALL


   This run was terminated on:   2:27:22   4Nov2017            

=------------------------------------------------------------------------------=
   JOB DONE.
=------------------------------------------------------------------------------=
