
     Program PWSCF v.5.1 starts on  3Nov2017 at 19:52: 0 

     This program is part of the open-source Quantum ESPRESSO suite
     for quantum simulation of materials; please cite
         "P. Giannozzi et al., J. Phys.:Condens. Matter 21 395502 (2009);
          URL http://www.quantum-espresso.org", 
     in publications or presentations arising from this work. More details at
     http://www.quantum-espresso.org/quote

     Parallel version (MPI), running on     8 processors
     R & G space division:  proc/nbgrp/npool/nimage =       8
     Reading input from /tmp/mix_rocksalt.relax.in.up_1.00.super.444.a.03.14092/mix_rocksalt.relax.in.up_1.00.super.444.a.03.t
Warning: card &IONS ignored
Warning: card   ION_DYNAMICS='BFGS', ignored
Warning: card / ignored
Warning: card &CELL ignored
Warning: card  CELL_DYNAMICS = 'BFGS' ignored
Warning: card / ignored
     Message from routine read_cards :
     DEPRECATED: no units specified in CELL_PARAMETERS card

     Current dimensions of program PWSCF are:
     Max number of different atomic species (ntypx) = 10
     Max number of k-points (npk) =  40000
     Max angular momentum in pseudopotentials (lmaxx) =  3
 kfg - two_fermi_energies  F

     Subspace diagonalization in iterative solution of the eigenvalue problem:
     a serial algorithm will be used


     Parallelization info
     --------------------
     sticks:   dense  smooth     PW     G-vecs:    dense   smooth      PW
     Min         998     799    209                59095    42288    5736
     Max         999     800    210                59096    42312    5738
     Sum        7991    6397   1679               472767   338423   45895



     bravais-lattice index     =            0
     lattice parameter (alat)  =    24.033871582  a.u.
     unit-cell volume          =    9898.2560 (a.u.)^3
     number of atoms/cell      =          128
     number of atomic types    =            3
     number of electrons       =      1024.00
     number of Kohn-Sham states=          614
     kinetic-energy cutoff     =      40.0000  Ry
     charge density cutoff     =     200.0000  Ry
     convergence threshold     =      1.0E-10
     mixing beta               =       0.3000
     number of iterations used =            8  local-TF  mixing
     Exchange-correlation      = SLA  PW   PSX  PSC ( 1  4 10  8 0)
     A smooth kinetic-energy cutoff is imposed at      39.5000 Ry
     height of the smooth step-function =             800.0000 Ry
     width of the smooth step-function  =               1.0000 Ry


     celldm(1)=  24.033872  celldm(2)=   0.000000  celldm(3)=   0.000000
     celldm(4)=   0.000000  celldm(5)=   0.000000  celldm(6)=   0.000000

     crystal axes: (cart. coord. in units of alat)
               a(1) = (   0.000172793445   0.706580393393   0.707632756318 )  
               a(2) = (   0.710200878973   0.000652809675   0.709785808028 )  
               a(3) = (   0.710138503039   0.710139767916  -0.000744784116 )  

     reciprocal axes: (cart. coord. in units 2 pi/alat)
               b(1) = ( -0.706942  0.707682  0.706705 )  
               b(2) = (  0.705535 -0.704796  0.703576 )  
               b(3) = (  0.702751  0.704686 -0.703810 )  


     PseudoPot. # 1 for Mg read from file:
     /users/kfg/psuedo/gbrv_1.5/mg.pbesol.UPF
     MD5 check sum: 4059f37963cf5867752dbf5ab2400678
     Pseudo is Ultrasoft, Zval = 10.0
     Generated by new atomic code, or converted to UPF format
     Using radial grid of  821 points,  7 beta functions with: 
                l(1) =   0
                l(2) =   0
                l(3) =   0
                l(4) =   1
                l(5) =   1
                l(6) =   2
                l(7) =   2
     Q(r) pseudized with  8 coefficients,  rinner =    1.200   1.200   1.200
                                                       1.200   1.200

     PseudoPot. # 2 for Ca read from file:
     /users/kfg/psuedo/gbrv_1.5/ca.pbesol.UPF
     MD5 check sum: 0533207b58cddeaa036efa5b63902087
     Pseudo is Ultrasoft + core correction, Zval = 10.0
     Generated by new atomic code, or converted to UPF format
     Using radial grid of  845 points,  6 beta functions with: 
                l(1) =   0
                l(2) =   0
                l(3) =   1
                l(4) =   1
                l(5) =   2
                l(6) =   2
     Q(r) pseudized with  8 coefficients,  rinner =    1.500   1.500   1.500
                                                       1.500   1.500

     PseudoPot. # 3 for O  read from file:
     /users/kfg/psuedo/gbrv_1.5/o.pbesol.UPF
     MD5 check sum: 501638753501ef6325af9037351f7734
     Pseudo is Ultrasoft + core correction, Zval =  6.0
     Generated by new atomic code, or converted to UPF format
     Using radial grid of  737 points,  5 beta functions with: 
                l(1) =   0
                l(2) =   0
                l(3) =   1
                l(4) =   1
                l(5) =   2
     Q(r) pseudized with  8 coefficients,  rinner =    0.900   0.900   0.900
                                                       0.900   0.900

     atomic species   valence    mass     pseudopotential
        Mg            10.00    24.30500     Mg( 1.00)
        Ca            10.00    24.30500     Ca( 1.00)
        O              6.00    15.99940     O ( 1.00)

     No symmetry found


                                    s                        frac. trans.

      isym =  1     identity                                     

 cryst.   s( 1) = (     1          0          0      )
                  (     0          1          0      )
                  (     0          0          1      )

 cart.    s( 1) = (  1.0000000  0.0000000  0.0000000 )
                  ( -0.0000000  1.0000000  0.0000000 )
                  ( -0.0000000 -0.0000000  1.0000000 )


     point group C_1 (1)    
     there are  1 classes
     the character table:

       E    
A      1.00

     the symmetry operations in each class:
     E        1

   Cartesian axes

     site n.     atom                  positions (alat units)
         1           Mg  tau(   1) = (   -0.00099825888   -0.00059710533    0.00066689220  )
         2           O   tau(   2) = (    0.17834709416    0.17844489886    0.17752708211  )
         3           Ca  tau(   3) = (    0.17848437121    0.17664828899    0.00056377829  )
         4           O   tau(   4) = (    0.35487235588    0.35623608180    0.17795453147  )
         5           Mg  tau(   5) = (    0.35382834269    0.35326709585   -0.00048959574  )
         6           O   tau(   6) = (    0.53276244609    0.53070345161    0.17594236701  )
         7           Mg  tau(   7) = (    0.53081351363    0.53354106458   -0.00107427685  )
         8           O   tau(   8) = (    0.70847078286    0.71159391576    0.17584069859  )
         9           Ca  tau(   9) = (    0.17645975368    0.00076076173    0.17667866945  )
        10           O   tau(  10) = (    0.35517620864    0.17905212964    0.35543456272  )
        11           Ca  tau(  11) = (    0.35325928453    0.17767245455    0.17591611053  )
        12           O   tau(  12) = (    0.53359927828    0.35491965960    0.35575951008  )
        13           Mg  tau(  13) = (    0.53188824156    0.35701481793    0.17594457694  )
        14           O   tau(  14) = (    0.71059771836    0.53298316796    0.35584032674  )
        15           Ca  tau(  15) = (    0.70999275449    0.53126792427    0.17521931038  )
        16           O   tau(  16) = (    0.88895953222    0.70973531926    0.35194680136  )
        17           Ca  tau(  17) = (    0.35346330744    0.00128014222    0.35494829845  )
        18           O   tau(  18) = (    0.53185274020    0.17721303178    0.53288209899  )
        19           Ca  tau(  19) = (    0.53391587636    0.17926832830    0.35479991798  )
        20           O   tau(  20) = (    0.71202813198    0.35304692991    0.52977027673  )
        21           Ca  tau(  21) = (    0.70931922849    0.35660472133    0.35656095135  )
        22           O   tau(  22) = (    0.88890431555    0.53329403137    0.53124037255  )
        23           Mg  tau(  23) = (    0.88935051651    0.53442673593    0.35467997393  )
        24           O   tau(  24) = (    1.06486049187    0.71050190796    0.52985359483  )
        25           Mg  tau(  25) = (    0.53133437368   -0.00034749556    0.53435781056  )
        26           O   tau(  26) = (    0.70995188268    0.17902512371    0.71086096580  )
        27           Ca  tau(  27) = (    0.71223911689    0.17772299686    0.53057400360  )
        28           O   tau(  28) = (    0.88954133476    0.35444989945    0.70951137490  )
        29           Mg  tau(  29) = (    0.88861596318    0.35754997889    0.53062814497  )
        30           O   tau(  30) = (    1.06593626031    0.53436863395    0.71106722576  )
        31           Ca  tau(  31) = (    1.06350942378    0.53204619529    0.53330337487  )
        32           O   tau(  32) = (    1.24266832118    0.70896052145    0.70768631029  )
        33           Ca  tau(  33) = (    0.00177791511    0.17523585828    0.17687379808  )
        34           O   tau(  34) = (    0.17820956367    0.35232254366    0.35510243497  )
        35           Mg  tau(  35) = (    0.17809934500    0.35289390987    0.17675151843  )
        36           O   tau(  36) = (    0.35444936894    0.53224513231    0.35183774358  )
        37           Mg  tau(  37) = (    0.35611941320    0.53103796737    0.17612950862  )
        38           O   tau(  38) = (    0.53222542218    0.71058236400    0.35244366270  )
        39           Ca  tau(  39) = (    0.53433572732    0.70797237868    0.17684248158  )
        40           O   tau(  40) = (    0.71187061566    0.88760112945    0.35401383999  )
        41           Ca  tau(  41) = (    0.17719247631    0.17637587090    0.35445090593  )
        42           O   tau(  42) = (    0.35390107612    0.35193997367    0.52966032136  )
        43           Ca  tau(  43) = (    0.35420671840    0.35622781631    0.35249895429  )
        44           O   tau(  44) = (    0.53114631079    0.52973752523    0.53071203719  )
        45           Mg  tau(  45) = (    0.53292467356    0.53040899675    0.35264332637  )
        46           O   tau(  46) = (    0.70976611094    0.70749881032    0.53248601275  )
        47           Mg  tau(  47) = (    0.70982416179    0.71134235536    0.35334836939  )
        48           O   tau(  48) = (    0.88971650871    0.88618646599    0.53138158638  )
        49           Mg  tau(  49) = (    0.35378655894    0.17506685450    0.53160761147  )
        50           O   tau(  50) = (    0.53325414618    0.35502852952    0.70954620112  )
        51           Ca  tau(  51) = (    0.53395389319    0.35536197757    0.53067818079  )
        52           O   tau(  52) = (    0.71008051697    0.53133541950    0.70836157555  )
        53           Mg  tau(  53) = (    0.70905913216    0.53378651131    0.53015701240  )
        54           O   tau(  54) = (    0.88585154405    0.70896550096    0.70676070809  )
        55           Mg  tau(  55) = (    0.88771435533    0.70793940919    0.53106425564  )
        56           O   tau(  56) = (    1.06375840518    0.88836427270    0.70834941104  )
        57           Mg  tau(  57) = (    0.53475014622    0.17726400818    0.70791212067  )
        58           O   tau(  58) = (    0.71172122444    0.35345605921    0.88745906451  )
        59           Ca  tau(  59) = (    0.70991012023    0.35550429855    0.70935021070  )
        60           O   tau(  60) = (    0.88687314033    0.53254950138    0.88637422278  )
        61           Ca  tau(  61) = (    0.88697535654    0.53321130214    0.70835525982  )
        62           O   tau(  62) = (    1.06497548331    0.71076390197    0.88496920638  )
        63           Mg  tau(  63) = (    1.06721701701    0.71028213854    0.70936544692  )
        64           O   tau(  64) = (    1.24408500081    0.88630823551    0.88509535235  )
        65           Mg  tau(  65) = (    0.00146068790    0.35513080551    0.35502239982  )
        66           O   tau(  66) = (    0.17914740900    0.53032778044    0.53136179276  )
        67           Mg  tau(  67) = (    0.17747179837    0.53139748557    0.35242853789  )
        68           O   tau(  68) = (    0.35638444676    0.70859980421    0.53090673949  )
        69           Mg  tau(  69) = (    0.35598095931    0.71042647067    0.35200088800  )
        70           O   tau(  70) = (    0.53157575911    0.88448534411    0.52921224212  )
        71           Ca  tau(  71) = (    0.53289172093    0.88561214436    0.35134003413  )
        72           O   tau(  72) = (    0.71136279460    1.06199576168    0.52853041796  )
        73           Ca  tau(  73) = (    0.17819327591    0.35381640208    0.52939569009  )
        74           O   tau(  74) = (    0.35620345610    0.53035922297    0.70836522191  )
        75           Ca  tau(  75) = (    0.35415906084    0.52950717968    0.53125728621  )
        76           O   tau(  76) = (    0.53330322255    0.71015507320    0.70744300109  )
        77           Mg  tau(  77) = (    0.53081893617    0.70649138542    0.53046025552  )
        78           O   tau(  78) = (    0.71149603913    0.88736927942    0.70804493850  )
        79           Ca  tau(  79) = (    0.70830405553    0.88439987854    0.53074079845  )
        80           O   tau(  80) = (    0.88668212395    1.06434630571    0.70924783830  )
        81           Mg  tau(  81) = (    0.35484519533    0.35311996191    0.70733318512  )
        82           O   tau(  82) = (    0.53369896500    0.53199375642    0.88624463200  )
        83           Mg  tau(  83) = (    0.53295665214    0.53086493677    0.70963239774  )
        84           O   tau(  84) = (    0.70998512132    0.70984039004    0.88551907705  )
        85           Mg  tau(  85) = (    0.71215972147    0.70963472598    0.70830877964  )
        86           O   tau(  86) = (    0.88597801277    0.88457124369    0.88510815289  )
        87           Ca  tau(  87) = (    0.88706892515    0.88491557954    0.70928222904  )
        88           O   tau(  88) = (    1.06562607838    1.06365173279    0.88533827239  )
        89           Mg  tau(  89) = (    0.53239417977    0.35172328711    0.88605786252  )
        90           O   tau(  90) = (    0.70957530061    0.53071288001    1.06303293130  )
        91           Ca  tau(  91) = (    0.71011192767    0.53148834548    0.88617517455  )
        92           O   tau(  92) = (    0.88880509736    0.70740623417    1.06121314413  )
        93           Ca  tau(  93) = (    0.88727355038    0.70844280707    0.88780100313  )
        94           O   tau(  94) = (    1.06578947135    0.88609217428    1.06338266611  )
        95           Mg  tau(  95) = (    1.06632842094    0.88433855973    0.88589256039  )
        96           O   tau(  96) = (    1.24167139403    1.06244983490    1.06355297275  )
        97           Ca  tau(  97) = (    0.00061542113    0.52788016478    0.53012374100  )
        98           O   tau(  98) = (    0.17571659922    0.70588769586    0.70916480769  )
        99           Ca  tau(  99) = (    0.17876119088    0.70702912478    0.52911118981  )
       100           O   tau( 100) = (    0.35396235939    0.88419696775    0.70763376761  )
       101           Ca  tau( 101) = (    0.35447158555    0.88599569017    0.52935363867  )
       102           O   tau( 102) = (    0.53077179217    1.06278054584    0.70884775443  )
       103           Mg  tau( 103) = (    0.53347212408    1.06131060287    0.53195286679  )
       104           O   tau( 104) = (    0.70848767859    1.23922630555    0.70575163047  )
       105           Ca  tau( 105) = (    0.17722019319    0.53107830081    0.70959311239  )
       106           O   tau( 106) = (    0.35516697142    0.70663718479    0.88422342983  )
       107           Ca  tau( 107) = (    0.35637295795    0.70699824925    0.70786551353  )
       108           O   tau( 108) = (    0.53130304888    0.88352034680    0.88617128031  )
       109           Mg  tau( 109) = (    0.53095599836    0.88671857940    0.70704243187  )
       110           O   tau( 110) = (    0.70962261294    1.06247517203    0.88422711617  )
       111           Ca  tau( 111) = (    0.70879466035    1.06379409343    0.70846849895  )
       112           O   tau( 112) = (    0.88846793552    1.23938852939    0.88477149340  )
       113           Ca  tau( 113) = (    0.35592512072    0.52993254054    0.88451833246  )
       114           O   tau( 114) = (    0.53469452990    0.70780888587    1.06161249432  )
       115           Ca  tau( 115) = (    0.53215980742    0.70925466785    0.88623814484  )
       116           O   tau( 116) = (    0.70958950682    0.88482289372    1.06139072004  )
       117           Mg  tau( 117) = (    0.70962273754    0.88439646121    0.88579585366  )
       118           O   tau( 118) = (    0.88677120491    1.06081483192    1.06030606380  )
       119           Mg  tau( 119) = (    0.88807804783    1.06186820226    0.88475055585  )
       120           O   tau( 120) = (    1.06332637615    1.23933421968    1.06290294397  )
       121           Mg  tau( 121) = (    0.53262911377    0.53234102288    1.06182693140  )
       122           O   tau( 122) = (    0.71035574978    0.70740209764    1.24003396053  )
       123           Ca  tau( 123) = (    0.71037603202    0.71003250041    1.06306677763  )
       124           O   tau( 124) = (    0.88895181625    0.88581898976    1.24077032477  )
       125           Mg  tau( 125) = (    0.88632415769    0.88637064974    1.06107450070  )
       126           O   tau( 126) = (    1.06622732378    1.06306337308    1.24177362594  )
       127           Mg  tau( 127) = (    1.06468353413    1.06297821023    1.06408520149  )
       128           O   tau( 128) = (    1.24245053892    1.24117694173    1.24104492888  )

   Crystallographic axes

     site n.     atom                  positions (cryst. coord.)
         1           Mg  tau(   1) = (    0.00075444675    0.00018573986   -0.00159166395  )
         2           O   tau(   2) = (    0.12566046015    0.12496666928    0.12613587646  )
         3           Ca  tau(   3) = (   -0.00076887353    0.00182265272    0.24951478302  )
         4           O   tau(   4) = (    0.12698902600    0.12450567556    0.37517522519  )
         5           Mg  tau(   5) = (   -0.00048137870    0.00031263153    0.49794004010  )
         6           O   tau(   6) = (    0.12327644509    0.12563377454    0.62454848698  )
         7           Mg  tau(   7) = (    0.00156380394   -0.00228584880    0.74976452194  )
         8           O   tau(   8) = (    0.12700190653    0.12203977478    0.87557015960  )
         9           Ca  tau(   9) = (    0.00065118323    0.24826928660    0.00019513882  )
        10           O   tau(  10) = (    0.12681028242    0.37446932299    0.12561754353  )
        11           Ca  tau(  11) = (    0.00032247203    0.24778439975    0.24964500524  )
        12           O   tau(  12) = (    0.12536343311    0.37663096568    0.37470714837  )
        13           Mg  tau(  13) = (    0.00097962613    0.24743365665    0.50153663028  )
        14           O   tau(  14) = (    0.12630524190    0.37606799972    0.62451489082  )
        15           Ca  tau(  15) = (   -0.00212671259    0.24976948091    0.75000385814  )
        16           O   tau(  16) = (    0.12254651196    0.37459493069    0.87715383025  )
        17           Ca  tau(  17) = (    0.00187144893    0.49821172886   -0.00051739721  )
        18           O   tau(  18) = (    0.12601170326    0.62526488171    0.12359180251  )
        19           Ca  tau(  19) = (    0.00015610823    0.49997760262    0.25182596885  )
        20           O   tau(  20) = (    0.12087347991    0.62626852518    0.37630798449  )
        21           Ca  tau(  21) = (    0.00289840335    0.49998387369    0.49881782157  )
        22           O   tau(  22) = (    0.12442881806    0.62505777784    0.62659077057  )
        23           Mg  tau(  23) = (    0.00013885241    0.50035062243    0.75196745196  )
        24           O   tau(  24) = (    0.12446477550    0.62332993992    0.87609601688  )
        25           Mg  tau(  25) = (    0.00176458723    0.75108143678   -0.00293552287  )
        26           O   tau(  26) = (    0.12716679679    0.87486462913    0.12476478901  )
        27           Ca  tau(  27) = (   -0.00278134215    0.75055052791    0.25234225731  )
        28           O   tau(  28) = (    0.12339864817    0.87698308280    0.37554062325  )
        29           Mg  tau(  29) = (   -0.00017097453    0.74828734762    0.50297464394  )
        30           O   tau(  30) = (    0.12712243205    0.87572455788    0.62519345415  )
        31           Ca  tau(  31) = (    0.00156790880    0.75057882481    0.74696331697  )
        32           O   tau(  32) = (    0.12334932706    0.87498484626    0.87480399621  )
        33           Ca  tau(  33) = (    0.24775205629    0.00219293474    0.00025020612  )
        34           O   tau(  34) = (    0.37430123483    0.12725905009    0.12358912701  )
        35           Mg  tau(  35) = (    0.24874200854    0.00129518484    0.24943940068  )
        36           O   tau(  36) = (    0.37473070587    0.12249674860    0.37652840716  )
        37           Mg  tau(  37) = (    0.24852189720    0.00090175126    0.50051651078  )
        38           O   tau(  38) = (    0.37568758862    0.12265894653    0.62670593452  )
        39           Ca  tau(  39) = (    0.24825044499    0.00243859201    0.74993953828  )
        40           O   tau(  40) = (    0.37507148740    0.12574756817    0.87658924232  )
        41           Ca  tau(  41) = (    0.25004545063    0.25008962594   -0.00065424149  )
        42           O   tau(  42) = (    0.37318763661    0.37429999941    0.12393132154  )
        43           Ca  tau(  43) = (    0.25080516618    0.24684711824    0.25185557437  )
        44           O   tau(  44) = (    0.37445290220    0.37478170239    0.37304175479  )
        45           Mg  tau(  45) = (    0.24782883639    0.25027829765    0.50009115386  )
        46           O   tau(  46) = (    0.37523118847    0.37676693512    0.62258427486  )
        47           Mg  tau(  47) = (    0.25131268494    0.24806204837    0.75141236468  )
        48           O   tau(  48) = (    0.37369021377    0.37701287487    0.87574052064  )
        49           Mg  tau(  49) = (    0.24947475591    0.50024879307   -0.00215969306  )
        50           O   tau(  50) = (    0.37570730217    0.62522651849    0.12554283854  )
        51           Ca  tau(  51) = (    0.24904166638    0.49963797484    0.25215860110  )
        52           O   tau(  52) = (    0.37463333172    0.62488987506    0.37488242522  )
        53           Mg  tau(  53) = (    0.25115192494    0.49706129681    0.50131398781  )
        54           O   tau(  54) = (    0.37494766770    0.62258321095    0.62470575810  )
        55           Mg  tau(  55) = (    0.24873905288    0.50100488777    0.74894863595  )
        56           O   tau(  56) = (    0.37725784830    0.62278099199    0.87503157048  )
        57           Mg  tau(  57) = (    0.24769407617    0.75042008016    0.00247606034  )
        58           O   tau(  58) = (    0.37416044611    0.87742484625    0.12463579224  )
        59           Ca  tau(  59) = (    0.25101987221    0.74939036067    0.25016113341  )
        60           O   tau(  60) = (    0.37631273074    0.87401306926    0.37469207034  )
        61           Ca  tau(  61) = (    0.25090191741    0.74836890096    0.50052172858  )
        62           O   tau(  62) = (    0.37553088173    0.87307720134    0.62642765647  )
        63           Mg  tau(  63) = (    0.24950525014    0.75144765621    0.75125502407  )
        64           O   tau(  64) = (    0.37322953888    0.87581107314    0.87591182927  )
        65           Mg  tau(  65) = (    0.50118332324    0.00052088463    0.00141402554  )
        66           O   tau(  66) = (    0.62417278459    0.12647513265    0.12563296495  )
        67           Mg  tau(  67) = (    0.49966132467   -0.00135411881    0.25114418634  )
        68           O   tau(  68) = (    0.62471477925    0.12555651975    0.37613247037  )
        69           Mg  tau(  69) = (    0.49985905573   -0.00188942687    0.50305181037  )
        70           O   tau(  70) = (    0.62413819008    0.12400451706    0.62438495196  )
        71           Ca  tau(  71) = (    0.49830211285   -0.00100778733    0.75129196171  )
        72           O   tau(  72) = (    0.62217824753    0.12526224474    0.87629938005  )
        73           Ca  tau(  73) = (    0.49854384731    0.24882322508    0.00196110706  )
        74           O   tau(  74) = (    0.62411580559    0.37590764000    0.12550463925  )
        75           Ca  tau(  75) = (    0.49979502987    0.25045688968    0.24811779052  )
        76           O   tau(  76) = (    0.62550307872    0.37348950222    0.37731029343  )
        77           Mg  tau(  77) = (    0.49959200183    0.24979811055    0.49754487436  )
        78           O   tau(  78) = (    0.62536777447    0.37473444426    0.62699212347  )
        79           Ca  tau(  79) = (    0.50022120237    0.24982829084    0.74744482458  )
        80           O   tau(  80) = (    0.62761491176    0.37444801658    0.87397087054  )
        81           Mg  tau(  81) = (    0.49891756261    0.49914080131    0.00037844705  )
        82           O   tau(  82) = (    0.62550169177    0.62513666973    0.12619829752  )
        83           Mg  tau(  83) = (    0.50041486361    0.50114841928    0.24918256805  )
        84           O   tau(  84) = (    0.62622369892    0.62365667120    0.37592018566  )
        85           Mg  tau(  85) = (    0.49930542772    0.50065498688    0.50202577595  )
        86           O   tau(  86) = (    0.62517039590    0.62438712079    0.62301889494  )
        87           Ca  tau(  87) = (    0.50038579867    0.50120723025    0.74777616481  )
        88           O   tau(  88) = (    0.62506428426    0.62508184123    0.87530023459  )
        89           Mg  tau(  89) = (    0.49871786652    0.75113865405   -0.00162127210  )
        90           O   tau(  90) = (    0.62519796258    0.87451040616    0.12446756654  )
        91           Ca  tau(  91) = (    0.50038111455    0.74990961635    0.24986533705  )
        92           O   tau(  92) = (    0.62224953016    0.87515020209    0.37621553095  )
        93           Ca  tau(  93) = (    0.50151457740    0.75133046673    0.49791883212  )
        94           O   tau(  94) = (    0.62511786545    0.87560818710    0.62498195644  )
        95           Mg  tau(  95) = (    0.49806270585    0.75234661671    0.74904420506  )
        96           O   tau(  96) = (    0.62570503240    0.87552271670    0.87273999466  )
        97           Ca  tau(  97) = (    0.74777756243    0.00136848890   -0.00068393975  )
        98           O   tau(  98) = (    0.87649312164    0.12541850749    0.12179710342  )
        99           Ca  tau(  99) = (    0.74790374161    0.00008071513    0.25146451473  )
       100           O   tau( 100) = (    0.87558796210    0.12442829333    0.37378902722  )
       101           Ca  tau( 101) = (    0.75050942831   -0.00191376332    0.50088969589  )
       102           O   tau( 102) = (    0.87783224945    0.12416270398    0.62303289445  )
       103           Mg  tau( 103) = (    0.74987050984    0.00264491589    0.74839503491  )
       104           O   tau( 104) = (    0.87487685273    0.12301088631    0.87444077932  )
       105           Ca  tau( 105) = (    0.75202331606    0.24998570929   -0.00063342851  )
       106           O   tau( 106) = (    0.87387723638    0.37466590036    0.12522616226  )
       107           Ca  tau( 107) = (    0.74864716515    0.25118111138    0.25045051040  )
       108           O   tau( 108) = (    0.87591281779    0.37564001071    0.37228206888  )
       109           Mg  tau( 109) = (    0.75183023679    0.24711031230    0.50036454086  )
       110           O   tau( 110) = (    0.87512037305    0.37395622006    0.62507153153  )
       111           Ca  tau( 111) = (    0.75242956602    0.24878297324    0.74911972370  )
       112           O   tau( 112) = (    0.87427020106    0.37583306745    0.87504041796  )
       113           Ca  tau( 113) = (    0.74849890686    0.49994907067    0.00103010269  )
       114           O   tau( 114) = (    0.87315251233    0.62530982035    0.12736680300  )
       115           Ca  tau( 115) = (    0.75202963441    0.49911333747    0.25003450720  )
       116           O   tau( 116) = (    0.87462479301    0.62378957492    0.37516973357  )
       117           Mg  tau( 117) = (    0.75020574616    0.50056925362    0.49847794688  )
       118           O   tau( 118) = (    0.87314738958    0.62399594037    0.62446672521  )
       119           Mg  tau( 119) = (    0.74890301740    0.50065892969    0.74968506578  )
       120           O   tau( 120) = (    0.87650329653    0.62456917202    0.87251338229  )
       121           Mg  tau( 121) = (    0.75058866416    0.74767257260    0.00211465611  )
       122           O   tau( 122) = (    0.87477360169    0.87506478775    0.12495141841  )
       123           Ca  tau( 123) = (    0.75155715427    0.74871535576    0.25137049089  )
       124           O   tau( 124) = (    0.87529934274    0.87584116777    0.37566953760  )
       125           Mg  tau( 125) = (    0.75055540302    0.74716880374    0.50068335115  )
       126           O   tau( 126) = (    0.87611752483    0.87670003690    0.62444550988  )
       127           Mg  tau( 127) = (    0.75157532321    0.75065356919    0.74835942555  )
       128           O   tau( 128) = (    0.87707071244    0.87498528559    0.87431348291  )

     number of k points=     8  gaussian smearing, width (Ry)=  0.0050
                       cart. coord. in units 2pi/alat
        k(    1) = (   0.0000000   0.0000000   0.0000000), wk =   0.2500000
        k(    2) = (  -0.3513753  -0.3523430   0.3519048), wk =   0.2500000
        k(    3) = (  -0.3527677   0.3523982  -0.3517879), wk =   0.2500000
        k(    4) = (  -0.7041430   0.0000551   0.0001169), wk =   0.2500000
        k(    5) = (   0.3534712  -0.3538412  -0.3533525), wk =   0.2500000
        k(    6) = (   0.0020960  -0.7061842  -0.0014477), wk =   0.2500000
        k(    7) = (   0.0007035  -0.0014431  -0.7051405), wk =   0.2500000
        k(    8) = (  -0.3506718  -0.3537861  -0.3532356), wk =   0.2500000

                       cryst. coord.
        k(    1) = (   0.0000000   0.0000000   0.0000000), wk =   0.2500000
        k(    2) = (   0.0000000   0.0000000  -0.5000000), wk =   0.2500000
        k(    3) = (  -0.0000000  -0.5000000  -0.0000000), wk =   0.2500000
        k(    4) = (   0.0000000  -0.5000000  -0.5000000), wk =   0.2500000
        k(    5) = (  -0.5000000   0.0000000   0.0000000), wk =   0.2500000
        k(    6) = (  -0.5000000   0.0000000  -0.5000000), wk =   0.2500000
        k(    7) = (  -0.5000000  -0.5000000   0.0000000), wk =   0.2500000
        k(    8) = (  -0.5000000  -0.5000000  -0.5000000), wk =   0.2500000

     Dense  grid:   472767 G-vectors     FFT dimensions: ( 120, 120, 120)

     Smooth grid:   338423 G-vectors     FFT dimensions: ( 100, 100, 100)

     Largest allocated arrays     est. size (Mb)     dimensions
        Kohn-Sham Wavefunctions        49.59 Mb     (    5293,  614)
        NL pseudopotentials           162.82 Mb     (    5293, 2016)
        Each V/rho on FFT grid          3.30 Mb     (  216000)
        Each G-vector array             0.45 Mb     (   59096)
        G-vector shells                 0.45 Mb     (   58398)
     Largest temporary arrays     est. size (Mb)     dimensions
        Auxiliary wavefunctions       198.36 Mb     (    5293, 2456)
        Each subspace H/S matrix       92.04 Mb     (    2456, 2456)
        Each <psi_i|beta_j> matrix     18.89 Mb     (    2016,  614)
        Arrays for rho mixing          26.37 Mb     (  216000,    8)

     Check: negative/imaginary core charge=   -0.000003    0.000000

     Initial potential from superposition of free atoms

     starting charge 1014.22700, renormalised to 1024.00000
     Starting wfc are  736 randomized atomic wfcs

     total cpu time spent up to now is      698.1 secs

     per-process dynamical memory:   705.0 Mb

     Self-consistent Calculation

     iteration #  1     ecut=    40.00 Ry     beta=0.30
     Davidson diagonalization with overlap
     ethr =  1.00E-02,  avg # of iterations =  3.0

     total cpu time spent up to now is     2931.1 secs

     total energy              =   -8480.16126708 Ry
     Harris-Foulkes estimate   =   -8484.92248024 Ry
     estimated scf accuracy    <      24.55373541 Ry

     iteration #  2     ecut=    40.00 Ry     beta=0.30
     Davidson diagonalization with overlap
     ethr =  2.40E-03,  avg # of iterations =  1.0

     total cpu time spent up to now is     4592.0 secs

     total energy              =   -8476.90754642 Ry
     Harris-Foulkes estimate   =   -8480.93595609 Ry
     estimated scf accuracy    <      10.23995230 Ry

     iteration #  3     ecut=    40.00 Ry     beta=0.30
     Davidson diagonalization with overlap
     ethr =  1.00E-03,  avg # of iterations =  2.0

     total cpu time spent up to now is     6606.1 secs

     total energy              =   -8478.15185849 Ry
     Harris-Foulkes estimate   =   -8478.55342464 Ry
     estimated scf accuracy    <       1.35791577 Ry

     iteration #  4     ecut=    40.00 Ry     beta=0.30
     Davidson diagonalization with overlap
     ethr =  1.33E-04,  avg # of iterations =  6.6

     total cpu time spent up to now is     9330.2 secs

     total energy              =   -8477.88469891 Ry
     Harris-Foulkes estimate   =   -8478.24457303 Ry
     estimated scf accuracy    <       0.66084033 Ry

     iteration #  5     ecut=    40.00 Ry     beta=0.30
     Davidson diagonalization with overlap
     ethr =  6.45E-05,  avg # of iterations =  5.3

     total cpu time spent up to now is    11959.1 secs

     total energy              =   -8477.96537281 Ry
     Harris-Foulkes estimate   =   -8477.98379623 Ry
     estimated scf accuracy    <       0.11142042 Ry

     iteration #  6     ecut=    40.00 Ry     beta=0.30
     Davidson diagonalization with overlap
     ethr =  1.09E-05,  avg # of iterations =  9.8

     total cpu time spent up to now is    15412.5 secs

     total energy              =   -8477.95690422 Ry
     Harris-Foulkes estimate   =   -8477.97116051 Ry
     estimated scf accuracy    <       0.05354260 Ry

     iteration #  7     ecut=    40.00 Ry     beta=0.30
     Davidson diagonalization with overlap
     ethr =  5.23E-06,  avg # of iterations =  4.4

     total cpu time spent up to now is    17830.8 secs

     total energy              =   -8477.95578050 Ry
     Harris-Foulkes estimate   =   -8477.96088472 Ry
     estimated scf accuracy    <       0.01333110 Ry

     iteration #  8     ecut=    40.00 Ry     beta=0.30
     Davidson diagonalization with overlap
     ethr =  1.30E-06,  avg # of iterations =  6.4

     total cpu time spent up to now is    21121.8 secs

     total energy              =   -8477.95736546 Ry
     Harris-Foulkes estimate   =   -8477.95913494 Ry
     estimated scf accuracy    <       0.00930018 Ry

     iteration #  9     ecut=    40.00 Ry     beta=0.30
     Davidson diagonalization with overlap
     ethr =  9.08E-07,  avg # of iterations =  1.1

     total cpu time spent up to now is    22724.4 secs

     total energy              =   -8477.95683967 Ry
     Harris-Foulkes estimate   =   -8477.95778154 Ry
     estimated scf accuracy    <       0.00357057 Ry

     iteration # 10     ecut=    40.00 Ry     beta=0.30
     Davidson diagonalization with overlap
     ethr =  3.49E-07,  avg # of iterations =  5.6

     total cpu time spent up to now is    25246.0 secs

     total energy              =   -8477.95692261 Ry
     Harris-Foulkes estimate   =   -8477.95716621 Ry
     estimated scf accuracy    <       0.00106244 Ry

     iteration # 11     ecut=    40.00 Ry     beta=0.30
     Davidson diagonalization with overlap
     ethr =  1.04E-07,  avg # of iterations =  1.3

     total cpu time spent up to now is    26836.8 secs

     total energy              =   -8477.95686282 Ry
     Harris-Foulkes estimate   =   -8477.95698316 Ry
     estimated scf accuracy    <       0.00039867 Ry

     iteration # 12     ecut=    40.00 Ry     beta=0.30
     Davidson diagonalization with overlap
     ethr =  3.89E-08,  avg # of iterations =  2.0

     total cpu time spent up to now is    28743.1 secs

     total energy              =   -8477.95685212 Ry
     Harris-Foulkes estimate   =   -8477.95689733 Ry
     estimated scf accuracy    <       0.00012387 Ry

     iteration # 13     ecut=    40.00 Ry     beta=0.30
     Davidson diagonalization with overlap
     ethr =  1.21E-08,  avg # of iterations =  2.0

     total cpu time spent up to now is    30768.9 secs

     total energy              =   -8477.95685005 Ry
     Harris-Foulkes estimate   =   -8477.95686594 Ry
     estimated scf accuracy    <       0.00004063 Ry

     iteration # 14     ecut=    40.00 Ry     beta=0.30
     Davidson diagonalization with overlap
     ethr =  3.97E-09,  avg # of iterations =  2.0

     total cpu time spent up to now is    32755.5 secs

     total energy              =   -8477.95685522 Ry
     Harris-Foulkes estimate   =   -8477.95685573 Ry
     estimated scf accuracy    <       0.00000376 Ry

     iteration # 15     ecut=    40.00 Ry     beta=0.30
     Davidson diagonalization with overlap
     ethr =  3.67E-10,  avg # of iterations =  2.0

     total cpu time spent up to now is    34803.8 secs

     total energy              =   -8477.95685522 Ry
     Harris-Foulkes estimate   =   -8477.95685570 Ry
     estimated scf accuracy    <       0.00000207 Ry

     iteration # 16     ecut=    40.00 Ry     beta=0.30
     Davidson diagonalization with overlap
     ethr =  2.02E-10,  avg # of iterations =  2.0

     total cpu time spent up to now is    36618.2 secs

     total energy              =   -8477.95685519 Ry
     Harris-Foulkes estimate   =   -8477.95685536 Ry
     estimated scf accuracy    <       0.00000055 Ry

     iteration # 17     ecut=    40.00 Ry     beta=0.30
     Davidson diagonalization with overlap
     ethr =  5.32E-11,  avg # of iterations =  2.0

     total cpu time spent up to now is    38549.6 secs

     total energy              =   -8477.95685521 Ry
     Harris-Foulkes estimate   =   -8477.95685524 Ry
     estimated scf accuracy    <       0.00000017 Ry

     iteration # 18     ecut=    40.00 Ry     beta=0.30
     Davidson diagonalization with overlap
     ethr =  1.70E-11,  avg # of iterations =  1.0

     total cpu time spent up to now is    40125.7 secs

     total energy              =   -8477.95685519 Ry
     Harris-Foulkes estimate   =   -8477.95685522 Ry
     estimated scf accuracy    <       0.00000012 Ry

     iteration # 19     ecut=    40.00 Ry     beta=0.30
     Davidson diagonalization with overlap
     ethr =  1.13E-11,  avg # of iterations =  2.0

     total cpu time spent up to now is    42043.1 secs

     total energy              =   -8477.95685520 Ry
     Harris-Foulkes estimate   =   -8477.95685520 Ry
     estimated scf accuracy    <       0.00000004 Ry

     iteration # 20     ecut=    40.00 Ry     beta=0.30
     Davidson diagonalization with overlap
     ethr =  4.13E-12,  avg # of iterations =  1.0

     total cpu time spent up to now is    43609.2 secs

     total energy              =   -8477.95685519 Ry
     Harris-Foulkes estimate   =   -8477.95685520 Ry
     estimated scf accuracy    <       0.00000003 Ry

     iteration # 21     ecut=    40.00 Ry     beta=0.30
     Davidson diagonalization with overlap
     ethr =  2.58E-12,  avg # of iterations =  2.0

     total cpu time spent up to now is    45542.9 secs

     total energy              =   -8477.95685519 Ry
     Harris-Foulkes estimate   =   -8477.95685519 Ry
     estimated scf accuracy    <          8.6E-09 Ry

     iteration # 22     ecut=    40.00 Ry     beta=0.30
     Davidson diagonalization with overlap
     ethr =  8.43E-13,  avg # of iterations =  1.9

     total cpu time spent up to now is    47284.0 secs

     total energy              =   -8477.95685519 Ry
     Harris-Foulkes estimate   =   -8477.95685519 Ry
     estimated scf accuracy    <          4.4E-09 Ry

     iteration # 23     ecut=    40.00 Ry     beta=0.30
     Davidson diagonalization with overlap
     ethr =  4.28E-13,  avg # of iterations =  1.1

     total cpu time spent up to now is    48900.3 secs

     total energy              =   -8477.95685519 Ry
     Harris-Foulkes estimate   =   -8477.95685519 Ry
     estimated scf accuracy    <          1.9E-09 Ry

     iteration # 24     ecut=    40.00 Ry     beta=0.30
     Davidson diagonalization with overlap
     ethr =  1.83E-13,  avg # of iterations =  2.0

     total cpu time spent up to now is    50673.1 secs

     total energy              =   -8477.95685519 Ry
     Harris-Foulkes estimate   =   -8477.95685519 Ry
     estimated scf accuracy    <          5.7E-10 Ry

     iteration # 25     ecut=    40.00 Ry     beta=0.30
     Davidson diagonalization with overlap
     ethr =  1.00E-13,  avg # of iterations =  1.0

     total cpu time spent up to now is    52254.7 secs

     total energy              =   -8477.95685519 Ry
     Harris-Foulkes estimate   =   -8477.95685519 Ry
     estimated scf accuracy    <          3.4E-10 Ry

     iteration # 26     ecut=    40.00 Ry     beta=0.30
     Davidson diagonalization with overlap
     ethr =  1.00E-13,  avg # of iterations =  1.0

     total cpu time spent up to now is    53853.6 secs

     total energy              =   -8477.95685519 Ry
     Harris-Foulkes estimate   =   -8477.95685519 Ry
     estimated scf accuracy    <          1.1E-10 Ry

     iteration # 27     ecut=    40.00 Ry     beta=0.30
     Davidson diagonalization with overlap
     ethr =  1.00E-13,  avg # of iterations =  1.0

     total cpu time spent up to now is    55480.4 secs

     End of self-consistent calculation

          k = 0.0000 0.0000 0.0000 ( 42293 PWs)   bands (ev):

   -65.2813 -65.2453 -65.2157 -65.2030 -65.1653 -65.1648 -65.1442 -65.1409
   -65.1387 -65.1220 -65.1100 -65.1098 -65.1058 -65.1048 -65.0843 -65.0744
   -65.0597 -65.0497 -65.0419 -65.0407 -65.0269 -65.0160 -65.0126 -64.9973
   -64.9927 -64.9921 -64.9806 -64.9797 -64.9712 -64.9488 -64.9391 -64.8078
   -32.2498 -32.2448 -32.2374 -32.2139 -32.2067 -32.2027 -32.1831 -32.1780
   -32.1749 -32.1688 -32.1661 -32.1611 -32.1357 -32.1356 -32.1295 -32.1259
   -32.1242 -32.1195 -32.1125 -32.1079 -32.1077 -32.1071 -32.1056 -32.1030
   -32.1014 -32.1005 -32.0923 -32.0920 -32.0867 -32.0800 -32.0790 -32.0780
   -32.0754 -32.0729 -32.0722 -32.0713 -32.0707 -32.0680 -32.0680 -32.0666
   -32.0647 -32.0614 -32.0530 -32.0482 -32.0460 -32.0430 -32.0362 -32.0304
   -32.0291 -32.0211 -32.0165 -32.0145 -32.0141 -32.0118 -32.0113 -32.0087
   -32.0070 -32.0042 -31.9988 -31.9947 -31.9930 -31.9904 -31.9886 -31.9844
   -31.9832 -31.9782 -31.9719 -31.9699 -31.9689 -31.9656 -31.9626 -31.9600
   -31.9578 -31.9547 -31.9540 -31.9540 -31.9528 -31.9509 -31.9480 -31.9472
   -31.9417 -31.9413 -31.9399 -31.9393 -31.9374 -31.9327 -31.9314 -31.9176
   -31.9113 -31.9075 -31.9066 -31.9060 -31.8941 -31.7773 -31.7702 -31.7689
   -28.8007 -28.7392 -28.7252 -28.7159 -28.6962 -28.6780 -28.6725 -28.6501
   -28.6413 -28.6355 -28.6227 -28.6154 -28.6083 -28.6010 -28.5986 -28.5958
   -28.5906 -28.5651 -28.5503 -28.5297 -28.5209 -28.5094 -28.5034 -28.4887
   -28.4853 -28.4795 -28.4658 -28.4576 -28.4461 -28.4433 -28.4313 -28.3590
   -11.2990 -11.2855 -11.2334 -11.2160 -11.0800 -11.0311 -11.0071 -11.0025
   -10.9629 -10.9445 -10.9361 -10.8773 -10.8701 -10.8528 -10.8413 -10.8024
   -10.7912 -10.7782 -10.7619 -10.7469 -10.7202 -10.6971 -10.6896 -10.6712
   -10.6285 -10.6101 -10.5736 -10.5379 -10.5314 -10.4973 -10.4832 -10.4764
   -10.4525 -10.4468 -10.4281 -10.4066 -10.3936 -10.3721 -10.3526 -10.3369
   -10.3328 -10.2752 -10.2695 -10.2168 -10.2075 -10.1667 -10.1499 -10.1417
   -10.1163 -10.1053 -10.0978 -10.0848 -10.0660 -10.0588 -10.0400 -10.0272
   -10.0108  -9.9844  -9.9608  -9.9487  -9.9236  -9.9186  -9.9128  -9.9023
    -9.8905  -9.8788  -9.8695  -9.8459  -9.8352  -9.8236  -9.8207  -9.8074
    -9.7936  -9.7838  -9.7681  -9.7612  -9.7522  -9.7417  -9.7387  -9.7209
    -9.7177  -9.7088  -9.7012  -9.6891  -9.6849  -9.6813  -9.6658  -9.6541
    -9.6411  -9.6368  -9.6263  -9.5971  -9.5776  -9.5719  -9.5543  -9.5374
    -8.3005  -7.8702  -7.7588  -7.7108  -7.6855  -7.6782  -7.6695  -7.6524
    -7.6176  -7.5964  -7.5752  -7.5600  -7.5187  -7.4954  -7.4810  -7.4594
    -7.4174  -7.4064  -7.3762  -7.3617  -7.3391  -7.3203  -7.3064  -7.2749
    -7.2680  -7.2367  -7.1786  -7.1591  -7.1406  -7.0814  -7.0739  -7.0626
    -7.0331  -7.0263  -7.0210  -7.0072  -6.9830  -6.9431  -6.9297  -6.8952
    -6.8698  -6.8372  -6.8307  -6.8135  -6.8042  -6.7806  -6.7652  -6.7197
    -6.6970  -6.6840  -6.6767  -6.6390  -6.6224  -6.5924  -6.5823  -6.5624
    -6.5483  -6.5403  -6.5295  -6.3886  -6.3343  -6.2446  -6.2373  -6.1960
     3.8514   3.8644   3.8759   4.2626   4.4087   4.4208   4.4323   4.4685
     4.5093   4.5572   4.5906   4.6216   4.6367   4.6666   4.6810   4.6928
     4.7126   4.7429   4.7610   4.7857   4.7924   4.8472   4.8862   4.8970
     4.9458   4.9567   4.9960   5.0146   5.0945   5.0989   5.1503   5.1751
     5.2118   5.2345   5.2678   5.2774   5.3076   5.3441   5.3635   5.3937
     5.4198   5.4351   5.4457   5.4950   5.5295   5.5406   5.5886   5.5958
     5.6235   5.6344   5.6759   5.7105   5.7169   5.7292   5.7483   5.7733
     5.8251   5.8366   5.8647   5.8735   5.9008   5.9200   5.9296   5.9463
     5.9664   5.9855   6.0033   6.0211   6.0478   6.0490   6.0532   6.0706
     6.0862   6.1029   6.1183   6.1299   6.1532   6.1760   6.1824   6.1968
     6.2177   6.2389   6.2518   6.2687   6.2926   6.2984   6.3183   6.3281
     6.3580   6.3695   6.3712   6.3838   6.4059   6.4180   6.4271   6.4389
     6.4505   6.4592   6.4689   6.4803   6.4950   6.5041   6.5147   6.5212
     6.5431   6.5496   6.5525   6.5675   6.5775   6.5939   6.5983   6.6148
     6.6222   6.6354   6.6479   6.6630   6.6684   6.6852   6.6903   6.6977
     6.7100   6.7139   6.7382   6.7439   6.7499   6.7660   6.7884   6.8016
     6.8035   6.8078   6.8176   6.8393   6.8435   6.8546   6.8689   6.8878
     6.8938   6.9169   6.9238   6.9400   6.9588   6.9748   6.9804   6.9865
     7.0031   7.0065   7.0293   7.0411   7.0656   7.0776   7.0883   7.0889
     7.1082   7.1209   7.1233   7.1353   7.1589   7.1739   7.1857   7.1958
     7.2036   7.2133   7.2246   7.2377   7.2415   7.2495   7.2528   7.2588
     7.2723   7.2796   7.2826   7.2874   7.2963   7.3102   7.3297   7.3392
     7.3498   7.3637   7.3708   7.3789   7.3945   7.4210   7.4585   7.4665
     7.4735   7.4820   7.5021   7.5543   7.5603   7.7757   7.7877   7.8069
    11.7796  12.5487  12.5578  12.5815  13.4134  13.4474  13.4731  13.4966
    13.5225  13.5978  13.6352  13.6726  13.7018  13.7472  13.7802  13.8539
    13.8662  13.9388  13.9693  14.0450  14.0775  14.0882  14.1416  14.1465
    14.1761  14.2020  14.2125  14.2632  14.2752  14.3069  14.3510  14.3929
    14.4046  14.4485  14.5200  14.5398  14.5938  14.6382  14.6701  14.7456
    14.8207  14.8504  14.8878  14.9156  14.9407  14.9906  15.0110  15.0222
    15.0757  15.0827  15.1494  15.1758  15.1958  15.2053  15.2325  15.2440
    15.2862  15.3093  15.3363  15.3778  15.4111  15.4269  15.4528  15.4808
    15.5066  15.5241  15.5417  15.5520  15.6113  15.6237  15.6325  15.6548
    15.6958  15.7088  15.7381  15.7651  15.8175  15.8386  15.8533  15.8776
    15.8963  15.9493  15.9632  16.0033  16.0253  16.0433  16.0602  16.0963
    16.1199  16.1366  16.1783  16.2138  16.2395  16.2547  16.2678  16.2837
    16.3081  16.3506  16.3959  16.4155  16.4400  16.4731

     occupation numbers 
     1.0000   1.0000   1.0000   1.0000   1.0000   1.0000   1.0000   1.0000
     1.0000   1.0000   1.0000   1.0000   1.0000   1.0000   1.0000   1.0000
     1.0000   1.0000   1.0000   1.0000   1.0000   1.0000   1.0000   1.0000
     1.0000   1.0000   1.0000   1.0000   1.0000   1.0000   1.0000   1.0000
     1.0000   1.0000   1.0000   1.0000   1.0000   1.0000   1.0000   1.0000
     1.0000   1.0000   1.0000   1.0000   1.0000   1.0000   1.0000   1.0000
     1.0000   1.0000   1.0000   1.0000   1.0000   1.0000   1.0000   1.0000
     1.0000   1.0000   1.0000   1.0000   1.0000   1.0000   1.0000   1.0000
     1.0000   1.0000   1.0000   1.0000   1.0000   1.0000   1.0000   1.0000
     1.0000   1.0000   1.0000   1.0000   1.0000   1.0000   1.0000   1.0000
     1.0000   1.0000   1.0000   1.0000   1.0000   1.0000   1.0000   1.0000
     1.0000   1.0000   1.0000   1.0000   1.0000   1.0000   1.0000   1.0000
     1.0000   1.0000   1.0000   1.0000   1.0000   1.0000   1.0000   1.0000
     1.0000   1.0000   1.0000   1.0000   1.0000   1.0000   1.0000   1.0000
     1.0000   1.0000   1.0000   1.0000   1.0000   1.0000   1.0000   1.0000
     1.0000   1.0000   1.0000   1.0000   1.0000   1.0000   1.0000   1.0000
     1.0000   1.0000   1.0000   1.0000   1.0000   1.0000   1.0000   1.0000
     1.0000   1.0000   1.0000   1.0000   1.0000   1.0000   1.0000   1.0000
     1.0000   1.0000   1.0000   1.0000   1.0000   1.0000   1.0000   1.0000
     1.0000   1.0000   1.0000   1.0000   1.0000   1.0000   1.0000   1.0000
     1.0000   1.0000   1.0000   1.0000   1.0000   1.0000   1.0000   1.0000
     1.0000   1.0000   1.0000   1.0000   1.0000   1.0000   1.0000   1.0000
     1.0000   1.0000   1.0000   1.0000   1.0000   1.0000   1.0000   1.0000
     1.0000   1.0000   1.0000   1.0000   1.0000   1.0000   1.0000   1.0000
     1.0000   1.0000   1.0000   1.0000   1.0000   1.0000   1.0000   1.0000
     1.0000   1.0000   1.0000   1.0000   1.0000   1.0000   1.0000   1.0000
     1.0000   1.0000   1.0000   1.0000   1.0000   1.0000   1.0000   1.0000
     1.0000   1.0000   1.0000   1.0000   1.0000   1.0000   1.0000   1.0000
     1.0000   1.0000   1.0000   1.0000   1.0000   1.0000   1.0000   1.0000
     1.0000   1.0000   1.0000   1.0000   1.0000   1.0000   1.0000   1.0000
     1.0000   1.0000   1.0000   1.0000   1.0000   1.0000   1.0000   1.0000
     1.0000   1.0000   1.0000   1.0000   1.0000   1.0000   1.0000   1.0000
     1.0000   1.0000   1.0000   1.0000   1.0000   1.0000   1.0000   1.0000
     1.0000   1.0000   1.0000   1.0000   1.0000   1.0000   1.0000   1.0000
     1.0000   1.0000   1.0000   1.0000   1.0000   1.0000   1.0000   1.0000
     1.0000   1.0000   1.0000   1.0000   1.0000   1.0000   1.0000   1.0000
     1.0000   1.0000   1.0000   1.0000   1.0000   1.0000   1.0000   1.0000
     1.0000   1.0000   1.0000   1.0000   1.0000   1.0000   1.0000   1.0000
     1.0000   1.0000   1.0000   1.0000   1.0000   1.0000   1.0000   1.0000
     1.0000   1.0000   1.0000   1.0000   1.0000   1.0000   1.0000   1.0000
     1.0000   1.0000   1.0000   1.0000   1.0000   1.0000   1.0000   1.0000
     1.0000   1.0000   1.0000   1.0000   1.0000   1.0000   1.0000   1.0000
     1.0000   1.0000   1.0000   1.0000   1.0000   1.0000   1.0000   1.0000
     1.0000   1.0000   1.0000   1.0000   1.0000   1.0000   1.0000   1.0000
     1.0000   1.0000   1.0000   1.0000   1.0000   1.0000   1.0000   1.0000
     1.0000   1.0000   1.0000   1.0000   1.0000   1.0000   1.0000   1.0000
     1.0000   1.0000   1.0000   1.0000   1.0000   1.0000   1.0000   1.0000
     1.0000   1.0000   1.0000   1.0000   1.0000   1.0000   1.0000   1.0000
     1.0000   1.0000   1.0000   1.0000   1.0000   1.0000   1.0000   1.0000
     1.0000   1.0000   1.0000   1.0000   1.0000   1.0000   1.0000   1.0000
     1.0000   1.0000   1.0000   1.0000   1.0000   1.0000   1.0000   1.0000
     1.0000   1.0000   1.0000   1.0000   1.0000   1.0000   1.0000   1.0000
     1.0000   1.0000   1.0000   1.0000   1.0000   1.0000   1.0000   1.0000
     1.0000   1.0000   1.0000   1.0000   1.0000   1.0000   1.0000   1.0000
     1.0000   1.0000   1.0000   1.0000   1.0000   1.0000   1.0000   1.0000
     1.0000   1.0000   1.0000   1.0000   1.0000   1.0000   1.0000   1.0000
     1.0000   1.0000   1.0000   1.0000   1.0000   1.0000   1.0000   1.0000
     1.0000   1.0000   1.0000   1.0000   1.0000   1.0000   1.0000   1.0000
     1.0000   1.0000   1.0000   1.0000   1.0000   1.0000   1.0000   1.0000
     1.0000   1.0000   1.0000   1.0000   1.0000   1.0000   1.0000   1.0000
     1.0000   1.0000   1.0000   1.0000   1.0000   1.0000   1.0000   1.0000
     1.0000   1.0000   1.0000   1.0000   1.0000   1.0000   1.0000   1.0000
     1.0000   1.0000   1.0000   1.0000   1.0000   1.0000   1.0000   1.0000
     1.0000   1.0000   1.0000   1.0000   1.0000   1.0000   1.0000   1.0000
     0.0000   0.0000   0.0000   0.0000   0.0000   0.0000   0.0000   0.0000
     0.0000   0.0000   0.0000   0.0000   0.0000   0.0000   0.0000   0.0000
     0.0000   0.0000   0.0000   0.0000   0.0000   0.0000   0.0000   0.0000
     0.0000   0.0000   0.0000   0.0000   0.0000   0.0000   0.0000   0.0000
     0.0000   0.0000   0.0000   0.0000   0.0000   0.0000   0.0000   0.0000
     0.0000   0.0000   0.0000   0.0000   0.0000   0.0000   0.0000   0.0000
     0.0000   0.0000   0.0000   0.0000   0.0000   0.0000   0.0000   0.0000
     0.0000   0.0000   0.0000   0.0000   0.0000   0.0000   0.0000   0.0000
     0.0000   0.0000   0.0000   0.0000   0.0000   0.0000   0.0000   0.0000
     0.0000   0.0000   0.0000   0.0000   0.0000   0.0000   0.0000   0.0000
     0.0000   0.0000   0.0000   0.0000   0.0000   0.0000   0.0000   0.0000
     0.0000   0.0000   0.0000   0.0000   0.0000   0.0000   0.0000   0.0000
     0.0000   0.0000   0.0000   0.0000   0.0000   0.0000

          k =-0.3514-0.3523 0.3519 ( 42300 PWs)   bands (ev):

   -65.2813 -65.2453 -65.2157 -65.2030 -65.1653 -65.1648 -65.1442 -65.1409
   -65.1387 -65.1220 -65.1100 -65.1098 -65.1058 -65.1048 -65.0843 -65.0744
   -65.0597 -65.0497 -65.0419 -65.0407 -65.0269 -65.0160 -65.0126 -64.9973
   -64.9927 -64.9921 -64.9806 -64.9797 -64.9712 -64.9488 -64.9391 -64.8078
   -32.2498 -32.2448 -32.2374 -32.2139 -32.2067 -32.2027 -32.1831 -32.1780
   -32.1749 -32.1688 -32.1661 -32.1611 -32.1357 -32.1356 -32.1295 -32.1259
   -32.1242 -32.1195 -32.1125 -32.1079 -32.1077 -32.1071 -32.1056 -32.1030
   -32.1014 -32.1005 -32.0923 -32.0920 -32.0867 -32.0800 -32.0790 -32.0780
   -32.0754 -32.0729 -32.0722 -32.0713 -32.0707 -32.0680 -32.0680 -32.0666
   -32.0647 -32.0614 -32.0530 -32.0482 -32.0460 -32.0430 -32.0362 -32.0304
   -32.0291 -32.0211 -32.0165 -32.0145 -32.0141 -32.0118 -32.0113 -32.0087
   -32.0070 -32.0042 -31.9988 -31.9947 -31.9930 -31.9904 -31.9886 -31.9844
   -31.9832 -31.9782 -31.9719 -31.9699 -31.9689 -31.9656 -31.9626 -31.9600
   -31.9578 -31.9547 -31.9540 -31.9540 -31.9528 -31.9509 -31.9480 -31.9472
   -31.9417 -31.9413 -31.9399 -31.9393 -31.9374 -31.9327 -31.9314 -31.9176
   -31.9113 -31.9075 -31.9066 -31.9060 -31.8941 -31.7773 -31.7702 -31.7689
   -28.8003 -28.7407 -28.7241 -28.7168 -28.6943 -28.6793 -28.6722 -28.6491
   -28.6414 -28.6349 -28.6228 -28.6150 -28.6115 -28.6007 -28.5966 -28.5961
   -28.5909 -28.5648 -28.5509 -28.5290 -28.5209 -28.5099 -28.5040 -28.4888
   -28.4854 -28.4786 -28.4651 -28.4584 -28.4461 -28.4420 -28.4326 -28.3590
   -11.2907 -11.2769 -11.2192 -11.2116 -11.0882 -11.0516 -11.0161 -11.0103
   -10.9625 -10.9462 -10.9303 -10.8970 -10.8788 -10.8620 -10.8445 -10.8229
   -10.8131 -10.7793 -10.7725 -10.7484 -10.7203 -10.7057 -10.6682 -10.6311
   -10.6178 -10.5916 -10.5865 -10.5765 -10.5200 -10.5002 -10.4943 -10.4471
   -10.4376 -10.4251 -10.3961 -10.3854 -10.3668 -10.3518 -10.3418 -10.3192
   -10.3138 -10.2815 -10.2792 -10.2540 -10.2393 -10.1977 -10.1807 -10.1442
   -10.1231 -10.0944 -10.0842 -10.0658 -10.0518 -10.0442 -10.0303 -10.0126
    -9.9889  -9.9811  -9.9701  -9.9677  -9.9304  -9.9252  -9.9097  -9.9062
    -9.8909  -9.8743  -9.8639  -9.8568  -9.8429  -9.8262  -9.8150  -9.8047
    -9.7894  -9.7764  -9.7737  -9.7594  -9.7461  -9.7427  -9.7312  -9.7254
    -9.7226  -9.7179  -9.7047  -9.7019  -9.6900  -9.6753  -9.6625  -9.6553
    -9.6463  -9.6372  -9.6321  -9.6097  -9.5979  -9.5926  -9.5717  -9.5543
    -8.0541  -7.9684  -7.8159  -7.7428  -7.7227  -7.6837  -7.6526  -7.6444
    -7.6037  -7.5828  -7.5676  -7.5481  -7.5155  -7.4950  -7.4767  -7.4566
    -7.4184  -7.3925  -7.3906  -7.3698  -7.3532  -7.3210  -7.2884  -7.2769
    -7.2527  -7.2494  -7.2227  -7.1882  -7.1363  -7.1309  -7.0952  -7.0747
    -7.0682  -7.0293  -7.0267  -7.0111  -6.9840  -6.9706  -6.9459  -6.8923
    -6.8575  -6.8523  -6.8170  -6.8117  -6.8023  -6.7732  -6.7542  -6.7113
    -6.6614  -6.6349  -6.6273  -6.6175  -6.5804  -6.5679  -6.5629  -6.5352
    -6.5281  -6.5235  -6.5166  -6.4147  -6.3830  -6.2791  -6.2630  -6.2226
     3.9784   4.0316   4.0715   4.1493   4.2656   4.3329   4.3881   4.4295
     4.4905   4.5089   4.5474   4.5511   4.5924   4.5951   4.6398   4.6628
     4.6754   4.7215   4.7606   4.8115   4.8355   4.8427   4.8613   4.8878
     4.9585   4.9918   5.0058   5.0491   5.0884   5.1005   5.1263   5.1540
     5.2259   5.2547   5.2646   5.2829   5.3060   5.3192   5.3499   5.3657
     5.4111   5.4418   5.4546   5.4787   5.4962   5.5116   5.5558   5.5723
     5.5917   5.6019   5.6430   5.6622   5.6737   5.7064   5.7405   5.7489
     5.7749   5.8167   5.8419   5.8766   5.9001   5.9157   5.9426   5.9592
     5.9785   5.9919   6.0078   6.0335   6.0384   6.0617   6.0777   6.0955
     6.1288   6.1475   6.1545   6.1817   6.2163   6.2264   6.2404   6.2633
     6.2719   6.2882   6.3060   6.3218   6.3320   6.3490   6.3677   6.3733
     6.3818   6.3977   6.4052   6.4149   6.4305   6.4323   6.4423   6.4607
     6.4700   6.4755   6.4920   6.4987   6.5190   6.5253   6.5438   6.5608
     6.5723   6.5767   6.5913   6.5989   6.6076   6.6275   6.6448   6.6488
     6.6626   6.6742   6.6820   6.6939   6.7115   6.7237   6.7324   6.7386
     6.7558   6.7621   6.7713   6.7816   6.7901   6.8090   6.8144   6.8230
     6.8346   6.8422   6.8461   6.8607   6.8625   6.8784   6.8890   6.8938
     6.9062   6.9140   6.9313   6.9359   6.9408   6.9472   6.9631   6.9679
     6.9758   6.9950   7.0093   7.0116   7.0211   7.0320   7.0415   7.0527
     7.0557   7.0699   7.0836   7.0955   7.1034   7.1110   7.1172   7.1272
     7.1467   7.1566   7.1746   7.1816   7.1849   7.1975   7.2164   7.2251
     7.2354   7.2439   7.2522   7.2649   7.2879   7.2985   7.3020   7.3238
     7.3372   7.3511   7.3723   7.3852   7.3983   7.4327   7.4363   7.4501
     7.4574   7.5062   7.5146   7.5286   7.5969   7.6011   7.6707   7.6884
    12.3237  12.7548  12.7601  12.7707  12.7994  13.3497  13.3732  13.4391
    13.4571  13.5105  13.5190  13.5227  13.5627  13.5907  13.6742  13.7488
    13.8141  13.8441  13.9183  14.0305  14.1855  14.2037  14.2786  14.2866
    14.3124  14.3391  14.3715  14.4180  14.4447  14.4627  14.4910  14.5266
    14.5724  14.5843  14.6054  14.6473  14.6559  14.6919  14.7423  14.7607
    14.7841  14.8399  14.8536  14.8645  14.9039  14.9311  14.9759  15.0013
    15.0135  15.0423  15.1006  15.1105  15.1187  15.1678  15.1995  15.2262
    15.2639  15.2692  15.2859  15.2960  15.3226  15.3727  15.4034  15.4510
    15.4671  15.4791  15.5274  15.5311  15.5537  15.5901  15.6132  15.6383
    15.6709  15.6892  15.7004  15.7729  15.7779  15.8052  15.8143  15.8567
    15.8720  15.8925  15.9647  15.9736  15.9967  16.0337  16.0485  16.0825
    16.0944  16.1110  16.1519  16.1546  16.1970  16.2225  16.2558  16.2774
    16.3141  16.3296  16.3682  16.3908  16.4163  16.4718

     occupation numbers 
     1.0000   1.0000   1.0000   1.0000   1.0000   1.0000   1.0000   1.0000
     1.0000   1.0000   1.0000   1.0000   1.0000   1.0000   1.0000   1.0000
     1.0000   1.0000   1.0000   1.0000   1.0000   1.0000   1.0000   1.0000
     1.0000   1.0000   1.0000   1.0000   1.0000   1.0000   1.0000   1.0000
     1.0000   1.0000   1.0000   1.0000   1.0000   1.0000   1.0000   1.0000
     1.0000   1.0000   1.0000   1.0000   1.0000   1.0000   1.0000   1.0000
     1.0000   1.0000   1.0000   1.0000   1.0000   1.0000   1.0000   1.0000
     1.0000   1.0000   1.0000   1.0000   1.0000   1.0000   1.0000   1.0000
     1.0000   1.0000   1.0000   1.0000   1.0000   1.0000   1.0000   1.0000
     1.0000   1.0000   1.0000   1.0000   1.0000   1.0000   1.0000   1.0000
     1.0000   1.0000   1.0000   1.0000   1.0000   1.0000   1.0000   1.0000
     1.0000   1.0000   1.0000   1.0000   1.0000   1.0000   1.0000   1.0000
     1.0000   1.0000   1.0000   1.0000   1.0000   1.0000   1.0000   1.0000
     1.0000   1.0000   1.0000   1.0000   1.0000   1.0000   1.0000   1.0000
     1.0000   1.0000   1.0000   1.0000   1.0000   1.0000   1.0000   1.0000
     1.0000   1.0000   1.0000   1.0000   1.0000   1.0000   1.0000   1.0000
     1.0000   1.0000   1.0000   1.0000   1.0000   1.0000   1.0000   1.0000
     1.0000   1.0000   1.0000   1.0000   1.0000   1.0000   1.0000   1.0000
     1.0000   1.0000   1.0000   1.0000   1.0000   1.0000   1.0000   1.0000
     1.0000   1.0000   1.0000   1.0000   1.0000   1.0000   1.0000   1.0000
     1.0000   1.0000   1.0000   1.0000   1.0000   1.0000   1.0000   1.0000
     1.0000   1.0000   1.0000   1.0000   1.0000   1.0000   1.0000   1.0000
     1.0000   1.0000   1.0000   1.0000   1.0000   1.0000   1.0000   1.0000
     1.0000   1.0000   1.0000   1.0000   1.0000   1.0000   1.0000   1.0000
     1.0000   1.0000   1.0000   1.0000   1.0000   1.0000   1.0000   1.0000
     1.0000   1.0000   1.0000   1.0000   1.0000   1.0000   1.0000   1.0000
     1.0000   1.0000   1.0000   1.0000   1.0000   1.0000   1.0000   1.0000
     1.0000   1.0000   1.0000   1.0000   1.0000   1.0000   1.0000   1.0000
     1.0000   1.0000   1.0000   1.0000   1.0000   1.0000   1.0000   1.0000
     1.0000   1.0000   1.0000   1.0000   1.0000   1.0000   1.0000   1.0000
     1.0000   1.0000   1.0000   1.0000   1.0000   1.0000   1.0000   1.0000
     1.0000   1.0000   1.0000   1.0000   1.0000   1.0000   1.0000   1.0000
     1.0000   1.0000   1.0000   1.0000   1.0000   1.0000   1.0000   1.0000
     1.0000   1.0000   1.0000   1.0000   1.0000   1.0000   1.0000   1.0000
     1.0000   1.0000   1.0000   1.0000   1.0000   1.0000   1.0000   1.0000
     1.0000   1.0000   1.0000   1.0000   1.0000   1.0000   1.0000   1.0000
     1.0000   1.0000   1.0000   1.0000   1.0000   1.0000   1.0000   1.0000
     1.0000   1.0000   1.0000   1.0000   1.0000   1.0000   1.0000   1.0000
     1.0000   1.0000   1.0000   1.0000   1.0000   1.0000   1.0000   1.0000
     1.0000   1.0000   1.0000   1.0000   1.0000   1.0000   1.0000   1.0000
     1.0000   1.0000   1.0000   1.0000   1.0000   1.0000   1.0000   1.0000
     1.0000   1.0000   1.0000   1.0000   1.0000   1.0000   1.0000   1.0000
     1.0000   1.0000   1.0000   1.0000   1.0000   1.0000   1.0000   1.0000
     1.0000   1.0000   1.0000   1.0000   1.0000   1.0000   1.0000   1.0000
     1.0000   1.0000   1.0000   1.0000   1.0000   1.0000   1.0000   1.0000
     1.0000   1.0000   1.0000   1.0000   1.0000   1.0000   1.0000   1.0000
     1.0000   1.0000   1.0000   1.0000   1.0000   1.0000   1.0000   1.0000
     1.0000   1.0000   1.0000   1.0000   1.0000   1.0000   1.0000   1.0000
     1.0000   1.0000   1.0000   1.0000   1.0000   1.0000   1.0000   1.0000
     1.0000   1.0000   1.0000   1.0000   1.0000   1.0000   1.0000   1.0000
     1.0000   1.0000   1.0000   1.0000   1.0000   1.0000   1.0000   1.0000
     1.0000   1.0000   1.0000   1.0000   1.0000   1.0000   1.0000   1.0000
     1.0000   1.0000   1.0000   1.0000   1.0000   1.0000   1.0000   1.0000
     1.0000   1.0000   1.0000   1.0000   1.0000   1.0000   1.0000   1.0000
     1.0000   1.0000   1.0000   1.0000   1.0000   1.0000   1.0000   1.0000
     1.0000   1.0000   1.0000   1.0000   1.0000   1.0000   1.0000   1.0000
     1.0000   1.0000   1.0000   1.0000   1.0000   1.0000   1.0000   1.0000
     1.0000   1.0000   1.0000   1.0000   1.0000   1.0000   1.0000   1.0000
     1.0000   1.0000   1.0000   1.0000   1.0000   1.0000   1.0000   1.0000
     1.0000   1.0000   1.0000   1.0000   1.0000   1.0000   1.0000   1.0000
     1.0000   1.0000   1.0000   1.0000   1.0000   1.0000   1.0000   1.0000
     1.0000   1.0000   1.0000   1.0000   1.0000   1.0000   1.0000   1.0000
     1.0000   1.0000   1.0000   1.0000   1.0000   1.0000   1.0000   1.0000
     1.0000   1.0000   1.0000   1.0000   1.0000   1.0000   1.0000   1.0000
     0.0000   0.0000   0.0000   0.0000   0.0000   0.0000   0.0000   0.0000
     0.0000   0.0000   0.0000   0.0000   0.0000   0.0000   0.0000   0.0000
     0.0000   0.0000   0.0000   0.0000   0.0000   0.0000   0.0000   0.0000
     0.0000   0.0000   0.0000   0.0000   0.0000   0.0000   0.0000   0.0000
     0.0000   0.0000   0.0000   0.0000   0.0000   0.0000   0.0000   0.0000
     0.0000   0.0000   0.0000   0.0000   0.0000   0.0000   0.0000   0.0000
     0.0000   0.0000   0.0000   0.0000   0.0000   0.0000   0.0000   0.0000
     0.0000   0.0000   0.0000   0.0000   0.0000   0.0000   0.0000   0.0000
     0.0000   0.0000   0.0000   0.0000   0.0000   0.0000   0.0000   0.0000
     0.0000   0.0000   0.0000   0.0000   0.0000   0.0000   0.0000   0.0000
     0.0000   0.0000   0.0000   0.0000   0.0000   0.0000   0.0000   0.0000
     0.0000   0.0000   0.0000   0.0000   0.0000   0.0000   0.0000   0.0000
     0.0000   0.0000   0.0000   0.0000   0.0000   0.0000

          k =-0.3528 0.3524-0.3518 ( 42282 PWs)   bands (ev):

   -65.2813 -65.2453 -65.2157 -65.2030 -65.1653 -65.1648 -65.1442 -65.1409
   -65.1387 -65.1220 -65.1100 -65.1098 -65.1058 -65.1048 -65.0843 -65.0744
   -65.0597 -65.0497 -65.0419 -65.0407 -65.0269 -65.0160 -65.0126 -64.9973
   -64.9927 -64.9921 -64.9806 -64.9797 -64.9712 -64.9488 -64.9391 -64.8078
   -32.2498 -32.2448 -32.2374 -32.2139 -32.2067 -32.2027 -32.1831 -32.1780
   -32.1749 -32.1688 -32.1661 -32.1611 -32.1357 -32.1356 -32.1295 -32.1259
   -32.1242 -32.1195 -32.1125 -32.1079 -32.1077 -32.1071 -32.1056 -32.1030
   -32.1014 -32.1005 -32.0923 -32.0920 -32.0867 -32.0800 -32.0790 -32.0780
   -32.0754 -32.0728 -32.0722 -32.0713 -32.0707 -32.0680 -32.0680 -32.0666
   -32.0647 -32.0614 -32.0530 -32.0482 -32.0460 -32.0430 -32.0362 -32.0304
   -32.0291 -32.0211 -32.0165 -32.0145 -32.0141 -32.0118 -32.0113 -32.0087
   -32.0070 -32.0042 -31.9988 -31.9947 -31.9930 -31.9904 -31.9886 -31.9844
   -31.9832 -31.9782 -31.9719 -31.9699 -31.9689 -31.9656 -31.9626 -31.9600
   -31.9578 -31.9547 -31.9540 -31.9540 -31.9528 -31.9509 -31.9480 -31.9472
   -31.9417 -31.9413 -31.9399 -31.9393 -31.9374 -31.9327 -31.9314 -31.9176
   -31.9113 -31.9075 -31.9066 -31.9060 -31.8941 -31.7773 -31.7702 -31.7689
   -28.7990 -28.7419 -28.7275 -28.7165 -28.6968 -28.6769 -28.6675 -28.6499
   -28.6402 -28.6320 -28.6231 -28.6150 -28.6131 -28.6056 -28.5990 -28.5949
   -28.5880 -28.5651 -28.5499 -28.5302 -28.5211 -28.5090 -28.5034 -28.4885
   -28.4856 -28.4795 -28.4647 -28.4587 -28.4460 -28.4433 -28.4313 -28.3590
   -11.2836 -11.2409 -11.1915 -11.1882 -11.0980 -11.0852 -11.0770 -11.0171
   -11.0084 -10.9913 -10.9436 -10.9278 -10.8737 -10.8380 -10.8133 -10.8045
   -10.7823 -10.7744 -10.7502 -10.7396 -10.7091 -10.6913 -10.6707 -10.6487
   -10.6302 -10.6050 -10.5842 -10.5637 -10.5395 -10.5042 -10.4844 -10.4464
   -10.4425 -10.4187 -10.4080 -10.3852 -10.3696 -10.3577 -10.3445 -10.3187
   -10.2883 -10.2732 -10.2647 -10.2248 -10.1981 -10.1797 -10.1674 -10.1426
   -10.1264 -10.1167 -10.1054 -10.0945 -10.0718 -10.0526 -10.0363  -9.9998
    -9.9891  -9.9670  -9.9541  -9.9391  -9.9373  -9.9202  -9.9011  -9.8909
    -9.8839  -9.8730  -9.8601  -9.8556  -9.8461  -9.8311  -9.8252  -9.8146
    -9.8068  -9.8048  -9.7838  -9.7664  -9.7615  -9.7526  -9.7436  -9.7343
    -9.7242  -9.7126  -9.7071  -9.6841  -9.6811  -9.6792  -9.6716  -9.6655
    -9.6514  -9.6445  -9.6385  -9.6186  -9.5930  -9.5780  -9.5553  -9.5366
    -8.0575  -8.0025  -7.8237  -7.7240  -7.6938  -7.6669  -7.6311  -7.6204
    -7.5914  -7.5628  -7.5554  -7.5421  -7.5211  -7.5077  -7.5026  -7.4891
    -7.4604  -7.4006  -7.3914  -7.3507  -7.3450  -7.3300  -7.3224  -7.2908
    -7.2699  -7.2410  -7.1792  -7.1710  -7.1282  -7.1228  -7.0869  -7.0841
    -7.0574  -7.0389  -7.0060  -6.9961  -6.9798  -6.9588  -6.9418  -6.9214
    -6.8735  -6.8645  -6.8308  -6.8185  -6.8118  -6.7765  -6.7500  -6.7287
    -6.6967  -6.6617  -6.6464  -6.5958  -6.5915  -6.5691  -6.5673  -6.5301
    -6.5082  -6.4693  -6.4553  -6.4059  -6.4047  -6.2848  -6.2576  -6.2477
     3.9975   4.0572   4.0993   4.1333   4.2088   4.2774   4.3834   4.4252
     4.4602   4.4645   4.5123   4.5454   4.5988   4.6435   4.6643   4.7005
     4.7337   4.7590   4.7885   4.8235   4.8329   4.8761   4.8984   4.9413
     4.9498   4.9546   5.0330   5.0484   5.0796   5.0906   5.1217   5.1482
     5.1729   5.2018   5.2229   5.2623   5.3075   5.3269   5.3469   5.3671
     5.3845   5.4050   5.4631   5.4643   5.5086   5.5281   5.5571   5.5783
     5.5828   5.6043   5.6226   5.6403   5.6774   5.7175   5.7396   5.7564
     5.7990   5.8180   5.8539   5.8802   5.9105   5.9209   5.9311   5.9458
     5.9841   5.9970   6.0027   6.0331   6.0391   6.0570   6.0899   6.1076
     6.1151   6.1418   6.1720   6.1924   6.2059   6.2168   6.2330   6.2493
     6.2673   6.2885   6.2983   6.3078   6.3243   6.3363   6.3564   6.3700
     6.3843   6.3975   6.3982   6.4106   6.4155   6.4365   6.4495   6.4647
     6.4771   6.4983   6.5121   6.5308   6.5382   6.5476   6.5602   6.5713
     6.5859   6.5965   6.6073   6.6168   6.6225   6.6340   6.6386   6.6500
     6.6596   6.6712   6.6881   6.6936   6.7001   6.7053   6.7112   6.7238
     6.7399   6.7535   6.7709   6.7822   6.7911   6.8012   6.8041   6.8053
     6.8158   6.8321   6.8398   6.8593   6.8729   6.8881   6.8902   6.8993
     6.9159   6.9242   6.9299   6.9370   6.9517   6.9609   6.9680   6.9806
     6.9895   6.9968   7.0095   7.0284   7.0357   7.0403   7.0555   7.0621
     7.0653   7.0783   7.0814   7.0873   7.1019   7.1086   7.1257   7.1304
     7.1343   7.1467   7.1566   7.1663   7.1751   7.1882   7.2046   7.2184
     7.2335   7.2517   7.2607   7.2708   7.2749   7.2966   7.3109   7.3274
     7.3417   7.3502   7.3632   7.3857   7.4008   7.4131   7.4236   7.4374
     7.4712   7.4856   7.4951   7.5127   7.6244   7.6385   7.6493   7.6707
    12.4089  12.6354  12.8016  12.8461  12.8636  13.1843  13.2152  13.2630
    13.3794  13.4661  13.4906  13.5614  13.6459  13.6810  13.7432  13.7609
    13.8174  13.9837  14.0510  14.1271  14.1572  14.1878  14.2443  14.2669
    14.3127  14.3682  14.3848  14.4045  14.4433  14.4559  14.4654  14.5097
    14.6042  14.6235  14.6480  14.6619  14.6843  14.7015  14.7371  14.7582
    14.8051  14.8083  14.8440  14.8542  14.8706  14.9439  14.9600  14.9636
    15.0190  15.0425  15.0757  15.1227  15.1239  15.1686  15.1977  15.2034
    15.2638  15.3022  15.3152  15.3349  15.3489  15.3626  15.3812  15.4020
    15.4173  15.4277  15.4787  15.5126  15.5622  15.5969  15.6317  15.6399
    15.6660  15.6874  15.7126  15.7279  15.7718  15.7970  15.8266  15.8511
    15.8897  15.9001  15.9185  15.9568  15.9918  16.0200  16.0282  16.0702
    16.0963  16.1331  16.1687  16.1851  16.2074  16.2155  16.2368  16.2443
    16.2884  16.3436  16.3534  16.3816  16.4206  16.4549

     occupation numbers 
     1.0000   1.0000   1.0000   1.0000   1.0000   1.0000   1.0000   1.0000
     1.0000   1.0000   1.0000   1.0000   1.0000   1.0000   1.0000   1.0000
     1.0000   1.0000   1.0000   1.0000   1.0000   1.0000   1.0000   1.0000
     1.0000   1.0000   1.0000   1.0000   1.0000   1.0000   1.0000   1.0000
     1.0000   1.0000   1.0000   1.0000   1.0000   1.0000   1.0000   1.0000
     1.0000   1.0000   1.0000   1.0000   1.0000   1.0000   1.0000   1.0000
     1.0000   1.0000   1.0000   1.0000   1.0000   1.0000   1.0000   1.0000
     1.0000   1.0000   1.0000   1.0000   1.0000   1.0000   1.0000   1.0000
     1.0000   1.0000   1.0000   1.0000   1.0000   1.0000   1.0000   1.0000
     1.0000   1.0000   1.0000   1.0000   1.0000   1.0000   1.0000   1.0000
     1.0000   1.0000   1.0000   1.0000   1.0000   1.0000   1.0000   1.0000
     1.0000   1.0000   1.0000   1.0000   1.0000   1.0000   1.0000   1.0000
     1.0000   1.0000   1.0000   1.0000   1.0000   1.0000   1.0000   1.0000
     1.0000   1.0000   1.0000   1.0000   1.0000   1.0000   1.0000   1.0000
     1.0000   1.0000   1.0000   1.0000   1.0000   1.0000   1.0000   1.0000
     1.0000   1.0000   1.0000   1.0000   1.0000   1.0000   1.0000   1.0000
     1.0000   1.0000   1.0000   1.0000   1.0000   1.0000   1.0000   1.0000
     1.0000   1.0000   1.0000   1.0000   1.0000   1.0000   1.0000   1.0000
     1.0000   1.0000   1.0000   1.0000   1.0000   1.0000   1.0000   1.0000
     1.0000   1.0000   1.0000   1.0000   1.0000   1.0000   1.0000   1.0000
     1.0000   1.0000   1.0000   1.0000   1.0000   1.0000   1.0000   1.0000
     1.0000   1.0000   1.0000   1.0000   1.0000   1.0000   1.0000   1.0000
     1.0000   1.0000   1.0000   1.0000   1.0000   1.0000   1.0000   1.0000
     1.0000   1.0000   1.0000   1.0000   1.0000   1.0000   1.0000   1.0000
     1.0000   1.0000   1.0000   1.0000   1.0000   1.0000   1.0000   1.0000
     1.0000   1.0000   1.0000   1.0000   1.0000   1.0000   1.0000   1.0000
     1.0000   1.0000   1.0000   1.0000   1.0000   1.0000   1.0000   1.0000
     1.0000   1.0000   1.0000   1.0000   1.0000   1.0000   1.0000   1.0000
     1.0000   1.0000   1.0000   1.0000   1.0000   1.0000   1.0000   1.0000
     1.0000   1.0000   1.0000   1.0000   1.0000   1.0000   1.0000   1.0000
     1.0000   1.0000   1.0000   1.0000   1.0000   1.0000   1.0000   1.0000
     1.0000   1.0000   1.0000   1.0000   1.0000   1.0000   1.0000   1.0000
     1.0000   1.0000   1.0000   1.0000   1.0000   1.0000   1.0000   1.0000
     1.0000   1.0000   1.0000   1.0000   1.0000   1.0000   1.0000   1.0000
     1.0000   1.0000   1.0000   1.0000   1.0000   1.0000   1.0000   1.0000
     1.0000   1.0000   1.0000   1.0000   1.0000   1.0000   1.0000   1.0000
     1.0000   1.0000   1.0000   1.0000   1.0000   1.0000   1.0000   1.0000
     1.0000   1.0000   1.0000   1.0000   1.0000   1.0000   1.0000   1.0000
     1.0000   1.0000   1.0000   1.0000   1.0000   1.0000   1.0000   1.0000
     1.0000   1.0000   1.0000   1.0000   1.0000   1.0000   1.0000   1.0000
     1.0000   1.0000   1.0000   1.0000   1.0000   1.0000   1.0000   1.0000
     1.0000   1.0000   1.0000   1.0000   1.0000   1.0000   1.0000   1.0000
     1.0000   1.0000   1.0000   1.0000   1.0000   1.0000   1.0000   1.0000
     1.0000   1.0000   1.0000   1.0000   1.0000   1.0000   1.0000   1.0000
     1.0000   1.0000   1.0000   1.0000   1.0000   1.0000   1.0000   1.0000
     1.0000   1.0000   1.0000   1.0000   1.0000   1.0000   1.0000   1.0000
     1.0000   1.0000   1.0000   1.0000   1.0000   1.0000   1.0000   1.0000
     1.0000   1.0000   1.0000   1.0000   1.0000   1.0000   1.0000   1.0000
     1.0000   1.0000   1.0000   1.0000   1.0000   1.0000   1.0000   1.0000
     1.0000   1.0000   1.0000   1.0000   1.0000   1.0000   1.0000   1.0000
     1.0000   1.0000   1.0000   1.0000   1.0000   1.0000   1.0000   1.0000
     1.0000   1.0000   1.0000   1.0000   1.0000   1.0000   1.0000   1.0000
     1.0000   1.0000   1.0000   1.0000   1.0000   1.0000   1.0000   1.0000
     1.0000   1.0000   1.0000   1.0000   1.0000   1.0000   1.0000   1.0000
     1.0000   1.0000   1.0000   1.0000   1.0000   1.0000   1.0000   1.0000
     1.0000   1.0000   1.0000   1.0000   1.0000   1.0000   1.0000   1.0000
     1.0000   1.0000   1.0000   1.0000   1.0000   1.0000   1.0000   1.0000
     1.0000   1.0000   1.0000   1.0000   1.0000   1.0000   1.0000   1.0000
     1.0000   1.0000   1.0000   1.0000   1.0000   1.0000   1.0000   1.0000
     1.0000   1.0000   1.0000   1.0000   1.0000   1.0000   1.0000   1.0000
     1.0000   1.0000   1.0000   1.0000   1.0000   1.0000   1.0000   1.0000
     1.0000   1.0000   1.0000   1.0000   1.0000   1.0000   1.0000   1.0000
     1.0000   1.0000   1.0000   1.0000   1.0000   1.0000   1.0000   1.0000
     1.0000   1.0000   1.0000   1.0000   1.0000   1.0000   1.0000   1.0000
     0.0000   0.0000   0.0000   0.0000   0.0000   0.0000   0.0000   0.0000
     0.0000   0.0000   0.0000   0.0000   0.0000   0.0000   0.0000   0.0000
     0.0000   0.0000   0.0000   0.0000   0.0000   0.0000   0.0000   0.0000
     0.0000   0.0000   0.0000   0.0000   0.0000   0.0000   0.0000   0.0000
     0.0000   0.0000   0.0000   0.0000   0.0000   0.0000   0.0000   0.0000
     0.0000   0.0000   0.0000   0.0000   0.0000   0.0000   0.0000   0.0000
     0.0000   0.0000   0.0000   0.0000   0.0000   0.0000   0.0000   0.0000
     0.0000   0.0000   0.0000   0.0000   0.0000   0.0000   0.0000   0.0000
     0.0000   0.0000   0.0000   0.0000   0.0000   0.0000   0.0000   0.0000
     0.0000   0.0000   0.0000   0.0000   0.0000   0.0000   0.0000   0.0000
     0.0000   0.0000   0.0000   0.0000   0.0000   0.0000   0.0000   0.0000
     0.0000   0.0000   0.0000   0.0000   0.0000   0.0000   0.0000   0.0000
     0.0000   0.0000   0.0000   0.0000   0.0000   0.0000

          k =-0.7041 0.0001 0.0001 ( 42312 PWs)   bands (ev):

   -65.2813 -65.2453 -65.2157 -65.2030 -65.1653 -65.1648 -65.1442 -65.1409
   -65.1387 -65.1220 -65.1100 -65.1098 -65.1058 -65.1048 -65.0843 -65.0744
   -65.0597 -65.0497 -65.0419 -65.0407 -65.0269 -65.0160 -65.0126 -64.9973
   -64.9927 -64.9921 -64.9806 -64.9797 -64.9712 -64.9488 -64.9391 -64.8078
   -32.2498 -32.2448 -32.2374 -32.2139 -32.2067 -32.2027 -32.1831 -32.1780
   -32.1749 -32.1688 -32.1661 -32.1611 -32.1357 -32.1356 -32.1295 -32.1259
   -32.1242 -32.1195 -32.1125 -32.1079 -32.1077 -32.1071 -32.1056 -32.1030
   -32.1014 -32.1005 -32.0923 -32.0920 -32.0866 -32.0800 -32.0790 -32.0780
   -32.0754 -32.0729 -32.0722 -32.0713 -32.0707 -32.0680 -32.0680 -32.0666
   -32.0647 -32.0614 -32.0530 -32.0482 -32.0460 -32.0430 -32.0362 -32.0304
   -32.0291 -32.0211 -32.0165 -32.0145 -32.0141 -32.0118 -32.0113 -32.0087
   -32.0070 -32.0042 -31.9988 -31.9947 -31.9930 -31.9904 -31.9886 -31.9844
   -31.9832 -31.9782 -31.9719 -31.9699 -31.9689 -31.9656 -31.9626 -31.9600
   -31.9578 -31.9547 -31.9540 -31.9540 -31.9528 -31.9509 -31.9480 -31.9472
   -31.9417 -31.9413 -31.9399 -31.9393 -31.9374 -31.9327 -31.9314 -31.9176
   -31.9113 -31.9075 -31.9066 -31.9060 -31.8941 -31.7773 -31.7702 -31.7689
   -28.7990 -28.7405 -28.7301 -28.7149 -28.6984 -28.6752 -28.6682 -28.6492
   -28.6400 -28.6331 -28.6230 -28.6151 -28.6123 -28.6054 -28.6008 -28.5939
   -28.5880 -28.5649 -28.5505 -28.5295 -28.5211 -28.5094 -28.5039 -28.4884
   -28.4857 -28.4787 -28.4660 -28.4577 -28.4459 -28.4419 -28.4326 -28.3590
   -11.2742 -11.2435 -11.1947 -11.1826 -11.1040 -11.0946 -11.0799 -11.0149
   -11.0120 -10.9829 -10.9304 -10.9098 -10.8931 -10.8660 -10.8311 -10.8086
   -10.7693 -10.7578 -10.7524 -10.7117 -10.6998 -10.6731 -10.6643 -10.6425
   -10.6268 -10.6064 -10.5969 -10.5838 -10.5349 -10.5103 -10.4761 -10.4670
   -10.4592 -10.4424 -10.4168 -10.4120 -10.3889 -10.3557 -10.3392 -10.3260
   -10.2944 -10.2843 -10.2788 -10.2279 -10.2048 -10.1749 -10.1437 -10.1202
   -10.1089 -10.0974 -10.0917 -10.0527 -10.0522 -10.0387 -10.0144  -9.9976
    -9.9837  -9.9814  -9.9474  -9.9464  -9.9286  -9.9180  -9.9140  -9.8938
    -9.8845  -9.8722  -9.8611  -9.8512  -9.8425  -9.8362  -9.8192  -9.8114
    -9.8014  -9.7875  -9.7765  -9.7697  -9.7687  -9.7539  -9.7424  -9.7352
    -9.7276  -9.7192  -9.7104  -9.6973  -9.6914  -9.6828  -9.6711  -9.6584
    -9.6498  -9.6404  -9.6351  -9.6256  -9.6051  -9.5925  -9.5859  -9.5530
    -8.0135  -7.9560  -7.8229  -7.7762  -7.7522  -7.6709  -7.6538  -7.6179
    -7.5946  -7.5870  -7.5586  -7.5282  -7.5259  -7.4962  -7.4663  -7.4559
    -7.4442  -7.4286  -7.4008  -7.3673  -7.3482  -7.3236  -7.2979  -7.2838
    -7.2720  -7.2385  -7.1649  -7.1579  -7.1407  -7.1124  -7.1036  -7.0733
[...]
     atom   77 type  1   force =   0.00000000E+00  0.00000000E+00  0.00000000E+00
     atom   78 type  3   force =   0.00000000E+00  0.00000000E+00  0.00000000E+00
     atom   79 type  2   force =   0.00000000E+00  0.00000000E+00  0.00000000E+00
     atom   80 type  3   force =   0.00000000E+00  0.00000000E+00  0.00000000E+00
     atom   81 type  1   force =   0.00000000E+00  0.00000000E+00  0.00000000E+00
     atom   82 type  3   force =   0.00000000E+00  0.00000000E+00  0.00000000E+00
     atom   83 type  1   force =   0.00000000E+00  0.00000000E+00  0.00000000E+00
     atom   84 type  3   force =   0.00000000E+00  0.00000000E+00  0.00000000E+00
     atom   85 type  1   force =   0.00000000E+00  0.00000000E+00  0.00000000E+00
     atom   86 type  3   force =   0.00000000E+00  0.00000000E+00  0.00000000E+00
     atom   87 type  2   force =   0.00000000E+00  0.00000000E+00  0.00000000E+00
     atom   88 type  3   force =   0.00000000E+00  0.00000000E+00  0.00000000E+00
     atom   89 type  1   force =   0.00000000E+00  0.00000000E+00  0.00000000E+00
     atom   90 type  3   force =   0.00000000E+00  0.00000000E+00  0.00000000E+00
     atom   91 type  2   force =   0.00000000E+00  0.00000000E+00  0.00000000E+00
     atom   92 type  3   force =   0.00000000E+00  0.00000000E+00  0.00000000E+00
     atom   93 type  2   force =   0.00000000E+00  0.00000000E+00  0.00000000E+00
     atom   94 type  3   force =   0.00000000E+00  0.00000000E+00  0.00000000E+00
     atom   95 type  1   force =   0.00000000E+00  0.00000000E+00  0.00000000E+00
     atom   96 type  3   force =   0.00000000E+00  0.00000000E+00  0.00000000E+00
     atom   97 type  2   force =   0.00000000E+00  0.00000000E+00  0.00000000E+00
     atom   98 type  3   force =   0.00000000E+00  0.00000000E+00  0.00000000E+00
     atom   99 type  2   force =   0.00000000E+00  0.00000000E+00  0.00000000E+00
     atom  100 type  3   force =   0.00000000E+00  0.00000000E+00  0.00000000E+00
     atom  101 type  2   force =   0.00000000E+00  0.00000000E+00  0.00000000E+00
     atom  102 type  3   force =   0.00000000E+00  0.00000000E+00  0.00000000E+00
     atom  103 type  1   force =   0.00000000E+00  0.00000000E+00  0.00000000E+00
     atom  104 type  3   force =   0.00000000E+00  0.00000000E+00  0.00000000E+00
     atom  105 type  2   force =   0.00000000E+00  0.00000000E+00  0.00000000E+00
     atom  106 type  3   force =   0.00000000E+00  0.00000000E+00  0.00000000E+00
     atom  107 type  2   force =   0.00000000E+00  0.00000000E+00  0.00000000E+00
     atom  108 type  3   force =   0.00000000E+00  0.00000000E+00  0.00000000E+00
     atom  109 type  1   force =   0.00000000E+00  0.00000000E+00  0.00000000E+00
     atom  110 type  3   force =   0.00000000E+00  0.00000000E+00  0.00000000E+00
     atom  111 type  2   force =   0.00000000E+00  0.00000000E+00  0.00000000E+00
     atom  112 type  3   force =   0.00000000E+00  0.00000000E+00  0.00000000E+00
     atom  113 type  2   force =   0.00000000E+00  0.00000000E+00  0.00000000E+00
     atom  114 type  3   force =   0.00000000E+00  0.00000000E+00  0.00000000E+00
     atom  115 type  2   force =   0.00000000E+00  0.00000000E+00  0.00000000E+00
     atom  116 type  3   force =   0.00000000E+00  0.00000000E+00  0.00000000E+00
     atom  117 type  1   force =   0.00000000E+00  0.00000000E+00  0.00000000E+00
     atom  118 type  3   force =   0.00000000E+00  0.00000000E+00  0.00000000E+00
     atom  119 type  1   force =   0.00000000E+00  0.00000000E+00  0.00000000E+00
     atom  120 type  3   force =   0.00000000E+00  0.00000000E+00  0.00000000E+00
     atom  121 type  1   force =   0.00000000E+00  0.00000000E+00  0.00000000E+00
     atom  122 type  3   force =   0.00000000E+00  0.00000000E+00  0.00000000E+00
     atom  123 type  2   force =   0.00000000E+00  0.00000000E+00  0.00000000E+00
     atom  124 type  3   force =   0.00000000E+00  0.00000000E+00  0.00000000E+00
     atom  125 type  1   force =   0.00000000E+00  0.00000000E+00  0.00000000E+00
     atom  126 type  3   force =   0.00000000E+00  0.00000000E+00  0.00000000E+00
     atom  127 type  1   force =   0.00000000E+00  0.00000000E+00  0.00000000E+00
     atom  128 type  3   force =   0.00000000E+00  0.00000000E+00  0.00000000E+00
     The SCF correction term to forces
     atom    1 type  1   force =  -0.37004639E-05  0.52564437E-06 -0.68016455E-07
     atom    2 type  3   force =  -0.59973102E-06  0.11796257E-05  0.30685570E-06
     atom    3 type  2   force =  -0.54524410E-06  0.28102314E-05 -0.23231329E-05
     atom    4 type  3   force =   0.96011532E-06  0.25304452E-05 -0.10436667E-05
     atom    5 type  1   force =   0.33891288E-06  0.35914498E-05 -0.60982555E-06
     atom    6 type  3   force =  -0.11934984E-05 -0.28724044E-07  0.10559608E-05
     atom    7 type  1   force =  -0.33828832E-05  0.36049790E-06  0.19272552E-05
     atom    8 type  3   force =  -0.18971506E-05 -0.92259911E-06  0.13096806E-05
     atom    9 type  2   force =  -0.82008158E-06 -0.27300526E-05  0.25911814E-05
     atom   10 type  3   force =   0.14954522E-05 -0.30677146E-06  0.18860146E-05
     atom   11 type  2   force =   0.31441927E-05  0.12969744E-05  0.81924096E-08
     atom   12 type  3   force =   0.19316846E-05  0.15424385E-05  0.43801398E-06
     atom   13 type  1   force =   0.15741651E-05  0.68692751E-06  0.61840626E-06
     atom   14 type  3   force =  -0.27585014E-06 -0.62376819E-06  0.24109225E-05
     atom   15 type  2   force =  -0.10677985E-05 -0.24169157E-05  0.37990855E-05
     atom   16 type  3   force =  -0.12405716E-05 -0.26716457E-05  0.31650256E-05
     atom   17 type  2   force =   0.68345926E-08 -0.19228136E-05  0.29504784E-05
     atom   18 type  3   force =  -0.54855555E-06  0.80878395E-06  0.73071330E-06
     atom   19 type  2   force =   0.27822649E-05  0.11330606E-05  0.42875622E-06
     atom   20 type  3   force =   0.26968553E-06  0.25455103E-05 -0.81202630E-06
     atom   21 type  2   force =   0.17108549E-05  0.11269877E-05  0.70574253E-06
     atom   22 type  3   force =  -0.21360442E-05  0.24911833E-06  0.67588453E-06
     atom   23 type  1   force =  -0.25884897E-05 -0.32686138E-05  0.28319089E-05
     atom   24 type  3   force =  -0.13368677E-05 -0.34738161E-08  0.21929361E-05
     atom   25 type  1   force =  -0.24271470E-05  0.11592111E-05  0.96781964E-06
     atom   26 type  3   force =  -0.24572461E-05  0.11347946E-05 -0.83199033E-06
     atom   27 type  2   force =  -0.98914469E-06  0.31632447E-05 -0.23341974E-05
     atom   28 type  3   force =  -0.37580533E-06  0.36260337E-05 -0.15872178E-05
     atom   29 type  1   force =  -0.18351527E-05  0.32027722E-05 -0.29310601E-05
     atom   30 type  3   force =  -0.15185985E-05  0.15048818E-05  0.79716100E-06
     atom   31 type  2   force =  -0.33656594E-05  0.73046416E-06  0.12504823E-05
     atom   32 type  3   force =  -0.23745938E-05  0.47950585E-06  0.44953197E-06
     atom   33 type  2   force =  -0.35997477E-05  0.75814063E-06  0.11084657E-06
     atom   34 type  3   force =  -0.16121158E-07  0.14277642E-05 -0.41431041E-07
     atom   35 type  1   force =   0.18514493E-06  0.45379655E-05 -0.17724003E-05
     atom   36 type  3   force =   0.14589969E-05  0.18765659E-05 -0.13839505E-05
     atom   37 type  1   force =  -0.18419600E-06  0.32379493E-05 -0.10941158E-05
     atom   38 type  3   force =  -0.47862089E-06 -0.13246143E-05  0.98158753E-06
     atom   39 type  2   force =  -0.36122682E-05 -0.39925875E-06  0.86283127E-06
     atom   40 type  3   force =  -0.16570170E-05 -0.12235297E-05  0.11257008E-05
     atom   41 type  2   force =  -0.63969341E-06 -0.13610671E-05  0.31674399E-05
     atom   42 type  3   force =   0.15322999E-05 -0.81070798E-06  0.17140685E-05
     atom   43 type  2   force =   0.25320594E-05  0.20985383E-05  0.58805137E-06
     atom   44 type  3   force =   0.28239571E-05  0.49428822E-06 -0.11741262E-06
     atom   45 type  1   force =   0.18233009E-05  0.63066975E-06  0.19706711E-05
     atom   46 type  3   force =   0.97912839E-07 -0.22476115E-05  0.17133329E-05
     atom   47 type  1   force =  -0.14380720E-05 -0.42374795E-05  0.47939222E-05
     atom   48 type  3   force =   0.93981543E-07 -0.19100621E-05  0.26727780E-05
     atom   49 type  1   force =   0.87647290E-06 -0.10063102E-05  0.41802809E-05
     atom   50 type  3   force =  -0.55520116E-06  0.53732430E-06 -0.41077072E-06
     atom   51 type  2   force =   0.20535590E-05  0.19678554E-05  0.79804134E-06
     atom   52 type  3   force =   0.51020377E-06  0.20387181E-05 -0.19042508E-05
     atom   53 type  1   force =  -0.86430873E-07  0.10796283E-05  0.56160897E-06
     atom   54 type  3   force =  -0.55387780E-06 -0.60980630E-06  0.38644413E-06
     atom   55 type  1   force =  -0.22638055E-05 -0.27525641E-05  0.35594913E-05
     atom   56 type  3   force =  -0.45534484E-06 -0.78842320E-06  0.13658396E-05
     atom   57 type  1   force =  -0.36988257E-05  0.93601893E-06  0.32060154E-06
     atom   58 type  3   force =  -0.10888049E-05  0.13916477E-05 -0.11819418E-05
     atom   59 type  2   force =  -0.14311890E-05  0.40331709E-05 -0.24771655E-05
     atom   60 type  3   force =   0.59237164E-06  0.21265886E-05 -0.19118121E-05
     atom   61 type  2   force =  -0.13105539E-05  0.34518968E-05 -0.13133994E-05
     atom   62 type  3   force =  -0.14057257E-05  0.61044271E-06 -0.63613094E-06
     atom   63 type  1   force =  -0.31928080E-05  0.74166968E-06  0.15265014E-05
     atom   64 type  3   force =  -0.26784188E-05  0.21782789E-06 -0.46672373E-06
     atom   65 type  1   force =  -0.15571743E-05  0.42437010E-06 -0.92387491E-06
     atom   66 type  3   force =   0.69880132E-06 -0.62591945E-06 -0.88738170E-06
     atom   67 type  1   force =   0.16147538E-05  0.22136203E-05 -0.29717206E-05
     atom   68 type  3   force =   0.23899287E-05  0.16383099E-06 -0.19660753E-05
     atom   69 type  1   force =   0.45492844E-06  0.84168723E-06 -0.27132427E-05
     atom   70 type  3   force =   0.28203046E-06 -0.13692678E-05  0.77161688E-07
     atom   71 type  2   force =  -0.25414829E-05 -0.14395446E-05 -0.95345347E-07
     atom   72 type  3   force =  -0.35938878E-06 -0.14459366E-05  0.68594917E-06
     atom   73 type  2   force =   0.89163777E-06 -0.19153183E-05  0.21535842E-05
     atom   74 type  3   force =   0.22282367E-05 -0.18426290E-05  0.25485357E-07
     atom   75 type  2   force =   0.41999311E-05 -0.13916292E-06 -0.65430079E-06
     atom   76 type  3   force =   0.33437355E-05 -0.98357868E-06 -0.15813213E-05
     atom   77 type  1   force =   0.37021041E-05 -0.23145217E-05  0.18667485E-06
     atom   78 type  3   force =   0.78042843E-06 -0.25148037E-05  0.12654765E-05
     atom   79 type  2   force =  -0.19417400E-06 -0.40459825E-05  0.26930369E-05
     atom   80 type  3   force =   0.10768657E-05 -0.21591380E-05  0.17076182E-05
     atom   81 type  1   force =   0.17007938E-05 -0.22715021E-05  0.22123200E-05
     atom   82 type  3   force =   0.68595298E-06 -0.77423817E-06 -0.12081033E-05
     atom   83 type  1   force =   0.29674818E-05  0.11860226E-06 -0.26136947E-05
     atom   84 type  3   force =   0.18557671E-05  0.10183104E-05 -0.22989258E-05
     atom   85 type  1   force =   0.15619506E-05 -0.15958525E-05 -0.15491899E-05
     atom   86 type  3   force =   0.42130136E-06 -0.36970045E-06  0.56953320E-07
     atom   87 type  2   force =   0.49437461E-06 -0.31781723E-05  0.26040796E-05
     atom   88 type  3   force =  -0.82564023E-06 -0.21216614E-05 -0.34902704E-07
     atom   89 type  1   force =  -0.26623759E-05  0.15727697E-06 -0.19037294E-05
     atom   90 type  3   force =  -0.56124056E-07  0.82936847E-06 -0.16769721E-05
     atom   91 type  2   force =   0.86672749E-06  0.24210530E-05 -0.36077106E-05
     atom   92 type  3   force =   0.10906051E-05  0.12466634E-05 -0.27286292E-05
     atom   93 type  2   force =   0.71859675E-06  0.16521268E-05 -0.28380732E-05
     atom   94 type  3   force =  -0.10247738E-05 -0.17473320E-06 -0.19887125E-05
     atom   95 type  1   force =  -0.25394701E-05 -0.32252233E-06 -0.44307015E-06
     atom   96 type  3   force =  -0.15221007E-05 -0.28420496E-06 -0.72656370E-06
     atom   97 type  2   force =  -0.82644071E-06 -0.26728031E-06 -0.68083761E-06
     atom   98 type  3   force =  -0.13442556E-06 -0.82462076E-06 -0.61223034E-06
     atom   99 type  2   force =   0.10525562E-05  0.12758339E-05 -0.35835398E-05
     atom  100 type  3   force =   0.22153633E-05  0.10180981E-05 -0.13757479E-05
     atom  101 type  2   force =   0.10709056E-05  0.64894676E-06 -0.31987234E-05
     atom  102 type  3   force =  -0.30045032E-06  0.40939618E-07  0.58566558E-06
     atom  103 type  1   force =  -0.16990308E-05 -0.11194506E-05  0.46757300E-06
     atom  104 type  3   force =  -0.12452693E-05 -0.57137983E-06  0.10877502E-05
     atom  105 type  2   force =   0.11941813E-05 -0.32174037E-05  0.14358815E-05
     atom  106 type  3   force =   0.14139463E-05 -0.12558578E-05  0.51612682E-06
     atom  107 type  2   force =   0.42582715E-05 -0.14142353E-05 -0.17775604E-05
     atom  108 type  3   force =   0.29840057E-05  0.71496695E-06 -0.42817298E-06
     atom  109 type  1   force =   0.32560322E-05 -0.12763511E-05 -0.34515832E-06
     atom  110 type  3   force =   0.87494473E-06 -0.16748379E-05  0.16104824E-05
     atom  111 type  2   force =   0.36960354E-06 -0.31072730E-05  0.23136772E-05
     atom  112 type  3   force =  -0.12318734E-06 -0.29676279E-05  0.22173380E-05
     atom  113 type  2   force =   0.64925901E-06 -0.36387225E-05  0.58858195E-06
     atom  114 type  3   force =   0.39132527E-06  0.51765414E-08  0.31286148E-06
     atom  115 type  2   force =   0.38225601E-05 -0.32438439E-06 -0.17920142E-05
     atom  116 type  3   force =   0.12209222E-05  0.12794593E-05 -0.16921059E-05
     atom  117 type  1   force =   0.28822997E-05 -0.46924822E-06 -0.49134653E-06
     atom  118 type  3   force =  -0.40226848E-06 -0.79289462E-08 -0.17299041E-06
     atom  119 type  1   force =   0.97090602E-06 -0.30801175E-05  0.28599344E-05
     atom  120 type  3   force =  -0.11038884E-05 -0.12226828E-05  0.46927791E-06
     atom  121 type  1   force =  -0.12262340E-05 -0.30557477E-06 -0.11597277E-05
     atom  122 type  3   force =  -0.11813110E-05  0.10543885E-05 -0.79400885E-06
     atom  123 type  2   force =   0.11356330E-05  0.20337174E-05 -0.31824367E-05
     atom  124 type  3   force =  -0.44723384E-07  0.23355878E-05 -0.30434407E-05
     atom  125 type  1   force =   0.59946717E-06  0.20893298E-05 -0.33837116E-05
     atom  126 type  3   force =  -0.12640587E-05  0.38681936E-06 -0.71305486E-06
     atom  127 type  1   force =  -0.29823328E-05 -0.14065991E-05 -0.18224012E-05
     atom  128 type  3   force =  -0.15418808E-05  0.13020193E-06  0.21403564E-06

     Total force =     0.460154     Total SCF correction =     0.000036


     entering subroutine stress ...

          total   stress  (Ry/bohr**3)                   (kbar)     P=   31.30
   0.0001972346  -0.0000217305  -0.0000082025         29.01     -3.20     -1.21
  -0.0000217305   0.0002331542   0.0000371126         -3.20     34.30      5.46
  -0.0000082025   0.0000371126   0.0002078948         -1.21      5.46     30.58

     kinetic stress (kbar)  21179.76     -2.61     -1.12
                               -2.61  21186.49      4.02
                               -1.12      4.02  21180.79

     local   stress (kbar)  -2899.19    -36.71    -16.69
                              -36.71  -3269.64     49.36
                              -16.69     49.36  -3076.12

     nonloc. stress (kbar)   5342.83      0.20      0.07
                                0.20   5343.73     -0.50
                                0.07     -0.50   5343.58

     hartree stress (kbar)  11014.23     14.66      7.50
                               14.66  11151.17    -19.71
                                7.50    -19.71  11080.48

     exc-cor stress (kbar)  -5368.71      0.04      0.02
                                0.04  -5368.41     -0.04
                                0.02     -0.04  -5368.58

     corecor stress (kbar)  -1064.51      0.01      0.00
                                0.01  -1064.54     -0.01
                                0.00     -0.01  -1064.52

     ewald   stress (kbar) -28175.39     21.22      9.02
                               21.22 -27944.49    -27.67
                                9.02    -27.67 -28065.06

     hubbard stress (kbar)      0.00      0.00      0.00
                                0.00      0.00      0.00
                                0.00      0.00      0.00

     london  stress (kbar)      0.00      0.00      0.00
                                0.00      0.00      0.00
                                0.00      0.00      0.00

     XDM     stress (kbar)      0.00      0.00      0.00
                                0.00      0.00      0.00
                                0.00      0.00      0.00

     dft-nl  stress (kbar)      0.00      0.00      0.00
                                0.00      0.00      0.00
                                0.00      0.00      0.00



     Writing output data file mix_rocksalt.relax.in.up_1.00.super.444.a.033.save

     init_run     :    949.20s CPU    697.22s WALL (       1 calls)
     electrons    :  72696.46s CPU  54782.50s WALL (       1 calls)
     forces       :    803.79s CPU    565.98s WALL (       1 calls)
     stress       :   2795.73s CPU   2728.02s WALL (       1 calls)

     Called by init_run:
     wfcinit      :    900.80s CPU    648.69s WALL (       1 calls)
     potinit      :      7.21s CPU      7.24s WALL (       1 calls)

     Called by electrons:
     c_bands      :  64221.94s CPU  47833.56s WALL (      27 calls)
     sum_band     :   7576.16s CPU   6041.19s WALL (      27 calls)
     v_of_rho     :     20.41s CPU     20.60s WALL (      28 calls)
     v_h          :      1.18s CPU      1.23s WALL (      28 calls)
     v_xc         :     20.70s CPU     20.88s WALL (      30 calls)
     newd         :    872.47s CPU    880.65s WALL (      28 calls)
     mix_rho      :     30.04s CPU     30.82s WALL (      27 calls)

     Called by c_bands:
     init_us_2    :     80.27s CPU     82.75s WALL (     456 calls)
     cegterg      :  63669.46s CPU  47261.35s WALL (     216 calls)

     Called by sum_band:
     sum_band:bec :     24.15s CPU     25.18s WALL (     216 calls)
     addusdens    :    633.53s CPU    643.35s WALL (      27 calls)

     Called by *egterg:
     h_psi        :  27567.19s CPU  20902.71s WALL (     803 calls)
     s_psi        :   8105.23s CPU   4791.60s WALL (     803 calls)
     g_psi        :     13.55s CPU     16.84s WALL (     579 calls)
     cdiaghg      :  13091.82s CPU  11890.10s WALL (     795 calls)
     cegterg:over :   6848.54s CPU   4394.44s WALL (     579 calls)
     cegterg:upda :   3032.19s CPU   1824.36s WALL (     579 calls)
     cegterg:last :   2370.93s CPU   1392.89s WALL (     216 calls)

     Called by h_psi:
     h_psi:vloc   :  10336.63s CPU  10564.02s WALL (     803 calls)
     h_psi:vnl    :  17205.29s CPU  10312.36s WALL (     803 calls)
     add_vuspsi   :   7965.88s CPU   4697.23s WALL (     803 calls)

     General routines
     calbec       :  13953.64s CPU   8594.58s WALL (    1035 calls)
     fft          :    175.90s CPU    176.65s WALL (     469 calls)
     ffts         :     15.97s CPU     16.48s WALL (     733 calls)
     fftw         :  11614.75s CPU  11872.51s WALL (  727338 calls)
     interpolate  :      4.17s CPU      4.26s WALL (      55 calls)

     Parallel routines
     fft_scatter  :   7258.85s CPU   7441.52s WALL (  728540 calls)

     PWSCF        :    21h28m CPU       16h20m WALL


   This run was terminated on:  12:12:24   4Nov2017            

=------------------------------------------------------------------------------=
   JOB DONE.
=------------------------------------------------------------------------------=
