
     Program PWSCF v.5.1 starts on  3Oct2017 at 15:23:11 

     This program is part of the open-source Quantum ESPRESSO suite
     for quantum simulation of materials; please cite
         "P. Giannozzi et al., J. Phys.:Condens. Matter 21 395502 (2009);
          URL http://www.quantum-espresso.org", 
     in publications or presentations arising from this work. More details at
     http://www.quantum-espresso.org/quote

     Parallel version (MPI), running on     8 processors
     R & G space division:  proc/nbgrp/npool/nimage =       8
     Reading input from /tmp/mix_rocksalt.relax.in.up_1.00.super.444.01.28747/mix_rocksalt.relax.in.up_1.00.super.444.01.t
Warning: card &IONS ignored
Warning: card   ION_DYNAMICS='BFGS', ignored
Warning: card / ignored
Warning: card &CELL ignored
Warning: card  CELL_DYNAMICS = 'BFGS' ignored
Warning: card / ignored
     Message from routine read_cards :
     DEPRECATED: no units specified in CELL_PARAMETERS card

     Current dimensions of program PWSCF are:
     Max number of different atomic species (ntypx) = 10
     Max number of k-points (npk) =  40000
     Max angular momentum in pseudopotentials (lmaxx) =  3
 kfg - two_fermi_energies  F

     Subspace diagonalization in iterative solution of the eigenvalue problem:
     a serial algorithm will be used


     Parallelization info
     --------------------
     sticks:   dense  smooth     PW     G-vecs:    dense   smooth      PW
     Min        1000     799    209                58887    42140    5726
     Max        1001     800    210                58890    42157    5730
     Sum        8007    6399   1675               471115   337209   45823



     bravais-lattice index     =            0
     lattice parameter (alat)  =    24.070573486  a.u.
     unit-cell volume          =    9863.2868 (a.u.)^3
     number of atoms/cell      =          128
     number of atomic types    =            3
     number of electrons       =      1024.00
     number of Kohn-Sham states=          614
     kinetic-energy cutoff     =      40.0000  Ry
     charge density cutoff     =     200.0000  Ry
     convergence threshold     =      1.0E-10
     mixing beta               =       0.3000
     number of iterations used =            8  local-TF  mixing
     Exchange-correlation      = SLA  PW   PSX  PSC ( 1  4 10  8 0)
     A smooth kinetic-energy cutoff is imposed at      39.5000 Ry
     height of the smooth step-function =             800.0000 Ry
     width of the smooth step-function  =               1.0000 Ry


     celldm(1)=  24.070573  celldm(2)=   0.000000  celldm(3)=   0.000000
     celldm(4)=   0.000000  celldm(5)=   0.000000  celldm(6)=   0.000000

     crystal axes: (cart. coord. in units of alat)
               a(1) = (   0.000214581810   0.708192460141   0.706019400126 )  
               a(2) = (   0.709094432847   0.001516617141   0.706846452444 )  
               a(3) = (   0.706410713370   0.707910549322  -0.000148706110 )  

     reciprocal axes: (cart. coord. in units 2 pi/alat)
               b(1) = ( -0.707524  0.706174  0.708259 )  
               b(2) = (  0.706845 -0.705199  0.707155 )  
               b(3) = (  0.706292  0.707663 -0.710056 )  


     PseudoPot. # 1 for Mg read from file:
     /users/kfg/psuedo/gbrv_1.5/mg.pbesol.UPF
     MD5 check sum: 4059f37963cf5867752dbf5ab2400678
     Pseudo is Ultrasoft, Zval = 10.0
     Generated by new atomic code, or converted to UPF format
     Using radial grid of  821 points,  7 beta functions with: 
                l(1) =   0
                l(2) =   0
                l(3) =   0
                l(4) =   1
                l(5) =   1
                l(6) =   2
                l(7) =   2
     Q(r) pseudized with  8 coefficients,  rinner =    1.200   1.200   1.200
                                                       1.200   1.200

     PseudoPot. # 2 for Ca read from file:
     /users/kfg/psuedo/gbrv_1.5/ca.pbesol.UPF
     MD5 check sum: 0533207b58cddeaa036efa5b63902087
     Pseudo is Ultrasoft + core correction, Zval = 10.0
     Generated by new atomic code, or converted to UPF format
     Using radial grid of  845 points,  6 beta functions with: 
                l(1) =   0
                l(2) =   0
                l(3) =   1
                l(4) =   1
                l(5) =   2
                l(6) =   2
     Q(r) pseudized with  8 coefficients,  rinner =    1.500   1.500   1.500
                                                       1.500   1.500

     PseudoPot. # 3 for O  read from file:
     /users/kfg/psuedo/gbrv_1.5/o.pbesol.UPF
     MD5 check sum: 501638753501ef6325af9037351f7734
     Pseudo is Ultrasoft + core correction, Zval =  6.0
     Generated by new atomic code, or converted to UPF format
     Using radial grid of  737 points,  5 beta functions with: 
                l(1) =   0
                l(2) =   0
                l(3) =   1
                l(4) =   1
                l(5) =   2
     Q(r) pseudized with  8 coefficients,  rinner =    0.900   0.900   0.900
                                                       0.900   0.900

     atomic species   valence    mass     pseudopotential
        Mg            10.00    24.30500     Mg( 1.00)
        Ca            10.00    24.30500     Ca( 1.00)
        O              6.00    15.99940     O ( 1.00)

     No symmetry found


                                    s                        frac. trans.

      isym =  1     identity                                     

 cryst.   s( 1) = (     1          0          0      )
                  (     0          1          0      )
                  (     0          0          1      )

 cart.    s( 1) = (  1.0000000  0.0000000  0.0000000 )
                  (  0.0000000  1.0000000  0.0000000 )
                  ( -0.0000000  0.0000000  1.0000000 )


     point group C_1 (1)    
     there are  1 classes
     the character table:

       E    
A      1.00

     the symmetry operations in each class:
     E        1

   Cartesian axes

     site n.     atom                  positions (alat units)
         1           Mg  tau(   1) = (    0.00008988579   -0.00064878965   -0.00016637767  )
         2           O   tau(   2) = (    0.17519080738    0.17735563275    0.17726731633  )
         3           Mg  tau(   3) = (    0.17815469280    0.17848402953    0.00059057200  )
         4           O   tau(   4) = (    0.35363678132    0.35442095061    0.17703152816  )
         5           Mg  tau(   5) = (    0.35268567645    0.35254358433    0.00181005918  )
         6           O   tau(   6) = (    0.52819585855    0.53085170557    0.17525818075  )
         7           Ca  tau(   7) = (    0.52908745275    0.53043273076    0.00074634690  )
         8           O   tau(   8) = (    0.70817107049    0.70786082755    0.17684415314  )
         9           Ca  tau(   9) = (    0.17873232223   -0.00027920954    0.17547845404  )
        10           O   tau(  10) = (    0.35502479804    0.17852908695    0.35509520146  )
        11           Ca  tau(  11) = (    0.35443470447    0.17760229826    0.17781933256  )
        12           O   tau(  12) = (    0.53075557207    0.35343314071    0.35509677241  )
        13           Ca  tau(  13) = (    0.52931993980    0.35426702091    0.17816799003  )
        14           O   tau(  14) = (    0.70565970003    0.53177940615    0.35224597842  )
        15           Mg  tau(  15) = (    0.70849070614    0.53277517331    0.17853346835  )
        16           O   tau(  16) = (    0.88553271887    0.70746055597    0.35307670255  )
        17           Ca  tau(  17) = (    0.35471161475    0.00135924728    0.35313707494  )
        18           O   tau(  18) = (    0.53011943331    0.17981572036    0.52919979998  )
        19           Ca  tau(  19) = (    0.52918109405    0.17720840997    0.35422157067  )
        20           O   tau(  20) = (    0.70748347935    0.35649039292    0.53089028017  )
        21           Mg  tau(  21) = (    0.70634905509    0.35552601798    0.35527475717  )
        22           O   tau(  22) = (    0.88462644627    0.53205495536    0.53018937376  )
        23           Ca  tau(  23) = (    0.88370671904    0.52993072427    0.35388923704  )
        24           O   tau(  24) = (    1.06229843967    0.71024903658    0.52938589895  )
        25           Ca  tau(  25) = (    0.53131693632    0.00090661498    0.53111350410  )
        26           O   tau(  26) = (    0.71034162987    0.17841517515    0.70836365889  )
        27           Mg  tau(  27) = (    0.70645680173    0.17980954180    0.52872035583  )
        28           O   tau(  28) = (    0.88614785960    0.35649632123    0.70494170153  )
        29           Mg  tau(  29) = (    0.88611129673    0.35398665620    0.53028607777  )
        30           O   tau(  30) = (    1.06259543633    0.53280233294    0.70769625406  )
        31           Mg  tau(  31) = (    1.06236188630    0.53142915604    0.53067400976  )
        32           O   tau(  32) = (    1.23697111238    0.70817195722    0.70792688587  )
        33           Mg  tau(  33) = (   -0.00190411088    0.17536288777    0.17795296813  )
        34           O   tau(  34) = (    0.17909339682    0.35346196906    0.35409857674  )
        35           Ca  tau(  35) = (    0.17708370394    0.35569944618    0.17784214656  )
        36           O   tau(  36) = (    0.35209733809    0.52930489831    0.35305919611  )
        37           Mg  tau(  37) = (    0.35378026196    0.52971050144    0.17758864840  )
        38           O   tau(  38) = (    0.53192739628    0.70836782459    0.35231721949  )
        39           Mg  tau(  39) = (    0.53166417225    0.70961120017    0.17552242744  )
        40           O   tau(  40) = (    0.70805592223    0.88706968254    0.35356309632  )
        41           Mg  tau(  41) = (    0.17705260571    0.17707998726    0.35522953846  )
        42           O   tau(  42) = (    0.35588840003    0.35354218852    0.52916427116  )
        43           Mg  tau(  43) = (    0.35471957702    0.35523236735    0.35469893762  )
        44           O   tau(  44) = (    0.52988519941    0.53193144672    0.52816274261  )
        45           Mg  tau(  45) = (    0.53101787661    0.53174337477    0.35353847061  )
        46           O   tau(  46) = (    0.70932051218    0.70952501519    0.53060439967  )
        47           Mg  tau(  47) = (    0.70545167230    0.70930690165    0.35400401748  )
        48           O   tau(  48) = (    0.88585248045    0.88658151895    0.53047232818  )
        49           Mg  tau(  49) = (    0.35546914663    0.17640884201    0.53077228323  )
        50           O   tau(  50) = (    0.53097258545    0.35476744143    0.70506237214  )
        51           Mg  tau(  51) = (    0.53181545983    0.35336568842    0.53039322538  )
        52           O   tau(  52) = (    0.70962521868    0.53233652104    0.70569153418  )
        53           Mg  tau(  53) = (    0.70852100278    0.53316688916    0.52809071780  )
        54           O   tau(  54) = (    0.88487984245    0.70849876154    0.70583739302  )
        55           Mg  tau(  55) = (    0.88281322251    0.70856192736    0.53047904059  )
        56           O   tau(  56) = (    1.06284670159    0.88458070362    0.70736333469  )
        57           Ca  tau(  57) = (    0.53084269325    0.17744950095    0.70815348574  )
        58           O   tau(  58) = (    0.70980428961    0.35533229221    0.88283374208  )
        59           Mg  tau(  59) = (    0.70963498067    0.35711802450    0.70540113190  )
        60           O   tau(  60) = (    0.88336539349    0.53291590532    0.88265390983  )
        61           Ca  tau(  61) = (    0.88419653907    0.53275158714    0.70588159001  )
        62           O   tau(  62) = (    1.06276684264    0.71112199973    0.88220056952  )
        63           Ca  tau(  63) = (    1.06329066579    0.70803398561    0.70840261719  )
        64           O   tau(  64) = (    1.23761256967    0.88426336102    0.88115257147  )
        65           Mg  tau(  65) = (   -0.00059378831    0.35505926623    0.35376092773  )
        66           O   tau(  66) = (    0.17521232849    0.53060393142    0.53082586285  )
        67           Mg  tau(  67) = (    0.17616178496    0.53034302198    0.35200473986  )
        68           O   tau(  68) = (    0.35354361791    0.70690667971    0.53024523303  )
        69           Ca  tau(  69) = (    0.35296842602    0.70979412457    0.35166271266  )
        70           O   tau(  70) = (    0.53124698330    0.88422863710    0.53070135540  )
        71           Mg  tau(  71) = (    0.53105427617    0.88619989485    0.35251489075  )
        72           O   tau(  72) = (    0.70525348720    1.06297758633    0.52950415936  )
        73           Mg  tau(  73) = (    0.17775513607    0.35634412702    0.52866370792  )
        74           O   tau(  74) = (    0.35539593404    0.53178508236    0.70661924149  )
        75           Mg  tau(  75) = (    0.35304004214    0.53244923256    0.52965994801  )
        76           O   tau(  76) = (    0.52983915448    0.70861220612    0.70698791845  )
        77           Ca  tau(  77) = (    0.52943773047    0.70978583406    0.53123067694  )
        78           O   tau(  78) = (    0.70760367025    0.88506021855    0.70689575508  )
        79           Mg  tau(  79) = (    0.70533504499    0.88500356053    0.53048537969  )
        80           O   tau(  80) = (    0.88565843595    1.06151987421    0.70546800794  )
        81           Ca  tau(  81) = (    0.35415602478    0.35344329517    0.70771709279  )
        82           O   tau(  82) = (    0.53281689957    0.53282460182    0.88377317076  )
        83           Mg  tau(  83) = (    0.53111990429    0.53038572655    0.70472830894  )
        84           O   tau(  84) = (    0.70656998836    0.70823950732    0.88181676287  )
        85           Mg  tau(  85) = (    0.70864022864    0.70851295582    0.70469997564  )
        86           O   tau(  86) = (    0.88573837188    0.88642528974    0.88123382998  )
        87           Ca  tau(  87) = (    0.88489534451    0.88372438803    0.70782525305  )
        88           O   tau(  88) = (    1.06092415231    1.06410275836    0.88244039440  )
        89           Ca  tau(  89) = (    0.53217786861    0.35727829884    0.88317546283  )
        90           O   tau(  90) = (    0.70930023844    0.53173524025    1.05819345261  )
        91           Mg  tau(  91) = (    0.70649846198    0.53126108626    0.88349314077  )
        92           O   tau(  92) = (    0.88358747397    0.70831316419    1.05839630418  )
        93           Ca  tau(  93) = (    0.88459896907    0.70774320898    0.88455483750  )
        94           O   tau(  94) = (    1.06279027661    0.88443551533    1.06083108547  )
        95           Ca  tau(  95) = (    1.06125758858    0.88575524897    0.88237115687  )
        96           O   tau(  96) = (    1.23760260403    1.06184436175    1.05898392326  )
        97           Ca  tau(  97) = (    0.00081105674    0.53315798825    0.52763546283  )
        98           O   tau(  98) = (    0.17598913523    0.70713160023    0.70521919235  )
        99           Ca  tau(  99) = (    0.17704174212    0.70954543660    0.52968142601  )
       100           O   tau( 100) = (    0.35566499155    0.88687563160    0.70787946945  )
       101           Mg  tau( 101) = (    0.35216194500    0.88599014081    0.52836761259  )
       102           O   tau( 102) = (    0.52923785497    1.06325192098    0.70791127352  )
       103           Mg  tau( 103) = (    0.52872186841    1.06357836853    0.52887406516  )
       104           O   tau( 104) = (    0.70766259115    1.24065061432    0.70434469666  )
       105           Ca  tau( 105) = (    0.17716998296    0.53041130249    0.70657770289  )
       106           O   tau( 106) = (    0.35506138301    0.70753305395    0.88268149674  )
       107           Mg  tau( 107) = (    0.35534213532    0.70874694843    0.70658943576  )
       108           O   tau( 108) = (    0.53093348295    0.88639259881    0.88097496283  )
       109           Mg  tau( 109) = (    0.53038391568    0.88634099112    0.70422025073  )
       110           O   tau( 110) = (    0.70598954227    1.06153523877    0.88377679453  )
       111           Mg  tau( 111) = (    0.70662188751    1.06174564826    0.70672112726  )
       112           O   tau( 112) = (    0.88426622061    1.23856054304    0.88085026657  )
       113           Mg  tau( 113) = (    0.35328595724    0.53085701118    0.88100679494  )
       114           O   tau( 114) = (    0.53130582331    0.71077636821    1.06063240554  )
       115           Ca  tau( 115) = (    0.53336959683    0.70876640163    0.88328903850  )
       116           O   tau( 116) = (    0.70693116280    0.88711058956    1.05884944715  )
       117           Mg  tau( 117) = (    0.70779751396    0.88386283810    0.88474491360  )
       118           O   tau( 118) = (    0.88397157162    1.06177150505    1.05818758296  )
       119           Ca  tau( 119) = (    0.88549064159    1.06211999650    0.88378384402  )
       120           O   tau( 120) = (    1.06066116510    1.23896033856    1.05776383487  )
       121           Mg  tau( 121) = (    0.53129989927    0.53386788350    1.06060146639  )
       122           O   tau( 122) = (    0.70757898413    0.71071560955    1.23574919415  )
       123           Mg  tau( 123) = (    0.70759816517    0.70796045691    1.05793893472  )
       124           O   tau( 124) = (    0.88422363411    0.88596683724    1.23419957858  )
       125           Ca  tau( 125) = (    0.88480031867    0.88464157967    1.05819223452  )
       126           O   tau( 126) = (    1.06316102497    1.06146764736    1.23757066102  )
       127           Mg  tau( 127) = (    1.06372789854    1.06386987451    1.05869065099  )
       128           O   tau( 128) = (    1.24053686017    1.23879977814    1.23462170942  )

   Crystallographic axes

     site n.     atom                  positions (cryst. coord.)
         1           Mg  tau(   1) = (   -0.00063959327    0.00040340631   -0.00027750164  )
         2           O   tau(   2) = (    0.12684339968    0.12411714251    0.12337414011  )
         3           Mg  tau(   3) = (    0.00041029582    0.00047864280    0.25171645680  )
         4           O   tau(   4) = (    0.12546047258    0.12521778540    0.37487911813  )
         5           Mg  tau(   5) = (    0.00070543964    0.00196075971    0.49729591388  )
         6           O   tau(   6) = (    0.12529051678    0.12293119591    0.62428151003  )
         7           Ca  tau(   7) = (    0.00076421334    0.00045003852    0.74852795823  )
         8           O   tau(   8) = (    0.12407621134    0.12644066852    0.87553325587  )
         9           Ca  tau(   9) = (   -0.00237039116    0.25062332803    0.00143998980  )
        10           O   tau(  10) = (    0.12638339092    0.37615617341    0.12495199796  )
        11           Ca  tau(  11) = (    0.00058915930    0.25103120228    0.24975520146  )
        12           O   tau(  12) = (    0.12556341681    0.37702956143    0.37284126703  )
        13           Ca  tau(  13) = (    0.00185659010    0.25031074767    0.49804678368  )
        14           O   tau(  14) = (    0.12573890152    0.37287413229    0.62460794979  )
        15           Mg  tau(  15) = (    0.00140559955    0.25133140950    0.75065778479  )
        16           O   tau(  16) = (    0.12312420924    0.37671377742    0.87538402888  )
        17           Ca  tau(  17) = (    0.00010538221    0.49949006967    0.00074455903  )
        18           O   tau(  18) = (    0.12671946318    0.62213246189    0.12590632434  )
        19           Ca  tau(  19) = (    0.00161220746    0.49957122330    0.24764286772  )
        20           O   tau(  20) = (    0.12719045999    0.62410600153    0.37500294147  )
        21           Mg  tau(  21) = (    0.00293076833    0.49979689993    0.49821615138  )
        22           O   tau(  22) = (    0.12534022321    0.62501504097    0.62485584687  )
        23           Ca  tau(  23) = (   -0.00037531600    0.50119149840    0.74788602193  )
        24           O   tau(  24) = (    0.12489994014    0.62437115480    0.87701604291  )
        25           Ca  tau(  25) = (    0.00088664274    0.75049868998   -0.00121416173  )
        26           O   tau(  26) = (    0.12511331362    0.87720581554    0.12498822696  )
        27           Mg  tau(  27) = (    0.00161256905    0.74644095995    0.25078799514  )
        28           O   tau(  28) = (    0.12405878735    0.87347109359    0.37760999951  )
        29           Mg  tau(  29) = (   -0.00138905405    0.75170654368    0.49982349199  )
        30           O   tau(  30) = (    0.12567150872    0.87580927430    0.62504288300  )
        31           Mg  tau(  31) = (   -0.00051058188    0.75143046842    0.74960192988  )
        32           O   tau(  32) = (    0.12630130752    0.87555847976    0.87214187883  )
        33           Mg  tau(  33) = (    0.25122073932    0.00082863340   -0.00360356598  )
        34           O   tau(  34) = (    0.37368630207    0.12773271306    0.12519438500  )
        35           Ca  tau(  35) = (    0.25185302041    0.00009376943    0.25051031380  )
        36           O   tau(  36) = (    0.37472137414    0.12528044550    0.37256125688  )
        37           Mg  tau(  37) = (    0.24953846338    0.00209918523    0.49863087906  )
        38           O   tau(  38) = (    0.37341132038    0.12559275676    0.62681685880  )
        39           Mg  tau(  39) = (    0.24925906130   -0.00049136992    0.75304508185  )
        40           O   tau(  40) = (    0.37587312877    0.12494900315    0.87679109680  )
        41           Mg  tau(  41) = (    0.25137485762    0.25147432474   -0.00186913706  )
        42           O   tau(  42) = (    0.37264808967    0.37644130313    0.12581349986  )
        43           Mg  tau(  43) = (    0.25110194503    0.25104926040    0.25006424570  )
        44           O   tau(  44) = (    0.37480565093    0.37292193136    0.37565668597  )
        45           Mg  tau(  45) = (    0.25019219767    0.25036883870    0.50031664801  )
        46           O   tau(  46) = (    0.37499210465    0.37624272928    0.62633311272  )
        47           Mg  tau(  47) = (    0.25249653311    0.24877810941    0.74884243504  )
        48           O   tau(  48) = (    0.37503061695    0.37607002630    0.87640636243  )
        49           Mg  tau(  49) = (    0.24899664908    0.50219630044   -0.00097518957  )
        50           O   tau(  50) = (    0.37421847473    0.62372177406    0.12544352125  )
        51           Mg  tau(  51) = (    0.24892121104    0.50178798883    0.24907178386  )
        52           O   tau(  52) = (    0.37365768356    0.62522489431    0.37683679150  )
        53           Mg  tau(  53) = (    0.24923791733    0.49826758535    0.50275108134  )
        54           O   tau(  54) = (    0.37416528928    0.62497647990    0.62517767988  )
        55           Mg  tau(  55) = (    0.25147291461    0.49946569925    0.74827703523  )
        56           O   tau(  56) = (    0.37367467445    0.62767775363    0.87439743678  )
        57           Ca  tau(  57) = (    0.25128236891    0.75086026233   -0.00232451067  )
        58           O   tau(  58) = (    0.37399780065    0.87544156526    0.12592291509  )
        59           Mg  tau(  59) = (    0.24971035202    0.74859031666    0.25305416234  )
        60           O   tau(  60) = (    0.37647667538    0.87276343058    0.37430479695  )
        61           Ca  tau(  61) = (    0.25057196273    0.74846144890    0.50029383414  )
        62           O   tau(  62) = (    0.37506922984    0.87358112903    0.62744637926  )
        63           Ca  tau(  63) = (    0.24942394033    0.75322704253    0.74903739625  )
        64           O   tau(  64) = (    0.37288731348    0.87432976722    0.87420840701  )
        65           Mg  tau(  65) = (    0.50170816551   -0.00064345225   -0.00034707479  )
        66           O   tau(  66) = (    0.62669402233    0.12504259608    0.12232379970  )
        67           Mg  tau(  67) = (    0.49918630796   -0.00055646259    0.24978281026  )
        68           O   tau(  68) = (    0.62460949324    0.12635608163    0.37345299137  )
        69           Ca  tau(  69) = (    0.50057278293   -0.00237215395    0.50189370951  )
        70           O   tau(  70) = (    0.62442326384    0.12724012118    0.62412379020  )
        71           Mg  tau(  71) = (    0.49974945889   -0.00029159027    0.75190508016  )
        72           O   tau(  72) = (    0.62668938006    0.12333558815    0.87436730565  )
        73           Mg  tau(  73) = (    0.50030581711    0.24819880198    0.00233772052  )
        74           O   tau(  74) = (    0.62455112989    0.37588461225    0.12559864836  )
        75           Mg  tau(  75) = (    0.50135394048    0.24861343495    0.25005574620  )
        76           O   tau(  76) = (    0.62626015938    0.37475135343    0.37367874952  )
        77           Ca  tau(  77) = (    0.50289128086    0.24935243532    0.49902328599  )
        78           O   tau(  78) = (    0.62502517898    0.37590719905    0.62416359316  )
        79           Mg  tau(  79) = (    0.50164600657    0.24959418876    0.74778247436  )
        80           O   tau(  80) = (    0.62264712239    0.37631553144    0.87581001697  )
        81           Ca  tau(  81) = (    0.50026562778    0.50155096157   -0.00226258992  )
        82           O   tau(  82) = (    0.62522647821    0.62583586816    0.12585597255  )
        83           Mg  tau(  83) = (    0.49789470466    0.49974385945    0.25006341667  )
        84           O   tau(  84) = (    0.62477975804    0.62356649362    0.37410020524  )
        85           Mg  tau(  85) = (    0.49806352311    0.49958805554    0.50151878739  )
        86           O   tau(  86) = (    0.62343108314    0.62414213280    0.62715481921  )
        87           Ca  tau(  87) = (    0.49930202092    0.50282425224    0.74777790797  )
        88           O   tau(  88) = (    0.62580866636    0.62352660248    0.87576619506  )
        89           Ca  tau(  89) = (    0.50128904296    0.74875655062    0.00160133401  )
        90           O   tau(  90) = (    0.62312572880    0.87469254062    0.12588557096  )
        91           Mg  tau(  91) = (    0.50104011721    0.74950637198    0.24761820400  )
        92           O   tau(  92) = (    0.62465169559    0.87350749590    0.37379689703  )
        93           Ca  tau(  93) = (    0.50040873463    0.75169161425    0.49754518855  )
        94           O   tau(  94) = (    0.62395885063    0.87769658373    0.62327285927  )
        95           Ca  tau(  95) = (    0.49957934190    0.74948378628    0.74984084690  )
        96           O   tau(  96) = (    0.62424813693    0.87484705542    0.87359869191  )
        97           Ca  tau(  97) = (    0.74963112567   -0.00228928960    0.00321841388  )
        98           O   tau(  98) = (    0.87431933879    0.12442760573    0.12396556003  )
        99           Ca  tau(  99) = (    0.75095294644   -0.00066292865    0.25105887685  )
       100           O   tau( 100) = (    0.87600904275    0.12655652483    0.37617845216  )
       101           Mg  tau( 101) = (    0.75072130042   -0.00223776473    0.50054116351  )
       102           O   tau( 102) = (    0.87777691008    0.12488776522    0.62356398710  )
       103           Mg  tau( 103) = (    0.75156776393   -0.00231414370    0.75055705132  )
       104           O   tau( 104) = (    0.87428536860    0.12338291793    0.87765493001  )
       105           Ca  tau( 105) = (    0.74965076044    0.25084590882   -0.00122353171  )
       106           O   tau( 106) = (    0.87359418900    0.37621409427    0.12471867162  )
       107           Mg  tau( 107) = (    0.74953395044    0.25103220403    0.25081125934  )
       108           O   tau( 108) = (    0.87425770736    0.37319007592    0.37671976499  )
       109           Mg  tau( 109) = (    0.74942194656    0.24784511238    0.50180087484  )
       110           O   tau( 110) = (    0.87606690405    0.37539851164    0.62231298481  )
       111           Mg  tau( 111) = (    0.75036678695    0.25049138099    0.74862798470  )
       112           O   tau( 112) = (    0.87286975995    0.37450493745    0.87558065118  )
       113           Mg  tau( 113) = (    0.74890019697    0.49836661185   -0.00037334245  )
       114           O   tau( 114) = (    0.87722268807    0.62434320339    0.12513867060  )
       115           Ca  tau( 115) = (    0.74873806295    0.50181022904    0.25109768035  )
       116           O   tau( 116) = (    0.87622334930    0.62287157496    0.37523266566  )
       117           Mg  tau( 117) = (    0.75000577162    0.50265544894    0.49717025695  )
       118           O   tau( 118) = (    0.87383519491    0.62437298138    0.62434593504  )
       119           Ca  tau( 119) = (    0.74948346108    0.50187057558    0.74950191850  )
       120           O   tau( 120) = (    0.87364904874    0.62401211577    0.87483126584  )
       121           Mg  tau( 121) = (    0.75227679624    0.74907279639   -0.00003521374  )
       122           O   tau( 122) = (    0.87649032465    0.87281848088    0.12525316773  )
       123           Mg  tau( 123) = (    0.74859538642    0.74903563589    0.24957227780  )
       124           O   tau( 124) = (    0.87417028427    0.87299608226    0.37513501172  )
       125           Ca  tau( 125) = (    0.74816758487    0.74987388529    0.49957959504  )
       126           O   tau( 126) = (    0.87388945236    0.87809798473    0.62331884751  )
       127           Mg  tau( 127) = (    0.74849135516    0.75030881619    0.75243406049  )
       128           O   tau( 128) = (    0.87153046776    0.87633542341    0.87618330784  )

     number of k points=     8  gaussian smearing, width (Ry)=  0.0050
                       cart. coord. in units 2pi/alat
        k(    1) = (   0.0000000   0.0000000   0.0000000), wk =   0.2500000
        k(    2) = (  -0.3531458  -0.3538317   0.3550281), wk =   0.2500000
        k(    3) = (  -0.3534225   0.3525994  -0.3535773), wk =   0.2500000
        k(    4) = (  -0.7065683  -0.0012323   0.0014508), wk =   0.2500000
        k(    5) = (   0.3537621  -0.3530870  -0.3541296), wk =   0.2500000
        k(    6) = (   0.0006163  -0.7069187   0.0008985), wk =   0.2500000
        k(    7) = (   0.0003396  -0.0004876  -0.7077069), wk =   0.2500000
        k(    8) = (  -0.3528062  -0.3543193  -0.3526787), wk =   0.2500000

                       cryst. coord.
        k(    1) = (   0.0000000   0.0000000   0.0000000), wk =   0.2500000
        k(    2) = (   0.0000000  -0.0000000  -0.5000000), wk =   0.2500000
        k(    3) = (  -0.0000000  -0.5000000   0.0000000), wk =   0.2500000
        k(    4) = (  -0.0000000  -0.5000000  -0.5000000), wk =   0.2500000
        k(    5) = (  -0.5000000   0.0000000   0.0000000), wk =   0.2500000
        k(    6) = (  -0.5000000  -0.0000000  -0.5000000), wk =   0.2500000
        k(    7) = (  -0.5000000  -0.5000000   0.0000000), wk =   0.2500000
        k(    8) = (  -0.5000000  -0.5000000  -0.5000000), wk =   0.2500000

     Dense  grid:   471115 G-vectors     FFT dimensions: ( 120, 120, 120)

     Smooth grid:   337209 G-vectors     FFT dimensions: ( 100, 100, 100)

     Largest allocated arrays     est. size (Mb)     dimensions
        Kohn-Sham Wavefunctions        49.52 Mb     (    5286,  614)
        NL pseudopotentials           163.17 Mb     (    5286, 2023)
        Each V/rho on FFT grid          3.30 Mb     (  216000)
        Each G-vector array             0.45 Mb     (   58890)
        G-vector shells                 0.45 Mb     (   58346)
     Largest temporary arrays     est. size (Mb)     dimensions
        Auxiliary wavefunctions       198.10 Mb     (    5286, 2456)
        Each subspace H/S matrix       92.04 Mb     (    2456, 2456)
        Each <psi_i|beta_j> matrix     18.95 Mb     (    2023,  614)
        Arrays for rho mixing          26.37 Mb     (  216000,    8)

     Check: negative/imaginary core charge=   -0.000003    0.000000

     Initial potential from superposition of free atoms

     starting charge 1012.16164, renormalised to 1024.00000
     Starting wfc are  701 randomized atomic wfcs

     total cpu time spent up to now is      613.1 secs

     Self-consistent Calculation

     iteration #  1     ecut=    40.00 Ry     beta=0.30
     Davidson diagonalization with overlap
     ethr =  1.00E-02,  avg # of iterations =  3.8

     total cpu time spent up to now is     2636.8 secs

     total energy              =   -8832.03849675 Ry
     Harris-Foulkes estimate   =   -8836.62105648 Ry
     estimated scf accuracy    <      23.77322322 Ry

     iteration #  2     ecut=    40.00 Ry     beta=0.30
     Davidson diagonalization with overlap
     ethr =  2.32E-03,  avg # of iterations =  1.0

     total cpu time spent up to now is     3998.7 secs

     total energy              =   -8828.61636512 Ry
     Harris-Foulkes estimate   =   -8832.72147251 Ry
     estimated scf accuracy    <      10.23329318 Ry

     iteration #  3     ecut=    40.00 Ry     beta=0.30
     Davidson diagonalization with overlap
     ethr =  9.99E-04,  avg # of iterations =  2.4

     total cpu time spent up to now is     5860.5 secs

     total energy              =   -8829.77328987 Ry
     Harris-Foulkes estimate   =   -8830.22288271 Ry
     estimated scf accuracy    <       1.40692538 Ry

     iteration #  4     ecut=    40.00 Ry     beta=0.30
     Davidson diagonalization with overlap
     ethr =  1.37E-04,  avg # of iterations =  7.9

     total cpu time spent up to now is     8209.2 secs

     total energy              =   -8829.50170286 Ry
     Harris-Foulkes estimate   =   -8829.85795676 Ry
     estimated scf accuracy    <       0.63227588 Ry

     iteration #  5     ecut=    40.00 Ry     beta=0.30
     Davidson diagonalization with overlap
     ethr =  6.17E-05,  avg # of iterations =  5.9

     total cpu time spent up to now is    10808.0 secs

     total energy              =   -8829.56224331 Ry
     Harris-Foulkes estimate   =   -8829.57951311 Ry
     estimated scf accuracy    <       0.08853581 Ry

     iteration #  6     ecut=    40.00 Ry     beta=0.30
     Davidson diagonalization with overlap
     ethr =  8.65E-06,  avg # of iterations =  8.0

     total cpu time spent up to now is    14182.5 secs

     total energy              =   -8829.55181200 Ry
     Harris-Foulkes estimate   =   -8829.57460190 Ry
     estimated scf accuracy    <       0.07803664 Ry

     iteration #  7     ecut=    40.00 Ry     beta=0.30
     Davidson diagonalization with overlap
     ethr =  7.62E-06,  avg # of iterations =  4.4

     total cpu time spent up to now is    16145.6 secs

     total energy              =   -8829.55460884 Ry
     Harris-Foulkes estimate   =   -8829.55848069 Ry
     estimated scf accuracy    <       0.01161670 Ry

     iteration #  8     ecut=    40.00 Ry     beta=0.30
     Davidson diagonalization with overlap
     ethr =  1.13E-06,  avg # of iterations =  6.4

     total cpu time spent up to now is    19007.7 secs

     total energy              =   -8829.55521643 Ry
     Harris-Foulkes estimate   =   -8829.55582445 Ry
     estimated scf accuracy    <       0.00285290 Ry

     iteration #  9     ecut=    40.00 Ry     beta=0.30
     Davidson diagonalization with overlap
     ethr =  2.79E-07,  avg # of iterations =  2.0

     total cpu time spent up to now is    20843.1 secs

     total energy              =   -8829.55499858 Ry
     Harris-Foulkes estimate   =   -8829.55564430 Ry
     estimated scf accuracy    <       0.00266172 Ry

     iteration # 10     ecut=    40.00 Ry     beta=0.30
     Davidson diagonalization with overlap
     ethr =  2.60E-07,  avg # of iterations =  2.0

     total cpu time spent up to now is    22293.4 secs

     total energy              =   -8829.55489258 Ry
     Harris-Foulkes estimate   =   -8829.55516937 Ry
     estimated scf accuracy    <       0.00097317 Ry

     iteration # 11     ecut=    40.00 Ry     beta=0.30
     Davidson diagonalization with overlap
     ethr =  9.50E-08,  avg # of iterations =  2.0

     total cpu time spent up to now is    24059.9 secs

     total energy              =   -8829.55492257 Ry
     Harris-Foulkes estimate   =   -8829.55500099 Ry
     estimated scf accuracy    <       0.00029370 Ry

     iteration # 12     ecut=    40.00 Ry     beta=0.30
     Davidson diagonalization with overlap
     ethr =  2.87E-08,  avg # of iterations =  2.0

     total cpu time spent up to now is    25503.4 secs

     total energy              =   -8829.55489002 Ry
     Harris-Foulkes estimate   =   -8829.55494621 Ry
     estimated scf accuracy    <       0.00011517 Ry

     iteration # 13     ecut=    40.00 Ry     beta=0.30
     Davidson diagonalization with overlap
     ethr =  1.12E-08,  avg # of iterations =  2.0

     total cpu time spent up to now is    27258.7 secs

     total energy              =   -8829.55490209 Ry
     Harris-Foulkes estimate   =   -8829.55490609 Ry
     estimated scf accuracy    <       0.00001097 Ry

     iteration # 14     ecut=    40.00 Ry     beta=0.30
     Davidson diagonalization with overlap
     ethr =  1.07E-09,  avg # of iterations =  2.0

     total cpu time spent up to now is    28875.7 secs

     total energy              =   -8829.55490311 Ry
     Harris-Foulkes estimate   =   -8829.55490424 Ry
     estimated scf accuracy    <       0.00000425 Ry

     iteration # 15     ecut=    40.00 Ry     beta=0.30
     Davidson diagonalization with overlap
     ethr =  4.15E-10,  avg # of iterations =  2.0

     total cpu time spent up to now is    30619.8 secs

     total energy              =   -8829.55490343 Ry
     Harris-Foulkes estimate   =   -8829.55490376 Ry
     estimated scf accuracy    <       0.00000125 Ry

     iteration # 16     ecut=    40.00 Ry     beta=0.30
     Davidson diagonalization with overlap
     ethr =  1.22E-10,  avg # of iterations =  1.8

     total cpu time spent up to now is    31859.0 secs

     total energy              =   -8829.55490334 Ry
     Harris-Foulkes estimate   =   -8829.55490351 Ry
     estimated scf accuracy    <       0.00000048 Ry

     iteration # 17     ecut=    40.00 Ry     beta=0.30
     Davidson diagonalization with overlap
     ethr =  4.67E-11,  avg # of iterations =  2.0

     total cpu time spent up to now is    33630.1 secs

     total energy              =   -8829.55490335 Ry
     Harris-Foulkes estimate   =   -8829.55490339 Ry
     estimated scf accuracy    <       0.00000018 Ry

     iteration # 18     ecut=    40.00 Ry     beta=0.30
     Davidson diagonalization with overlap
     ethr =  1.75E-11,  avg # of iterations =  2.0

     total cpu time spent up to now is    35269.0 secs

     total energy              =   -8829.55490335 Ry
     Harris-Foulkes estimate   =   -8829.55490337 Ry
     estimated scf accuracy    <       0.00000010 Ry

     iteration # 19     ecut=    40.00 Ry     beta=0.30
     Davidson diagonalization with overlap
     ethr =  9.59E-12,  avg # of iterations =  2.0

     total cpu time spent up to now is    36785.7 secs

     total energy              =   -8829.55490335 Ry
     Harris-Foulkes estimate   =   -8829.55490336 Ry
     estimated scf accuracy    <       0.00000005 Ry

     iteration # 20     ecut=    40.00 Ry     beta=0.30
     Davidson diagonalization with overlap
     ethr =  4.58E-12,  avg # of iterations =  2.0

     total cpu time spent up to now is    38463.3 secs

     total energy              =   -8829.55490335 Ry
     Harris-Foulkes estimate   =   -8829.55490335 Ry
     estimated scf accuracy    <       0.00000002 Ry

     iteration # 21     ecut=    40.00 Ry     beta=0.30
     Davidson diagonalization with overlap
     ethr =  1.60E-12,  avg # of iterations =  1.0

     total cpu time spent up to now is    39733.2 secs

     total energy              =   -8829.55490335 Ry
     Harris-Foulkes estimate   =   -8829.55490335 Ry
     estimated scf accuracy    <          7.4E-09 Ry

     iteration # 22     ecut=    40.00 Ry     beta=0.30
     Davidson diagonalization with overlap
     ethr =  7.25E-13,  avg # of iterations =  2.0

     total cpu time spent up to now is    41491.6 secs

     total energy              =   -8829.55490335 Ry
     Harris-Foulkes estimate   =   -8829.55490335 Ry
     estimated scf accuracy    <          3.6E-09 Ry

     iteration # 23     ecut=    40.00 Ry     beta=0.30
     Davidson diagonalization with overlap
     ethr =  3.53E-13,  avg # of iterations =  2.0

     total cpu time spent up to now is    43058.8 secs

     total energy              =   -8829.55490335 Ry
     Harris-Foulkes estimate   =   -8829.55490335 Ry
     estimated scf accuracy    <          1.8E-09 Ry

     iteration # 24     ecut=    40.00 Ry     beta=0.30
     Davidson diagonalization with overlap
     ethr =  1.79E-13,  avg # of iterations =  2.0

     total cpu time spent up to now is    44594.1 secs

     total energy              =   -8829.55490335 Ry
     Harris-Foulkes estimate   =   -8829.55490335 Ry
     estimated scf accuracy    <          7.5E-10 Ry

     iteration # 25     ecut=    40.00 Ry     beta=0.30
     Davidson diagonalization with overlap
     ethr =  1.00E-13,  avg # of iterations =  2.0

     total cpu time spent up to now is    46378.7 secs

     total energy              =   -8829.55490335 Ry
     Harris-Foulkes estimate   =   -8829.55490335 Ry
     estimated scf accuracy    <          2.1E-10 Ry

     iteration # 26     ecut=    40.00 Ry     beta=0.30
     Davidson diagonalization with overlap
     ethr =  1.00E-13,  avg # of iterations =  1.0

     total cpu time spent up to now is    47570.7 secs

     total energy              =   -8829.55490335 Ry
     Harris-Foulkes estimate   =   -8829.55490335 Ry
     estimated scf accuracy    <          1.1E-10 Ry

     iteration # 27     ecut=    40.00 Ry     beta=0.30
     Davidson diagonalization with overlap
     ethr =  1.00E-13,  avg # of iterations =  1.0

     total cpu time spent up to now is    48865.7 secs

     End of self-consistent calculation

          k = 0.0000 0.0000 0.0000 ( 42075 PWs)   bands (ev):

   -65.7421 -65.6554 -65.6310 -65.6171 -65.6119 -65.6048 -65.5984 -65.5944
   -65.5886 -65.5851 -65.5613 -65.5547 -65.5487 -65.5435 -65.5411 -65.5354
   -65.5329 -65.5157 -65.5125 -65.5097 -65.5083 -65.5021 -65.4964 -65.4899
   -65.4828 -65.4806 -65.4706 -65.4436 -65.4232 -65.4187 -65.3858 -65.3857
   -65.3677 -65.3459 -65.3367 -65.3359 -65.3164 -65.2897 -65.2146 -32.7069
   -32.7046 -32.6996 -32.6270 -32.6186 -32.6120 -32.5975 -32.5932 -32.5901
   -32.5852 -32.5827 -32.5801 -32.5778 -32.5766 -32.5718 -32.5680 -32.5672
   -32.5664 -32.5630 -32.5619 -32.5595 -32.5563 -32.5558 -32.5550 -32.5540
   -32.5505 -32.5501 -32.5474 -32.5465 -32.5422 -32.5278 -32.5224 -32.5214
   -32.5204 -32.5183 -32.5155 -32.5134 -32.5118 -32.5117 -32.5102 -32.5094
   -32.5074 -32.5060 -32.5024 -32.5002 -32.5000 -32.4977 -32.4963 -32.4955
   -32.4938 -32.4923 -32.4845 -32.4808 -32.4789 -32.4773 -32.4761 -32.4759
   -32.4737 -32.4723 -32.4716 -32.4704 -32.4699 -32.4686 -32.4673 -32.4660
   -32.4628 -32.4606 -32.4580 -32.4563 -32.4550 -32.4511 -32.4496 -32.4479
   -32.4462 -32.4456 -32.4428 -32.4406 -32.4400 -32.4386 -32.4303 -32.4248
   -32.4094 -32.4039 -32.4017 -32.3906 -32.3870 -32.3844 -32.3817 -32.3815
   -32.3743 -32.3550 -32.3493 -32.3491 -32.3470 -32.3468 -32.3465 -32.3373
   -32.3307 -32.3285 -32.3134 -32.3100 -32.3045 -32.3017 -32.3012 -32.3003
   -32.2998 -32.2980 -32.2948 -32.2863 -32.2771 -32.2739 -32.2580 -32.2535
   -32.2469 -32.1842 -32.1771 -32.1741 -29.2290 -29.1729 -29.1003 -29.0786
   -29.0778 -29.0584 -29.0283 -29.0180 -29.0064 -28.9984 -28.9899 -28.9515
   -28.9465 -28.9425 -28.9181 -28.9090 -28.8909 -28.8713 -28.8636 -28.8604
   -28.8301 -28.8209 -28.8119 -28.7635 -28.7556 -11.6076 -11.5701 -11.5507
   -11.5229 -11.4260 -11.3500 -11.3257 -11.3080 -11.2702 -11.2461 -11.2221
   -11.2057 -11.1797 -11.1511 -11.0909 -11.0473 -11.0316 -11.0115 -10.9880
   -10.9669 -10.9177 -10.9087 -10.8939 -10.8664 -10.8612 -10.8164 -10.7930
   -10.7741 -10.7472 -10.7260 -10.7200 -10.7119 -10.6903 -10.6800 -10.6520
   -10.6183 -10.6017 -10.5786 -10.5613 -10.5225 -10.5140 -10.4899 -10.4777
   -10.4417 -10.4230 -10.4090 -10.3995 -10.3786 -10.3720 -10.3605 -10.3360
   -10.3309 -10.3143 -10.2901 -10.2775 -10.2596 -10.2580 -10.2352 -10.2197
   -10.2130 -10.1867 -10.1758 -10.1648 -10.1632 -10.1454 -10.1286 -10.1231
   -10.1125 -10.0849 -10.0828 -10.0500 -10.0232 -10.0049  -9.9488  -9.9071
    -8.8334  -8.4383  -8.4123  -8.3604  -8.3206  -8.2924  -8.2458  -8.2420
    -8.1594  -8.1481  -8.1330  -8.1073  -8.0905  -8.0767  -8.0661  -8.0216
    -8.0210  -7.9845  -7.9751  -7.9309  -7.9287  -7.8973  -7.8672  -7.8511
    -7.8380  -7.8206  -7.8056  -7.7771  -7.7370  -7.7163  -7.6723  -7.6351
    -7.6236  -7.5821  -7.5713  -7.5568  -7.5374  -7.4949  -7.4931  -7.4782
    -7.4457  -7.4175  -7.4024  -7.3608  -7.3546  -7.3445  -7.3311  -7.3187
    -7.2743  -7.2597  -7.1726  -7.1520  -7.1396  -7.1266  -7.0731  -7.0617
    -7.0483  -7.0172  -6.9418  -6.8825  -6.8514  -6.8215  -6.7263  -6.7162
     3.2325   3.2810   3.5551   3.7676   3.9001   3.9474   3.9573   3.9608
     3.9703   4.0021   4.0134   4.0328   4.0434   4.0596   4.0860   4.1275
     4.1671   4.1845   4.2109   4.2623   4.2702   4.3044   4.3235   4.3269
     4.3957   4.4131   4.4286   4.4382   4.4696   4.5095   4.5193   4.5457
     4.6019   4.6393   4.6713   4.6792   4.7240   4.7640   4.7854   4.8339
     4.8539   4.8727   4.9325   4.9697   4.9813   4.9897   5.0405   5.0490
     5.0756   5.1027   5.1063   5.1182   5.1678   5.1797   5.2140   5.2272
     5.2608   5.3092   5.3273   5.3320   5.3754   5.3851   5.4037   5.4139
     5.4536   5.4774   5.5130   5.5180   5.5463   5.5536   5.5706   5.5811
     5.6021   5.6124   5.6264   5.6416   5.6614   5.6794   5.7040   5.7107
     5.7200   5.7403   5.7558   5.7705   5.7737   5.7979   5.8033   5.8312
     5.8460   5.8467   5.8733   5.8874   5.9013   5.9161   5.9219   5.9290
     5.9484   5.9740   6.0028   6.0181   6.0210   6.0377   6.0515   6.0711
     6.0934   6.1004   6.1019   6.1231   6.1375   6.1547   6.1664   6.1820
     6.1950   6.2222   6.2323   6.2333   6.2527   6.2611   6.2661   6.2934
     6.3029   6.3122   6.3273   6.3353   6.3560   6.3590   6.3727   6.3778
     6.4017   6.4047   6.4133   6.4255   6.4373   6.4481   6.4536   6.4597
     6.4765   6.4797   6.5025   6.5225   6.5387   6.5461   6.5509   6.5649
     6.5707   6.5776   6.5855   6.5908   6.6035   6.6132   6.6248   6.6411
     6.6489   6.6574   6.6709   6.6806   6.6924   6.7113   6.7184   6.7351
     6.7518   6.7676   6.7840   6.7938   6.8018   6.8108   6.8291   6.8338
     6.8463   6.8554   6.8693   6.8699   6.8838   6.8968   6.9059   6.9121
     6.9172   6.9276   6.9456   6.9685   6.9708   6.9911   7.0072   7.0266
     7.0381   7.0550   7.0888   7.1201   7.1387   7.3506   7.3726   7.3835
    11.0254  12.4417  12.4827  12.5317  12.8247  12.9135  13.0262  13.0973
    13.1746  13.1814  13.2186  13.2779  13.3142  13.3640  13.3972  13.4281
    13.5242  13.5658  13.5927  13.6283  13.6716  13.8468  13.8593  13.9250
    13.9433  13.9520  13.9865  14.0174  14.0703  14.1008  14.1287  14.1727
    14.2120  14.2673  14.2833  14.3404  14.3455  14.3859  14.4466  14.4587
    14.5016  14.5533  14.5814  14.6248  14.6740  14.6999  14.7419  14.7603
    14.7939  14.8263  14.8421  14.8748  14.8839  14.9294  14.9517  14.9618
    15.0063  15.0179  15.0471  15.0673  15.0867  15.1721  15.1956  15.2314
    15.2410  15.2505  15.2851  15.3060  15.3296  15.3510  15.4131  15.4400
    15.4585  15.4732  15.5101  15.5378  15.5846  15.5875  15.6132  15.6233
    15.6439  15.6593  15.6900  15.7239  15.7891  15.8088  15.8226  15.8448
    15.8886  15.9188  15.9607  15.9637  15.9933  16.0184  16.0673  16.0826
    16.1090  16.1218  16.1843  16.2090  16.2328  16.2513

     occupation numbers 
     1.0000   1.0000   1.0000   1.0000   1.0000   1.0000   1.0000   1.0000
     1.0000   1.0000   1.0000   1.0000   1.0000   1.0000   1.0000   1.0000
     1.0000   1.0000   1.0000   1.0000   1.0000   1.0000   1.0000   1.0000
     1.0000   1.0000   1.0000   1.0000   1.0000   1.0000   1.0000   1.0000
     1.0000   1.0000   1.0000   1.0000   1.0000   1.0000   1.0000   1.0000
     1.0000   1.0000   1.0000   1.0000   1.0000   1.0000   1.0000   1.0000
     1.0000   1.0000   1.0000   1.0000   1.0000   1.0000   1.0000   1.0000
     1.0000   1.0000   1.0000   1.0000   1.0000   1.0000   1.0000   1.0000
     1.0000   1.0000   1.0000   1.0000   1.0000   1.0000   1.0000   1.0000
     1.0000   1.0000   1.0000   1.0000   1.0000   1.0000   1.0000   1.0000
     1.0000   1.0000   1.0000   1.0000   1.0000   1.0000   1.0000   1.0000
     1.0000   1.0000   1.0000   1.0000   1.0000   1.0000   1.0000   1.0000
     1.0000   1.0000   1.0000   1.0000   1.0000   1.0000   1.0000   1.0000
     1.0000   1.0000   1.0000   1.0000   1.0000   1.0000   1.0000   1.0000
     1.0000   1.0000   1.0000   1.0000   1.0000   1.0000   1.0000   1.0000
     1.0000   1.0000   1.0000   1.0000   1.0000   1.0000   1.0000   1.0000
     1.0000   1.0000   1.0000   1.0000   1.0000   1.0000   1.0000   1.0000
     1.0000   1.0000   1.0000   1.0000   1.0000   1.0000   1.0000   1.0000
     1.0000   1.0000   1.0000   1.0000   1.0000   1.0000   1.0000   1.0000
     1.0000   1.0000   1.0000   1.0000   1.0000   1.0000   1.0000   1.0000
     1.0000   1.0000   1.0000   1.0000   1.0000   1.0000   1.0000   1.0000
     1.0000   1.0000   1.0000   1.0000   1.0000   1.0000   1.0000   1.0000
     1.0000   1.0000   1.0000   1.0000   1.0000   1.0000   1.0000   1.0000
     1.0000   1.0000   1.0000   1.0000   1.0000   1.0000   1.0000   1.0000
     1.0000   1.0000   1.0000   1.0000   1.0000   1.0000   1.0000   1.0000
     1.0000   1.0000   1.0000   1.0000   1.0000   1.0000   1.0000   1.0000
     1.0000   1.0000   1.0000   1.0000   1.0000   1.0000   1.0000   1.0000
     1.0000   1.0000   1.0000   1.0000   1.0000   1.0000   1.0000   1.0000
     1.0000   1.0000   1.0000   1.0000   1.0000   1.0000   1.0000   1.0000
     1.0000   1.0000   1.0000   1.0000   1.0000   1.0000   1.0000   1.0000
     1.0000   1.0000   1.0000   1.0000   1.0000   1.0000   1.0000   1.0000
     1.0000   1.0000   1.0000   1.0000   1.0000   1.0000   1.0000   1.0000
     1.0000   1.0000   1.0000   1.0000   1.0000   1.0000   1.0000   1.0000
     1.0000   1.0000   1.0000   1.0000   1.0000   1.0000   1.0000   1.0000
     1.0000   1.0000   1.0000   1.0000   1.0000   1.0000   1.0000   1.0000
     1.0000   1.0000   1.0000   1.0000   1.0000   1.0000   1.0000   1.0000
     1.0000   1.0000   1.0000   1.0000   1.0000   1.0000   1.0000   1.0000
     1.0000   1.0000   1.0000   1.0000   1.0000   1.0000   1.0000   1.0000
     1.0000   1.0000   1.0000   1.0000   1.0000   1.0000   1.0000   1.0000
     1.0000   1.0000   1.0000   1.0000   1.0000   1.0000   1.0000   1.0000
     1.0000   1.0000   1.0000   1.0000   1.0000   1.0000   1.0000   1.0000
     1.0000   1.0000   1.0000   1.0000   1.0000   1.0000   1.0000   1.0000
     1.0000   1.0000   1.0000   1.0000   1.0000   1.0000   1.0000   1.0000
     1.0000   1.0000   1.0000   1.0000   1.0000   1.0000   1.0000   1.0000
     1.0000   1.0000   1.0000   1.0000   1.0000   1.0000   1.0000   1.0000
     1.0000   1.0000   1.0000   1.0000   1.0000   1.0000   1.0000   1.0000
     1.0000   1.0000   1.0000   1.0000   1.0000   1.0000   1.0000   1.0000
     1.0000   1.0000   1.0000   1.0000   1.0000   1.0000   1.0000   1.0000
     1.0000   1.0000   1.0000   1.0000   1.0000   1.0000   1.0000   1.0000
     1.0000   1.0000   1.0000   1.0000   1.0000   1.0000   1.0000   1.0000
     1.0000   1.0000   1.0000   1.0000   1.0000   1.0000   1.0000   1.0000
     1.0000   1.0000   1.0000   1.0000   1.0000   1.0000   1.0000   1.0000
     1.0000   1.0000   1.0000   1.0000   1.0000   1.0000   1.0000   1.0000
     1.0000   1.0000   1.0000   1.0000   1.0000   1.0000   1.0000   1.0000
     1.0000   1.0000   1.0000   1.0000   1.0000   1.0000   1.0000   1.0000
     1.0000   1.0000   1.0000   1.0000   1.0000   1.0000   1.0000   1.0000
     1.0000   1.0000   1.0000   1.0000   1.0000   1.0000   1.0000   1.0000
     1.0000   1.0000   1.0000   1.0000   1.0000   1.0000   1.0000   1.0000
     1.0000   1.0000   1.0000   1.0000   1.0000   1.0000   1.0000   1.0000
     1.0000   1.0000   1.0000   1.0000   1.0000   1.0000   1.0000   1.0000
     1.0000   1.0000   1.0000   1.0000   1.0000   1.0000   1.0000   1.0000
     1.0000   1.0000   1.0000   1.0000   1.0000   1.0000   1.0000   1.0000
     1.0000   1.0000   1.0000   1.0000   1.0000   1.0000   1.0000   1.0000
     1.0000   1.0000   1.0000   1.0000   1.0000   1.0000   1.0000   1.0000
     0.0000   0.0000   0.0000   0.0000   0.0000   0.0000   0.0000   0.0000
     0.0000   0.0000   0.0000   0.0000   0.0000   0.0000   0.0000   0.0000
     0.0000   0.0000   0.0000   0.0000   0.0000   0.0000   0.0000   0.0000
     0.0000   0.0000   0.0000   0.0000   0.0000   0.0000   0.0000   0.0000
     0.0000   0.0000   0.0000   0.0000   0.0000   0.0000   0.0000   0.0000
     0.0000   0.0000   0.0000   0.0000   0.0000   0.0000   0.0000   0.0000
     0.0000   0.0000   0.0000   0.0000   0.0000   0.0000   0.0000   0.0000
     0.0000   0.0000   0.0000   0.0000   0.0000   0.0000   0.0000   0.0000
     0.0000   0.0000   0.0000   0.0000   0.0000   0.0000   0.0000   0.0000
     0.0000   0.0000   0.0000   0.0000   0.0000   0.0000   0.0000   0.0000
     0.0000   0.0000   0.0000   0.0000   0.0000   0.0000   0.0000   0.0000
     0.0000   0.0000   0.0000   0.0000   0.0000   0.0000   0.0000   0.0000
     0.0000   0.0000   0.0000   0.0000   0.0000   0.0000

          k =-0.3531-0.3538 0.3550 ( 42136 PWs)   bands (ev):

   -65.7421 -65.6554 -65.6310 -65.6171 -65.6119 -65.6048 -65.5984 -65.5944
   -65.5886 -65.5851 -65.5613 -65.5547 -65.5487 -65.5435 -65.5411 -65.5354
   -65.5329 -65.5157 -65.5125 -65.5097 -65.5083 -65.5021 -65.4964 -65.4899
   -65.4828 -65.4806 -65.4706 -65.4436 -65.4232 -65.4187 -65.3858 -65.3857
   -65.3677 -65.3459 -65.3367 -65.3359 -65.3164 -65.2897 -65.2146 -32.7069
   -32.7046 -32.6996 -32.6270 -32.6186 -32.6120 -32.5975 -32.5932 -32.5901
   -32.5852 -32.5827 -32.5801 -32.5778 -32.5766 -32.5718 -32.5680 -32.5672
   -32.5664 -32.5630 -32.5619 -32.5595 -32.5560 -32.5558 -32.5551 -32.5540
   -32.5505 -32.5503 -32.5474 -32.5465 -32.5422 -32.5277 -32.5224 -32.5214
   -32.5203 -32.5183 -32.5155 -32.5134 -32.5118 -32.5117 -32.5102 -32.5094
   -32.5074 -32.5060 -32.5024 -32.5002 -32.5000 -32.4977 -32.4963 -32.4955
   -32.4938 -32.4923 -32.4845 -32.4808 -32.4789 -32.4773 -32.4761 -32.4759
   -32.4737 -32.4723 -32.4715 -32.4704 -32.4699 -32.4686 -32.4673 -32.4660
   -32.4628 -32.4606 -32.4580 -32.4563 -32.4550 -32.4511 -32.4496 -32.4479
   -32.4462 -32.4456 -32.4428 -32.4406 -32.4400 -32.4386 -32.4303 -32.4248
   -32.4094 -32.4039 -32.4017 -32.3906 -32.3870 -32.3844 -32.3817 -32.3815
   -32.3743 -32.3550 -32.3493 -32.3491 -32.3470 -32.3468 -32.3465 -32.3373
   -32.3307 -32.3285 -32.3134 -32.3100 -32.3045 -32.3017 -32.3012 -32.3003
   -32.2998 -32.2980 -32.2948 -32.2863 -32.2771 -32.2739 -32.2580 -32.2535
   -32.2469 -32.1842 -32.1771 -32.1741 -29.2289 -29.1730 -29.1000 -29.0799
   -29.0767 -29.0584 -29.0281 -29.0171 -29.0076 -28.9990 -28.9897 -28.9515
   -28.9452 -28.9438 -28.9182 -28.9086 -28.8912 -28.8708 -28.8635 -28.8605
   -28.8302 -28.8208 -28.8120 -28.7636 -28.7557 -11.6041 -11.5542 -11.5366
   -11.5124 -11.4204 -11.3519 -11.3279 -11.3151 -11.2899 -11.2560 -11.2186
   -11.2007 -11.1862 -11.1632 -11.1586 -11.0756 -11.0331 -11.0243 -10.9965
   -10.9591 -10.9366 -10.9053 -10.8899 -10.8810 -10.8468 -10.8385 -10.7978
   -10.7524 -10.7458 -10.7169 -10.7013 -10.6875 -10.6647 -10.6466 -10.6182
   -10.6046 -10.5784 -10.5454 -10.5418 -10.5204 -10.4985 -10.4815 -10.4731
   -10.4503 -10.4301 -10.4234 -10.3876 -10.3772 -10.3661 -10.3406 -10.3301
   -10.3167 -10.3029 -10.2940 -10.2805 -10.2739 -10.2596 -10.2475 -10.2218
   -10.2057 -10.1967 -10.1924 -10.1755 -10.1643 -10.1425 -10.1313 -10.1200
   -10.1094 -10.0948 -10.0843 -10.0640 -10.0358 -10.0156 -10.0051  -9.9767
    -8.6332  -8.5554  -8.4289  -8.3966  -8.3149  -8.2861  -8.2444  -8.2283
    -8.1647  -8.1582  -8.1394  -8.1141  -8.1091  -8.0496  -8.0327  -8.0027
    -7.9874  -7.9745  -7.9375  -7.9111  -7.8913  -7.8742  -7.8639  -7.8624
    -7.8353  -7.8184  -7.7914  -7.7799  -7.7427  -7.7151  -7.7058  -7.6754
    -7.6650  -7.6444  -7.6161  -7.5848  -7.5747  -7.5679  -7.5262  -7.5144
    -7.4665  -7.4612  -7.4345  -7.4135  -7.3698  -7.2740  -7.2436  -7.2207
    -7.2101  -7.2006  -7.1804  -7.1499  -7.1349  -7.1070  -7.0752  -6.9982
    -6.9761  -6.9660  -6.9583  -6.9366  -6.8535  -6.8218  -6.7859  -6.7680
     3.4352   3.5077   3.5717   3.6099   3.7745   3.8090   3.9016   3.9198
     3.9424   3.9744   3.9952   4.0282   4.0411   4.0958   4.1112   4.1157
     4.1762   4.2031   4.2088   4.2419   4.2738   4.2935   4.3390   4.3413
     4.3554   4.3713   4.4181   4.4243   4.4886   4.5110   4.5280   4.5662
     4.5845   4.6160   4.6517   4.6739   4.6920   4.7099   4.7536   4.7709
     4.8000   4.8324   4.8623   4.9217   4.9320   4.9485   4.9637   4.9800
     5.0210   5.0543   5.0956   5.1204   5.1555   5.1694   5.2164   5.2248
     5.2529   5.2635   5.3049   5.3542   5.3880   5.4035   5.4137   5.4515
     5.4651   5.4917   5.5187   5.5346   5.5548   5.5678   5.5971   5.6172
     5.6350   5.6478   5.6566   5.6971   5.6991   5.7330   5.7465   5.7617
     5.7934   5.7965   5.8437   5.8467   5.8658   5.8820   5.8987   5.9013
     5.9194   5.9375   5.9502   5.9658   5.9697   5.9827   6.0093   6.0213
     6.0279   6.0407   6.0459   6.0558   6.0794   6.0992   6.1031   6.1122
     6.1189   6.1423   6.1506   6.1708   6.1781   6.1826   6.1927   6.2007
     6.2226   6.2253   6.2298   6.2567   6.2607   6.2663   6.2862   6.2922
     6.3026   6.3145   6.3196   6.3345   6.3497   6.3630   6.3709   6.3862
     6.3920   6.4008   6.4062   6.4201   6.4300   6.4392   6.4568   6.4608
     6.4773   6.4815   6.4863   6.4959   6.5045   6.5132   6.5215   6.5276
     6.5485   6.5513   6.5642   6.5730   6.5867   6.5964   6.6035   6.6062
     6.6097   6.6199   6.6327   6.6502   6.6717   6.6746   6.6911   6.6976
     6.6992   6.7136   6.7301   6.7330   6.7457   6.7536   6.7620   6.7804
     6.7846   6.8092   6.8182   6.8322   6.8587   6.8655   6.8908   6.8998
     6.9105   6.9281   6.9473   6.9579   6.9752   6.9913   6.9930   7.0289
     7.0398   7.0461   7.0649   7.0749   7.1883   7.2227   7.2345   7.2510
    11.7332  11.8856  12.6766  12.7245  12.7978  12.8391  12.9506  13.0000
    13.0458  13.0729  13.1141  13.2182  13.3248  13.3650  13.4220  13.4488
    13.5485  13.6322  13.6694  13.8094  13.8220  13.8575  13.8841  13.9557
    13.9929  14.0540  14.0707  14.0922  14.1315  14.1830  14.2088  14.2274
    14.2940  14.3114  14.3385  14.3780  14.4139  14.4391  14.4479  14.4601
    14.5053  14.5163  14.5949  14.5982  14.6310  14.7076  14.7151  14.7416
    14.7498  14.7859  14.8261  14.8383  14.8652  14.8828  14.9014  14.9200
    14.9359  14.9497  14.9894  15.0370  15.0845  15.0908  15.1355  15.1442
    15.1626  15.1819  15.2005  15.2185  15.2520  15.2883  15.3225  15.3693
    15.4051  15.4209  15.4245  15.4661  15.5330  15.5608  15.5904  15.6120
    15.6324  15.6578  15.6763  15.7073  15.7408  15.7810  15.7915  15.8113
    15.8745  15.9026  15.9248  15.9390  15.9819  16.0361  16.0687  16.0796
    16.0920  16.1191  16.1745  16.1879  16.2508  16.3121

     occupation numbers 
     1.0000   1.0000   1.0000   1.0000   1.0000   1.0000   1.0000   1.0000
     1.0000   1.0000   1.0000   1.0000   1.0000   1.0000   1.0000   1.0000
     1.0000   1.0000   1.0000   1.0000   1.0000   1.0000   1.0000   1.0000
     1.0000   1.0000   1.0000   1.0000   1.0000   1.0000   1.0000   1.0000
     1.0000   1.0000   1.0000   1.0000   1.0000   1.0000   1.0000   1.0000
     1.0000   1.0000   1.0000   1.0000   1.0000   1.0000   1.0000   1.0000
     1.0000   1.0000   1.0000   1.0000   1.0000   1.0000   1.0000   1.0000
     1.0000   1.0000   1.0000   1.0000   1.0000   1.0000   1.0000   1.0000
     1.0000   1.0000   1.0000   1.0000   1.0000   1.0000   1.0000   1.0000
     1.0000   1.0000   1.0000   1.0000   1.0000   1.0000   1.0000   1.0000
     1.0000   1.0000   1.0000   1.0000   1.0000   1.0000   1.0000   1.0000
     1.0000   1.0000   1.0000   1.0000   1.0000   1.0000   1.0000   1.0000
     1.0000   1.0000   1.0000   1.0000   1.0000   1.0000   1.0000   1.0000
     1.0000   1.0000   1.0000   1.0000   1.0000   1.0000   1.0000   1.0000
     1.0000   1.0000   1.0000   1.0000   1.0000   1.0000   1.0000   1.0000
     1.0000   1.0000   1.0000   1.0000   1.0000   1.0000   1.0000   1.0000
     1.0000   1.0000   1.0000   1.0000   1.0000   1.0000   1.0000   1.0000
     1.0000   1.0000   1.0000   1.0000   1.0000   1.0000   1.0000   1.0000
     1.0000   1.0000   1.0000   1.0000   1.0000   1.0000   1.0000   1.0000
     1.0000   1.0000   1.0000   1.0000   1.0000   1.0000   1.0000   1.0000
     1.0000   1.0000   1.0000   1.0000   1.0000   1.0000   1.0000   1.0000
     1.0000   1.0000   1.0000   1.0000   1.0000   1.0000   1.0000   1.0000
     1.0000   1.0000   1.0000   1.0000   1.0000   1.0000   1.0000   1.0000
     1.0000   1.0000   1.0000   1.0000   1.0000   1.0000   1.0000   1.0000
     1.0000   1.0000   1.0000   1.0000   1.0000   1.0000   1.0000   1.0000
     1.0000   1.0000   1.0000   1.0000   1.0000   1.0000   1.0000   1.0000
     1.0000   1.0000   1.0000   1.0000   1.0000   1.0000   1.0000   1.0000
     1.0000   1.0000   1.0000   1.0000   1.0000   1.0000   1.0000   1.0000
     1.0000   1.0000   1.0000   1.0000   1.0000   1.0000   1.0000   1.0000
     1.0000   1.0000   1.0000   1.0000   1.0000   1.0000   1.0000   1.0000
     1.0000   1.0000   1.0000   1.0000   1.0000   1.0000   1.0000   1.0000
     1.0000   1.0000   1.0000   1.0000   1.0000   1.0000   1.0000   1.0000
     1.0000   1.0000   1.0000   1.0000   1.0000   1.0000   1.0000   1.0000
     1.0000   1.0000   1.0000   1.0000   1.0000   1.0000   1.0000   1.0000
     1.0000   1.0000   1.0000   1.0000   1.0000   1.0000   1.0000   1.0000
     1.0000   1.0000   1.0000   1.0000   1.0000   1.0000   1.0000   1.0000
     1.0000   1.0000   1.0000   1.0000   1.0000   1.0000   1.0000   1.0000
     1.0000   1.0000   1.0000   1.0000   1.0000   1.0000   1.0000   1.0000
     1.0000   1.0000   1.0000   1.0000   1.0000   1.0000   1.0000   1.0000
     1.0000   1.0000   1.0000   1.0000   1.0000   1.0000   1.0000   1.0000
     1.0000   1.0000   1.0000   1.0000   1.0000   1.0000   1.0000   1.0000
     1.0000   1.0000   1.0000   1.0000   1.0000   1.0000   1.0000   1.0000
     1.0000   1.0000   1.0000   1.0000   1.0000   1.0000   1.0000   1.0000
     1.0000   1.0000   1.0000   1.0000   1.0000   1.0000   1.0000   1.0000
     1.0000   1.0000   1.0000   1.0000   1.0000   1.0000   1.0000   1.0000
     1.0000   1.0000   1.0000   1.0000   1.0000   1.0000   1.0000   1.0000
     1.0000   1.0000   1.0000   1.0000   1.0000   1.0000   1.0000   1.0000
     1.0000   1.0000   1.0000   1.0000   1.0000   1.0000   1.0000   1.0000
     1.0000   1.0000   1.0000   1.0000   1.0000   1.0000   1.0000   1.0000
     1.0000   1.0000   1.0000   1.0000   1.0000   1.0000   1.0000   1.0000
     1.0000   1.0000   1.0000   1.0000   1.0000   1.0000   1.0000   1.0000
     1.0000   1.0000   1.0000   1.0000   1.0000   1.0000   1.0000   1.0000
     1.0000   1.0000   1.0000   1.0000   1.0000   1.0000   1.0000   1.0000
     1.0000   1.0000   1.0000   1.0000   1.0000   1.0000   1.0000   1.0000
     1.0000   1.0000   1.0000   1.0000   1.0000   1.0000   1.0000   1.0000
     1.0000   1.0000   1.0000   1.0000   1.0000   1.0000   1.0000   1.0000
     1.0000   1.0000   1.0000   1.0000   1.0000   1.0000   1.0000   1.0000
     1.0000   1.0000   1.0000   1.0000   1.0000   1.0000   1.0000   1.0000
     1.0000   1.0000   1.0000   1.0000   1.0000   1.0000   1.0000   1.0000
     1.0000   1.0000   1.0000   1.0000   1.0000   1.0000   1.0000   1.0000
     1.0000   1.0000   1.0000   1.0000   1.0000   1.0000   1.0000   1.0000
     1.0000   1.0000   1.0000   1.0000   1.0000   1.0000   1.0000   1.0000
     1.0000   1.0000   1.0000   1.0000   1.0000   1.0000   1.0000   1.0000
     1.0000   1.0000   1.0000   1.0000   1.0000   1.0000   1.0000   1.0000
     0.0000   0.0000   0.0000   0.0000   0.0000   0.0000   0.0000   0.0000
     0.0000   0.0000   0.0000   0.0000   0.0000   0.0000   0.0000   0.0000
     0.0000   0.0000   0.0000   0.0000   0.0000   0.0000   0.0000   0.0000
     0.0000   0.0000   0.0000   0.0000   0.0000   0.0000   0.0000   0.0000
     0.0000   0.0000   0.0000   0.0000   0.0000   0.0000   0.0000   0.0000
     0.0000   0.0000   0.0000   0.0000   0.0000   0.0000   0.0000   0.0000
     0.0000   0.0000   0.0000   0.0000   0.0000   0.0000   0.0000   0.0000
     0.0000   0.0000   0.0000   0.0000   0.0000   0.0000   0.0000   0.0000
     0.0000   0.0000   0.0000   0.0000   0.0000   0.0000   0.0000   0.0000
     0.0000   0.0000   0.0000   0.0000   0.0000   0.0000   0.0000   0.0000
     0.0000   0.0000   0.0000   0.0000   0.0000   0.0000   0.0000   0.0000
     0.0000   0.0000   0.0000   0.0000   0.0000   0.0000   0.0000   0.0000
     0.0000   0.0000   0.0000   0.0000   0.0000   0.0000

          k =-0.3534 0.3526-0.3536 ( 42124 PWs)   bands (ev):

   -65.7421 -65.6554 -65.6310 -65.6171 -65.6119 -65.6048 -65.5984 -65.5944
   -65.5886 -65.5851 -65.5613 -65.5547 -65.5487 -65.5435 -65.5411 -65.5354
   -65.5329 -65.5157 -65.5125 -65.5097 -65.5083 -65.5021 -65.4964 -65.4899
   -65.4828 -65.4806 -65.4706 -65.4436 -65.4232 -65.4187 -65.3858 -65.3857
   -65.3677 -65.3459 -65.3367 -65.3359 -65.3164 -65.2897 -65.2146 -32.7069
   -32.7046 -32.6996 -32.6270 -32.6186 -32.6120 -32.5975 -32.5932 -32.5901
   -32.5852 -32.5827 -32.5801 -32.5778 -32.5766 -32.5718 -32.5680 -32.5672
   -32.5664 -32.5630 -32.5619 -32.5595 -32.5560 -32.5558 -32.5551 -32.5540
   -32.5505 -32.5503 -32.5474 -32.5465 -32.5422 -32.5277 -32.5224 -32.5214
   -32.5203 -32.5183 -32.5155 -32.5134 -32.5118 -32.5117 -32.5102 -32.5094
   -32.5074 -32.5060 -32.5024 -32.5002 -32.5000 -32.4977 -32.4963 -32.4955
   -32.4938 -32.4923 -32.4845 -32.4807 -32.4788 -32.4772 -32.4761 -32.4759
   -32.4739 -32.4723 -32.4718 -32.4704 -32.4699 -32.4686 -32.4674 -32.4660
   -32.4628 -32.4606 -32.4580 -32.4560 -32.4550 -32.4512 -32.4496 -32.4479
   -32.4463 -32.4456 -32.4428 -32.4406 -32.4401 -32.4386 -32.4303 -32.4247
   -32.4094 -32.4039 -32.4017 -32.3906 -32.3870 -32.3844 -32.3817 -32.3815
   -32.3743 -32.3550 -32.3493 -32.3491 -32.3469 -32.3468 -32.3465 -32.3373
   -32.3307 -32.3285 -32.3134 -32.3100 -32.3045 -32.3017 -32.3012 -32.3003
   -32.2998 -32.2980 -32.2948 -32.2863 -32.2771 -32.2739 -32.2580 -32.2535
   -32.2469 -32.1842 -32.1771 -32.1741 -29.2289 -29.1730 -29.0998 -29.0787
   -29.0782 -29.0584 -29.0288 -29.0181 -29.0051 -28.9998 -28.9890 -28.9515
   -28.9479 -28.9418 -28.9181 -28.9087 -28.8912 -28.8707 -28.8638 -28.8602
   -28.8302 -28.8206 -28.8121 -28.7636 -28.7557 -11.6025 -11.5541 -11.5369
   -11.5139 -11.4301 -11.3539 -11.3347 -11.2942 -11.2886 -11.2773 -11.2286
   -11.1924 -11.1595 -11.1309 -11.1158 -11.0851 -11.0760 -11.0284 -11.0192
   -10.9847 -10.9601 -10.9060 -10.8813 -10.8671 -10.8341 -10.8194 -10.8006
   -10.7613 -10.7301 -10.7252 -10.7125 -10.6821 -10.6733 -10.6488 -10.6156
   -10.5999 -10.5798 -10.5584 -10.5287 -10.5147 -10.5027 -10.4789 -10.4716
   -10.4626 -10.4380 -10.4085 -10.3924 -10.3687 -10.3498 -10.3448 -10.3324
   -10.3279 -10.3110 -10.2913 -10.2843 -10.2716 -10.2489 -10.2405 -10.2339
   -10.2221 -10.1942 -10.1853 -10.1692 -10.1570 -10.1473 -10.1318 -10.1154
   -10.1028 -10.0866 -10.0818 -10.0674 -10.0545 -10.0163 -10.0045  -9.9680
    -8.6134  -8.6054  -8.4148  -8.3634  -8.3274  -8.3049  -8.2501  -8.2296
    -8.1760  -8.1582  -8.1244  -8.1205  -8.0644  -8.0628  -8.0277  -8.0166
    -7.9814  -7.9632  -7.9407  -7.9234  -7.9184  -7.8960  -7.8808  -7.8433
    -7.8279  -7.8143  -7.8104  -7.7747  -7.7567  -7.7144  -7.6930  -7.6491
    -7.6485  -7.6178  -7.6067  -7.5871  -7.5707  -7.5670  -7.5264  -7.5100
    -7.4961  -7.4598  -7.4360  -7.3664  -7.3387  -7.3077  -7.2703  -7.2494
    -7.2264  -7.2105  -7.1808  -7.1516  -7.1297  -7.0832  -7.0760  -7.0349
    -6.9825  -6.9699  -6.9530  -6.8875  -6.8583  -6.8289  -6.7835  -6.7664
     3.4307   3.5066   3.5830   3.6135   3.7057   3.8617   3.8991   3.9210
     3.9372   3.9741   4.0059   4.0156   4.0375   4.0916   4.1286   4.1421
     4.1745   4.2010   4.2105   4.2471   4.2763   4.2939   4.3280   4.3424
     4.3732   4.4028   4.4203   4.4417   4.4467   4.4585   4.5376   4.5589
     4.5734   4.5937   4.6368   4.6603   4.7029   4.7264   4.7640   4.7670
     4.8122   4.8217   4.8528   4.8889   4.9200   4.9486   4.9965   5.0033
     5.0579   5.0859   5.0986   5.1247   5.1412   5.1558   5.1965   5.2373
     5.2934   5.3172   5.3339   5.3419   5.3600   5.3984   5.4189   5.4268
     5.4746   5.4926   5.5073   5.5234   5.5434   5.5695   5.5881   5.6094
     5.6209   5.6449   5.6752   5.6921   5.7069   5.7361   5.7467   5.7600
     5.8045   5.8197   5.8471   5.8491   5.8656   5.8766   5.8994   5.9105
     5.9225   5.9282   5.9551   5.9651   5.9659   5.9878   5.9888   5.9946
     6.0228   6.0346   6.0424   6.0552   6.0657   6.0868   6.0972   6.1031
     6.1193   6.1240   6.1448   6.1482   6.1616   6.1800   6.1893   6.2003
     6.2257   6.2343   6.2369   6.2532   6.2578   6.2697   6.2903   6.2937
     6.3048   6.3235   6.3302   6.3398   6.3464   6.3512   6.3728   6.3826
     6.3873   6.3983   6.4028   6.4174   6.4279   6.4437   6.4573   6.4634
     6.4750   6.4788   6.4847   6.4994   6.5107   6.5215   6.5276   6.5365
     6.5489   6.5548   6.5704   6.5712   6.5822   6.5997   6.6103   6.6148
     6.6232   6.6349   6.6476   6.6500   6.6544   6.6689   6.6798   6.6999
     6.7075   6.7227   6.7317   6.7359   6.7436   6.7499   6.7669   6.7855
     6.7868   6.7916   6.8055   6.8247   6.8277   6.8342   6.8676   6.8996
     6.9157   6.9348   6.9474   6.9643   6.9733   6.9924   7.0182   7.0288
     7.0296   7.0655   7.0786   7.1292   7.1745   7.1985   7.2477   7.2638
    11.7509  11.8579  12.6616  12.6923  12.7510  12.8348  12.9901  13.0315
    13.1195  13.1668  13.2047  13.2417  13.2627  13.2966  13.3858  13.3998
    13.5132  13.6054  13.6846  13.7514  13.8105  13.8509  13.9126  13.9556
    13.9792  14.0456  14.0695  14.1056  14.1690  14.1884  14.2007  14.2235
    14.2502  14.3027  14.3890  14.4025  14.4238  14.4751  14.4859  14.5174
    14.5212  14.5400  14.5959  14.5978  14.6491  14.6606  14.6837  14.6964
    14.7218  14.7768  14.8137  14.8264  14.8448  14.8805  14.8915  14.9183
    14.9548  14.9667  15.0010  15.0160  15.0529  15.0674  15.1124  15.1409
    15.1613  15.1902  15.2229  15.2529  15.2844  15.3108  15.3267  15.3766
    15.3989  15.4248  15.4402  15.4899  15.4980  15.5403  15.5668  15.6076
    15.6307  15.6649  15.6673  15.7180  15.7325  15.7530  15.8018  15.8211
    15.8396  15.8748  15.9038  15.9717  15.9869  15.9932  16.0219  16.0599
    16.1138  16.1592  16.1658  16.2049  16.2759  16.2994

     occupation numbers 
     1.0000   1.0000   1.0000   1.0000   1.0000   1.0000   1.0000   1.0000
     1.0000   1.0000   1.0000   1.0000   1.0000   1.0000   1.0000   1.0000
     1.0000   1.0000   1.0000   1.0000   1.0000   1.0000   1.0000   1.0000
     1.0000   1.0000   1.0000   1.0000   1.0000   1.0000   1.0000   1.0000
     1.0000   1.0000   1.0000   1.0000   1.0000   1.0000   1.0000   1.0000
     1.0000   1.0000   1.0000   1.0000   1.0000   1.0000   1.0000   1.0000
     1.0000   1.0000   1.0000   1.0000   1.0000   1.0000   1.0000   1.0000
     1.0000   1.0000   1.0000   1.0000   1.0000   1.0000   1.0000   1.0000
     1.0000   1.0000   1.0000   1.0000   1.0000   1.0000   1.0000   1.0000
     1.0000   1.0000   1.0000   1.0000   1.0000   1.0000   1.0000   1.0000
     1.0000   1.0000   1.0000   1.0000   1.0000   1.0000   1.0000   1.0000
     1.0000   1.0000   1.0000   1.0000   1.0000   1.0000   1.0000   1.0000
     1.0000   1.0000   1.0000   1.0000   1.0000   1.0000   1.0000   1.0000
     1.0000   1.0000   1.0000   1.0000   1.0000   1.0000   1.0000   1.0000
     1.0000   1.0000   1.0000   1.0000   1.0000   1.0000   1.0000   1.0000
     1.0000   1.0000   1.0000   1.0000   1.0000   1.0000   1.0000   1.0000
     1.0000   1.0000   1.0000   1.0000   1.0000   1.0000   1.0000   1.0000
     1.0000   1.0000   1.0000   1.0000   1.0000   1.0000   1.0000   1.0000
     1.0000   1.0000   1.0000   1.0000   1.0000   1.0000   1.0000   1.0000
     1.0000   1.0000   1.0000   1.0000   1.0000   1.0000   1.0000   1.0000
     1.0000   1.0000   1.0000   1.0000   1.0000   1.0000   1.0000   1.0000
     1.0000   1.0000   1.0000   1.0000   1.0000   1.0000   1.0000   1.0000
     1.0000   1.0000   1.0000   1.0000   1.0000   1.0000   1.0000   1.0000
     1.0000   1.0000   1.0000   1.0000   1.0000   1.0000   1.0000   1.0000
     1.0000   1.0000   1.0000   1.0000   1.0000   1.0000   1.0000   1.0000
     1.0000   1.0000   1.0000   1.0000   1.0000   1.0000   1.0000   1.0000
     1.0000   1.0000   1.0000   1.0000   1.0000   1.0000   1.0000   1.0000
     1.0000   1.0000   1.0000   1.0000   1.0000   1.0000   1.0000   1.0000
     1.0000   1.0000   1.0000   1.0000   1.0000   1.0000   1.0000   1.0000
     1.0000   1.0000   1.0000   1.0000   1.0000   1.0000   1.0000   1.0000
     1.0000   1.0000   1.0000   1.0000   1.0000   1.0000   1.0000   1.0000
     1.0000   1.0000   1.0000   1.0000   1.0000   1.0000   1.0000   1.0000
     1.0000   1.0000   1.0000   1.0000   1.0000   1.0000   1.0000   1.0000
     1.0000   1.0000   1.0000   1.0000   1.0000   1.0000   1.0000   1.0000
     1.0000   1.0000   1.0000   1.0000   1.0000   1.0000   1.0000   1.0000
     1.0000   1.0000   1.0000   1.0000   1.0000   1.0000   1.0000   1.0000
     1.0000   1.0000   1.0000   1.0000   1.0000   1.0000   1.0000   1.0000
     1.0000   1.0000   1.0000   1.0000   1.0000   1.0000   1.0000   1.0000
     1.0000   1.0000   1.0000   1.0000   1.0000   1.0000   1.0000   1.0000
     1.0000   1.0000   1.0000   1.0000   1.0000   1.0000   1.0000   1.0000
     1.0000   1.0000   1.0000   1.0000   1.0000   1.0000   1.0000   1.0000
     1.0000   1.0000   1.0000   1.0000   1.0000   1.0000   1.0000   1.0000
     1.0000   1.0000   1.0000   1.0000   1.0000   1.0000   1.0000   1.0000
     1.0000   1.0000   1.0000   1.0000   1.0000   1.0000   1.0000   1.0000
     1.0000   1.0000   1.0000   1.0000   1.0000   1.0000   1.0000   1.0000
     1.0000   1.0000   1.0000   1.0000   1.0000   1.0000   1.0000   1.0000
     1.0000   1.0000   1.0000   1.0000   1.0000   1.0000   1.0000   1.0000
     1.0000   1.0000   1.0000   1.0000   1.0000   1.0000   1.0000   1.0000
     1.0000   1.0000   1.0000   1.0000   1.0000   1.0000   1.0000   1.0000
     1.0000   1.0000   1.0000   1.0000   1.0000   1.0000   1.0000   1.0000
     1.0000   1.0000   1.0000   1.0000   1.0000   1.0000   1.0000   1.0000
     1.0000   1.0000   1.0000   1.0000   1.0000   1.0000   1.0000   1.0000
     1.0000   1.0000   1.0000   1.0000   1.0000   1.0000   1.0000   1.0000
     1.0000   1.0000   1.0000   1.0000   1.0000   1.0000   1.0000   1.0000
     1.0000   1.0000   1.0000   1.0000   1.0000   1.0000   1.0000   1.0000
     1.0000   1.0000   1.0000   1.0000   1.0000   1.0000   1.0000   1.0000
     1.0000   1.0000   1.0000   1.0000   1.0000   1.0000   1.0000   1.0000
     1.0000   1.0000   1.0000   1.0000   1.0000   1.0000   1.0000   1.0000
     1.0000   1.0000   1.0000   1.0000   1.0000   1.0000   1.0000   1.0000
     1.0000   1.0000   1.0000   1.0000   1.0000   1.0000   1.0000   1.0000
     1.0000   1.0000   1.0000   1.0000   1.0000   1.0000   1.0000   1.0000
     1.0000   1.0000   1.0000   1.0000   1.0000   1.0000   1.0000   1.0000
     1.0000   1.0000   1.0000   1.0000   1.0000   1.0000   1.0000   1.0000
     1.0000   1.0000   1.0000   1.0000   1.0000   1.0000   1.0000   1.0000
     0.0000   0.0000   0.0000   0.0000   0.0000   0.0000   0.0000   0.0000
     0.0000   0.0000   0.0000   0.0000   0.0000   0.0000   0.0000   0.0000
     0.0000   0.0000   0.0000   0.0000   0.0000   0.0000   0.0000   0.0000
     0.0000   0.0000   0.0000   0.0000   0.0000   0.0000   0.0000   0.0000
     0.0000   0.0000   0.0000   0.0000   0.0000   0.0000   0.0000   0.0000
     0.0000   0.0000   0.0000   0.0000   0.0000   0.0000   0.0000   0.0000
     0.0000   0.0000   0.0000   0.0000   0.0000   0.0000   0.0000   0.0000
     0.0000   0.0000   0.0000   0.0000   0.0000   0.0000   0.0000   0.0000
     0.0000   0.0000   0.0000   0.0000   0.0000   0.0000   0.0000   0.0000
     0.0000   0.0000   0.0000   0.0000   0.0000   0.0000   0.0000   0.0000
     0.0000   0.0000   0.0000   0.0000   0.0000   0.0000   0.0000   0.0000
     0.0000   0.0000   0.0000   0.0000   0.0000   0.0000   0.0000   0.0000
     0.0000   0.0000   0.0000   0.0000   0.0000   0.0000

          k =-0.7066-0.0012 0.0015 ( 42198 PWs)   bands (ev):

   -65.7421 -65.6554 -65.6310 -65.6171 -65.6119 -65.6048 -65.5984 -65.5944
   -65.5886 -65.5851 -65.5613 -65.5547 -65.5487 -65.5435 -65.5411 -65.5354
   -65.5329 -65.5157 -65.5125 -65.5097 -65.5083 -65.5021 -65.4964 -65.4899
   -65.4828 -65.4806 -65.4706 -65.4436 -65.4232 -65.4187 -65.3858 -65.3857
   -65.3677 -65.3459 -65.3367 -65.3359 -65.3164 -65.2897 -65.2146 -32.7069
   -32.7046 -32.6996 -32.6270 -32.6186 -32.6120 -32.5975 -32.5932 -32.5901
   -32.5852 -32.5827 -32.5801 -32.5778 -32.5766 -32.5718 -32.5680 -32.5672
   -32.5664 -32.5630 -32.5619 -32.5595 -32.5563 -32.5558 -32.5550 -32.5540
   -32.5505 -32.5501 -32.5474 -32.5465 -32.5422 -32.5278 -32.5224 -32.5214
   -32.5204 -32.5183 -32.5155 -32.5134 -32.5118 -32.5117 -32.5102 -32.5094
   -32.5074 -32.5060 -32.5024 -32.5002 -32.5000 -32.4977 -32.4962 -32.4955
   -32.4938 -32.4923 -32.4845 -32.4807 -32.4788 -32.4772 -32.4761 -32.4759
   -32.4739 -32.4723 -32.4718 -32.4704 -32.4699 -32.4686 -32.4674 -32.4660
   -32.4628 -32.4606 -32.4580 -32.4560 -32.4550 -32.4512 -32.4496 -32.4479
   -32.4463 -32.4456 -32.4428 -32.4406 -32.4401 -32.4386 -32.4303 -32.4247
   -32.4094 -32.4039 -32.4017 -32.3906 -32.3870 -32.3844 -32.3817 -32.3815
   -32.3743 -32.3550 -32.3493 -32.3491 -32.3469 -32.3468 -32.3465 -32.3373
   -32.3307 -32.3285 -32.3134 -32.3100 -32.3045 -32.3017 -32.3012 -32.3003
   -32.2998 -32.2980 -32.2948 -32.2863 -32.2771 -32.2739 -32.2580 -32.2535
   -32.2469 -32.1842 -32.1771 -32.1741 -29.2289 -29.1729 -29.1001 -29.0800
   -29.0764 -29.0586 -29.0290 -29.0170 -29.0052 -29.0009 -28.9888 -28.9515
   -28.9451 -28.9442 -28.9181 -28.9088 -28.8909 -28.8714 -28.8637 -28.8603
   -28.8301 -28.8207 -28.8120 -28.7635 -28.7556 -11.6079 -11.5716 -11.5492
   -11.5167 -11.4234 -11.3597 -11.3461 -11.3103 -11.2556 -11.2538 -11.2169
   -11.2046 -11.1586 -11.1366 -11.1217 -11.0973 -11.0406 -11.0237 -10.9824
   -10.9288 -10.9180 -10.8974 -10.8729 -10.8411 -10.8364 -10.8202 -10.8022
   -10.7768 -10.7440 -10.7252 -10.7119 -10.7082 -10.6894 -10.6678 -10.6467
   -10.6105 -10.6072 -10.6031 -10.5523 -10.5232 -10.5028 -10.4887 -10.4829
   -10.4634 -10.4335 -10.4193 -10.3962 -10.3923 -10.3811 -10.3634 -10.3309
   -10.3195 -10.2989 -10.2923 -10.2791 -10.2692 -10.2499 -10.2426 -10.2300
   -10.2113 -10.2014 -10.1842 -10.1685 -10.1610 -10.1563 -10.1363 -10.1174
   -10.0972 -10.0886 -10.0759 -10.0618 -10.0212 -10.0089  -9.9496  -9.9078
    -8.5934  -8.5683  -8.4436  -8.4103  -8.3274  -8.3100  -8.2859  -8.2318
    -8.1894  -8.1634  -8.1196  -8.1166  -8.0874  -8.0663  -8.0522  -8.0454
    -8.0129  -8.0042  -7.9578  -7.9477  -7.9008  -7.8998  -7.8451  -7.8366
    -7.8204  -7.7856  -7.7630  -7.7460  -7.7298  -7.7116  -7.6906  -7.6513
    -7.6385  -7.6037  -7.5938  -7.5593  -7.5570  -7.5264  -7.5013  -7.4817
[...]
     atom   77 type  2   force =   0.00000000E+00  0.00000000E+00  0.00000000E+00
     atom   78 type  3   force =   0.00000000E+00  0.00000000E+00  0.00000000E+00
     atom   79 type  1   force =   0.00000000E+00  0.00000000E+00  0.00000000E+00
     atom   80 type  3   force =   0.00000000E+00  0.00000000E+00  0.00000000E+00
     atom   81 type  2   force =   0.00000000E+00  0.00000000E+00  0.00000000E+00
     atom   82 type  3   force =   0.00000000E+00  0.00000000E+00  0.00000000E+00
     atom   83 type  1   force =   0.00000000E+00  0.00000000E+00  0.00000000E+00
     atom   84 type  3   force =   0.00000000E+00  0.00000000E+00  0.00000000E+00
     atom   85 type  1   force =   0.00000000E+00  0.00000000E+00  0.00000000E+00
     atom   86 type  3   force =   0.00000000E+00  0.00000000E+00  0.00000000E+00
     atom   87 type  2   force =   0.00000000E+00  0.00000000E+00  0.00000000E+00
     atom   88 type  3   force =   0.00000000E+00  0.00000000E+00  0.00000000E+00
     atom   89 type  2   force =   0.00000000E+00  0.00000000E+00  0.00000000E+00
     atom   90 type  3   force =   0.00000000E+00  0.00000000E+00  0.00000000E+00
     atom   91 type  1   force =   0.00000000E+00  0.00000000E+00  0.00000000E+00
     atom   92 type  3   force =   0.00000000E+00  0.00000000E+00  0.00000000E+00
     atom   93 type  2   force =   0.00000000E+00  0.00000000E+00  0.00000000E+00
     atom   94 type  3   force =   0.00000000E+00  0.00000000E+00  0.00000000E+00
     atom   95 type  2   force =   0.00000000E+00  0.00000000E+00  0.00000000E+00
     atom   96 type  3   force =   0.00000000E+00  0.00000000E+00  0.00000000E+00
     atom   97 type  2   force =   0.00000000E+00  0.00000000E+00  0.00000000E+00
     atom   98 type  3   force =   0.00000000E+00  0.00000000E+00  0.00000000E+00
     atom   99 type  2   force =   0.00000000E+00  0.00000000E+00  0.00000000E+00
     atom  100 type  3   force =   0.00000000E+00  0.00000000E+00  0.00000000E+00
     atom  101 type  1   force =   0.00000000E+00  0.00000000E+00  0.00000000E+00
     atom  102 type  3   force =   0.00000000E+00  0.00000000E+00  0.00000000E+00
     atom  103 type  1   force =   0.00000000E+00  0.00000000E+00  0.00000000E+00
     atom  104 type  3   force =   0.00000000E+00  0.00000000E+00  0.00000000E+00
     atom  105 type  2   force =   0.00000000E+00  0.00000000E+00  0.00000000E+00
     atom  106 type  3   force =   0.00000000E+00  0.00000000E+00  0.00000000E+00
     atom  107 type  1   force =   0.00000000E+00  0.00000000E+00  0.00000000E+00
     atom  108 type  3   force =   0.00000000E+00  0.00000000E+00  0.00000000E+00
     atom  109 type  1   force =   0.00000000E+00  0.00000000E+00  0.00000000E+00
     atom  110 type  3   force =   0.00000000E+00  0.00000000E+00  0.00000000E+00
     atom  111 type  1   force =   0.00000000E+00  0.00000000E+00  0.00000000E+00
     atom  112 type  3   force =   0.00000000E+00  0.00000000E+00  0.00000000E+00
     atom  113 type  1   force =   0.00000000E+00  0.00000000E+00  0.00000000E+00
     atom  114 type  3   force =   0.00000000E+00  0.00000000E+00  0.00000000E+00
     atom  115 type  2   force =   0.00000000E+00  0.00000000E+00  0.00000000E+00
     atom  116 type  3   force =   0.00000000E+00  0.00000000E+00  0.00000000E+00
     atom  117 type  1   force =   0.00000000E+00  0.00000000E+00  0.00000000E+00
     atom  118 type  3   force =   0.00000000E+00  0.00000000E+00  0.00000000E+00
     atom  119 type  2   force =   0.00000000E+00  0.00000000E+00  0.00000000E+00
     atom  120 type  3   force =   0.00000000E+00  0.00000000E+00  0.00000000E+00
     atom  121 type  1   force =   0.00000000E+00  0.00000000E+00  0.00000000E+00
     atom  122 type  3   force =   0.00000000E+00  0.00000000E+00  0.00000000E+00
     atom  123 type  1   force =   0.00000000E+00  0.00000000E+00  0.00000000E+00
     atom  124 type  3   force =   0.00000000E+00  0.00000000E+00  0.00000000E+00
     atom  125 type  2   force =   0.00000000E+00  0.00000000E+00  0.00000000E+00
     atom  126 type  3   force =   0.00000000E+00  0.00000000E+00  0.00000000E+00
     atom  127 type  1   force =   0.00000000E+00  0.00000000E+00  0.00000000E+00
     atom  128 type  3   force =   0.00000000E+00  0.00000000E+00  0.00000000E+00
     The SCF correction term to forces
     atom    1 type  1   force =  -0.13585373E-05  0.15829027E-05  0.78859976E-06
     atom    2 type  3   force =  -0.24491994E-05 -0.67924703E-06 -0.42393121E-06
     atom    3 type  1   force =  -0.49728546E-05 -0.22267240E-05 -0.20710425E-05
     atom    4 type  3   force =  -0.21358799E-06  0.17795322E-05  0.10401350E-05
     atom    5 type  1   force =   0.29253945E-06  0.94503812E-06 -0.24807748E-05
     atom    6 type  3   force =   0.44925215E-06  0.25747063E-05 -0.36795920E-06
     atom    7 type  2   force =   0.13221663E-05  0.36930388E-05  0.10547452E-05
     atom    8 type  3   force =  -0.17771010E-05  0.14801028E-06 -0.19797695E-05
     atom    9 type  2   force =  -0.48017615E-05 -0.10762140E-05 -0.22960092E-05
     atom   10 type  3   force =  -0.10044123E-06  0.96291589E-06  0.27296908E-05
     atom   11 type  2   force =  -0.16854768E-05  0.24090048E-06  0.35380023E-06
     atom   12 type  3   force =  -0.18811107E-06  0.57099115E-06  0.19171512E-05
     atom   13 type  2   force =   0.22543129E-05  0.40565541E-05  0.76522108E-06
     atom   14 type  3   force =  -0.89826627E-06  0.84558508E-08 -0.21242486E-05
     atom   15 type  1   force =  -0.12151866E-05  0.23617252E-05 -0.93391546E-06
     atom   16 type  3   force =  -0.79430818E-06  0.40064911E-06 -0.10162553E-06
     atom   17 type  2   force =   0.81131139E-06 -0.10440407E-05  0.27132069E-05
     atom   18 type  3   force =  -0.97515289E-07  0.57511746E-07  0.17998868E-05
     atom   19 type  2   force =   0.18918988E-05  0.33799492E-06  0.46034782E-05
     atom   20 type  3   force =  -0.61014308E-06 -0.21206395E-05  0.44239381E-06
     atom   21 type  1   force =   0.22267455E-06 -0.11329300E-05  0.13874600E-06
     atom   22 type  3   force =   0.90265131E-06 -0.36397064E-06 -0.30420327E-06
     atom   23 type  2   force =  -0.20729179E-07 -0.13727940E-05 -0.14389369E-05
     atom   24 type  3   force =   0.11646052E-05  0.10970685E-05  0.18187058E-05
     atom   25 type  2   force =   0.10256489E-05  0.14466479E-05  0.30272178E-05
     atom   26 type  3   force =  -0.15296787E-05 -0.16987597E-05  0.61197779E-08
     atom   27 type  1   force =  -0.91042361E-06 -0.53200922E-06  0.18382111E-05
     atom   28 type  3   force =  -0.13344778E-05 -0.11246644E-05 -0.96283819E-06
     atom   29 type  1   force =  -0.71862509E-06 -0.24429432E-05 -0.13191154E-05
     atom   30 type  3   force =   0.17363511E-05  0.21724148E-05  0.41069608E-06
     atom   31 type  1   force =   0.14428883E-05  0.45276264E-06 -0.34705176E-06
     atom   32 type  3   force =   0.68560753E-06  0.11484959E-05  0.10764642E-05
     atom   33 type  1   force =  -0.32534608E-05 -0.33571280E-05 -0.30023546E-05
     atom   34 type  3   force =   0.65408506E-07  0.73909456E-06  0.22266330E-05
     atom   35 type  2   force =  -0.20129932E-05  0.39014693E-06  0.17734281E-05
     atom   36 type  3   force =  -0.38182916E-06 -0.64815518E-06  0.17650213E-06
     atom   37 type  1   force =   0.25467054E-05  0.35125399E-05  0.13865949E-05
     atom   38 type  3   force =   0.40218415E-06 -0.42889002E-06 -0.36190403E-05
     atom   39 type  1   force =   0.16479305E-05  0.11043528E-05 -0.40480416E-05
     atom   40 type  3   force =   0.13573146E-06  0.22635694E-06 -0.14293154E-05
     atom   41 type  1   force =  -0.21242694E-05  0.26085850E-05  0.29414593E-05
     atom   42 type  3   force =  -0.63681798E-06 -0.34405183E-06  0.76056699E-06
     atom   43 type  1   force =  -0.98216426E-06  0.29876097E-05  0.51864296E-05
     atom   44 type  3   force =  -0.15220017E-05 -0.26326444E-05 -0.56124399E-06
     atom   45 type  1   force =  -0.10900360E-05 -0.25090330E-06 -0.20437990E-05
     atom   46 type  3   force =   0.16841095E-05  0.64246215E-06 -0.44081924E-06
     atom   47 type  1   force =  -0.96070465E-06  0.25635675E-06 -0.49587040E-05
     atom   48 type  3   force =   0.13666188E-05  0.15629641E-05  0.82357341E-06
     atom   49 type  1   force =   0.77644317E-06  0.17221095E-05  0.27043405E-05
     atom   50 type  3   force =  -0.73502401E-06 -0.18525226E-05 -0.60981786E-06
     atom   51 type  1   force =  -0.19369719E-05 -0.33073118E-05  0.12877866E-05
     atom   52 type  3   force =  -0.58087106E-06 -0.89569511E-06  0.11176494E-05
     atom   53 type  1   force =  -0.31600273E-06 -0.26909153E-05 -0.89759188E-06
     atom   54 type  3   force =   0.15074221E-05  0.16620170E-05  0.69622770E-06
     atom   55 type  1   force =   0.23073389E-05  0.32179139E-05  0.11368712E-05
     atom   56 type  3   force =   0.10210822E-05 -0.72982251E-07  0.37890373E-06
     atom   57 type  2   force =   0.10756250E-05 -0.16762889E-05  0.53626099E-06
     atom   58 type  3   force =  -0.91114149E-06 -0.85151352E-06 -0.14143153E-06
     atom   59 type  1   force =  -0.18958424E-05 -0.38851024E-05 -0.12255895E-05
     atom   60 type  3   force =   0.71796755E-07  0.13123926E-05  0.15331023E-05
     atom   61 type  2   force =   0.38249675E-06  0.68235840E-06  0.74062684E-06
     atom   62 type  3   force =   0.12303549E-05  0.10568697E-05 -0.13527911E-05
     atom   63 type  2   force =   0.31622824E-05  0.17184338E-05  0.90702416E-06
     atom   64 type  3   force =  -0.27599971E-06 -0.16951839E-05 -0.19024552E-05
     atom   65 type  1   force =   0.15611932E-06  0.10348152E-05  0.76269603E-06
     atom   66 type  3   force =  -0.44382701E-08 -0.61476133E-06  0.31113293E-06
     atom   67 type  1   force =  -0.27319774E-06 -0.40297022E-06  0.21406218E-05
     atom   68 type  3   force =  -0.28068365E-05 -0.12042033E-05 -0.37611580E-06
     atom   69 type  2   force =  -0.11128335E-05 -0.80154597E-06 -0.28421216E-05
     atom   70 type  3   force =   0.23412023E-06  0.17361650E-05 -0.10314444E-05
     atom   71 type  1   force =   0.51371295E-06  0.12445380E-05 -0.45215144E-05
     atom   72 type  3   force =   0.15338245E-05  0.10040103E-05  0.14649935E-06
     atom   73 type  1   force =   0.21695674E-05 -0.17312191E-06  0.11290787E-05
     atom   74 type  3   force =  -0.11583600E-05 -0.20209825E-05 -0.72330562E-07
     atom   75 type  1   force =  -0.20822162E-05 -0.47914006E-05 -0.11929010E-06
     atom   76 type  3   force =   0.19255762E-06 -0.11597372E-05  0.12276711E-05
     atom   77 type  2   force =  -0.72497983E-07 -0.12797981E-05 -0.15694741E-05
     atom   78 type  3   force =   0.22864195E-05  0.10024160E-05  0.62281916E-06
     atom   79 type  1   force =   0.36539802E-05  0.19653179E-05 -0.74264967E-07
     atom   80 type  3   force =   0.75353098E-06  0.11632297E-06 -0.60410393E-06
     atom   81 type  2   force =  -0.57174040E-06 -0.49182190E-06 -0.13641331E-05
     atom   82 type  3   force =  -0.19293780E-07 -0.79380568E-06  0.65978922E-06
     atom   83 type  1   force =  -0.23428360E-05 -0.34658965E-05  0.14765143E-05
     atom   84 type  3   force =   0.11430378E-05 -0.16491934E-06  0.13084784E-05
     atom   85 type  1   force =   0.19169617E-05  0.12996224E-05  0.28152859E-05
     atom   86 type  3   force =   0.10955596E-05  0.26096942E-06 -0.44219351E-06
     atom   87 type  2   force =   0.14546364E-05  0.18084204E-05 -0.59120212E-06
     atom   88 type  3   force =  -0.59051300E-06 -0.73796599E-06 -0.97945064E-06
     atom   89 type  2   force =  -0.66326291E-06 -0.15069687E-05 -0.62358345E-06
     atom   90 type  3   force =   0.13755879E-06  0.60383119E-06  0.29208883E-06
     atom   91 type  1   force =  -0.12480869E-05  0.12399188E-05  0.22173523E-05
     atom   92 type  3   force =  -0.93816380E-06 -0.21906307E-06  0.19006821E-06
     atom   93 type  2   force =   0.64705926E-06  0.10352118E-05  0.79798323E-06
     atom   94 type  3   force =  -0.57279730E-06  0.45518096E-06 -0.19733676E-05
     atom   95 type  2   force =   0.13779537E-05 -0.66963479E-06 -0.17452388E-05
     atom   96 type  3   force =  -0.91316701E-07  0.60217675E-06 -0.33669697E-06
     atom   97 type  2   force =   0.11279633E-05  0.10956586E-05  0.31618543E-06
     atom   98 type  3   force =  -0.27556067E-05 -0.68412095E-06 -0.85094888E-06
     atom   99 type  2   force =  -0.32073064E-05 -0.38369680E-06  0.65376890E-06
     atom  100 type  3   force =  -0.15200098E-05  0.13424346E-07 -0.73444691E-06
     atom  101 type  1   force =  -0.38032195E-05  0.23126650E-05 -0.20984782E-05
     atom  102 type  3   force =   0.12218927E-05  0.19439904E-05 -0.71413909E-06
     atom  103 type  1   force =   0.56493087E-06  0.30625940E-05 -0.17150618E-05
     atom  104 type  3   force =   0.32670648E-06  0.16024606E-05  0.38922378E-06
     atom  105 type  2   force =  -0.49066167E-06 -0.50765114E-06 -0.12170044E-05
     atom  106 type  3   force =  -0.66072638E-06 -0.17215466E-05 -0.25034850E-06
     atom  107 type  1   force =  -0.35319829E-05 -0.29692446E-05 -0.51358331E-06
     atom  108 type  3   force =   0.15202281E-05 -0.22095405E-06  0.86325373E-06
     atom  109 type  1   force =   0.18179464E-05  0.12111364E-05 -0.93791431E-06
     atom  110 type  3   force =   0.17395354E-05  0.76229106E-06 -0.40179728E-06
     atom  111 type  1   force =   0.26428481E-05  0.10387625E-05  0.31446611E-06
     atom  112 type  3   force =  -0.59123190E-06 -0.80754771E-06 -0.14568613E-05
     atom  113 type  1   force =   0.31660608E-07 -0.36327240E-05 -0.13753596E-05
     atom  114 type  3   force =   0.15140784E-05 -0.64585035E-06  0.15653103E-05
     atom  115 type  2   force =   0.28726073E-05 -0.30554593E-05  0.15492647E-05
     atom  116 type  3   force =   0.67547010E-06 -0.64947686E-06  0.90183848E-06
     atom  117 type  1   force =   0.37472856E-05 -0.13714183E-06  0.87494195E-06
     atom  118 type  3   force =   0.16424625E-06 -0.95711497E-06 -0.59484464E-06
     atom  119 type  2   force =   0.46224642E-06 -0.39100582E-06 -0.14871336E-05
     atom  120 type  3   force =   0.97710875E-06 -0.10921497E-05 -0.28256486E-06
     atom  121 type  1   force =   0.17034382E-05 -0.15427813E-05 -0.48360991E-06
     atom  122 type  3   force =   0.12135835E-06  0.50114212E-06  0.13007170E-05
     atom  123 type  1   force =   0.10829813E-05 -0.59597198E-06  0.69466123E-06
     atom  124 type  3   force =  -0.15434832E-05 -0.58399518E-06 -0.16141886E-06
     atom  125 type  2   force =  -0.72051178E-06 -0.38177988E-06  0.37032663E-06
     atom  126 type  3   force =  -0.30828058E-06  0.47358426E-06 -0.11323678E-05
     atom  127 type  1   force =   0.49985147E-06  0.35337711E-06 -0.47624839E-06
     atom  128 type  3   force =   0.49870635E-06  0.78962915E-06  0.11150875E-06

     Total force =     0.425356     Total SCF correction =     0.000032


     entering subroutine stress ...

          total   stress  (Ry/bohr**3)                   (kbar)     P=  -17.01
  -0.0001190311   0.0000076307  -0.0000173203        -17.51      1.12     -2.55
   0.0000076307  -0.0001175654  -0.0000094226          1.12    -17.29     -1.39
  -0.0000173203  -0.0000094226  -0.0001102608         -2.55     -1.39    -16.22

     kinetic stress (kbar)  20875.86      1.09     -2.67
                                1.09  20875.83     -1.07
                               -2.67     -1.07  20876.50

     local   stress (kbar)  -3607.58     15.38    -29.42
                               15.38  -3672.76     -9.42
                              -29.42     -9.42  -3807.94

     nonloc. stress (kbar)   5367.68     -0.10      0.16
                               -0.10   5368.03      0.22
                                0.16      0.22   5368.62

     hartree stress (kbar)  12220.57     -5.92     12.42
                               -5.92  12245.66      2.44
                               12.42      2.44  12295.72

     exc-cor stress (kbar)  -5733.66     -0.01      0.04
                               -0.01  -5733.61      0.00
                                0.04      0.00  -5733.52

     corecor stress (kbar)   -890.94     -0.00      0.01
                               -0.00   -890.94     -0.00
                                0.01     -0.00   -890.95

     ewald   stress (kbar) -28249.45     -9.31     16.92
                               -9.31 -28209.49      6.45
                               16.92      6.45 -28124.66

     hubbard stress (kbar)      0.00      0.00      0.00
                                0.00      0.00      0.00
                                0.00      0.00      0.00

     london  stress (kbar)      0.00      0.00      0.00
                                0.00      0.00      0.00
                                0.00      0.00      0.00

     XDM     stress (kbar)      0.00      0.00      0.00
                                0.00      0.00      0.00
                                0.00      0.00      0.00

     dft-nl  stress (kbar)      0.00      0.00      0.00
                                0.00      0.00      0.00
                                0.00      0.00      0.00



     Writing output data file mix_rocksalt.relax.in.up_1.00.super.444.011.save

     init_run     :    791.83s CPU    612.67s WALL (       1 calls)
     electrons    :  62125.21s CPU  48252.77s WALL (       1 calls)
     forces       :    620.26s CPU    400.48s WALL (       1 calls)
     stress       :   2848.16s CPU   2811.77s WALL (       1 calls)

     Called by init_run:
     wfcinit      :    747.09s CPU    567.08s WALL (       1 calls)
     potinit      :      7.04s CPU      7.15s WALL (       1 calls)

     Called by electrons:
     c_bands      :  55141.01s CPU  42204.12s WALL (      27 calls)
     sum_band     :   6320.31s CPU   5363.37s WALL (      27 calls)
     v_of_rho     :     14.61s CPU     16.34s WALL (      28 calls)
     v_h          :      0.79s CPU      1.08s WALL (      28 calls)
     v_xc         :     14.86s CPU     16.45s WALL (      30 calls)
     newd         :    650.72s CPU    667.61s WALL (      28 calls)
     mix_rho      :     23.33s CPU     26.22s WALL (      27 calls)

     Called by c_bands:
     init_us_2    :     74.06s CPU     75.91s WALL (     456 calls)
     cegterg      :  54674.86s CPU  41725.14s WALL (     216 calls)

     Called by sum_band:
     sum_band:bec :     19.01s CPU     19.14s WALL (     216 calls)
     addusdens    :    511.29s CPU    518.06s WALL (      27 calls)

     Called by *egterg:
     h_psi        :  23378.37s CPU  18905.72s WALL (     819 calls)
     s_psi        :   6750.31s CPU   3918.18s WALL (     819 calls)
     g_psi        :     13.32s CPU     13.98s WALL (     595 calls)
     cdiaghg      :  11591.96s CPU  10610.35s WALL (     811 calls)
     cegterg:over :   6075.64s CPU   3843.69s WALL (     595 calls)
     cegterg:upda :   2758.99s CPU   1657.02s WALL (     595 calls)
     cegterg:last :   1967.57s CPU   1133.17s WALL (     216 calls)

     Called by h_psi:
     h_psi:vloc   :   8342.20s CPU   9922.94s WALL (     819 calls)
     h_psi:vnl    :  15008.05s CPU   8953.90s WALL (     819 calls)
     add_vuspsi   :   6811.15s CPU   3960.82s WALL (     819 calls)

     General routines
     calbec       :  12628.00s CPU   7932.58s WALL (    1051 calls)
     fft          :    253.10s CPU    256.56s WALL (     469 calls)
     ffts         :     13.48s CPU     15.32s WALL (     729 calls)
     fftw         :   8990.79s CPU  10897.52s WALL (  747400 calls)
     interpolate  :      2.91s CPU      3.55s WALL (      55 calls)

     Parallel routines
     fft_scatter  :   5144.71s CPU   6278.03s WALL (  748598 calls)

     PWSCF        :    18h26m CPU       14h28m WALL


   This run was terminated on:   5:51:34   4Oct2017            

=------------------------------------------------------------------------------=
   JOB DONE.
=------------------------------------------------------------------------------=
