
     Program PWSCF v.5.1 starts on  3Oct2017 at 16:12:23 

     This program is part of the open-source Quantum ESPRESSO suite
     for quantum simulation of materials; please cite
         "P. Giannozzi et al., J. Phys.:Condens. Matter 21 395502 (2009);
          URL http://www.quantum-espresso.org", 
     in publications or presentations arising from this work. More details at
     http://www.quantum-espresso.org/quote

     Parallel version (MPI), running on     8 processors
     R & G space division:  proc/nbgrp/npool/nimage =       8
     Reading input from /tmp/mix_rocksalt.relax.in.up_1.00.super.444.03.16976/mix_rocksalt.relax.in.up_1.00.super.444.03.t
Warning: card &IONS ignored
Warning: card   ION_DYNAMICS='BFGS', ignored
Warning: card / ignored
Warning: card &CELL ignored
Warning: card  CELL_DYNAMICS = 'BFGS' ignored
Warning: card / ignored
     Message from routine read_cards :
     DEPRECATED: no units specified in CELL_PARAMETERS card

     Current dimensions of program PWSCF are:
     Max number of different atomic species (ntypx) = 10
     Max number of k-points (npk) =  40000
     Max angular momentum in pseudopotentials (lmaxx) =  3
 kfg - two_fermi_energies  F

     Subspace diagonalization in iterative solution of the eigenvalue problem:
     a serial algorithm will be used


     Parallelization info
     --------------------
     sticks:   dense  smooth     PW     G-vecs:    dense   smooth      PW
     Min        1001     801    209                59104    42287    5735
     Max        1002     802    210                59107    42311    5739
     Sum        8009    6413   1679               472841   338377   45893



     bravais-lattice index     =            0
     lattice parameter (alat)  =    24.103365389  a.u.
     unit-cell volume          =    9897.8848 (a.u.)^3
     number of atoms/cell      =          128
     number of atomic types    =            3
     number of electrons       =      1024.00
     number of Kohn-Sham states=          614
     kinetic-energy cutoff     =      40.0000  Ry
     charge density cutoff     =     200.0000  Ry
     convergence threshold     =      1.0E-10
     mixing beta               =       0.3000
     number of iterations used =            8  local-TF  mixing
     Exchange-correlation      = SLA  PW   PSX  PSC ( 1  4 10  8 0)
     A smooth kinetic-energy cutoff is imposed at      39.5000 Ry
     height of the smooth step-function =             800.0000 Ry
     width of the smooth step-function  =               1.0000 Ry


     celldm(1)=  24.103365  celldm(2)=   0.000000  celldm(3)=   0.000000
     celldm(4)=   0.000000  celldm(5)=   0.000000  celldm(6)=   0.000000

     crystal axes: (cart. coord. in units of alat)
               a(1) = (   0.002008899946   0.707314500807   0.706896146028 )  
               a(2) = (   0.708398919899   0.001115583201   0.706960833215 )  
               a(3) = (   0.708098017088   0.708358371021   0.000828957537 )  

     reciprocal axes: (cart. coord. in units 2 pi/alat)
               b(1) = ( -0.708497  0.707407  0.708822 )  
               b(2) = (  0.707604 -0.708171  0.706579 )  
               b(3) = (  0.706339  0.706465 -0.708891 )  


     PseudoPot. # 1 for Mg read from file:
     /users/kfg/psuedo/gbrv_1.5/mg.pbesol.UPF
     MD5 check sum: 4059f37963cf5867752dbf5ab2400678
     Pseudo is Ultrasoft, Zval = 10.0
     Generated by new atomic code, or converted to UPF format
     Using radial grid of  821 points,  7 beta functions with: 
                l(1) =   0
                l(2) =   0
                l(3) =   0
                l(4) =   1
                l(5) =   1
                l(6) =   2
                l(7) =   2
     Q(r) pseudized with  8 coefficients,  rinner =    1.200   1.200   1.200
                                                       1.200   1.200

     PseudoPot. # 2 for Ca read from file:
     /users/kfg/psuedo/gbrv_1.5/ca.pbesol.UPF
     MD5 check sum: 0533207b58cddeaa036efa5b63902087
     Pseudo is Ultrasoft + core correction, Zval = 10.0
     Generated by new atomic code, or converted to UPF format
     Using radial grid of  845 points,  6 beta functions with: 
                l(1) =   0
                l(2) =   0
                l(3) =   1
                l(4) =   1
                l(5) =   2
                l(6) =   2
     Q(r) pseudized with  8 coefficients,  rinner =    1.500   1.500   1.500
                                                       1.500   1.500

     PseudoPot. # 3 for O  read from file:
     /users/kfg/psuedo/gbrv_1.5/o.pbesol.UPF
     MD5 check sum: 501638753501ef6325af9037351f7734
     Pseudo is Ultrasoft + core correction, Zval =  6.0
     Generated by new atomic code, or converted to UPF format
     Using radial grid of  737 points,  5 beta functions with: 
                l(1) =   0
                l(2) =   0
                l(3) =   1
                l(4) =   1
                l(5) =   2
     Q(r) pseudized with  8 coefficients,  rinner =    0.900   0.900   0.900
                                                       0.900   0.900

     atomic species   valence    mass     pseudopotential
        Mg            10.00    24.30500     Mg( 1.00)
        Ca            10.00    24.30500     Ca( 1.00)
        O              6.00    15.99940     O ( 1.00)

     No symmetry found


                                    s                        frac. trans.

      isym =  1     identity                                     

 cryst.   s( 1) = (     1          0          0      )
                  (     0          1          0      )
                  (     0          0          1      )

 cart.    s( 1) = (  1.0000000  0.0000000  0.0000000 )
                  (  0.0000000  1.0000000  0.0000000 )
                  (  0.0000000  0.0000000  1.0000000 )


     point group C_1 (1)    
     there are  1 classes
     the character table:

       E    
A      1.00

     the symmetry operations in each class:
     E        1

   Cartesian axes

     site n.     atom                  positions (alat units)
         1           Mg  tau(   1) = (   -0.00141998013    0.00207062061   -0.00132273746  )
         2           O   tau(   2) = (    0.17800243062    0.17729366602    0.17824975708  )
         3           Mg  tau(   3) = (    0.17833791486    0.17809011836    0.00194308598  )
         4           O   tau(   4) = (    0.35560761960    0.35408358571    0.17516357305  )
         5           Ca  tau(   5) = (    0.35554176498    0.35568305817    0.00002018260  )
         6           O   tau(   6) = (    0.52945887165    0.53274669734    0.17601744800  )
         7           Ca  tau(   7) = (    0.53124382256    0.53042568847    0.00162223300  )
         8           O   tau(   8) = (    0.70776368772    0.70966542422    0.17755039480  )
         9           Mg  tau(   9) = (    0.17531217254   -0.00078989943    0.17771660858  )
        10           O   tau(  10) = (    0.35592491302    0.17904749210    0.35379608874  )
        11           Ca  tau(  11) = (    0.35246389800    0.17741862227    0.17579035038  )
        12           O   tau(  12) = (    0.53294536447    0.35583709688    0.35491767719  )
        13           Mg  tau(  13) = (    0.53119715069    0.35524616337    0.17522797999  )
        14           O   tau(  14) = (    0.70802299128    0.53116754799    0.35257970864  )
        15           Ca  tau(  15) = (    0.70905172585    0.53186381508    0.17620173720  )
        16           O   tau(  16) = (    0.88365664221    0.70700302985    0.35319465632  )
        17           Ca  tau(  17) = (    0.35601236502    0.00134815944    0.35481947553  )
        18           O   tau(  18) = (    0.53032055325    0.17580604312    0.52951877384  )
        19           Ca  tau(  19) = (    0.53269542690    0.17928037750    0.35226595874  )
        20           O   tau(  20) = (    0.70943227348    0.35389921047    0.53115399162  )
        21           Mg  tau(  21) = (    0.71010184339    0.35593005567    0.35563967918  )
        22           O   tau(  22) = (    0.88718595586    0.53073424196    0.53254139000  )
        23           Mg  tau(  23) = (    0.88698604052    0.53085977511    0.35535024160  )
        24           O   tau(  24) = (    1.06123796582    0.71037839939    0.53108908028  )
        25           Mg  tau(  25) = (    0.53279956691   -0.00032758880    0.52984225380  )
        26           O   tau(  26) = (    0.70730600789    0.17850838518    0.70822282041  )
        27           Mg  tau(  27) = (    0.70659885987    0.17937455817    0.52967382551  )
        28           O   tau(  28) = (    0.88751798383    0.35416839102    0.70886665442  )
        29           Mg  tau(  29) = (    0.88603401201    0.35403680800    0.53012024741  )
        30           O   tau(  30) = (    1.06318557335    0.53080415392    0.70562437911  )
        31           Ca  tau(  31) = (    1.06293690831    0.53184969393    0.53039307518  )
        32           O   tau(  32) = (    1.23944985130    0.71027204851    0.70746307527  )
        33           Mg  tau(  33) = (   -0.00059133942    0.17852479860    0.17639022671  )
        34           O   tau(  34) = (    0.17883718598    0.35358877795    0.35162271077  )
        35           Mg  tau(  35) = (    0.17560801785    0.35511593367    0.17860219967  )
        36           O   tau(  36) = (    0.35662993776    0.52992533805    0.35485678857  )
        37           Mg  tau(  37) = (    0.35251665003    0.53283889889    0.17731013504  )
        38           O   tau(  38) = (    0.53344133998    0.70721763330    0.35212088591  )
        39           Ca  tau(  39) = (    0.53188375126    0.70833345355    0.17752256981  )
        40           O   tau(  40) = (    0.70874653287    0.88687521319    0.35307786284  )
        41           Mg  tau(  41) = (    0.17583176849    0.17755780267    0.35283900539  )
        42           O   tau(  42) = (    0.35491588420    0.35351909779    0.53100758225  )
        43           Ca  tau(  43) = (    0.35420969091    0.35377583548    0.35210474067  )
        44           O   tau(  44) = (    0.53301021380    0.53110472098    0.52865175469  )
        45           Mg  tau(  45) = (    0.52987424397    0.53137599429    0.35257927752  )
        46           O   tau(  46) = (    0.70763267986    0.70815305302    0.53155491984  )
        47           Ca  tau(  47) = (    0.70864379740    0.70756461722    0.35244364805  )
        48           O   tau(  48) = (    0.88797215320    0.88413295979    0.53022025612  )
        49           Ca  tau(  49) = (    0.35605464452    0.17674634824    0.52966487427  )
        50           O   tau(  50) = (    0.53166571543    0.35374143438    0.70852397314  )
        51           Ca  tau(  51) = (    0.53124389531    0.35599999175    0.53100998882  )
        52           O   tau(  52) = (    0.70883763078    0.53152369770    0.70648581280  )
        53           Ca  tau(  53) = (    0.70941498507    0.53294599323    0.53251505017  )
        54           O   tau(  54) = (    0.88602623319    0.71073022696    0.70872880833  )
        55           Mg  tau(  55) = (    0.88417728350    0.70775176978    0.53143106675  )
        56           O   tau(  56) = (    1.06376564371    0.88595995652    0.70752100199  )
        57           Mg  tau(  57) = (    0.53145274766    0.17857170067    0.70570859322  )
        58           O   tau(  58) = (    0.70769367483    0.35548930660    0.88416143470  )
        59           Ca  tau(  59) = (    0.70817275463    0.35373299330    0.70873909630  )
        60           O   tau(  60) = (    0.88539882339    0.53200143786    0.88462059139  )
        61           Mg  tau(  61) = (    0.88685834558    0.52981283863    0.70623096414  )
        62           O   tau(  62) = (    1.06467474251    0.70870965162    0.88329456796  )
        63           Mg  tau(  63) = (    1.06393427259    0.70983901522    0.70776279245  )
        64           O   tau(  64) = (    1.24147822652    0.88529284158    0.88264868985  )
        65           Mg  tau(  65) = (   -0.00100636348    0.35518559822    0.35426576095  )
        66           O   tau(  66) = (    0.17843692956    0.53090080189    0.52914015441  )
        67           Mg  tau(  67) = (    0.17967825429    0.53053067962    0.35192824698  )
        68           O   tau(  68) = (    0.35561153281    0.70706616316    0.52850126281  )
        69           Ca  tau(  69) = (    0.35339326995    0.70622427213    0.35511315823  )
        70           O   tau(  70) = (    0.53127566918    0.88481814892    0.53220113693  )
        71           Ca  tau(  71) = (    0.53389930431    0.88588121887    0.35488126717  )
        72           O   tau(  72) = (    0.71061693426    1.06369779643    0.52982319833  )
        73           Mg  tau(  73) = (    0.17655759504    0.35463058168    0.52975178216  )
        74           O   tau(  74) = (    0.35366485891    0.53002078306    0.70750794458  )
        75           Mg  tau(  75) = (    0.35505969490    0.53082027222    0.52978346083  )
        76           O   tau(  76) = (    0.53298730872    0.70980973342    0.70667457749  )
        77           Mg  tau(  77) = (    0.53409131043    0.70786872651    0.53154388836  )
        78           O   tau(  78) = (    0.70824630581    0.88414914919    0.70601336458  )
        79           Mg  tau(  79) = (    0.70746830148    0.88340793413    0.53260311818  )
        80           O   tau(  80) = (    0.88747641455    1.06389177922    0.70891521825  )
        81           Ca  tau(  81) = (    0.35347348976    0.35331685113    0.70626678257  )
        82           O   tau(  82) = (    0.53325981281    0.53037772936    0.88402310320  )
        83           Mg  tau(  83) = (    0.53368596138    0.53081309659    0.70688399150  )
        84           O   tau(  84) = (    0.70769793481    0.70638231963    0.88245715027  )
        85           Ca  tau(  85) = (    0.70877051952    0.70924526036    0.70851837082  )
        86           O   tau(  86) = (    0.88728882589    0.88667456923    0.88399357121  )
        87           Mg  tau(  87) = (    0.88564830108    0.88636416753    0.70669775145  )
        88           O   tau(  88) = (    1.06230234698    1.06210792608    0.88536127572  )
        89           Ca  tau(  89) = (    0.53097930235    0.35450454156    0.88420617650  )
        90           O   tau(  90) = (    0.71074648996    0.53258732439    1.06238148664  )
        91           Ca  tau(  91) = (    0.70976510270    0.53230375158    0.88322914366  )
        92           O   tau(  92) = (    0.88842942914    0.70661892329    1.06125171830  )
        93           Mg  tau(  93) = (    0.88536423098    0.70675497826    0.88524642789  )
        94           O   tau(  94) = (    1.06444257841    0.88524607540    1.06273184433  )
        95           Mg  tau(  95) = (    1.06528258050    0.88767017412    0.88465548522  )
        96           O   tau(  96) = (    1.23962127058    1.06147572467    1.05994213182  )
        97           Ca  tau(  97) = (    0.00212503386    0.52857133174    0.53104451330  )
        98           O   tau(  98) = (    0.18049128750    0.70625297123    0.70841428073  )
        99           Ca  tau(  99) = (    0.17716900986    0.70699998731    0.53113897822  )
       100           O   tau( 100) = (    0.35735450342    0.88584577818    0.70516962927  )
       101           Ca  tau( 101) = (    0.35699144560    0.88442561675    0.53204844797  )
       102           O   tau( 102) = (    0.53205419883    1.06125580325    0.70579503307  )
       103           Mg  tau( 103) = (    0.53338696240    1.06354479105    0.53215473789  )
       104           O   tau( 104) = (    0.71129016109    1.23844669087    0.70658296158  )
       105           Ca  tau( 105) = (    0.17959644689    0.52964530789    0.70645283823  )
       106           O   tau( 106) = (    0.35661367143    0.70640523029    0.88182225443  )
       107           Ca  tau( 107) = (    0.35727015551    0.70638363527    0.70785051521  )
       108           O   tau( 108) = (    0.53246359134    0.88351474740    0.88300013354  )
       109           Ca  tau( 109) = (    0.53180951945    0.88428323061    0.70584853686  )
       110           O   tau( 110) = (    0.70802418916    1.06139215403    0.88269678721  )
       111           Ca  tau( 111) = (    0.71065765934    1.06026424096    0.70739743921  )
       112           O   tau( 112) = (    0.88506362481    1.23836896943    0.88619038772  )
       113           Mg  tau( 113) = (    0.35757592200    0.53006113858    0.88477464457  )
       114           O   tau( 114) = (    0.53133045209    0.70931809697    1.05904517935  )
       115           Ca  tau( 115) = (    0.53236296897    0.70996929980    0.88212720803  )
       116           O   tau( 116) = (    0.71002691362    0.88515388303    1.05898680805  )
       117           Ca  tau( 117) = (    0.70809634243    0.88329725640    0.88582930898  )
       118           O   tau( 118) = (    0.88758374229    1.06098919100    1.06079587118  )
       119           Mg  tau( 119) = (    0.88572726639    1.06116001215    0.88530962608  )
       120           O   tau( 120) = (    1.06366263591    1.23811521673    1.06235504709  )
       121           Ca  tau( 121) = (    0.53097045472    0.53139428295    1.06142290714  )
       122           O   tau( 122) = (    0.70818545550    0.70702253324    1.23794962732  )
       123           Mg  tau( 123) = (    0.70960661163    0.70902574710    1.05912201251  )
       124           O   tau( 124) = (    0.88772510151    0.88694499452    1.23565176782  )
       125           Ca  tau( 125) = (    0.88755941840    0.88666673677    1.06214972563  )
       126           O   tau( 126) = (    1.06294592177    1.06256415920    1.23590864723  )
       127           Mg  tau( 127) = (    1.06206429813    1.06098390278    1.06057787661  )
       128           O   tau( 128) = (    1.24061365732    1.23771815121    1.23644767029  )

   Crystallographic axes

     site n.     atom                  positions (cryst. coord.)
         1           Mg  tau(   1) = (    0.00153323886   -0.00340575668    0.00139751005  )
         2           O   tau(   2) = (    0.12565200990    0.12634862467    0.12462226546  )
         3           Mg  tau(   3) = (    0.00100763809    0.00144734495    0.25040402421  )
         4           O   tau(   4) = (    0.12269415343    0.12464467465    0.37715539372  )
         5           Ca  tau(   5) = (   -0.00027324918   -0.00028731980    0.50239633830  )
         6           O   tau(   6) = (    0.12651386296    0.12174184640    0.62556724461  )
         7           Ca  tau(   7) = (   -0.00000788479    0.00142450684    0.74881542739  )
         8           O   tau(   8) = (    0.12642558460    0.12370552025    0.87541108643  )
         9           Mg  tau(   9) = (    0.00120250030    0.25018191079   -0.00270984877  )
        10           O   tau(  10) = (    0.12526622229    0.37504273629    0.12709172211  )
        11           Ca  tau(  11) = (    0.00039163246    0.24797205466    0.24968291296  )
        12           O   tau(  12) = (    0.12570499097    0.37589837145    0.37622875501  )
        13           Mg  tau(  13) = (   -0.00084249769    0.24811478836    0.50195677226  )
        14           O   tau(  14) = (    0.12403581848    0.37396813459    0.62541510134  )
        15           Ca  tau(  15) = (   -0.00122113043    0.24957797075    0.75166629652  )
        16           O   tau(  16) = (    0.12442305974    0.37416016412    0.87325768139  )
        17           Ca  tau(  17) = (    0.00022382845    0.50166925510    0.00088964649  )
        18           O   tau(  18) = (    0.12397050145    0.62490335636    0.12341603016  )
        19           Ca  tau(  19) = (   -0.00089506660    0.49888023291    0.25320083170  )
        20           O   tau(  20) = (    0.12421383352    0.62667855681    0.37458702205  )
        21           Mg  tau(  21) = (    0.00076762309    0.50169938042    0.50091511845  )
        22           O   tau(  22) = (    0.12435365722    0.62820867525    0.62408562674  )
        23           Mg  tau(  23) = (   -0.00101293586    0.50277871670    0.74964222852  )
        24           O   tau(  24) = (    0.12709045432    0.62312365351    0.87496718781  )
        25           Mg  tau(  25) = (   -0.00215482870    0.75161883080    0.00050547781  )
        26           O   tau(  26) = (    0.12715784153    0.87449388749    0.12365524693  )
        27           Mg  tau(  27) = (    0.00171208375    0.74722108295    0.25033937124  )
        28           O   tau(  28) = (    0.12419769380    0.87807023706    0.37458723109  )
        29           Mg  tau(  29) = (   -0.00154343651    0.75081484332    0.50015771832  )
        30           O   tau(  30) = (    0.12239292880    0.87499411183    0.62575350273  )
        31           Ca  tau(  31) = (   -0.00089912409    0.75026292106    0.75053630828  )
        32           O   tau(  32) = (    0.12577038854    0.87392468136    0.87574018832  )
        33           Mg  tau(  33) = (    0.25173806139   -0.00221085497    0.00066249483  )
        34           O   tau(  34) = (    0.37266367954    0.12459393751    0.12685578693  )
        35           Mg  tau(  35) = (    0.25339106303   -0.00102523596    0.24830638184  )
        36           O   tau(  36) = (    0.37373216783    0.12780953011    0.37472074168  )
        37           Mg  tau(  37) = (    0.25285847041   -0.00261514083    0.49973483481  )
        38           O   tau(  38) = (    0.37194037865    0.12543562687    0.62679978713  )
        39           Ca  tau(  39) = (    0.25007408739    0.00017572173    0.75025898044  )
        40           O   tau(  40) = (    0.37550655017    0.12293020947    0.87686808208  )
        41           Mg  tau(  41) = (    0.25112952143    0.24798675071   -0.00048901697  )
        42           O   tau(  42) = (    0.37501508883    0.37598696673    0.12401355909  )
        43           Ca  tau(  43) = (    0.24888672113    0.24889640149    0.25051865156  )
        44           O   tau(  44) = (    0.37279125704    0.37458169526    0.37693658037  )
        45           Mg  tau(  45) = (    0.25040088762    0.24776139288    0.49972927757  )
        46           O   tau(  46) = (    0.37637483894    0.37481610768    0.62329966188  )
        47           Ca  tau(  47) = (    0.24828413903    0.24939197395    0.75056842641  )
        48           O   tau(  48) = (    0.37214825665    0.37685816480    0.87595023954  )
        49           Ca  tau(  49) = (    0.24820617691    0.50102938284    0.00088596421  )
        50           O   tau(  50) = (    0.37577315628    0.62632786503    0.12317622641  )
        51           Ca  tau(  51) = (    0.25184386610    0.49900223040    0.25031185071  )
        52           O   tau(  52) = (    0.37456712686    0.62435509148    0.37536143874  )
        53           Ca  tau(  53) = (    0.25184986090    0.50083226057    0.50010027273  )
        54           O   tau(  54) = (    0.37739138978    0.62441047792    0.62552976117  )
        55           Mg  tau(  55) = (    0.25092179165    0.49993649531    0.74780428790  )
        56           O   tau(  56) = (    0.37456618353    0.62523360802    0.87572391132  )
        57           Mg  tau(  57) = (    0.25001206282    0.74823802350    0.00127029132  )
        58           O   tau(  58) = (    0.37679001632    0.87375001086    0.12423870045  )
        59           Ca  tau(  59) = (    0.25086489670    0.75138298603    0.24769155143  )
        60           O   tau(  60) = (    0.37607784566    0.87481857880    0.37413292780  )
        61           Mg  tau(  61) = (    0.24704900242    0.75135482674    0.50007639138  )
        62           O   tau(  62) = (    0.37312612297    0.87559839946    0.62654067420  )
        63           Mg  tau(  63) = (    0.25002882902    0.75024753698    0.75124831874  )
        64           O   tau(  64) = (    0.37231977343    0.87519782923    0.87663156999  )
        65           Mg  tau(  65) = (    0.50308541612   -0.00192743066   -0.00092024259  )
        66           O   tau(  66) = (    0.62420742978    0.12417361381    0.12599739475  )
        67           Mg  tau(  67) = (    0.49745437709    0.00009982391    0.25223655307  )
        68           O   tau(  68) = (    0.62284752030    0.12433647989    0.37605029244  )
        69           Ca  tau(  69) = (    0.50092224026    0.00085058387    0.49680186374  )
        70           O   tau(  70) = (    0.62675557648    0.12537261354    0.62308147357  )
        71           Ca  tau(  71) = (    0.49996048528    0.00118572316    0.75138604526  )
        72           O   tau(  72) = (    0.62454802386    0.12391766515    0.87781511122  )
        73           Mg  tau(  73) = (    0.50127759983    0.24810542944   -0.00029238853  )
        74           O   tau(  74) = (    0.62586743705    0.37481984515    0.12270275907  )
        75           Mg  tau(  75) = (    0.49946968837    0.24966421963    0.25023999852  )
        76           O   tau(  76) = (    0.62541128932    0.37379900325    0.37697056540  )
        77           Mg  tau(  77) = (    0.49911948805    0.25221104388    0.50052759603  )
        78           O   tau(  78) = (    0.62410107245    0.37388368823    0.62439625253  )
        79           Mg  tau(  79) = (    0.50121089736    0.25132998457    0.74625195463  )
        80           O   tau(  80) = (    0.62632518853    0.37546953780    0.87591824848  )
        81           Ca  tau(  81) = (    0.50012157849    0.49894407156   -0.00138772572  )
        82           O   tau(  82) = (    0.62399527073    0.62637118779    0.12467990833  )
        83           Mg  tau(  83) = (    0.49844117673    0.50120158729    0.25086072204  )
        84           O   tau(  84) = (    0.62380329867    0.62405651897    0.37334352875  )
        85           Ca  tau(  85) = (    0.50177695681    0.49988649059    0.49942725623  )
        86           O   tau(  86) = (    0.62519275724    0.62454364847    0.62647658867  )
        87           Mg  tau(  87) = (    0.50046425522    0.49832906631    0.75078185973  )
        88           O   tau(  88) = (    0.62626846344    0.62511352716    0.87306343744  )
        89           Ca  tau(  89) = (    0.50132676763    0.74943515501   -0.00130895340  )
        90           O   tau(  90) = (    0.62623390933    0.87642109694    0.12517008677  )
        91           Ca  tau(  91) = (    0.49974144400    0.74934214301    0.25127595771  )
        92           O   tau(  92) = (    0.62265646138    0.87810788922    0.37442259113  )
        93           Mg  tau(  93) = (    0.50016791942    0.75148089568    0.49712212201  )
        94           O   tau(  94) = (    0.62536293512    0.87720279032    0.62389212650  )
        95           Mg  tau(  95) = (    0.50025812863    0.75025543253    0.75243463626  )
        96           O   tau(  96) = (    0.62393805139    0.87438808865    0.87410534835  )
        97           Ca  tau(  97) = (    0.74882591098    0.00240980053   -0.00153422625  )
        98           O   tau(  98) = (    0.87387085228    0.12811933386    0.12424292760  )
        99           Ca  tau(  99) = (    0.75109643601   -0.00001959950    0.24809279549  )
       100           O   tau( 100) = (    0.87330913988    0.12379346692    0.37834444952  )
       101           Ca  tau( 101) = (    0.74984958033    0.00221843883    0.49980867706  )
       102           O   tau( 102) = (    0.87406452638    0.12363330978    0.62521935785  )
       103           Mg  tau( 103) = (    0.75165940220    0.00026474477    0.75086978939  )
       104           O   tau( 104) = (    0.87298097636    0.12553671580    0.87644131292  )
       105           Ca  tau( 105) = (    0.74818095166    0.25116867090    0.00023416396  )
       106           O   tau( 106) = (    0.87211175343    0.37516295205    0.12582531515  )
       107           Ca  tau( 107) = (    0.74831631304    0.25271794526    0.24960067559  )
       108           O   tau( 108) = (    0.87364604908    0.37500353518    0.37432165909  )
       109           Ca  tau( 109) = (    0.74908408752    0.24882484128    0.49998365638  )
       110           O   tau( 110) = (    0.87487861382    0.37304899235    0.62420615741  )
       111           Ca  tau( 111) = (    0.74795882764    0.25184831103    0.74953749421  )
       112           O   tau( 112) = (    0.87711770145    0.37546149828    0.87180736052  )
       113           Mg  tau( 113) = (    0.74877559525    0.50281173346   -0.00016887796  )
       114           O   tau( 114) = (    0.87600551770    0.62195254234    0.12566076064  )
       115           Ca  tau( 115) = (    0.75033124629    0.49721541535    0.25226559187  )
       116           O   tau( 116) = (    0.87374571741    0.62383586117    0.37614424730  )
       117           Ca  tau( 117) = (    0.75106223537    0.50143508452    0.49621867707  )
       118           O   tau( 118) = (    0.87361668493    0.62623259997    0.62449862263  )
       119           Mg  tau( 119) = (    0.75066427117    0.50080302977    0.74770853587  )
       120           O   tau( 120) = (    0.87527070330    0.62649293138    0.87289806468  )
       121           Ca  tau( 121) = (    0.75208132786    0.74937836459   -0.00197603362  )
       122           O   tau( 122) = (    0.87589177526    0.87513173759    0.12213492595  )
       123           Mg  tau( 123) = (    0.74954497880    0.74836284368    0.25132314498  )
       124           O   tau( 124) = (    0.87433812636    0.87313525605    0.37768863199  )
       125           Ca  tau( 125) = (    0.75127655586    0.75062211954    0.50036897673  )
       126           O   tau( 126) = (    0.87461102591    0.87293535077    0.62534062435  )
       127           Mg  tau( 127) = (    0.74983941033    0.74954550782    0.74789182407  )
       128           O   tau( 128) = (    0.87302121550    0.87499567200    0.87419233094  )

     number of k points=     8  gaussian smearing, width (Ry)=  0.0050
                       cart. coord. in units 2pi/alat
        k(    1) = (   0.0000000   0.0000000   0.0000000), wk =   0.2500000
        k(    2) = (  -0.3531694  -0.3532326   0.3544453), wk =   0.2500000
        k(    3) = (  -0.3538022   0.3540856  -0.3532897), wk =   0.2500000
        k(    4) = (  -0.7069716   0.0008530   0.0011556), wk =   0.2500000
        k(    5) = (   0.3542487  -0.3537037  -0.3544111), wk =   0.2500000
        k(    6) = (   0.0010792  -0.7069363   0.0000341), wk =   0.2500000
        k(    7) = (   0.0004465   0.0003818  -0.7077008), wk =   0.2500000
        k(    8) = (  -0.3527229  -0.3528507  -0.3532555), wk =   0.2500000

                       cryst. coord.
        k(    1) = (   0.0000000   0.0000000   0.0000000), wk =   0.2500000
        k(    2) = (  -0.0000000  -0.0000000  -0.5000000), wk =   0.2500000
        k(    3) = (   0.0000000  -0.5000000   0.0000000), wk =   0.2500000
        k(    4) = (  -0.0000000  -0.5000000  -0.5000000), wk =   0.2500000
        k(    5) = (  -0.5000000   0.0000000   0.0000000), wk =   0.2500000
        k(    6) = (  -0.5000000  -0.0000000  -0.5000000), wk =   0.2500000
        k(    7) = (  -0.5000000  -0.5000000   0.0000000), wk =   0.2500000
        k(    8) = (  -0.5000000  -0.5000000  -0.5000000), wk =   0.2500000

     Dense  grid:   472841 G-vectors     FFT dimensions: ( 120, 120, 120)

     Smooth grid:   338377 G-vectors     FFT dimensions: ( 100, 100, 100)

     Largest allocated arrays     est. size (Mb)     dimensions
        Kohn-Sham Wavefunctions        49.72 Mb     (    5307,  614)
        NL pseudopotentials           163.33 Mb     (    5307, 2017)
        Each V/rho on FFT grid          3.30 Mb     (  216000)
        Each G-vector array             0.45 Mb     (   59105)
        G-vector shells                 0.45 Mb     (   58462)
     Largest temporary arrays     est. size (Mb)     dimensions
        Auxiliary wavefunctions       198.88 Mb     (    5307, 2456)
        Each subspace H/S matrix       92.04 Mb     (    2456, 2456)
        Each <psi_i|beta_j> matrix     18.90 Mb     (    2017,  614)
        Arrays for rho mixing          26.37 Mb     (  216000,    8)

     Check: negative/imaginary core charge=   -0.000003    0.000000

     Initial potential from superposition of free atoms

     starting charge 1013.93195, renormalised to 1024.00000
     Starting wfc are  731 randomized atomic wfcs

     total cpu time spent up to now is      531.3 secs

     Self-consistent Calculation

     iteration #  1     ecut=    40.00 Ry     beta=0.30
     Davidson diagonalization with overlap
     ethr =  1.00E-02,  avg # of iterations =  3.0

     total cpu time spent up to now is     2259.4 secs

     total energy              =   -8530.46773194 Ry
     Harris-Foulkes estimate   =   -8535.19282377 Ry
     estimated scf accuracy    <      24.42043912 Ry

     iteration #  2     ecut=    40.00 Ry     beta=0.30
     Davidson diagonalization with overlap
     ethr =  2.38E-03,  avg # of iterations =  1.0

     total cpu time spent up to now is     3597.1 secs

     total energy              =   -8527.11972418 Ry
     Harris-Foulkes estimate   =   -8531.20131648 Ry
     estimated scf accuracy    <      10.30864277 Ry

     iteration #  3     ecut=    40.00 Ry     beta=0.30
     Davidson diagonalization with overlap
     ethr =  1.01E-03,  avg # of iterations =  2.1

     total cpu time spent up to now is     5113.7 secs

     total energy              =   -8528.37273928 Ry
     Harris-Foulkes estimate   =   -8528.78281533 Ry
     estimated scf accuracy    <       1.38552236 Ry

     iteration #  4     ecut=    40.00 Ry     beta=0.30
     Davidson diagonalization with overlap
     ethr =  1.35E-04,  avg # of iterations =  6.6

     total cpu time spent up to now is     7379.7 secs

     total energy              =   -8528.07474792 Ry
     Harris-Foulkes estimate   =   -8528.46810025 Ry
     estimated scf accuracy    <       0.69588724 Ry

     iteration #  5     ecut=    40.00 Ry     beta=0.30
     Davidson diagonalization with overlap
     ethr =  6.80E-05,  avg # of iterations =  3.6

     total cpu time spent up to now is     9360.8 secs

     total energy              =   -8528.16536670 Ry
     Harris-Foulkes estimate   =   -8528.18331050 Ry
     estimated scf accuracy    <       0.11236493 Ry

     iteration #  6     ecut=    40.00 Ry     beta=0.30
     Davidson diagonalization with overlap
     ethr =  1.10E-05,  avg # of iterations =  9.6

     total cpu time spent up to now is    12064.9 secs

     total energy              =   -8528.15528750 Ry
     Harris-Foulkes estimate   =   -8528.17044785 Ry
     estimated scf accuracy    <       0.05193569 Ry

     iteration #  7     ecut=    40.00 Ry     beta=0.30
     Davidson diagonalization with overlap
     ethr =  5.07E-06,  avg # of iterations =  5.1

     total cpu time spent up to now is    14160.1 secs

     total energy              =   -8528.15569093 Ry
     Harris-Foulkes estimate   =   -8528.15949739 Ry
     estimated scf accuracy    <       0.00933559 Ry

     iteration #  8     ecut=    40.00 Ry     beta=0.30
     Davidson diagonalization with overlap
     ethr =  9.12E-07,  avg # of iterations =  7.0

     total cpu time spent up to now is    16791.4 secs

     total energy              =   -8528.15702870 Ry
     Harris-Foulkes estimate   =   -8528.15770203 Ry
     estimated scf accuracy    <       0.00406029 Ry

     iteration #  9     ecut=    40.00 Ry     beta=0.30
     Davidson diagonalization with overlap
     ethr =  3.97E-07,  avg # of iterations =  1.0

     total cpu time spent up to now is    17940.7 secs

     total energy              =   -8528.15672642 Ry
     Harris-Foulkes estimate   =   -8528.15718061 Ry
     estimated scf accuracy    <       0.00187482 Ry

     iteration # 10     ecut=    40.00 Ry     beta=0.30
     Davidson diagonalization with overlap
     ethr =  1.83E-07,  avg # of iterations =  2.0

     total cpu time spent up to now is    19412.4 secs

     total energy              =   -8528.15673270 Ry
     Harris-Foulkes estimate   =   -8528.15688196 Ry
     estimated scf accuracy    <       0.00065526 Ry

     iteration # 11     ecut=    40.00 Ry     beta=0.30
     Davidson diagonalization with overlap
     ethr =  6.40E-08,  avg # of iterations =  1.0

     total cpu time spent up to now is    20547.8 secs

     total energy              =   -8528.15671128 Ry
     Harris-Foulkes estimate   =   -8528.15676819 Ry
     estimated scf accuracy    <       0.00023834 Ry

     iteration # 12     ecut=    40.00 Ry     beta=0.30
     Davidson diagonalization with overlap
     ethr =  2.33E-08,  avg # of iterations =  2.0

     total cpu time spent up to now is    21822.8 secs

     total energy              =   -8528.15668159 Ry
     Harris-Foulkes estimate   =   -8528.15672661 Ry
     estimated scf accuracy    <       0.00010660 Ry

     iteration # 13     ecut=    40.00 Ry     beta=0.30
     Davidson diagonalization with overlap
     ethr =  1.04E-08,  avg # of iterations =  2.0

     total cpu time spent up to now is    23291.7 secs

     total energy              =   -8528.15669080 Ry
     Harris-Foulkes estimate   =   -8528.15669499 Ry
     estimated scf accuracy    <       0.00001317 Ry

     iteration # 14     ecut=    40.00 Ry     beta=0.30
     Davidson diagonalization with overlap
     ethr =  1.29E-09,  avg # of iterations =  2.0

     total cpu time spent up to now is    24766.5 secs

     total energy              =   -8528.15669148 Ry
     Harris-Foulkes estimate   =   -8528.15669214 Ry
     estimated scf accuracy    <       0.00000343 Ry

     iteration # 15     ecut=    40.00 Ry     beta=0.30
     Davidson diagonalization with overlap
     ethr =  3.35E-10,  avg # of iterations =  2.0

     total cpu time spent up to now is    26181.0 secs

     total energy              =   -8528.15669167 Ry
     Harris-Foulkes estimate   =   -8528.15669187 Ry
     estimated scf accuracy    <       0.00000099 Ry

     iteration # 16     ecut=    40.00 Ry     beta=0.30
     Davidson diagonalization with overlap
     ethr =  9.65E-11,  avg # of iterations =  2.0

     total cpu time spent up to now is    27443.5 secs

     total energy              =   -8528.15669155 Ry
     Harris-Foulkes estimate   =   -8528.15669172 Ry
     estimated scf accuracy    <       0.00000045 Ry

     iteration # 17     ecut=    40.00 Ry     beta=0.30
     Davidson diagonalization with overlap
     ethr =  4.35E-11,  avg # of iterations =  2.0

     total cpu time spent up to now is    29095.1 secs

     total energy              =   -8528.15669157 Ry
     Harris-Foulkes estimate   =   -8528.15669159 Ry
     estimated scf accuracy    <       0.00000012 Ry

     iteration # 18     ecut=    40.00 Ry     beta=0.30
     Davidson diagonalization with overlap
     ethr =  1.14E-11,  avg # of iterations =  1.0

     total cpu time spent up to now is    30379.8 secs

     total energy              =   -8528.15669156 Ry
     Harris-Foulkes estimate   =   -8528.15669158 Ry
     estimated scf accuracy    <       0.00000007 Ry

     iteration # 19     ecut=    40.00 Ry     beta=0.30
     Davidson diagonalization with overlap
     ethr =  7.15E-12,  avg # of iterations =  2.0

     total cpu time spent up to now is    31817.4 secs

     total energy              =   -8528.15669156 Ry
     Harris-Foulkes estimate   =   -8528.15669157 Ry
     estimated scf accuracy    <       0.00000003 Ry

     iteration # 20     ecut=    40.00 Ry     beta=0.30
     Davidson diagonalization with overlap
     ethr =  2.50E-12,  avg # of iterations =  2.0

     total cpu time spent up to now is    33210.8 secs

     total energy              =   -8528.15669156 Ry
     Harris-Foulkes estimate   =   -8528.15669157 Ry
     estimated scf accuracy    <       0.00000001 Ry

     iteration # 21     ecut=    40.00 Ry     beta=0.30
     Davidson diagonalization with overlap
     ethr =  1.16E-12,  avg # of iterations =  1.0

     total cpu time spent up to now is    34539.5 secs

     total energy              =   -8528.15669156 Ry
     Harris-Foulkes estimate   =   -8528.15669156 Ry
     estimated scf accuracy    <          6.2E-09 Ry

     iteration # 22     ecut=    40.00 Ry     beta=0.30
     Davidson diagonalization with overlap
     ethr =  6.06E-13,  avg # of iterations =  1.0

     total cpu time spent up to now is    35776.5 secs

     total energy              =   -8528.15669156 Ry
     Harris-Foulkes estimate   =   -8528.15669156 Ry
     estimated scf accuracy    <          3.5E-09 Ry

     iteration # 23     ecut=    40.00 Ry     beta=0.30
     Davidson diagonalization with overlap
     ethr =  3.44E-13,  avg # of iterations =  2.0

     total cpu time spent up to now is    37144.5 secs

     total energy              =   -8528.15669156 Ry
     Harris-Foulkes estimate   =   -8528.15669156 Ry
     estimated scf accuracy    <          1.7E-09 Ry

     iteration # 24     ecut=    40.00 Ry     beta=0.30
     Davidson diagonalization with overlap
     ethr =  1.62E-13,  avg # of iterations =  1.0

     total cpu time spent up to now is    38493.2 secs

     total energy              =   -8528.15669156 Ry
     Harris-Foulkes estimate   =   -8528.15669156 Ry
     estimated scf accuracy    <          9.4E-10 Ry

     iteration # 25     ecut=    40.00 Ry     beta=0.30
     Davidson diagonalization with overlap
     ethr =  1.00E-13,  avg # of iterations =  1.1

     total cpu time spent up to now is    39735.3 secs

     total energy              =   -8528.15669156 Ry
     Harris-Foulkes estimate   =   -8528.15669156 Ry
     estimated scf accuracy    <          3.6E-10 Ry

     iteration # 26     ecut=    40.00 Ry     beta=0.30
     Davidson diagonalization with overlap
     ethr =  1.00E-13,  avg # of iterations =  1.0

     total cpu time spent up to now is    40957.8 secs

     End of self-consistent calculation

          k = 0.0000 0.0000 0.0000 ( 42269 PWs)   bands (ev):

   -65.3483 -65.3408 -65.3317 -65.3091 -65.2851 -65.2835 -65.2468 -65.2445
   -65.2353 -65.2322 -65.1801 -65.1787 -65.1766 -65.1669 -65.1664 -65.1516
   -65.1473 -65.1467 -65.1465 -65.1331 -65.1230 -65.1221 -65.1204 -65.1109
   -65.1092 -65.1027 -65.1022 -65.0966 -65.0555 -65.0236 -65.0222 -65.0111
   -64.9380 -32.3162 -32.3095 -32.3085 -32.3078 -32.3052 -32.2992 -32.2975
   -32.2955 -32.2904 -32.2734 -32.2728 -32.2693 -32.2538 -32.2509 -32.2460
   -32.2446 -32.2435 -32.2394 -32.2152 -32.2124 -32.2122 -32.2050 -32.2043
   -32.2038 -32.2029 -32.2006 -32.1978 -32.1952 -32.1906 -32.1875 -32.1494
   -32.1472 -32.1453 -32.1431 -32.1422 -32.1404 -32.1390 -32.1385 -32.1368
   -32.1343 -32.1335 -32.1324 -32.1296 -32.1276 -32.1190 -32.1189 -32.1157
   -32.1141 -32.1138 -32.1123 -32.1108 -32.1091 -32.1090 -32.1085 -32.1077
   -32.1066 -32.1051 -32.1013 -32.0949 -32.0919 -32.0903 -32.0890 -32.0875
   -32.0864 -32.0854 -32.0828 -32.0798 -32.0785 -32.0781 -32.0774 -32.0748
   -32.0728 -32.0723 -32.0721 -32.0706 -32.0704 -32.0700 -32.0649 -32.0636
   -32.0626 -32.0616 -32.0583 -32.0550 -32.0539 -32.0260 -32.0184 -32.0114
   -31.9968 -31.9884 -31.9881 -31.9862 -31.9800 -31.9794 -31.9790 -31.9763
   -31.9684 -31.9040 -31.9001 -31.8968 -28.8297 -28.8154 -28.7549 -28.7443
   -28.7309 -28.7099 -28.7076 -28.6769 -28.6724 -28.6661 -28.6516 -28.6472
   -28.6343 -28.6296 -28.6276 -28.6200 -28.6089 -28.5866 -28.5746 -28.5644
   -28.5514 -28.5384 -28.5271 -28.5231 -28.5206 -28.5082 -28.5005 -28.4890
   -28.4589 -28.4553 -28.4472 -11.3096 -11.2473 -11.2257 -11.2033 -11.0688
   -11.0407 -11.0186 -11.0026 -10.9835 -10.9773 -10.9618 -10.9447 -10.9175
   -10.8892 -10.8746 -10.8652 -10.8303 -10.8038 -10.7799 -10.7758 -10.7506
   -10.7100 -10.6924 -10.6763 -10.6508 -10.6376 -10.6125 -10.5972 -10.5692
   -10.5491 -10.5342 -10.5108 -10.5011 -10.4684 -10.4584 -10.4390 -10.4150
   -10.3827 -10.3600 -10.3357 -10.3147 -10.2930 -10.2763 -10.2669 -10.2243
   -10.2062 -10.1963 -10.1721 -10.1536 -10.1333 -10.1253 -10.1143 -10.1038
   -10.0948 -10.0841 -10.0712 -10.0350 -10.0210 -10.0053  -9.9939  -9.9838
    -9.9747  -9.9521  -9.9412  -9.9165  -9.9055  -9.8950  -9.8850  -9.8690
    -9.8515  -9.8381  -9.8310  -9.8274  -9.8119  -9.7967  -9.7840  -9.7734
    -9.7678  -9.7541  -9.7500  -9.7391  -9.7323  -9.7198  -9.7157  -9.7108
    -9.7007  -9.6954  -9.6691  -9.6663  -9.6309  -9.6175  -9.6077  -9.5829
    -8.3724  -7.8820  -7.8373  -7.7852  -7.7636  -7.7456  -7.7363  -7.7280
    -7.7064  -7.6872  -7.6754  -7.6126  -7.5876  -7.5719  -7.5496  -7.5309
    -7.4947  -7.4616  -7.4559  -7.4206  -7.3890  -7.3763  -7.3705  -7.3296
    -7.3110  -7.2844  -7.2770  -7.2278  -7.2107  -7.2059  -7.1766  -7.1556
    -7.1147  -7.1110  -7.0994  -7.0660  -7.0542  -7.0008  -6.9842  -6.9711
    -6.9573  -6.9409  -6.9380  -6.8904  -6.8817  -6.8572  -6.8410  -6.8008
    -6.7908  -6.7726  -6.7549  -6.7190  -6.6852  -6.6518  -6.6362  -6.6126
    -6.6040  -6.5866  -6.5728  -6.4318  -6.4218  -6.4033  -6.3873  -6.2195
     3.6298   3.7812   4.0066   4.0203   4.2932   4.3147   4.3706   4.3893
     4.4103   4.4334   4.4409   4.4936   4.5183   4.5701   4.5997   4.6227
     4.6384   4.6730   4.6997   4.7328   4.7384   4.7771   4.8029   4.8526
     4.8700   4.9214   4.9453   4.9652   4.9805   4.9938   5.0181   5.0504
     5.0745   5.1501   5.1832   5.2070   5.2425   5.2806   5.3134   5.3214
     5.3712   5.3940   5.4044   5.4307   5.4655   5.4716   5.4900   5.5166
     5.5497   5.5617   5.5714   5.5852   5.6019   5.6481   5.6604   5.6860
     5.7086   5.7369   5.7624   5.7658   5.7789   5.8019   5.8259   5.8642
     5.8777   5.8885   5.9133   5.9259   5.9388   5.9699   5.9725   5.9967
     6.0080   6.0361   6.0656   6.0715   6.0905   6.0947   6.1138   6.1280
     6.1503   6.1660   6.1778   6.1991   6.2090   6.2175   6.2340   6.2569
     6.2709   6.2792   6.2928   6.2930   6.3099   6.3389   6.3413   6.3609
     6.3724   6.3894   6.4045   6.4177   6.4247   6.4384   6.4461   6.4506
     6.4637   6.4842   6.4875   6.4980   6.5190   6.5205   6.5344   6.5474
     6.5487   6.5672   6.5733   6.5827   6.5971   6.6228   6.6255   6.6525
     6.6545   6.6648   6.6772   6.6891   6.7022   6.7094   6.7187   6.7468
     6.7536   6.7722   6.7853   6.7908   6.8074   6.8178   6.8304   6.8395
     6.8426   6.8642   6.8706   6.8708   6.8836   6.8943   6.9044   6.9229
     6.9278   6.9365   6.9441   6.9661   6.9797   6.9877   7.0113   7.0174
     7.0422   7.0458   7.0555   7.0611   7.0714   7.0865   7.0930   7.1124
     7.1304   7.1414   7.1575   7.1623   7.1802   7.1848   7.1966   7.2050
     7.2141   7.2219   7.2338   7.2372   7.2536   7.2646   7.2836   7.2871
     7.2974   7.2981   7.3086   7.3214   7.3375   7.3465   7.3530   7.3724
     7.3818   7.4075   7.4729   7.4942   7.5451   7.7203   7.7327   7.7422
    11.6509  12.5853  12.6535  12.6770  13.3850  13.4022  13.4449  13.4663
    13.5489  13.5656  13.5995  13.6353  13.6953  13.7124  13.7394  13.7611
    13.8568  13.8867  13.9197  13.9882  13.9971  14.0425  14.0592  14.0949
    14.1073  14.1282  14.1551  14.1967  14.2401  14.2672  14.2952  14.3293
    14.3394  14.3505  14.3840  14.4726  14.4976  14.6036  14.6408  14.6573
    14.6692  14.7397  14.8023  14.8379  14.8585  14.8898  14.9166  14.9447
    14.9965  15.0606  15.0880  15.1175  15.1431  15.1873  15.2162  15.2647
    15.3000  15.3248  15.3263  15.3612  15.3926  15.4213  15.4515  15.4668
    15.4904  15.5030  15.5232  15.5289  15.5550  15.5651  15.5807  15.6040
    15.6500  15.6761  15.6995  15.7247  15.7372  15.7517  15.7908  15.8288
    15.8446  15.8798  15.8977  15.9320  15.9512  15.9670  15.9918  16.0241
    16.0577  16.0857  16.1459  16.1642  16.1954  16.2273  16.2485  16.2612
    16.2767  16.2884  16.2996  16.3464  16.3574  16.3858

     occupation numbers 
     1.0000   1.0000   1.0000   1.0000   1.0000   1.0000   1.0000   1.0000
     1.0000   1.0000   1.0000   1.0000   1.0000   1.0000   1.0000   1.0000
     1.0000   1.0000   1.0000   1.0000   1.0000   1.0000   1.0000   1.0000
     1.0000   1.0000   1.0000   1.0000   1.0000   1.0000   1.0000   1.0000
     1.0000   1.0000   1.0000   1.0000   1.0000   1.0000   1.0000   1.0000
     1.0000   1.0000   1.0000   1.0000   1.0000   1.0000   1.0000   1.0000
     1.0000   1.0000   1.0000   1.0000   1.0000   1.0000   1.0000   1.0000
     1.0000   1.0000   1.0000   1.0000   1.0000   1.0000   1.0000   1.0000
     1.0000   1.0000   1.0000   1.0000   1.0000   1.0000   1.0000   1.0000
     1.0000   1.0000   1.0000   1.0000   1.0000   1.0000   1.0000   1.0000
     1.0000   1.0000   1.0000   1.0000   1.0000   1.0000   1.0000   1.0000
     1.0000   1.0000   1.0000   1.0000   1.0000   1.0000   1.0000   1.0000
     1.0000   1.0000   1.0000   1.0000   1.0000   1.0000   1.0000   1.0000
     1.0000   1.0000   1.0000   1.0000   1.0000   1.0000   1.0000   1.0000
     1.0000   1.0000   1.0000   1.0000   1.0000   1.0000   1.0000   1.0000
     1.0000   1.0000   1.0000   1.0000   1.0000   1.0000   1.0000   1.0000
     1.0000   1.0000   1.0000   1.0000   1.0000   1.0000   1.0000   1.0000
     1.0000   1.0000   1.0000   1.0000   1.0000   1.0000   1.0000   1.0000
     1.0000   1.0000   1.0000   1.0000   1.0000   1.0000   1.0000   1.0000
     1.0000   1.0000   1.0000   1.0000   1.0000   1.0000   1.0000   1.0000
     1.0000   1.0000   1.0000   1.0000   1.0000   1.0000   1.0000   1.0000
     1.0000   1.0000   1.0000   1.0000   1.0000   1.0000   1.0000   1.0000
     1.0000   1.0000   1.0000   1.0000   1.0000   1.0000   1.0000   1.0000
     1.0000   1.0000   1.0000   1.0000   1.0000   1.0000   1.0000   1.0000
     1.0000   1.0000   1.0000   1.0000   1.0000   1.0000   1.0000   1.0000
     1.0000   1.0000   1.0000   1.0000   1.0000   1.0000   1.0000   1.0000
     1.0000   1.0000   1.0000   1.0000   1.0000   1.0000   1.0000   1.0000
     1.0000   1.0000   1.0000   1.0000   1.0000   1.0000   1.0000   1.0000
     1.0000   1.0000   1.0000   1.0000   1.0000   1.0000   1.0000   1.0000
     1.0000   1.0000   1.0000   1.0000   1.0000   1.0000   1.0000   1.0000
     1.0000   1.0000   1.0000   1.0000   1.0000   1.0000   1.0000   1.0000
     1.0000   1.0000   1.0000   1.0000   1.0000   1.0000   1.0000   1.0000
     1.0000   1.0000   1.0000   1.0000   1.0000   1.0000   1.0000   1.0000
     1.0000   1.0000   1.0000   1.0000   1.0000   1.0000   1.0000   1.0000
     1.0000   1.0000   1.0000   1.0000   1.0000   1.0000   1.0000   1.0000
     1.0000   1.0000   1.0000   1.0000   1.0000   1.0000   1.0000   1.0000
     1.0000   1.0000   1.0000   1.0000   1.0000   1.0000   1.0000   1.0000
     1.0000   1.0000   1.0000   1.0000   1.0000   1.0000   1.0000   1.0000
     1.0000   1.0000   1.0000   1.0000   1.0000   1.0000   1.0000   1.0000
     1.0000   1.0000   1.0000   1.0000   1.0000   1.0000   1.0000   1.0000
     1.0000   1.0000   1.0000   1.0000   1.0000   1.0000   1.0000   1.0000
     1.0000   1.0000   1.0000   1.0000   1.0000   1.0000   1.0000   1.0000
     1.0000   1.0000   1.0000   1.0000   1.0000   1.0000   1.0000   1.0000
     1.0000   1.0000   1.0000   1.0000   1.0000   1.0000   1.0000   1.0000
     1.0000   1.0000   1.0000   1.0000   1.0000   1.0000   1.0000   1.0000
     1.0000   1.0000   1.0000   1.0000   1.0000   1.0000   1.0000   1.0000
     1.0000   1.0000   1.0000   1.0000   1.0000   1.0000   1.0000   1.0000
     1.0000   1.0000   1.0000   1.0000   1.0000   1.0000   1.0000   1.0000
     1.0000   1.0000   1.0000   1.0000   1.0000   1.0000   1.0000   1.0000
     1.0000   1.0000   1.0000   1.0000   1.0000   1.0000   1.0000   1.0000
     1.0000   1.0000   1.0000   1.0000   1.0000   1.0000   1.0000   1.0000
     1.0000   1.0000   1.0000   1.0000   1.0000   1.0000   1.0000   1.0000
     1.0000   1.0000   1.0000   1.0000   1.0000   1.0000   1.0000   1.0000
     1.0000   1.0000   1.0000   1.0000   1.0000   1.0000   1.0000   1.0000
     1.0000   1.0000   1.0000   1.0000   1.0000   1.0000   1.0000   1.0000
     1.0000   1.0000   1.0000   1.0000   1.0000   1.0000   1.0000   1.0000
     1.0000   1.0000   1.0000   1.0000   1.0000   1.0000   1.0000   1.0000
     1.0000   1.0000   1.0000   1.0000   1.0000   1.0000   1.0000   1.0000
     1.0000   1.0000   1.0000   1.0000   1.0000   1.0000   1.0000   1.0000
     1.0000   1.0000   1.0000   1.0000   1.0000   1.0000   1.0000   1.0000
     1.0000   1.0000   1.0000   1.0000   1.0000   1.0000   1.0000   1.0000
     1.0000   1.0000   1.0000   1.0000   1.0000   1.0000   1.0000   1.0000
     1.0000   1.0000   1.0000   1.0000   1.0000   1.0000   1.0000   1.0000
     1.0000   1.0000   1.0000   1.0000   1.0000   1.0000   1.0000   1.0000
     0.0000   0.0000   0.0000   0.0000   0.0000   0.0000   0.0000   0.0000
     0.0000   0.0000   0.0000   0.0000   0.0000   0.0000   0.0000   0.0000
     0.0000   0.0000   0.0000   0.0000   0.0000   0.0000   0.0000   0.0000
     0.0000   0.0000   0.0000   0.0000   0.0000   0.0000   0.0000   0.0000
     0.0000   0.0000   0.0000   0.0000   0.0000   0.0000   0.0000   0.0000
     0.0000   0.0000   0.0000   0.0000   0.0000   0.0000   0.0000   0.0000
     0.0000   0.0000   0.0000   0.0000   0.0000   0.0000   0.0000   0.0000
     0.0000   0.0000   0.0000   0.0000   0.0000   0.0000   0.0000   0.0000
     0.0000   0.0000   0.0000   0.0000   0.0000   0.0000   0.0000   0.0000
     0.0000   0.0000   0.0000   0.0000   0.0000   0.0000   0.0000   0.0000
     0.0000   0.0000   0.0000   0.0000   0.0000   0.0000   0.0000   0.0000
     0.0000   0.0000   0.0000   0.0000   0.0000   0.0000   0.0000   0.0000
     0.0000   0.0000   0.0000   0.0000   0.0000   0.0000

          k =-0.3532-0.3532 0.3544 ( 42280 PWs)   bands (ev):

   -65.3483 -65.3408 -65.3317 -65.3091 -65.2851 -65.2835 -65.2468 -65.2445
   -65.2353 -65.2322 -65.1801 -65.1787 -65.1766 -65.1669 -65.1664 -65.1516
   -65.1473 -65.1467 -65.1465 -65.1331 -65.1230 -65.1221 -65.1204 -65.1109
   -65.1092 -65.1027 -65.1022 -65.0966 -65.0555 -65.0236 -65.0222 -65.0111
   -64.9380 -32.3162 -32.3095 -32.3085 -32.3078 -32.3052 -32.2992 -32.2975
   -32.2955 -32.2904 -32.2734 -32.2728 -32.2693 -32.2538 -32.2509 -32.2460
   -32.2446 -32.2435 -32.2394 -32.2152 -32.2124 -32.2122 -32.2050 -32.2043
   -32.2038 -32.2029 -32.2006 -32.1978 -32.1952 -32.1906 -32.1875 -32.1494
   -32.1472 -32.1453 -32.1431 -32.1423 -32.1404 -32.1390 -32.1385 -32.1368
   -32.1343 -32.1335 -32.1324 -32.1296 -32.1276 -32.1190 -32.1189 -32.1157
   -32.1141 -32.1138 -32.1123 -32.1108 -32.1091 -32.1090 -32.1085 -32.1077
   -32.1066 -32.1051 -32.1013 -32.0949 -32.0919 -32.0902 -32.0890 -32.0875
   -32.0864 -32.0854 -32.0828 -32.0798 -32.0785 -32.0781 -32.0774 -32.0748
   -32.0728 -32.0723 -32.0721 -32.0706 -32.0704 -32.0699 -32.0649 -32.0636
   -32.0626 -32.0616 -32.0583 -32.0550 -32.0539 -32.0260 -32.0184 -32.0114
   -31.9968 -31.9884 -31.9881 -31.9862 -31.9800 -31.9794 -31.9790 -31.9763
   -31.9684 -31.9040 -31.9001 -31.8968 -28.8291 -28.8156 -28.7579 -28.7443
   -28.7260 -28.7120 -28.7074 -28.6770 -28.6722 -28.6663 -28.6526 -28.6470
   -28.6376 -28.6304 -28.6256 -28.6168 -28.6079 -28.5858 -28.5761 -28.5660
   -28.5520 -28.5378 -28.5267 -28.5226 -28.5208 -28.5080 -28.5005 -28.4890
   -28.4590 -28.4553 -28.4473 -11.2755 -11.2377 -11.2223 -11.1826 -11.1327
   -11.0528 -11.0254 -11.0124 -11.0018 -10.9917 -10.9653 -10.9511 -10.9304
   -10.8809 -10.8631 -10.8405 -10.8133 -10.8042 -10.7962 -10.7893 -10.7281
   -10.7164 -10.6891 -10.6733 -10.6654 -10.6235 -10.6044 -10.5970 -10.5784
   -10.5688 -10.5334 -10.5117 -10.5081 -10.4854 -10.4332 -10.4150 -10.3969
   -10.3891 -10.3458 -10.3315 -10.3102 -10.2861 -10.2739 -10.2657 -10.2262
   -10.2124 -10.2012 -10.1875 -10.1551 -10.1307 -10.1216 -10.1084 -10.1007
   -10.0844 -10.0726 -10.0510 -10.0330 -10.0157  -9.9842  -9.9790  -9.9718
    -9.9575  -9.9458  -9.9353  -9.9112  -9.9061  -9.8908  -9.8781  -9.8732
    -9.8474  -9.8443  -9.8400  -9.8192  -9.8143  -9.8063  -9.7967  -9.7897
    -9.7621  -9.7556  -9.7487  -9.7440  -9.7414  -9.7244  -9.7163  -9.7120
    -9.7103  -9.6906  -9.6838  -9.6792  -9.6627  -9.6460  -9.6263  -9.6093
    -8.1159  -8.0334  -7.8792  -7.8252  -7.7738  -7.7605  -7.7499  -7.7317
    -7.7090  -7.6807  -7.6482  -7.6195  -7.5873  -7.5628  -7.5302  -7.5215
    -7.4902  -7.4749  -7.4471  -7.4234  -7.3785  -7.3571  -7.3520  -7.3342
    -7.3100  -7.2887  -7.2826  -7.2618  -7.2185  -7.1994  -7.1614  -7.1511
    -7.1254  -7.1166  -7.1071  -7.1018  -7.0694  -7.0355  -7.0033  -6.9972
    -6.9691  -6.9604  -6.9140  -6.9106  -6.8737  -6.8398  -6.8316  -6.7947
    -6.7840  -6.7357  -6.7278  -6.6933  -6.6462  -6.6355  -6.6120  -6.5891
    -6.5717  -6.5525  -6.5480  -6.4860  -6.4589  -6.4440  -6.3646  -6.2697
     3.7952   3.9376   4.0395   4.1508   4.1720   4.2336   4.2776   4.3038
     4.3459   4.3767   4.4005   4.4532   4.4677   4.5095   4.5469   4.5624
     4.6187   4.6496   4.6858   4.7447   4.7733   4.7991   4.8232   4.8561
     4.8761   4.9469   4.9530   4.9922   5.0114   5.0490   5.0625   5.0984
     5.1063   5.1246   5.1428   5.1864   5.2163   5.2331   5.2466   5.2805
     5.2914   5.3298   5.3480   5.3650   5.3964   5.4338   5.4473   5.4676
     5.4955   5.5188   5.5436   5.5813   5.5878   5.6099   5.6331   5.6742
     5.7093   5.7408   5.7771   5.7930   5.8234   5.8282   5.8393   5.8866
     5.9053   5.9146   5.9272   5.9428   5.9624   5.9784   6.0130   6.0163
     6.0289   6.0533   6.0756   6.0985   6.1191   6.1541   6.1601   6.1830
     6.2050   6.2130   6.2257   6.2384   6.2596   6.2805   6.3015   6.3171
     6.3332   6.3435   6.3582   6.3682   6.3728   6.3839   6.3961   6.4044
     6.4223   6.4307   6.4424   6.4502   6.4553   6.4660   6.4813   6.4876
     6.5059   6.5151   6.5259   6.5377   6.5546   6.5616   6.5799   6.5831
     6.5937   6.5953   6.6090   6.6237   6.6249   6.6483   6.6587   6.6636
     6.6731   6.6786   6.6879   6.7174   6.7275   6.7366   6.7417   6.7468
     6.7602   6.7677   6.7709   6.7750   6.7930   6.7941   6.8155   6.8250
     6.8368   6.8386   6.8461   6.8648   6.8796   6.8865   6.8887   6.9035
     6.9048   6.9165   6.9360   6.9444   6.9539   6.9704   6.9804   6.9874
     6.9990   7.0182   7.0238   7.0254   7.0439   7.0507   7.0724   7.0761
     7.0809   7.1045   7.1151   7.1191   7.1228   7.1401   7.1509   7.1560
     7.1764   7.1896   7.2048   7.2141   7.2264   7.2288   7.2403   7.2519
     7.2740   7.2840   7.3012   7.3134   7.3451   7.3736   7.3791   7.3832
     7.4056   7.4170   7.4362   7.4382   7.5504   7.5739   7.5883   7.5967
    12.3563  12.4336  12.8963  12.9345  13.0157  13.1970  13.2541  13.2721
    13.3256  13.4404  13.4905  13.5611  13.5851  13.6249  13.6459  13.7598
    13.7953  13.8206  13.8652  14.0404  14.0640  14.1543  14.1951  14.2139
    14.2661  14.3409  14.3520  14.3672  14.4242  14.4413  14.4710  14.4919
    14.5047  14.5374  14.5662  14.6103  14.6251  14.6611  14.6815  14.6896
    14.7318  14.7534  14.7869  14.7908  14.8300  14.8812  14.9141  14.9304
    14.9383  14.9584  14.9705  14.9952  15.0526  15.0844  15.1008  15.1754
    15.1842  15.2020  15.2207  15.2589  15.3014  15.3378  15.3527  15.3720
    15.4011  15.4044  15.4418  15.4745  15.5344  15.5425  15.5615  15.5753
    15.5944  15.5995  15.6310  15.7059  15.7161  15.7729  15.7986  15.8117
    15.8340  15.8551  15.8938  15.9008  15.9539  15.9851  16.0178  16.0232
    16.0457  16.0999  16.1122  16.1203  16.1499  16.1705  16.1957  16.2223
    16.2595  16.2831  16.3250  16.3608  16.3957  16.4144

     occupation numbers 
     1.0000   1.0000   1.0000   1.0000   1.0000   1.0000   1.0000   1.0000
     1.0000   1.0000   1.0000   1.0000   1.0000   1.0000   1.0000   1.0000
     1.0000   1.0000   1.0000   1.0000   1.0000   1.0000   1.0000   1.0000
     1.0000   1.0000   1.0000   1.0000   1.0000   1.0000   1.0000   1.0000
     1.0000   1.0000   1.0000   1.0000   1.0000   1.0000   1.0000   1.0000
     1.0000   1.0000   1.0000   1.0000   1.0000   1.0000   1.0000   1.0000
     1.0000   1.0000   1.0000   1.0000   1.0000   1.0000   1.0000   1.0000
     1.0000   1.0000   1.0000   1.0000   1.0000   1.0000   1.0000   1.0000
     1.0000   1.0000   1.0000   1.0000   1.0000   1.0000   1.0000   1.0000
     1.0000   1.0000   1.0000   1.0000   1.0000   1.0000   1.0000   1.0000
     1.0000   1.0000   1.0000   1.0000   1.0000   1.0000   1.0000   1.0000
     1.0000   1.0000   1.0000   1.0000   1.0000   1.0000   1.0000   1.0000
     1.0000   1.0000   1.0000   1.0000   1.0000   1.0000   1.0000   1.0000
     1.0000   1.0000   1.0000   1.0000   1.0000   1.0000   1.0000   1.0000
     1.0000   1.0000   1.0000   1.0000   1.0000   1.0000   1.0000   1.0000
     1.0000   1.0000   1.0000   1.0000   1.0000   1.0000   1.0000   1.0000
     1.0000   1.0000   1.0000   1.0000   1.0000   1.0000   1.0000   1.0000
     1.0000   1.0000   1.0000   1.0000   1.0000   1.0000   1.0000   1.0000
     1.0000   1.0000   1.0000   1.0000   1.0000   1.0000   1.0000   1.0000
     1.0000   1.0000   1.0000   1.0000   1.0000   1.0000   1.0000   1.0000
     1.0000   1.0000   1.0000   1.0000   1.0000   1.0000   1.0000   1.0000
     1.0000   1.0000   1.0000   1.0000   1.0000   1.0000   1.0000   1.0000
     1.0000   1.0000   1.0000   1.0000   1.0000   1.0000   1.0000   1.0000
     1.0000   1.0000   1.0000   1.0000   1.0000   1.0000   1.0000   1.0000
     1.0000   1.0000   1.0000   1.0000   1.0000   1.0000   1.0000   1.0000
     1.0000   1.0000   1.0000   1.0000   1.0000   1.0000   1.0000   1.0000
     1.0000   1.0000   1.0000   1.0000   1.0000   1.0000   1.0000   1.0000
     1.0000   1.0000   1.0000   1.0000   1.0000   1.0000   1.0000   1.0000
     1.0000   1.0000   1.0000   1.0000   1.0000   1.0000   1.0000   1.0000
     1.0000   1.0000   1.0000   1.0000   1.0000   1.0000   1.0000   1.0000
     1.0000   1.0000   1.0000   1.0000   1.0000   1.0000   1.0000   1.0000
     1.0000   1.0000   1.0000   1.0000   1.0000   1.0000   1.0000   1.0000
     1.0000   1.0000   1.0000   1.0000   1.0000   1.0000   1.0000   1.0000
     1.0000   1.0000   1.0000   1.0000   1.0000   1.0000   1.0000   1.0000
     1.0000   1.0000   1.0000   1.0000   1.0000   1.0000   1.0000   1.0000
     1.0000   1.0000   1.0000   1.0000   1.0000   1.0000   1.0000   1.0000
     1.0000   1.0000   1.0000   1.0000   1.0000   1.0000   1.0000   1.0000
     1.0000   1.0000   1.0000   1.0000   1.0000   1.0000   1.0000   1.0000
     1.0000   1.0000   1.0000   1.0000   1.0000   1.0000   1.0000   1.0000
     1.0000   1.0000   1.0000   1.0000   1.0000   1.0000   1.0000   1.0000
     1.0000   1.0000   1.0000   1.0000   1.0000   1.0000   1.0000   1.0000
     1.0000   1.0000   1.0000   1.0000   1.0000   1.0000   1.0000   1.0000
     1.0000   1.0000   1.0000   1.0000   1.0000   1.0000   1.0000   1.0000
     1.0000   1.0000   1.0000   1.0000   1.0000   1.0000   1.0000   1.0000
     1.0000   1.0000   1.0000   1.0000   1.0000   1.0000   1.0000   1.0000
     1.0000   1.0000   1.0000   1.0000   1.0000   1.0000   1.0000   1.0000
     1.0000   1.0000   1.0000   1.0000   1.0000   1.0000   1.0000   1.0000
     1.0000   1.0000   1.0000   1.0000   1.0000   1.0000   1.0000   1.0000
     1.0000   1.0000   1.0000   1.0000   1.0000   1.0000   1.0000   1.0000
     1.0000   1.0000   1.0000   1.0000   1.0000   1.0000   1.0000   1.0000
     1.0000   1.0000   1.0000   1.0000   1.0000   1.0000   1.0000   1.0000
     1.0000   1.0000   1.0000   1.0000   1.0000   1.0000   1.0000   1.0000
     1.0000   1.0000   1.0000   1.0000   1.0000   1.0000   1.0000   1.0000
     1.0000   1.0000   1.0000   1.0000   1.0000   1.0000   1.0000   1.0000
     1.0000   1.0000   1.0000   1.0000   1.0000   1.0000   1.0000   1.0000
     1.0000   1.0000   1.0000   1.0000   1.0000   1.0000   1.0000   1.0000
     1.0000   1.0000   1.0000   1.0000   1.0000   1.0000   1.0000   1.0000
     1.0000   1.0000   1.0000   1.0000   1.0000   1.0000   1.0000   1.0000
     1.0000   1.0000   1.0000   1.0000   1.0000   1.0000   1.0000   1.0000
     1.0000   1.0000   1.0000   1.0000   1.0000   1.0000   1.0000   1.0000
     1.0000   1.0000   1.0000   1.0000   1.0000   1.0000   1.0000   1.0000
     1.0000   1.0000   1.0000   1.0000   1.0000   1.0000   1.0000   1.0000
     1.0000   1.0000   1.0000   1.0000   1.0000   1.0000   1.0000   1.0000
     1.0000   1.0000   1.0000   1.0000   1.0000   1.0000   1.0000   1.0000
     0.0000   0.0000   0.0000   0.0000   0.0000   0.0000   0.0000   0.0000
     0.0000   0.0000   0.0000   0.0000   0.0000   0.0000   0.0000   0.0000
     0.0000   0.0000   0.0000   0.0000   0.0000   0.0000   0.0000   0.0000
     0.0000   0.0000   0.0000   0.0000   0.0000   0.0000   0.0000   0.0000
     0.0000   0.0000   0.0000   0.0000   0.0000   0.0000   0.0000   0.0000
     0.0000   0.0000   0.0000   0.0000   0.0000   0.0000   0.0000   0.0000
     0.0000   0.0000   0.0000   0.0000   0.0000   0.0000   0.0000   0.0000
     0.0000   0.0000   0.0000   0.0000   0.0000   0.0000   0.0000   0.0000
     0.0000   0.0000   0.0000   0.0000   0.0000   0.0000   0.0000   0.0000
     0.0000   0.0000   0.0000   0.0000   0.0000   0.0000   0.0000   0.0000
     0.0000   0.0000   0.0000   0.0000   0.0000   0.0000   0.0000   0.0000
     0.0000   0.0000   0.0000   0.0000   0.0000   0.0000   0.0000   0.0000
     0.0000   0.0000   0.0000   0.0000   0.0000   0.0000

          k =-0.3538 0.3541-0.3533 ( 42282 PWs)   bands (ev):

   -65.3483 -65.3408 -65.3317 -65.3091 -65.2851 -65.2835 -65.2468 -65.2445
   -65.2353 -65.2322 -65.1801 -65.1787 -65.1766 -65.1669 -65.1664 -65.1516
   -65.1473 -65.1467 -65.1465 -65.1331 -65.1230 -65.1221 -65.1204 -65.1109
   -65.1092 -65.1027 -65.1022 -65.0966 -65.0555 -65.0236 -65.0222 -65.0111
   -64.9380 -32.3162 -32.3095 -32.3085 -32.3078 -32.3052 -32.2992 -32.2975
   -32.2955 -32.2904 -32.2734 -32.2728 -32.2693 -32.2538 -32.2509 -32.2460
   -32.2446 -32.2435 -32.2394 -32.2152 -32.2124 -32.2122 -32.2050 -32.2043
   -32.2038 -32.2029 -32.2006 -32.1978 -32.1952 -32.1906 -32.1875 -32.1494
   -32.1472 -32.1453 -32.1431 -32.1422 -32.1404 -32.1390 -32.1385 -32.1368
   -32.1343 -32.1335 -32.1324 -32.1296 -32.1276 -32.1190 -32.1189 -32.1157
   -32.1141 -32.1138 -32.1123 -32.1108 -32.1091 -32.1090 -32.1085 -32.1077
   -32.1066 -32.1051 -32.1013 -32.0949 -32.0919 -32.0903 -32.0890 -32.0875
   -32.0864 -32.0854 -32.0828 -32.0798 -32.0785 -32.0781 -32.0774 -32.0748
   -32.0728 -32.0723 -32.0721 -32.0706 -32.0704 -32.0699 -32.0649 -32.0636
   -32.0626 -32.0616 -32.0583 -32.0550 -32.0539 -32.0260 -32.0184 -32.0114
   -31.9968 -31.9884 -31.9881 -31.9862 -31.9800 -31.9794 -31.9790 -31.9763
   -31.9684 -31.9040 -31.9001 -31.8968 -28.8286 -28.8164 -28.7574 -28.7443
   -28.7265 -28.7119 -28.7074 -28.6764 -28.6725 -28.6663 -28.6531 -28.6478
   -28.6352 -28.6293 -28.6273 -28.6159 -28.6106 -28.5868 -28.5743 -28.5641
   -28.5519 -28.5384 -28.5282 -28.5229 -28.5207 -28.5075 -28.5001 -28.4891
   -28.4590 -28.4553 -28.4473 -11.2714 -11.2328 -11.2235 -11.2000 -11.1063
   -11.0768 -11.0379 -11.0122 -10.9929 -10.9726 -10.9495 -10.9433 -10.9086
   -10.8984 -10.8854 -10.8450 -10.8362 -10.8101 -10.7968 -10.7651 -10.7433
   -10.7124 -10.7020 -10.6662 -10.6634 -10.6339 -10.6176 -10.6065 -10.5842
   -10.5668 -10.5427 -10.5374 -10.4841 -10.4745 -10.4297 -10.4125 -10.4000
   -10.3624 -10.3311 -10.3262 -10.3035 -10.2764 -10.2576 -10.2389 -10.2199
   -10.2149 -10.2065 -10.1790 -10.1509 -10.1325 -10.1205 -10.0914 -10.0894
   -10.0785 -10.0753 -10.0558 -10.0502 -10.0407 -10.0205 -10.0004  -9.9800
    -9.9675  -9.9330  -9.9252  -9.9213  -9.9111  -9.8878  -9.8765  -9.8676
    -9.8566  -9.8371  -9.8320  -9.8282  -9.8234  -9.8049  -9.7881  -9.7828
    -9.7787  -9.7700  -9.7577  -9.7474  -9.7457  -9.7289  -9.7124  -9.7067
    -9.7014  -9.6873  -9.6780  -9.6753  -9.6592  -9.6384  -9.6262  -9.6072
    -8.0883  -8.0832  -7.8742  -7.8598  -7.7788  -7.7486  -7.7209  -7.6888
    -7.6781  -7.6638  -7.6334  -7.6072  -7.5654  -7.5539  -7.5378  -7.5220
    -7.4960  -7.4769  -7.4525  -7.4328  -7.3938  -7.3826  -7.3617  -7.3288
    -7.3204  -7.2970  -7.2822  -7.2767  -7.2546  -7.2358  -7.2044  -7.1658
    -7.1555  -7.1231  -7.0933  -7.0826  -7.0540  -7.0269  -6.9984  -6.9827
    -6.9457  -6.9276  -6.9112  -6.8927  -6.8783  -6.8503  -6.8121  -6.7979
    -6.7864  -6.7453  -6.7277  -6.6915  -6.6535  -6.6415  -6.6189  -6.5776
    -6.5544  -6.5392  -6.5099  -6.4930  -6.4688  -6.4530  -6.4000  -6.2647
     3.8566   3.9270   3.9882   4.1064   4.1187   4.2040   4.2803   4.3093
     4.3464   4.4262   4.4502   4.4770   4.5219   4.5403   4.5738   4.5781
     4.6003   4.6322   4.6968   4.7169   4.7470   4.8049   4.8179   4.8450
     4.8885   4.9230   4.9365   4.9907   5.0200   5.0525   5.0648   5.0858
     5.1020   5.1247   5.1367   5.1687   5.2110   5.2237   5.2475   5.2789
     5.2959   5.3213   5.3420   5.3743   5.3949   5.4295   5.4527   5.4588
     5.4849   5.5055   5.5419   5.5425   5.5783   5.6059   5.6550   5.6731
     5.7035   5.7352   5.7738   5.8258   5.8383   5.8453   5.8632   5.8979
     5.9094   5.9252   5.9417   5.9455   5.9700   5.9876   6.0086   6.0316
     6.0541   6.0624   6.0748   6.0896   6.1153   6.1519   6.1702   6.1848
     6.1946   6.2181   6.2265   6.2473   6.2516   6.2716   6.2838   6.3049
     6.3097   6.3312   6.3475   6.3528   6.3578   6.3649   6.3860   6.4040
     6.4123   6.4271   6.4511   6.4646   6.4785   6.4796   6.4866   6.4991
     6.5175   6.5236   6.5307   6.5407   6.5511   6.5692   6.5725   6.5770
     6.5949   6.6006   6.6209   6.6346   6.6388   6.6441   6.6541   6.6633
     6.6754   6.6878   6.6918   6.7110   6.7222   6.7263   6.7290   6.7465
     6.7524   6.7710   6.7759   6.7848   6.7958   6.8087   6.8123   6.8188
     6.8284   6.8327   6.8464   6.8565   6.8728   6.8787   6.8869   6.9072
     6.9172   6.9193   6.9311   6.9356   6.9448   6.9549   6.9747   6.9944
     7.0091   7.0186   7.0265   7.0354   7.0368   7.0549   7.0775   7.0829
     7.0902   7.1003   7.1089   7.1206   7.1225   7.1297   7.1461   7.1588
     7.1779   7.1914   7.2020   7.2076   7.2208   7.2314   7.2451   7.2575
     7.2763   7.2852   7.3089   7.3202   7.3349   7.3445   7.3595   7.4013
     7.4109   7.4177   7.4484   7.4546   7.5435   7.5504   7.5763   7.6149
    12.3527  12.4440  12.8961  12.9543  12.9914  13.2046  13.2396  13.2543
    13.3780  13.4328  13.4610  13.5536  13.6027  13.6649  13.7020  13.7089
    13.7599  13.8357  13.9286  13.9460  14.1070  14.1422  14.1469  14.2177
    14.2350  14.3106  14.3332  14.3588  14.3684  14.3895  14.4451  14.4940
    14.5049  14.5407  14.5968  14.6066  14.6238  14.6659  14.6734  14.6944
    14.7218  14.7804  14.8370  14.8634  14.8781  14.9093  14.9215  14.9501
    14.9647  14.9740  15.0168  15.0421  15.0897  15.1151  15.1263  15.1496
    15.1743  15.2022  15.2142  15.2512  15.2952  15.3014  15.3348  15.3593
    15.3955  15.4320  15.4608  15.4962  15.5131  15.5310  15.5570  15.5647
    15.5860  15.6045  15.6347  15.6663  15.7013  15.7434  15.7694  15.7967
    15.8141  15.8537  15.8690  15.9079  15.9337  15.9709  16.0122  16.0325
    16.0369  16.0720  16.1139  16.1329  16.1812  16.1968  16.2152  16.2548
    16.2793  16.2993  16.3044  16.3535  16.3644  16.3990

     occupation numbers 
     1.0000   1.0000   1.0000   1.0000   1.0000   1.0000   1.0000   1.0000
     1.0000   1.0000   1.0000   1.0000   1.0000   1.0000   1.0000   1.0000
     1.0000   1.0000   1.0000   1.0000   1.0000   1.0000   1.0000   1.0000
     1.0000   1.0000   1.0000   1.0000   1.0000   1.0000   1.0000   1.0000
     1.0000   1.0000   1.0000   1.0000   1.0000   1.0000   1.0000   1.0000
     1.0000   1.0000   1.0000   1.0000   1.0000   1.0000   1.0000   1.0000
     1.0000   1.0000   1.0000   1.0000   1.0000   1.0000   1.0000   1.0000
     1.0000   1.0000   1.0000   1.0000   1.0000   1.0000   1.0000   1.0000
     1.0000   1.0000   1.0000   1.0000   1.0000   1.0000   1.0000   1.0000
     1.0000   1.0000   1.0000   1.0000   1.0000   1.0000   1.0000   1.0000
     1.0000   1.0000   1.0000   1.0000   1.0000   1.0000   1.0000   1.0000
     1.0000   1.0000   1.0000   1.0000   1.0000   1.0000   1.0000   1.0000
     1.0000   1.0000   1.0000   1.0000   1.0000   1.0000   1.0000   1.0000
     1.0000   1.0000   1.0000   1.0000   1.0000   1.0000   1.0000   1.0000
     1.0000   1.0000   1.0000   1.0000   1.0000   1.0000   1.0000   1.0000
     1.0000   1.0000   1.0000   1.0000   1.0000   1.0000   1.0000   1.0000
     1.0000   1.0000   1.0000   1.0000   1.0000   1.0000   1.0000   1.0000
     1.0000   1.0000   1.0000   1.0000   1.0000   1.0000   1.0000   1.0000
     1.0000   1.0000   1.0000   1.0000   1.0000   1.0000   1.0000   1.0000
     1.0000   1.0000   1.0000   1.0000   1.0000   1.0000   1.0000   1.0000
     1.0000   1.0000   1.0000   1.0000   1.0000   1.0000   1.0000   1.0000
     1.0000   1.0000   1.0000   1.0000   1.0000   1.0000   1.0000   1.0000
     1.0000   1.0000   1.0000   1.0000   1.0000   1.0000   1.0000   1.0000
     1.0000   1.0000   1.0000   1.0000   1.0000   1.0000   1.0000   1.0000
     1.0000   1.0000   1.0000   1.0000   1.0000   1.0000   1.0000   1.0000
     1.0000   1.0000   1.0000   1.0000   1.0000   1.0000   1.0000   1.0000
     1.0000   1.0000   1.0000   1.0000   1.0000   1.0000   1.0000   1.0000
     1.0000   1.0000   1.0000   1.0000   1.0000   1.0000   1.0000   1.0000
     1.0000   1.0000   1.0000   1.0000   1.0000   1.0000   1.0000   1.0000
     1.0000   1.0000   1.0000   1.0000   1.0000   1.0000   1.0000   1.0000
     1.0000   1.0000   1.0000   1.0000   1.0000   1.0000   1.0000   1.0000
     1.0000   1.0000   1.0000   1.0000   1.0000   1.0000   1.0000   1.0000
     1.0000   1.0000   1.0000   1.0000   1.0000   1.0000   1.0000   1.0000
     1.0000   1.0000   1.0000   1.0000   1.0000   1.0000   1.0000   1.0000
     1.0000   1.0000   1.0000   1.0000   1.0000   1.0000   1.0000   1.0000
     1.0000   1.0000   1.0000   1.0000   1.0000   1.0000   1.0000   1.0000
     1.0000   1.0000   1.0000   1.0000   1.0000   1.0000   1.0000   1.0000
     1.0000   1.0000   1.0000   1.0000   1.0000   1.0000   1.0000   1.0000
     1.0000   1.0000   1.0000   1.0000   1.0000   1.0000   1.0000   1.0000
     1.0000   1.0000   1.0000   1.0000   1.0000   1.0000   1.0000   1.0000
     1.0000   1.0000   1.0000   1.0000   1.0000   1.0000   1.0000   1.0000
     1.0000   1.0000   1.0000   1.0000   1.0000   1.0000   1.0000   1.0000
     1.0000   1.0000   1.0000   1.0000   1.0000   1.0000   1.0000   1.0000
     1.0000   1.0000   1.0000   1.0000   1.0000   1.0000   1.0000   1.0000
     1.0000   1.0000   1.0000   1.0000   1.0000   1.0000   1.0000   1.0000
     1.0000   1.0000   1.0000   1.0000   1.0000   1.0000   1.0000   1.0000
     1.0000   1.0000   1.0000   1.0000   1.0000   1.0000   1.0000   1.0000
     1.0000   1.0000   1.0000   1.0000   1.0000   1.0000   1.0000   1.0000
     1.0000   1.0000   1.0000   1.0000   1.0000   1.0000   1.0000   1.0000
     1.0000   1.0000   1.0000   1.0000   1.0000   1.0000   1.0000   1.0000
     1.0000   1.0000   1.0000   1.0000   1.0000   1.0000   1.0000   1.0000
     1.0000   1.0000   1.0000   1.0000   1.0000   1.0000   1.0000   1.0000
     1.0000   1.0000   1.0000   1.0000   1.0000   1.0000   1.0000   1.0000
     1.0000   1.0000   1.0000   1.0000   1.0000   1.0000   1.0000   1.0000
     1.0000   1.0000   1.0000   1.0000   1.0000   1.0000   1.0000   1.0000
     1.0000   1.0000   1.0000   1.0000   1.0000   1.0000   1.0000   1.0000
     1.0000   1.0000   1.0000   1.0000   1.0000   1.0000   1.0000   1.0000
     1.0000   1.0000   1.0000   1.0000   1.0000   1.0000   1.0000   1.0000
     1.0000   1.0000   1.0000   1.0000   1.0000   1.0000   1.0000   1.0000
     1.0000   1.0000   1.0000   1.0000   1.0000   1.0000   1.0000   1.0000
     1.0000   1.0000   1.0000   1.0000   1.0000   1.0000   1.0000   1.0000
     1.0000   1.0000   1.0000   1.0000   1.0000   1.0000   1.0000   1.0000
     1.0000   1.0000   1.0000   1.0000   1.0000   1.0000   1.0000   1.0000
     1.0000   1.0000   1.0000   1.0000   1.0000   1.0000   1.0000   1.0000
     0.0000   0.0000   0.0000   0.0000   0.0000   0.0000   0.0000   0.0000
     0.0000   0.0000   0.0000   0.0000   0.0000   0.0000   0.0000   0.0000
     0.0000   0.0000   0.0000   0.0000   0.0000   0.0000   0.0000   0.0000
     0.0000   0.0000   0.0000   0.0000   0.0000   0.0000   0.0000   0.0000
     0.0000   0.0000   0.0000   0.0000   0.0000   0.0000   0.0000   0.0000
     0.0000   0.0000   0.0000   0.0000   0.0000   0.0000   0.0000   0.0000
     0.0000   0.0000   0.0000   0.0000   0.0000   0.0000   0.0000   0.0000
     0.0000   0.0000   0.0000   0.0000   0.0000   0.0000   0.0000   0.0000
     0.0000   0.0000   0.0000   0.0000   0.0000   0.0000   0.0000   0.0000
     0.0000   0.0000   0.0000   0.0000   0.0000   0.0000   0.0000   0.0000
     0.0000   0.0000   0.0000   0.0000   0.0000   0.0000   0.0000   0.0000
     0.0000   0.0000   0.0000   0.0000   0.0000   0.0000   0.0000   0.0000
     0.0000   0.0000   0.0000   0.0000   0.0000   0.0000

          k =-0.7070 0.0009 0.0012 ( 42332 PWs)   bands (ev):

   -65.3483 -65.3408 -65.3317 -65.3091 -65.2851 -65.2835 -65.2468 -65.2445
   -65.2353 -65.2322 -65.1801 -65.1787 -65.1766 -65.1669 -65.1664 -65.1516
   -65.1473 -65.1467 -65.1465 -65.1331 -65.1230 -65.1221 -65.1204 -65.1109
   -65.1092 -65.1027 -65.1022 -65.0966 -65.0555 -65.0236 -65.0222 -65.0111
   -64.9380 -32.3162 -32.3095 -32.3085 -32.3078 -32.3052 -32.2992 -32.2975
   -32.2955 -32.2904 -32.2734 -32.2728 -32.2693 -32.2538 -32.2509 -32.2460
   -32.2446 -32.2435 -32.2394 -32.2152 -32.2124 -32.2122 -32.2050 -32.2043
   -32.2038 -32.2029 -32.2006 -32.1978 -32.1952 -32.1906 -32.1875 -32.1494
   -32.1472 -32.1453 -32.1431 -32.1423 -32.1404 -32.1390 -32.1385 -32.1368
   -32.1343 -32.1335 -32.1324 -32.1296 -32.1276 -32.1190 -32.1189 -32.1157
   -32.1141 -32.1138 -32.1123 -32.1108 -32.1091 -32.1090 -32.1085 -32.1077
   -32.1066 -32.1051 -32.1013 -32.0949 -32.0919 -32.0902 -32.0890 -32.0875
   -32.0864 -32.0854 -32.0828 -32.0798 -32.0785 -32.0781 -32.0774 -32.0748
   -32.0728 -32.0723 -32.0721 -32.0706 -32.0704 -32.0699 -32.0649 -32.0636
   -32.0626 -32.0616 -32.0583 -32.0550 -32.0539 -32.0260 -32.0184 -32.0114
   -31.9968 -31.9884 -31.9881 -31.9862 -31.9800 -31.9794 -31.9790 -31.9763
   -31.9684 -31.9040 -31.9001 -31.8968 -28.8284 -28.8168 -28.7551 -28.7443
   -28.7309 -28.7096 -28.7078 -28.6768 -28.6723 -28.6661 -28.6516 -28.6475
   -28.6386 -28.6294 -28.6258 -28.6165 -28.6084 -28.5861 -28.5754 -28.5662
   -28.5512 -28.5379 -28.5283 -28.5224 -28.5206 -28.5078 -28.5005 -28.4890
   -28.4589 -28.4553 -28.4472 -11.2672 -11.2348 -11.2284 -11.1841 -11.1103
   -11.0730 -11.0323 -11.0152 -11.0063 -10.9832 -10.9696 -10.9546 -10.9320
   -10.9080 -10.8749 -10.8456 -10.8414 -10.8139 -10.7830 -10.7483 -10.7339
   -10.6969 -10.6888 -10.6453 -10.6241 -10.6046 -10.5992 -10.5955 -10.5790
   -10.5495 -10.5318 -10.5246 -10.4955 -10.4916 -10.4691 -10.4244 -10.4116
   -10.3946 -10.3810 -10.3573 -10.3269 -10.3079 -10.2697 -10.2467 -10.2323
   -10.1882 -10.1781 -10.1702 -10.1554 -10.1470 -10.1345 -10.1174 -10.0983
   -10.0538 -10.0447 -10.0351 -10.0196 -10.0046 -10.0003  -9.9892  -9.9737
    -9.9615  -9.9538  -9.9205  -9.9142  -9.9104  -9.8914  -9.8858  -9.8692
    -9.8629  -9.8492  -9.8467  -9.8288  -9.8232  -9.8002  -9.7966  -9.7839
    -9.7736  -9.7597  -9.7570  -9.7431  -9.7344  -9.7269  -9.7251  -9.7162
    -9.7061  -9.6964  -9.6826  -9.6714  -9.6672  -9.6398  -9.6245  -9.5844
    -8.0393  -7.9989  -7.9068  -7.8878  -7.8508  -7.7852  -7.7654  -7.7217
    -7.7082  -7.6648  -7.6494  -7.6056  -7.5902  -7.5496  -7.5398  -7.5092
    -7.5004  -7.4885  -7.4676  -7.4114  -7.4007  -7.3740  -7.3425  -7.3167
    -7.3014  -7.2864  -7.2577  -7.2217  -7.2048  -7.1615  -7.1538  -7.1460
    -7.1275  -7.1226  -7.1074  -7.0848  -7.0459  -6.9954  -6.9840  -6.9797
    -6.9736  -6.9486  -6.9365  -6.8978  -6.8892  -6.8781  -6.8538  -6.8293
    -6.8008  -6.7823  -6.7284  -6.7064  -6.6798  -6.6333  -6.6257  -6.5988
    -6.5710  -6.5396  -6.5289  -6.4865  -6.4424  -6.4111  -6.3521  -6.2792
     3.9186   3.9413   3.9771   4.1414   4.1572   4.1757   4.2679   4.3409
     4.3573   4.3597   4.3716   4.4120   4.4794   4.5691   4.5864   4.6005
[...]
     atom   77 type  1   force =   0.00000000E+00  0.00000000E+00  0.00000000E+00
     atom   78 type  3   force =   0.00000000E+00  0.00000000E+00  0.00000000E+00
     atom   79 type  1   force =   0.00000000E+00  0.00000000E+00  0.00000000E+00
     atom   80 type  3   force =   0.00000000E+00  0.00000000E+00  0.00000000E+00
     atom   81 type  2   force =   0.00000000E+00  0.00000000E+00  0.00000000E+00
     atom   82 type  3   force =   0.00000000E+00  0.00000000E+00  0.00000000E+00
     atom   83 type  1   force =   0.00000000E+00  0.00000000E+00  0.00000000E+00
     atom   84 type  3   force =   0.00000000E+00  0.00000000E+00  0.00000000E+00
     atom   85 type  2   force =   0.00000000E+00  0.00000000E+00  0.00000000E+00
     atom   86 type  3   force =   0.00000000E+00  0.00000000E+00  0.00000000E+00
     atom   87 type  1   force =   0.00000000E+00  0.00000000E+00  0.00000000E+00
     atom   88 type  3   force =   0.00000000E+00  0.00000000E+00  0.00000000E+00
     atom   89 type  2   force =   0.00000000E+00  0.00000000E+00  0.00000000E+00
     atom   90 type  3   force =   0.00000000E+00  0.00000000E+00  0.00000000E+00
     atom   91 type  2   force =   0.00000000E+00  0.00000000E+00  0.00000000E+00
     atom   92 type  3   force =   0.00000000E+00  0.00000000E+00  0.00000000E+00
     atom   93 type  1   force =   0.00000000E+00  0.00000000E+00  0.00000000E+00
     atom   94 type  3   force =   0.00000000E+00  0.00000000E+00  0.00000000E+00
     atom   95 type  1   force =   0.00000000E+00  0.00000000E+00  0.00000000E+00
     atom   96 type  3   force =   0.00000000E+00  0.00000000E+00  0.00000000E+00
     atom   97 type  2   force =   0.00000000E+00  0.00000000E+00  0.00000000E+00
     atom   98 type  3   force =   0.00000000E+00  0.00000000E+00  0.00000000E+00
     atom   99 type  2   force =   0.00000000E+00  0.00000000E+00  0.00000000E+00
     atom  100 type  3   force =   0.00000000E+00  0.00000000E+00  0.00000000E+00
     atom  101 type  2   force =   0.00000000E+00  0.00000000E+00  0.00000000E+00
     atom  102 type  3   force =   0.00000000E+00  0.00000000E+00  0.00000000E+00
     atom  103 type  1   force =   0.00000000E+00  0.00000000E+00  0.00000000E+00
     atom  104 type  3   force =   0.00000000E+00  0.00000000E+00  0.00000000E+00
     atom  105 type  2   force =   0.00000000E+00  0.00000000E+00  0.00000000E+00
     atom  106 type  3   force =   0.00000000E+00  0.00000000E+00  0.00000000E+00
     atom  107 type  2   force =   0.00000000E+00  0.00000000E+00  0.00000000E+00
     atom  108 type  3   force =   0.00000000E+00  0.00000000E+00  0.00000000E+00
     atom  109 type  2   force =   0.00000000E+00  0.00000000E+00  0.00000000E+00
     atom  110 type  3   force =   0.00000000E+00  0.00000000E+00  0.00000000E+00
     atom  111 type  2   force =   0.00000000E+00  0.00000000E+00  0.00000000E+00
     atom  112 type  3   force =   0.00000000E+00  0.00000000E+00  0.00000000E+00
     atom  113 type  1   force =   0.00000000E+00  0.00000000E+00  0.00000000E+00
     atom  114 type  3   force =   0.00000000E+00  0.00000000E+00  0.00000000E+00
     atom  115 type  2   force =   0.00000000E+00  0.00000000E+00  0.00000000E+00
     atom  116 type  3   force =   0.00000000E+00  0.00000000E+00  0.00000000E+00
     atom  117 type  2   force =   0.00000000E+00  0.00000000E+00  0.00000000E+00
     atom  118 type  3   force =   0.00000000E+00  0.00000000E+00  0.00000000E+00
     atom  119 type  1   force =   0.00000000E+00  0.00000000E+00  0.00000000E+00
     atom  120 type  3   force =   0.00000000E+00  0.00000000E+00  0.00000000E+00
     atom  121 type  2   force =   0.00000000E+00  0.00000000E+00  0.00000000E+00
     atom  122 type  3   force =   0.00000000E+00  0.00000000E+00  0.00000000E+00
     atom  123 type  1   force =   0.00000000E+00  0.00000000E+00  0.00000000E+00
     atom  124 type  3   force =   0.00000000E+00  0.00000000E+00  0.00000000E+00
     atom  125 type  2   force =   0.00000000E+00  0.00000000E+00  0.00000000E+00
     atom  126 type  3   force =   0.00000000E+00  0.00000000E+00  0.00000000E+00
     atom  127 type  1   force =   0.00000000E+00  0.00000000E+00  0.00000000E+00
     atom  128 type  3   force =   0.00000000E+00  0.00000000E+00  0.00000000E+00
     The SCF correction term to forces
     atom    1 type  1   force =  -0.51731773E-05 -0.42886520E-06 -0.20752117E-05
     atom    2 type  3   force =   0.66595198E-06  0.17369624E-05  0.58368635E-06
     atom    3 type  1   force =  -0.85521847E-06  0.22775484E-05  0.26019231E-06
     atom    4 type  3   force =  -0.56111336E-06  0.18168470E-05  0.17945127E-06
     atom    5 type  2   force =  -0.16086980E-05  0.63229322E-05  0.60327183E-06
     atom    6 type  3   force =  -0.27173803E-05  0.34998584E-06 -0.23911322E-05
     atom    7 type  2   force =  -0.46621955E-05  0.38121231E-05 -0.12047528E-05
     atom    8 type  3   force =  -0.15792921E-05  0.39493144E-06 -0.11153631E-05
     atom    9 type  1   force =   0.22432374E-06  0.67298938E-06  0.11761488E-05
     atom   10 type  3   force =   0.36665733E-06 -0.61447000E-07  0.11205846E-05
     atom   11 type  2   force =  -0.35516801E-05  0.33131085E-05  0.26058507E-05
     atom   12 type  3   force =  -0.75040006E-06 -0.76519456E-06 -0.57429248E-07
     atom   13 type  1   force =  -0.26002390E-05  0.28531596E-05 -0.10728824E-05
     atom   14 type  3   force =  -0.19326414E-07 -0.47840656E-06 -0.39005302E-06
     atom   15 type  2   force =  -0.19397534E-05 -0.15488710E-07 -0.93938125E-06
     atom   16 type  3   force =   0.15664250E-05  0.70184852E-07  0.15791766E-05
     atom   17 type  2   force =  -0.31197678E-06 -0.10736329E-05  0.50490740E-05
     atom   18 type  3   force =  -0.10434357E-05 -0.17196385E-05  0.69545186E-06
     atom   19 type  2   force =  -0.23295820E-06 -0.22670332E-06  0.41631083E-05
     atom   20 type  3   force =   0.23019773E-06 -0.16278424E-05  0.18726640E-07
     atom   21 type  1   force =   0.61170428E-06 -0.21846788E-05  0.10803444E-05
     atom   22 type  3   force =   0.27180895E-05  0.35577193E-06  0.13526165E-05
     atom   23 type  1   force =   0.27407773E-05 -0.33198850E-06  0.25618597E-05
     atom   24 type  3   force =   0.15029637E-05 -0.16848337E-06  0.18592940E-05
     atom   25 type  1   force =  -0.33616064E-05 -0.13326823E-05  0.31046068E-05
     atom   26 type  3   force =  -0.21854774E-05 -0.10469768E-06 -0.37972789E-06
     atom   27 type  1   force =  -0.20761567E-05 -0.19005228E-06 -0.83265753E-08
     atom   28 type  3   force =   0.76757052E-06  0.18035693E-05  0.38314433E-06
     atom   29 type  1   force =   0.12148456E-05  0.15472468E-05  0.19731596E-07
     atom   30 type  3   force =   0.95572083E-06  0.20911398E-05  0.40984679E-06
     atom   31 type  2   force =   0.10105758E-05  0.24208495E-05  0.24090050E-05
     atom   32 type  3   force =  -0.24945445E-05 -0.88117431E-06 -0.13880814E-05
     atom   33 type  1   force =  -0.26076668E-05  0.23992991E-05 -0.27315864E-06
     atom   34 type  3   force =   0.67354736E-08  0.98040190E-06 -0.32928734E-06
     atom   35 type  1   force =   0.12354408E-05  0.33882621E-05  0.15908379E-05
     atom   36 type  3   force =  -0.12266667E-05 -0.37324782E-07 -0.22367523E-05
     atom   37 type  1   force =  -0.14744482E-05  0.17505547E-05 -0.21792594E-05
     atom   38 type  3   force =  -0.14485105E-05  0.28185342E-06 -0.10227535E-05
     atom   39 type  2   force =  -0.46853229E-05  0.31418006E-06 -0.46335506E-05
     atom   40 type  3   force =  -0.39542461E-06  0.17809324E-05 -0.12772455E-06
     atom   41 type  1   force =   0.16880186E-05  0.22543948E-05  0.16005852E-05
     atom   42 type  3   force =  -0.82263940E-06 -0.15420788E-05 -0.31817861E-06
     atom   43 type  2   force =  -0.34078272E-05  0.20246626E-05 -0.10412616E-05
     atom   44 type  3   force =  -0.62983705E-06 -0.66072096E-06 -0.15142961E-06
     atom   45 type  1   force =  -0.32974288E-05 -0.45318943E-06 -0.20705961E-05
     atom   46 type  3   force =   0.84202788E-06  0.15319661E-05  0.12666954E-05
     atom   47 type  2   force =   0.62353151E-06  0.18564540E-05  0.51659360E-06
     atom   48 type  3   force =   0.14077540E-05 -0.12439323E-06  0.12610386E-05
     atom   49 type  2   force =  -0.72996933E-06 -0.29175506E-05  0.36135012E-05
     atom   50 type  3   force =  -0.26080223E-06 -0.14865441E-05  0.81789645E-06
     atom   51 type  2   force =  -0.49079113E-06 -0.28928056E-05  0.47030629E-06
     atom   52 type  3   force =   0.12572440E-05  0.16545017E-06  0.15325417E-05
     atom   53 type  2   force =   0.23254368E-05 -0.39705231E-06  0.86107896E-06
     atom   54 type  3   force =   0.22194882E-05  0.16823371E-07  0.93805022E-06
     atom   55 type  1   force =   0.39917811E-05  0.67166928E-06  0.33202403E-05
     atom   56 type  3   force =   0.29360995E-06 -0.21574742E-05  0.13781718E-06
     atom   57 type  1   force =  -0.28467425E-05 -0.26084727E-05  0.16399543E-06
     atom   58 type  3   force =  -0.30585087E-06  0.54535194E-06  0.12008184E-05
     atom   59 type  2   force =   0.53263125E-06 -0.15114006E-05  0.12760602E-05
     atom   60 type  3   force =   0.16032604E-05  0.84239745E-06 -0.19434141E-06
     atom   61 type  1   force =   0.42129938E-05  0.23050532E-05  0.20744675E-05
     atom   62 type  3   force =  -0.88592502E-06 -0.52230274E-06 -0.19270480E-05
     atom   63 type  1   force =   0.11484194E-05 -0.11489380E-05 -0.14040706E-06
     atom   64 type  3   force =  -0.15422943E-05  0.44898434E-06 -0.12016754E-05
     atom   65 type  1   force =   0.12875597E-06  0.15614815E-05 -0.11724293E-05
     atom   66 type  3   force =  -0.13781395E-06 -0.15026360E-05 -0.14885031E-05
     atom   67 type  1   force =   0.59331785E-06 -0.84200969E-06 -0.30168367E-05
     atom   68 type  3   force =  -0.11551457E-06  0.19938710E-06 -0.19061187E-05
     atom   69 type  2   force =  -0.17054472E-05 -0.15817150E-05 -0.57679801E-05
     atom   70 type  3   force =   0.24927003E-06  0.83796130E-06 -0.85577300E-07
     atom   71 type  2   force =   0.11011696E-06  0.21341384E-05 -0.23903652E-05
     atom   72 type  3   force =  -0.75699232E-07  0.25929387E-06 -0.96179719E-06
     atom   73 type  1   force =   0.56714829E-06 -0.12327226E-05 -0.10868792E-05
     atom   74 type  3   force =   0.12586400E-06 -0.14773355E-05  0.26123307E-06
     atom   75 type  1   force =  -0.16014570E-05 -0.26051133E-05 -0.30890196E-05
     atom   76 type  3   force =   0.14230913E-05  0.19137483E-06  0.82490970E-07
     atom   77 type  1   force =   0.18728684E-05  0.14089854E-05 -0.12093199E-05
     atom   78 type  3   force =   0.16545137E-05 -0.49708813E-06 -0.50507771E-06
     atom   79 type  1   force =   0.16134932E-05  0.21467276E-06  0.64109730E-06
     atom   80 type  3   force =   0.28593183E-06 -0.17545326E-05 -0.64298767E-06
     atom   81 type  2   force =  -0.19315253E-06 -0.47942921E-05  0.10826619E-05
     atom   82 type  3   force =   0.21128125E-06 -0.12073293E-05  0.95668081E-06
     atom   83 type  1   force =   0.14895214E-05 -0.32602019E-05  0.11701976E-05
     atom   84 type  3   force =   0.21377378E-05 -0.49014040E-06  0.46212869E-06
     atom   85 type  2   force =   0.62625157E-05  0.41875454E-06 -0.25965348E-06
     atom   86 type  3   force =   0.14228654E-05 -0.14075950E-05 -0.14457759E-05
     atom   87 type  1   force =   0.25657176E-05 -0.24980202E-05  0.43331341E-06
     atom   88 type  3   force =   0.78343640E-06 -0.16430373E-05  0.79651690E-06
     atom   89 type  2   force =  -0.58315387E-06 -0.20701727E-05  0.11731734E-05
     atom   90 type  3   force =   0.21706061E-06 -0.57630421E-06 -0.32716689E-06
     atom   91 type  2   force =   0.46103749E-05 -0.17057050E-05  0.17208465E-05
     atom   92 type  3   force =   0.22457943E-06 -0.13537657E-05 -0.23328814E-05
     atom   93 type  1   force =   0.25902392E-05 -0.10072510E-05 -0.18203973E-05
     atom   94 type  3   force =   0.13232799E-06  0.33956349E-06 -0.15418473E-05
     atom   95 type  1   force =  -0.73993790E-08 -0.15139889E-05 -0.26227250E-05
     atom   96 type  3   force =  -0.12914737E-06  0.95602234E-06 -0.36739756E-06
     atom   97 type  2   force =  -0.24207328E-05  0.12098707E-06 -0.14610085E-05
     atom   98 type  3   force =  -0.12495755E-05  0.52149297E-07 -0.24091535E-06
     atom   99 type  2   force =  -0.26797816E-05 -0.48311626E-06 -0.23615100E-05
     atom  100 type  3   force =  -0.63821215E-07  0.15411441E-05  0.16923213E-06
     atom  101 type  2   force =  -0.19762205E-06  0.27764370E-05 -0.25872305E-05
     atom  102 type  3   force =  -0.60275764E-06  0.23680332E-05 -0.37453040E-06
     atom  103 type  1   force =  -0.84701558E-06  0.34079064E-05 -0.81579783E-06
     atom  104 type  3   force =  -0.23451015E-05  0.40004233E-06 -0.98836299E-06
     atom  105 type  2   force =  -0.83822241E-06 -0.19693427E-05 -0.90373538E-06
     atom  106 type  3   force =   0.51119312E-06  0.28247959E-07  0.16922316E-05
     atom  107 type  2   force =  -0.95373235E-06 -0.31310911E-06  0.19211913E-06
     atom  108 type  3   force =  -0.37650364E-06  0.62824427E-06  0.70840140E-06
     atom  109 type  2   force =   0.19281034E-05  0.21135783E-05 -0.16344590E-05
     atom  110 type  3   force =  -0.12196147E-06 -0.58166817E-06 -0.39229618E-06
     atom  111 type  2   force =   0.71079365E-06 -0.22636778E-06 -0.16222199E-05
     atom  112 type  3   force =   0.64398940E-06 -0.82897322E-06  0.38457883E-06
     atom  113 type  1   force =   0.14747292E-05 -0.31128197E-05  0.25373201E-05
     atom  114 type  3   force =  -0.15932751E-06 -0.35793602E-06  0.22609331E-05
     atom  115 type  2   force =   0.14325341E-05 -0.17409509E-05  0.25575407E-05
     atom  116 type  3   force =  -0.46575217E-06 -0.53896919E-06  0.73238836E-06
     atom  117 type  2   force =   0.52989827E-05 -0.69966626E-06  0.13516915E-06
     atom  118 type  3   force =   0.12366087E-05 -0.75659628E-07  0.32004875E-06
     atom  119 type  1   force =   0.20770967E-05 -0.33980306E-05 -0.45215910E-06
     atom  120 type  3   force =   0.11349662E-05 -0.48097442E-06  0.14578833E-05
     atom  121 type  2   force =  -0.38939088E-06 -0.15039133E-05  0.26112735E-05
     atom  122 type  3   force =  -0.26009688E-05  0.27489661E-07 -0.22246456E-07
     atom  123 type  1   force =   0.39438435E-06 -0.11222237E-05  0.95620725E-06
     atom  124 type  3   force =  -0.41766891E-06  0.10971775E-05 -0.25104335E-06
     atom  125 type  2   force =   0.57034482E-06  0.43953633E-07 -0.25883739E-05
     atom  126 type  3   force =   0.51922598E-06  0.16365208E-05 -0.56931654E-06
     atom  127 type  1   force =   0.12900084E-05  0.73282281E-06 -0.74757780E-06
     atom  128 type  3   force =  -0.14417370E-05  0.12711687E-05  0.11173248E-05

     Total force =     0.469339     Total SCF correction =     0.000034


     entering subroutine stress ...

          total   stress  (Ry/bohr**3)                   (kbar)     P=   24.97
   0.0001705823  -0.0000146599  -0.0000142531         25.09     -2.16     -2.10
  -0.0000146599   0.0001581295  -0.0000032050         -2.16     23.26     -0.47
  -0.0000142531  -0.0000032050   0.0001804782         -2.10     -0.47     26.55

     kinetic stress (kbar)  21128.58     -1.27     -2.16
                               -1.27  21126.60     -0.46
                               -2.16     -0.46  21131.64

     local   stress (kbar)  -3136.91    -30.93    -29.97
                              -30.93  -3121.45     -4.55
                              -29.97     -4.55  -3266.83

     nonloc. stress (kbar)   5344.55      0.04      0.12
                                0.04   5344.75      0.01
                                0.12      0.01   5344.66

     hartree stress (kbar)  11230.56     11.67     12.00
                               11.67  11226.85      1.95
                               12.00      1.95  11281.10

     exc-cor stress (kbar)  -5417.96      0.05      0.03
                                0.05  -5418.01      0.01
                                0.03      0.01  -5417.88

     corecor stress (kbar)  -1039.32      0.00      0.01
                                0.00  -1039.31      0.00
                                0.01      0.00  -1039.33

     ewald   stress (kbar) -28084.41     18.29     17.88
                               18.29 -28096.16      2.56
                               17.88      2.56 -28006.80

     hubbard stress (kbar)      0.00      0.00      0.00
                                0.00      0.00      0.00
                                0.00      0.00      0.00

     london  stress (kbar)      0.00      0.00      0.00
                                0.00      0.00      0.00
                                0.00      0.00      0.00

     XDM     stress (kbar)      0.00      0.00      0.00
                                0.00      0.00      0.00
                                0.00      0.00      0.00

     dft-nl  stress (kbar)      0.00      0.00      0.00
                                0.00      0.00      0.00
                                0.00      0.00      0.00



     Writing output data file mix_rocksalt.relax.in.up_1.00.super.444.033.save

     init_run     :    729.49s CPU    530.64s WALL (       1 calls)
     electrons    :  52298.91s CPU  40426.57s WALL (       1 calls)
     forces       :    622.73s CPU    389.81s WALL (       1 calls)
     stress       :   2727.12s CPU   2693.28s WALL (       1 calls)

     Called by init_run:
     wfcinit      :    694.32s CPU    494.59s WALL (       1 calls)
     potinit      :      5.52s CPU      5.67s WALL (       1 calls)

     Called by electrons:
     c_bands      :  46175.70s CPU  35165.19s WALL (      26 calls)
     sum_band     :   5555.35s CPU   4671.18s WALL (      26 calls)
     v_of_rho     :     12.75s CPU     14.74s WALL (      27 calls)
     v_h          :      0.77s CPU      1.01s WALL (      27 calls)
     v_xc         :     12.86s CPU     14.74s WALL (      29 calls)
     newd         :    552.67s CPU    570.38s WALL (      27 calls)
     mix_rho      :     19.31s CPU     22.10s WALL (      26 calls)

     Called by c_bands:
     init_us_2    :     65.53s CPU     67.33s WALL (     440 calls)
     cegterg      :  45795.31s CPU  34772.09s WALL (     208 calls)

     Called by sum_band:
     sum_band:bec :     18.24s CPU     18.41s WALL (     208 calls)
     addusdens    :    435.94s CPU    443.37s WALL (      26 calls)

     Called by *egterg:
     h_psi        :  19898.98s CPU  15944.56s WALL (     746 calls)
     s_psi        :   5837.18s CPU   3346.56s WALL (     746 calls)
     g_psi        :     11.00s CPU     11.92s WALL (     530 calls)
     cdiaghg      :   9377.09s CPU   8712.76s WALL (     738 calls)
     cegterg:over :   4916.19s CPU   3068.37s WALL (     530 calls)
     cegterg:upda :   2205.19s CPU   1309.23s WALL (     530 calls)
     cegterg:last :   1711.48s CPU    980.78s WALL (     208 calls)

     Called by h_psi:
     h_psi:vloc   :   6956.43s CPU   8320.02s WALL (     746 calls)
     h_psi:vnl    :  12919.99s CPU   7601.17s WALL (     746 calls)
     add_vuspsi   :   5887.19s CPU   3377.55s WALL (     746 calls)

     General routines
     calbec       :  10767.15s CPU   6558.37s WALL (     970 calls)
     fft          :     34.53s CPU     37.05s WALL (     453 calls)
     ffts         :     11.31s CPU     13.15s WALL (     710 calls)
     fftw         :   7688.38s CPU   9372.89s WALL (  696922 calls)
     interpolate  :      2.58s CPU      3.11s WALL (      53 calls)

     Parallel routines
     fft_scatter  :   4134.97s CPU   5117.55s WALL (  698085 calls)

     PWSCF        :    15h39m CPU       12h14m WALL


   This run was terminated on:   4:26:51   4Oct2017            

=------------------------------------------------------------------------------=
   JOB DONE.
=------------------------------------------------------------------------------=
