
     Program PWSCF v.5.1 starts on  3Nov2017 at 19:54: 1 

     This program is part of the open-source Quantum ESPRESSO suite
     for quantum simulation of materials; please cite
         "P. Giannozzi et al., J. Phys.:Condens. Matter 21 395502 (2009);
          URL http://www.quantum-espresso.org", 
     in publications or presentations arising from this work. More details at
     http://www.quantum-espresso.org/quote

     Parallel version (MPI), running on     8 processors
     R & G space division:  proc/nbgrp/npool/nimage =       8
     Reading input from /tmp/mix_rocksalt.relax.in.up_1.00.super.444.a.06.11384/mix_rocksalt.relax.in.up_1.00.super.444.a.06.t
Warning: card &IONS ignored
Warning: card   ION_DYNAMICS='BFGS', ignored
Warning: card / ignored
Warning: card &CELL ignored
Warning: card  CELL_DYNAMICS = 'BFGS' ignored
Warning: card / ignored
     Message from routine read_cards :
     DEPRECATED: no units specified in CELL_PARAMETERS card

     Current dimensions of program PWSCF are:
     Max number of different atomic species (ntypx) = 10
     Max number of k-points (npk) =  40000
     Max angular momentum in pseudopotentials (lmaxx) =  3
 kfg - two_fermi_energies  F

     Subspace diagonalization in iterative solution of the eigenvalue problem:
     a serial algorithm will be used


     Parallelization info
     --------------------
     sticks:   dense  smooth     PW     G-vecs:    dense   smooth      PW
     Min         999     798    209                58939    42178    5732
     Max        1000     799    210                58940    42196    5735
     Sum        7997    6387   1675               471515   337483   45869



     bravais-lattice index     =            0
     lattice parameter (alat)  =    24.077333162  a.u.
     unit-cell volume          =    9872.7945 (a.u.)^3
     number of atoms/cell      =          128
     number of atomic types    =            3
     number of electrons       =      1024.00
     number of Kohn-Sham states=          614
     kinetic-energy cutoff     =      40.0000  Ry
     charge density cutoff     =     200.0000  Ry
     convergence threshold     =      1.0E-10
     mixing beta               =       0.3000
     number of iterations used =            8  local-TF  mixing
     Exchange-correlation      = SLA  PW   PSX  PSC ( 1  4 10  8 0)
     A smooth kinetic-energy cutoff is imposed at      39.5000 Ry
     height of the smooth step-function =             800.0000 Ry
     width of the smooth step-function  =               1.0000 Ry


     celldm(1)=  24.077333  celldm(2)=   0.000000  celldm(3)=   0.000000
     celldm(4)=   0.000000  celldm(5)=   0.000000  celldm(6)=   0.000000

     crystal axes: (cart. coord. in units of alat)
               a(1) = (   0.001647642463   0.706611505987   0.707599791465 )  
               a(2) = (   0.705395141093  -0.001947839766   0.708947688841 )  
               a(3) = (   0.706008344960   0.707595065239  -0.000620620557 )  

     reciprocal axes: (cart. coord. in units 2 pi/alat)
               b(1) = ( -0.709223  0.708254  0.707615 )  
               b(2) = (  0.708497 -0.706291  0.703654 )  
               b(3) = (  0.710188  0.704024 -0.704695 )  


     PseudoPot. # 1 for Mg read from file:
     /users/kfg/psuedo/gbrv_1.5/mg.pbesol.UPF
     MD5 check sum: 4059f37963cf5867752dbf5ab2400678
     Pseudo is Ultrasoft, Zval = 10.0
     Generated by new atomic code, or converted to UPF format
     Using radial grid of  821 points,  7 beta functions with: 
                l(1) =   0
                l(2) =   0
                l(3) =   0
                l(4) =   1
                l(5) =   1
                l(6) =   2
                l(7) =   2
     Q(r) pseudized with  8 coefficients,  rinner =    1.200   1.200   1.200
                                                       1.200   1.200

     PseudoPot. # 2 for Ca read from file:
     /users/kfg/psuedo/gbrv_1.5/ca.pbesol.UPF
     MD5 check sum: 0533207b58cddeaa036efa5b63902087
     Pseudo is Ultrasoft + core correction, Zval = 10.0
     Generated by new atomic code, or converted to UPF format
     Using radial grid of  845 points,  6 beta functions with: 
                l(1) =   0
                l(2) =   0
                l(3) =   1
                l(4) =   1
                l(5) =   2
                l(6) =   2
     Q(r) pseudized with  8 coefficients,  rinner =    1.500   1.500   1.500
                                                       1.500   1.500

     PseudoPot. # 3 for O  read from file:
     /users/kfg/psuedo/gbrv_1.5/o.pbesol.UPF
     MD5 check sum: 501638753501ef6325af9037351f7734
     Pseudo is Ultrasoft + core correction, Zval =  6.0
     Generated by new atomic code, or converted to UPF format
     Using radial grid of  737 points,  5 beta functions with: 
                l(1) =   0
                l(2) =   0
                l(3) =   1
                l(4) =   1
                l(5) =   2
     Q(r) pseudized with  8 coefficients,  rinner =    0.900   0.900   0.900
                                                       0.900   0.900

     atomic species   valence    mass     pseudopotential
        Mg            10.00    24.30500     Mg( 1.00)
        Ca            10.00    24.30500     Ca( 1.00)
        O              6.00    15.99940     O ( 1.00)

     No symmetry found


                                    s                        frac. trans.

      isym =  1     identity                                     

 cryst.   s( 1) = (     1          0          0      )
                  (     0          1          0      )
                  (     0          0          1      )

 cart.    s( 1) = (  1.0000000  0.0000000  0.0000000 )
                  (  0.0000000  1.0000000  0.0000000 )
                  (  0.0000000  0.0000000  1.0000000 )


     point group C_1 (1)    
     there are  1 classes
     the character table:

       E    
A      1.00

     the symmetry operations in each class:
     E        1

   Cartesian axes

     site n.     atom                  positions (alat units)
         1           Mg  tau(   1) = (    0.00147381360    0.00066908868    0.00024892919  )
         2           O   tau(   2) = (    0.17577749382    0.17819994654    0.17708136222  )
         3           Mg  tau(   3) = (    0.17653151418    0.17696218728   -0.00143299540  )
         4           O   tau(   4) = (    0.35291074626    0.35503574692    0.17530208265  )
         5           Mg  tau(   5) = (    0.35153132326    0.35435425043   -0.00080030159  )
         6           O   tau(   6) = (    0.53056791870    0.52966146932    0.17781594905  )
         7           Mg  tau(   7) = (    0.52784652143    0.53195182044    0.00109223619  )
         8           O   tau(   8) = (    0.70771448388    0.70699549431    0.17664475379  )
         9           Ca  tau(   9) = (    0.17743208741    0.00054880844    0.17681080525  )
        10           O   tau(  10) = (    0.35106472504    0.17704794819    0.35448733707  )
        11           Ca  tau(  11) = (    0.35342661868    0.17833263720    0.17821851668  )
        12           O   tau(  12) = (    0.53080747317    0.35370460342    0.35408006674  )
        13           Mg  tau(  13) = (    0.52820533181    0.35268068505    0.17826850197  )
        14           O   tau(  14) = (    0.70422102812    0.52963941644    0.35353915625  )
        15           Mg  tau(  15) = (    0.70443209654    0.53125141267    0.17796413566  )
        16           O   tau(  16) = (    0.88226571376    0.70711685007    0.35559559767  )
        17           Mg  tau(  17) = (    0.35164192756   -0.00276203938    0.35333675937  )
        18           O   tau(  18) = (    0.52992701841    0.17419251340    0.53116604315  )
        19           Ca  tau(  19) = (    0.53077864518    0.17422255604    0.35580566832  )
        20           O   tau(  20) = (    0.70467335419    0.35101137627    0.52944346952  )
        21           Mg  tau(  21) = (    0.70588635405    0.35196693522    0.35318876938  )
        22           O   tau(  22) = (    0.88328254306    0.53003230836    0.52940552559  )
        23           Mg  tau(  23) = (    0.88136292951    0.52909980058    0.35594145235  )
        24           O   tau(  24) = (    1.05880239605    0.70667971775    0.53024239138  )
        25           Ca  tau(  25) = (    0.52887247522   -0.00124898627    0.52982798654  )
        26           O   tau(  26) = (    0.70703518824    0.17665776611    0.70867024935  )
        27           Ca  tau(  27) = (    0.70460326725    0.17355838942    0.53091086256  )
        28           O   tau(  28) = (    0.88404418945    0.35090782424    0.71024875989  )
        29           Mg  tau(  29) = (    0.88128930775    0.35197726578    0.53117705942  )
        30           O   tau(  30) = (    1.05686935580    0.52967986229    0.70970262247  )
        31           Mg  tau(  31) = (    1.05861442439    0.52751210821    0.53060813968  )
        32           O   tau(  32) = (    1.23394501198    0.70600323961    0.70631784223  )
        33           Ca  tau(  33) = (    0.00053378176    0.17801019738    0.17676197249  )
        34           O   tau(  34) = (    0.17881854566    0.35316972179    0.35505585018  )
        35           Ca  tau(  35) = (    0.17517268900    0.35151582661    0.17748959811  )
        36           O   tau(  36) = (    0.35461103086    0.53181723355    0.35240514506  )
        37           Mg  tau(  37) = (    0.35440652615    0.52946783832    0.17798994820  )
        38           O   tau(  38) = (    0.52870790272    0.70770986105    0.35382891351  )
        39           Ca  tau(  39) = (    0.52947312035    0.70934650858    0.17595405829  )
        40           O   tau(  40) = (    0.70817154136    0.88262117045    0.35284317645  )
        41           Ca  tau(  41) = (    0.17836060718    0.17577160552    0.35339770202  )
        42           O   tau(  42) = (    0.35447958998    0.35448858319    0.53150438042  )
        43           Ca  tau(  43) = (    0.35494139616    0.35296845958    0.35364566245  )
        44           O   tau(  44) = (    0.53155939639    0.53057371704    0.53067809304  )
        45           Mg  tau(  45) = (    0.53102456379    0.52899054069    0.35208196572  )
        46           O   tau(  46) = (    0.70683344755    0.70737242687    0.52894603020  )
        47           Ca  tau(  47) = (    0.70490784769    0.70784030833    0.35570926596  )
        48           O   tau(  48) = (    0.88361205125    0.88479797350    0.52901254943  )
        49           Ca  tau(  49) = (    0.35206354388    0.17577700837    0.53150843899  )
        50           O   tau(  50) = (    0.53061599845    0.35042739203    0.70866239734  )
        51           Ca  tau(  51) = (    0.53138809166    0.35190651641    0.53319744242  )
        52           O   tau(  52) = (    0.70680155765    0.52708737830    0.70712100113  )
        53           Ca  tau(  53) = (    0.70619648798    0.52852724359    0.53169097141  )
        54           O   tau(  54) = (    0.88097170882    0.70684171407    0.70987518177  )
        55           Ca  tau(  55) = (    0.88466272787    0.70533883319    0.53170076597  )
        56           O   tau(  56) = (    1.06047187175    0.88481011109    0.70836682365  )
        57           Ca  tau(  57) = (    0.52816329427    0.17504303786    0.70741593359  )
        58           O   tau(  58) = (    0.70681359342    0.35143477164    0.88585543908  )
        59           Ca  tau(  59) = (    0.70402825217    0.35308979815    0.70848442997  )
        60           O   tau(  60) = (    0.88061839928    0.52852635041    0.88506728745  )
        61           Mg  tau(  61) = (    0.88053309629    0.52873943837    0.70922463031  )
        62           O   tau(  62) = (    1.05916431630    0.70527352251    0.88699891119  )
        63           Ca  tau(  63) = (    1.05695880439    0.70642121626    0.70887629766  )
        64           O   tau(  64) = (    1.23733258763    0.88170338937    0.88603942606  )
        65           Mg  tau(  65) = (   -0.00065494821    0.35166069620    0.35446576155  )
        66           O   tau(  66) = (    0.17909199130    0.53167316888    0.52962782592  )
        67           Mg  tau(  67) = (    0.17609203176    0.52817617047    0.35485793552  )
        68           O   tau(  68) = (    0.35309136135    0.70539802089    0.52952606095  )
        69           Mg  tau(  69) = (    0.35472551847    0.70754082281    0.35317128891  )
        70           O   tau(  70) = (    0.53026951961    0.88502458330    0.53099119486  )
        71           Ca  tau(  71) = (    0.53182650651    0.88243073235    0.35172483105  )
        72           O   tau(  72) = (    0.70843417016    1.05903761611    0.53084406352  )
        73           Mg  tau(  73) = (    0.17884915292    0.35327945900    0.53115423891  )
        74           O   tau(  74) = (    0.35369736297    0.52813195541    0.70892714361  )
        75           Ca  tau(  75) = (    0.35416666066    0.52892032146    0.53153126529  )
        76           O   tau(  76) = (    0.53177836602    0.70483973906    0.70987299096  )
        77           Ca  tau(  77) = (    0.53001458906    0.70818936667    0.53045509065  )
        78           O   tau(  78) = (    0.70820674152    0.88487847200    0.70700948712  )
        79           Mg  tau(  79) = (    0.70640215368    0.88401580346    0.53064973122  )
        80           O   tau(  80) = (    0.88506143469    1.06171768581    0.70953354519  )
        81           Ca  tau(  81) = (    0.35524457709    0.35351370989    0.70795017954  )
        82           O   tau(  82) = (    0.53059468483    0.52704910854    0.88586164138  )
        83           Ca  tau(  83) = (    0.52919813635    0.52833363525    0.70744346409  )
        84           O   tau(  84) = (    0.70672281178    0.70541886596    0.88716084075  )
        85           Mg  tau(  85) = (    0.70701138169    0.70433461290    0.70908502914  )
        86           O   tau(  86) = (    0.88501346099    0.88229990956    0.88697686919  )
        87           Mg  tau(  87) = (    0.88110113463    0.88264493512    0.70726213601  )
        88           O   tau(  88) = (    1.05900653670    1.05853422021    0.88615757606  )
        89           Ca  tau(  89) = (    0.53174145306    0.35332347329    0.88625942476  )
        90           O   tau(  90) = (    0.70643878793    0.52732207490    1.06454111305  )
        91           Ca  tau(  91) = (    0.70748004625    0.52933752986    0.88624247323  )
        92           O   tau(  92) = (    0.88339371164    0.70659296245    1.06174194682  )
        93           Mg  tau(  93) = (    0.88431802861    0.70367473042    0.88697907062  )
        94           O   tau(  94) = (    1.06062211119    0.88239090652    1.06017157050  )
        95           Mg  tau(  95) = (    1.05733750632    0.88264153686    0.88358521750  )
        96           O   tau(  96) = (    1.23660281438    1.05725674893    1.06328351732  )
        97           Ca  tau(  97) = (    0.00086293946    0.52798060922    0.52911059226  )
        98           O   tau(  98) = (    0.17921895314    0.70692809270    0.70666089923  )
        99           Mg  tau(  99) = (    0.17953004667    0.70638638091    0.52954198370  )
       100           O   tau( 100) = (    0.35594530630    0.88271194475    0.70671248798  )
       101           Mg  tau( 101) = (    0.35424489340    0.88365558374    0.53196876740  )
       102           O   tau( 102) = (    0.52969581706    1.06040588421    0.70920953019  )
       103           Ca  tau( 103) = (    0.52932706216    1.05976763449    0.53083426747  )
       104           O   tau( 104) = (    0.70737841758    1.23651792517    0.70852604682  )
       105           Ca  tau( 105) = (    0.17675936360    0.53013340326    0.70966736320  )
       106           O   tau( 106) = (    0.35519353548    0.70656320959    0.88543803791  )
       107           Mg  tau( 107) = (    0.35201627593    0.70588850993    0.70810108327  )
       108           O   tau( 108) = (    0.52868539720    0.88179874646    0.88608540079  )
       109           Ca  tau( 109) = (    0.53079586283    0.88213055082    0.70933229083  )
       110           O   tau( 110) = (    0.70588998422    1.05830676852    0.88485043765  )
       111           Mg  tau( 111) = (    0.70627106107    1.05820353513    0.70622003547  )
       112           O   tau( 112) = (    0.88416460278    1.23629082697    0.88582593765  )
       113           Ca  tau( 113) = (    0.35303567135    0.53002374803    0.88428320358  )
       114           O   tau( 114) = (    0.53258538957    0.70562885456    1.06067186118  )
       115           Ca  tau( 115) = (    0.53154702610    0.70591584050    0.88325940106  )
       116           O   tau( 116) = (    0.70552750464    0.88238886119    1.06344288144  )
       117           Mg  tau( 117) = (    0.70569794111    0.88203452389    0.88586214159  )
       118           O   tau( 118) = (    0.88494399109    1.05880842587    1.06069730149  )
       119           Ca  tau( 119) = (    0.88348949494    1.06010239077    0.88400959842  )
       120           O   tau( 120) = (    1.05963895367    1.23594639707    1.06372856725  )
       121           Mg  tau( 121) = (    0.53194139553    0.52763257065    1.06074205270  )
       122           O   tau( 122) = (    0.70642057297    0.70404548383    1.23875659793  )
       123           Mg  tau( 123) = (    0.70736563347    0.70737933986    1.06260405033  )
       124           O   tau( 124) = (    0.88159615856    0.88049055130    1.24004277752  )
       125           Ca  tau( 125) = (    0.88139284365    0.88051143128    1.06205064235  )
       126           O   tau( 126) = (    1.05980587471    1.05943061336    1.23794693540  )
       127           Ca  tau( 127) = (    1.05773961723    1.06030252094    1.06123060532  )
       128           O   tau( 128) = (    1.23493462899    1.23424102623    1.23699766234  )

   Crystallographic axes

     site n.     atom                  positions (cryst. coord.)
         1           Mg  tau(   1) = (   -0.00039523239    0.00074678094    0.00134232006  )
         2           O   tau(   2) = (    0.12685073360    0.12328088687    0.12550382897  )
         3           Mg  tau(   3) = (   -0.00088017217   -0.00092310207    0.25096603655  )
         4           O   tau(   4) = (    0.12520924471    0.12262971578    0.37705225784  )
         5           Mg  tau(   5) = (    0.00109215099   -0.00178149780    0.49969123764  )
         6           O   tau(   6) = (    0.12466877971    0.12693158907    0.62439146236  )
         7           Mg  tau(   7) = (    0.00316860540   -0.00096659760    0.74860748845  )
         8           O   tau(   8) = (    0.12380100821    0.12636583986    0.87587159423  )
         9           Ca  tau(   9) = (   -0.00033624334    0.24973612320    0.00179883647  )
        10           O   tau(  10) = (    0.12725222088    0.37311744453    0.12416259251  )
        11           Ca  tau(  11) = (    0.00175648337    0.24985112896    0.25096013882  )
        12           O   tau(  12) = (    0.12460399140    0.37540704119    0.37647128316  )
        13           Mg  tau(  13) = (    0.00131734480    0.25057602164    0.49779589103  )
        14           O   tau(  14) = (    0.12583875999    0.37362822009    0.62387103914  )
        15           Mg  tau(  15) = (    0.00259119767    0.24909507351    0.74888261083  )
        16           O   tau(  16) = (    0.12671951530    0.37586863897    0.87381546986  )
        17           Mg  tau(  17) = (   -0.00132237417    0.49971489768   -0.00120728657  )
        18           O   tau(  18) = (    0.12339709940    0.62617829681    0.12467356329  )
        19           Ca  tau(  19) = (   -0.00127329945    0.50336733914    0.24887505815  )
        20           O   tau(  20) = (    0.12347659732    0.62388786763    0.37447494832  )
        21           Mg  tau(  21) = (   -0.00142743379    0.50004996202    0.50021489825  )
        22           O   tau(  22) = (    0.12356816296    0.62396435293    0.62738284512  )
        23           Mg  tau(  23) = (    0.00152331455    0.50120416248    0.74760226630  )
        24           O   tau(  24) = (    0.12478873041    0.62414401506    0.87580924176  )
        25           Ca  tau(  25) = (   -0.00105888945    0.74840232110    0.00135247552  )
        26           O   tau(  26) = (    0.12513857553    0.87481927350    0.12710294487  )
        27           Ca  tau(  27) = (   -0.00111705470    0.75020413764    0.24845988788  )
        28           O   tau(  28) = (    0.12412987099    0.87826908052    0.37437648963  )
        29           Mg  tau(  29) = (    0.00012725913    0.74955731529    0.49936379989  )
        30           O   tau(  30) = (    0.12778771453    0.87406580458    0.62335953807  )
        31           Mg  tau(  31) = (   -0.00171524330    0.75081260890    0.74927964816  )
        32           O   tau(  32) = (    0.12468807196    0.87260602863    0.87563769232  )
        33           Ca  tau(  33) = (    0.25077726000   -0.00096940478    0.00113936885  )
        34           O   tau(  34) = (    0.37455438398    0.12708848808    0.12542884600  )
        35           Ca  tau(  35) = (    0.25032013771    0.00072825298    0.24680521986  )
        36           O   tau(  36) = (    0.37453031541    0.12359461066    0.37791465624  )
        37           Mg  tau(  37) = (    0.24959252666    0.00238104093    0.49902485533  )
        38           O   tau(  38) = (    0.37664081856    0.12371216762    0.62438549704  )
        39           Ca  tau(  39) = (    0.25139030193   -0.00206406606    0.75142865516  )
        40           O   tau(  40) = (    0.37254506073    0.12662969693    0.87567484405  )
        41           Ca  tau(  41) = (    0.24806298684    0.25089191096    0.00137952071  )
        42           O   tau(  42) = (    0.37576324705    0.37477103566    0.12676733860  )
        43           Ca  tau(  43) = (    0.24850354147    0.25102078905    0.25136120207  )
        44           O   tau(  44) = (    0.37430235293    0.37528276423    0.37707775469  )
        45           Mg  tau(  45) = (    0.24718302733    0.25035205463    0.50143907528  )
        46           O   tau(  46) = (    0.37398659465    0.37337377638    0.62724641550  )
        47           Ca  tau(  47) = (    0.25309866984    0.24978020979    0.74828730995  )
        48           O   tau(  48) = (    0.37432043623    0.37335361018    0.87765744823  )
        49           Ca  tau(  49) = (    0.25090652665    0.49928444873   -0.00076866588  )
        50           O   tau(  50) = (    0.37332657307    0.62708949153    0.12415576956  )
        51           Ca  tau(  51) = (    0.24966489609    0.50312512345    0.24939466649  )
        52           O   tau(  52) = (    0.37240101922    0.62605844657    0.37473974572  )
        53           Ca  tau(  53) = (    0.24971296645    0.50117066692    0.49894834743  )
        54           O   tau(  54) = (    0.37813603960    0.62443658366    0.62304383076  )
        55           Ca  tau(  55) = (    0.24837492066    0.50273990273    0.75016565167  )
        56           O   tau(  56) = (    0.37580975642    0.62485305319    0.87687966926  )
        57           Ca  tau(  57) = (    0.24996747857    0.74834701193   -0.00018258826  )
        58           O   tau(  58) = (    0.37446112156    0.87589605895    0.12513136980  )
        59           Ca  tau(  59) = (    0.25209829017    0.74794581913    0.24931084592  )
        60           O   tau(  60) = (    0.37606273774    0.87340345257    0.37379760815  )
        61           Mg  tau(  61) = (    0.25184520346    0.74946004007    0.49780243709  )
        62           O   tau(  62) = (    0.37598247485    0.87642694057    0.62367184376  )
        63           Ca  tau(  63) = (    0.25231724798    0.74871696243    0.74843558464  )
        64           O   tau(  64) = (    0.37389952168    0.87737263590    0.87509183854  )
        65           Mg  tau(  65) = (    0.50035483724    0.00058272465   -0.00267759614  )
        66           O   tau(  66) = (    0.62431595110    0.12404525736    0.12827386624  )
        67           Mg  tau(  67) = (    0.50029698340    0.00141207719    0.24684077754  )
        68           O   tau(  68) = (    0.62388077931    0.12455136579    0.37422433109  )
        69           Mg  tau(  69) = (    0.49944811031    0.00010289399    0.50116974985  )
        70           O   tau(  70) = (    0.62647980589    0.12424386724    0.62548309489  )
        71           Ca  tau(  71) = (    0.49668682970    0.00103741971    0.75109077274  )
        72           O   tau(  72) = (    0.62326252330    0.12746560098    0.87462654682  )
        73           Mg  tau(  73) = (    0.49922031140    0.25094508712    0.00143223690  )
        74           O   tau(  74) = (    0.62484861728    0.37641845938    0.12343208719  )
        75           Ca  tau(  75) = (    0.49954610697    0.25136873498    0.24933034328  )
        76           O   tau(  76) = (    0.62437263476    0.37844673114    0.37364308754  )
        77           Ca  tau(  77) = (    0.50103708192    0.24858308102    0.50118353998  )
        78           O   tau(  78) = (    0.62473233571    0.37427103650    0.62770991102  )
        79           Mg  tau(  79) = (    0.50060634292    0.24950545449    0.75010076285  )
        80           O   tau(  80) = (    0.62633593263    0.37644815906    0.87603037436  )
        81           Ca  tau(  81) = (    0.49938598884    0.50015844747    0.00228386663  )
        82           O   tau(  82) = (    0.62382354316    0.62701516274    0.12361524918  )
        83           Ca  tau(  83) = (    0.49947234758    0.49957371381    0.24925812197  )
        84           O   tau(  84) = (    0.62615972198    0.62673462964    0.37336040546  )
        85           Mg  tau(  85) = (    0.49917796768    0.50240103551    0.49829108686  )
        86           O   tau(  86) = (    0.62485828835    0.62799406096    0.62463845060  )
        87           Mg  tau(  87) = (    0.50070847322    0.49852142556    0.74874689307  )
        88           O   tau(  88) = (    0.62569717977    0.62621841075    0.87285680354  )
        89           Ca  tau(  89) = (    0.50024990699    0.75080834120    0.00184227894  )
        90           O   tau(  90) = (    0.62574046608    0.87713592469    0.12277527969  )
        91           Ca  tau(  91) = (    0.50026259021    0.75098951880    0.25057980695  )
        92           O   tau(  92) = (    0.62522842382    0.87392088113    0.37663013105  )
        93           Mg  tau(  93) = (    0.49884114454    0.75366419571    0.49838653835  )
        94           O   tau(  94) = (    0.62293221209    0.87421714537    0.62736824313  )
        95           Mg  tau(  95) = (    0.50048403616    0.74745721770    0.74965147624  )
        96           O   tau(  96) = (    0.62417401482    0.87758249339    0.87326442587  )
        97           Ca  tau(  97) = (    0.74773887460    0.00001465130   -0.00053738999  )
        98           O   tau(  98) = (    0.87362214004    0.12492440738    0.12699349360  )
        99           Mg  tau(  99) = (    0.74768578256    0.00089690354    0.25164781365  )
       100           O   tau( 100) = (    0.87281973787    0.12601622952    0.37622214713  )
       101           Mg  tau( 101) = (    0.75104271683    0.00118580744    0.49881985565  )
       102           O   tau( 102) = (    0.87721113890    0.12537135489    0.62295884363  )
       103           Ca  tau( 103) = (    0.75079956193    0.00004633028    0.74794771979  )
       104           O   tau( 104) = (    0.87544283651    0.12639164147    0.87361566677  )
       105           Ca  tau( 105) = (    0.75227849053    0.25016574781   -0.00133968015  )
       106           O   tau( 106) = (    0.87506387556    0.37565684437    0.12572830191  )
       107           Mg  tau( 107) = (    0.75135306237    0.24909835822    0.24796526051  )
       108           O   tau( 108) = (    0.87658868275    0.37526352944    0.37185399300  )
       109           Ca  tau( 109) = (    0.75025368920    0.25215131899    0.49814340053  )
       110           O   tau( 110) = (    0.87504961818    0.37527741612    0.62283874200  )
       111           Mg  tau( 111) = (    0.74830462970    0.24992623767    0.74891659947  )
       112           O   tau( 112) = (    0.87536122786    0.37656230804    0.87406487819  )
       113           Ca  tau( 113) = (    0.75074240309    0.49800357498    0.00072154141  )
       114           O   tau( 114) = (    0.87258981425    0.62530235648    0.12756567285  )
       115           Ca  tau( 115) = (    0.74798973457    0.49952691155    0.25205190770  )
       116           O   tau( 116) = (    0.87708695814    0.62493715020    0.37287767426  )
       117           Mg  tau( 117) = (    0.75105627262    0.50035268572    0.49788946275  )
       118           O   tau( 118) = (    0.87284757717    0.62551768439    0.62643553477  )
       119           Ca  tau( 119) = (    0.74976867408    0.49924616957    0.75082444251  )
       120           O   tau( 120) = (    0.87655340923    0.62631053462    0.87307508971  )
       121           Mg  tau( 121) = (    0.74702971728    0.75061259382    0.00174513677  )
       122           O   tau( 122) = (    0.87419590893    0.87489243138    0.12441119319  )
       123           Mg  tau( 123) = (    0.75123862873    0.74925680271    0.25156324852  )
       124           O   tau( 124) = (    0.87583527076    0.87528725511    0.37213401263  )
       125           Ca  tau( 125) = (    0.75004429778    0.74988349642    0.49743443766  )
       126           O   tau( 126) = (    0.87469667506    0.87368978382    0.62615146429  )
       127           Ca  tau( 127) = (    0.75173246685    0.74726278982    0.74982894128  )
       128           O   tau( 128) = (    0.87362966033    0.87363298275    0.87426549975  )

     number of k points=     8  gaussian smearing, width (Ry)=  0.0050
                       cart. coord. in units 2pi/alat
        k(    1) = (   0.0000000   0.0000000   0.0000000), wk =   0.2500000
        k(    2) = (  -0.3550939  -0.3520122   0.3523474), wk =   0.2500000
        k(    3) = (  -0.3542483   0.3531453  -0.3518272), wk =   0.2500000
        k(    4) = (  -0.7093422   0.0011332   0.0005201), wk =   0.2500000
        k(    5) = (   0.3546116  -0.3541268  -0.3538076), wk =   0.2500000
        k(    6) = (  -0.0004822  -0.7061389  -0.0014603), wk =   0.2500000
        k(    7) = (   0.0003634  -0.0009814  -0.7056349), wk =   0.2500000
        k(    8) = (  -0.3547305  -0.3529936  -0.3532875), wk =   0.2500000

                       cryst. coord.
        k(    1) = (   0.0000000   0.0000000   0.0000000), wk =   0.2500000
        k(    2) = (   0.0000000   0.0000000  -0.5000000), wk =   0.2500000
        k(    3) = (  -0.0000000  -0.5000000   0.0000000), wk =   0.2500000
        k(    4) = (  -0.0000000  -0.5000000  -0.5000000), wk =   0.2500000
        k(    5) = (  -0.5000000   0.0000000  -0.0000000), wk =   0.2500000
        k(    6) = (  -0.5000000   0.0000000  -0.5000000), wk =   0.2500000
        k(    7) = (  -0.5000000  -0.5000000  -0.0000000), wk =   0.2500000
        k(    8) = (  -0.5000000  -0.5000000  -0.5000000), wk =   0.2500000

     Dense  grid:   471515 G-vectors     FFT dimensions: ( 120, 120, 120)

     Smooth grid:   337483 G-vectors     FFT dimensions: ( 100, 100, 100)

     Largest allocated arrays     est. size (Mb)     dimensions
        Kohn-Sham Wavefunctions        49.61 Mb     (    5295,  614)
        NL pseudopotentials           162.72 Mb     (    5295, 2014)
        Each V/rho on FFT grid          3.30 Mb     (  216000)
        Each G-vector array             0.45 Mb     (   58940)
        G-vector shells                 0.44 Mb     (   58198)
     Largest temporary arrays     est. size (Mb)     dimensions
        Auxiliary wavefunctions       198.43 Mb     (    5295, 2456)
        Each subspace H/S matrix       92.04 Mb     (    2456, 2456)
        Each <psi_i|beta_j> matrix     18.87 Mb     (    2014,  614)
        Arrays for rho mixing          26.37 Mb     (  216000,    8)

     Check: negative/imaginary core charge=   -0.000003    0.000000

     Initial potential from superposition of free atoms

     starting charge 1014.81710, renormalised to 1024.00000
     Starting wfc are  746 randomized atomic wfcs

     total cpu time spent up to now is      694.1 secs

     per-process dynamical memory:   680.0 Mb

     Self-consistent Calculation

     iteration #  1     ecut=    40.00 Ry     beta=0.30
     Davidson diagonalization with overlap
     ethr =  1.00E-02,  avg # of iterations =  3.0

     total cpu time spent up to now is     2885.2 secs

     total energy              =   -8379.55487511 Ry
     Harris-Foulkes estimate   =   -8384.39950289 Ry
     estimated scf accuracy    <      24.91991243 Ry

     iteration #  2     ecut=    40.00 Ry     beta=0.30
     Davidson diagonalization with overlap
     ethr =  2.43E-03,  avg # of iterations =  1.0

     total cpu time spent up to now is     4477.7 secs

     total energy              =   -8376.39751942 Ry
     Harris-Foulkes estimate   =   -8380.38710658 Ry
     estimated scf accuracy    <      10.23620381 Ry

     iteration #  3     ecut=    40.00 Ry     beta=0.30
     Davidson diagonalization with overlap
     ethr =  1.00E-03,  avg # of iterations =  2.0

     total cpu time spent up to now is     6476.9 secs

     total energy              =   -8377.64387192 Ry
     Harris-Foulkes estimate   =   -8378.03548629 Ry
     estimated scf accuracy    <       1.34025076 Ry

     iteration #  4     ecut=    40.00 Ry     beta=0.30
     Davidson diagonalization with overlap
     ethr =  1.31E-04,  avg # of iterations =  7.4

     total cpu time spent up to now is     9358.2 secs

     total energy              =   -8377.41077185 Ry
     Harris-Foulkes estimate   =   -8377.73365676 Ry
     estimated scf accuracy    <       0.62775814 Ry

     iteration #  5     ecut=    40.00 Ry     beta=0.30
     Davidson diagonalization with overlap
     ethr =  6.13E-05,  avg # of iterations =  5.0

     total cpu time spent up to now is    11981.1 secs

     total energy              =   -8377.47882121 Ry
     Harris-Foulkes estimate   =   -8377.49802522 Ry
     estimated scf accuracy    <       0.11063037 Ry

     iteration #  6     ecut=    40.00 Ry     beta=0.30
     Davidson diagonalization with overlap
     ethr =  1.08E-05,  avg # of iterations = 10.5

     total cpu time spent up to now is    15658.9 secs

     total energy              =   -8377.46972342 Ry
     Harris-Foulkes estimate   =   -8377.48546245 Ry
     estimated scf accuracy    <       0.06013701 Ry

     iteration #  7     ecut=    40.00 Ry     beta=0.30
     Davidson diagonalization with overlap
     ethr =  5.87E-06,  avg # of iterations =  5.0

     total cpu time spent up to now is    18186.3 secs

     total energy              =   -8377.46902688 Ry
     Harris-Foulkes estimate   =   -8377.47454800 Ry
     estimated scf accuracy    <       0.01636438 Ry

     iteration #  8     ecut=    40.00 Ry     beta=0.30
     Davidson diagonalization with overlap
     ethr =  1.60E-06,  avg # of iterations =  6.6

     total cpu time spent up to now is    21547.4 secs

     total energy              =   -8377.46956227 Ry
     Harris-Foulkes estimate   =   -8377.47238343 Ry
     estimated scf accuracy    <       0.01184373 Ry

     iteration #  9     ecut=    40.00 Ry     beta=0.30
     Davidson diagonalization with overlap
     ethr =  1.16E-06,  avg # of iterations =  2.0

     total cpu time spent up to now is    23474.7 secs

     total energy              =   -8377.46959752 Ry
     Harris-Foulkes estimate   =   -8377.47048029 Ry
     estimated scf accuracy    <       0.00328281 Ry

     iteration # 10     ecut=    40.00 Ry     beta=0.30
     Davidson diagonalization with overlap
     ethr =  3.21E-07,  avg # of iterations =  6.4

     total cpu time spent up to now is    26084.4 secs

     total energy              =   -8377.46945558 Ry
     Harris-Foulkes estimate   =   -8377.46985444 Ry
     estimated scf accuracy    <       0.00118550 Ry

     iteration # 11     ecut=    40.00 Ry     beta=0.30
     Davidson diagonalization with overlap
     ethr =  1.16E-07,  avg # of iterations =  2.6

     total cpu time spent up to now is    28189.9 secs

     total energy              =   -8377.46950942 Ry
     Harris-Foulkes estimate   =   -8377.46961758 Ry
     estimated scf accuracy    <       0.00026860 Ry

     iteration # 12     ecut=    40.00 Ry     beta=0.30
     Davidson diagonalization with overlap
     ethr =  2.62E-08,  avg # of iterations =  2.0

     total cpu time spent up to now is    30188.9 secs

     total energy              =   -8377.46948437 Ry
     Harris-Foulkes estimate   =   -8377.46955396 Ry
     estimated scf accuracy    <       0.00013545 Ry

     iteration # 13     ecut=    40.00 Ry     beta=0.30
     Davidson diagonalization with overlap
     ethr =  1.32E-08,  avg # of iterations =  2.0

     total cpu time spent up to now is    32245.6 secs

     total energy              =   -8377.46950651 Ry
     Harris-Foulkes estimate   =   -8377.46950942 Ry
     estimated scf accuracy    <       0.00001030 Ry

     iteration # 14     ecut=    40.00 Ry     beta=0.30
     Davidson diagonalization with overlap
     ethr =  1.01E-09,  avg # of iterations =  2.0

     total cpu time spent up to now is    34258.8 secs

     total energy              =   -8377.46950707 Ry
     Harris-Foulkes estimate   =   -8377.46950761 Ry
     estimated scf accuracy    <       0.00000320 Ry

     iteration # 15     ecut=    40.00 Ry     beta=0.30
     Davidson diagonalization with overlap
     ethr =  3.13E-10,  avg # of iterations =  2.0

     total cpu time spent up to now is    36002.9 secs

     total energy              =   -8377.46950702 Ry
     Harris-Foulkes estimate   =   -8377.46950729 Ry
     estimated scf accuracy    <       0.00000091 Ry

     iteration # 16     ecut=    40.00 Ry     beta=0.30
     Davidson diagonalization with overlap
     ethr =  8.91E-11,  avg # of iterations =  2.0

     total cpu time spent up to now is    37870.9 secs

     total energy              =   -8377.46950702 Ry
     Harris-Foulkes estimate   =   -8377.46950710 Ry
     estimated scf accuracy    <       0.00000030 Ry

     iteration # 17     ecut=    40.00 Ry     beta=0.30
     Davidson diagonalization with overlap
     ethr =  2.94E-11,  avg # of iterations =  2.0

     total cpu time spent up to now is    39684.7 secs

     total energy              =   -8377.46950702 Ry
     Harris-Foulkes estimate   =   -8377.46950704 Ry
     estimated scf accuracy    <       0.00000014 Ry

     iteration # 18     ecut=    40.00 Ry     beta=0.30
     Davidson diagonalization with overlap
     ethr =  1.38E-11,  avg # of iterations =  2.0

     total cpu time spent up to now is    41417.9 secs

     total energy              =   -8377.46950702 Ry
     Harris-Foulkes estimate   =   -8377.46950703 Ry
     estimated scf accuracy    <       0.00000006 Ry

     iteration # 19     ecut=    40.00 Ry     beta=0.30
     Davidson diagonalization with overlap
     ethr =  5.59E-12,  avg # of iterations =  1.8

     total cpu time spent up to now is    43115.2 secs

     total energy              =   -8377.46950701 Ry
     Harris-Foulkes estimate   =   -8377.46950702 Ry
     estimated scf accuracy    <       0.00000003 Ry

     iteration # 20     ecut=    40.00 Ry     beta=0.30
     Davidson diagonalization with overlap
     ethr =  2.76E-12,  avg # of iterations =  2.0

     total cpu time spent up to now is    44977.8 secs

     total energy              =   -8377.46950701 Ry
     Harris-Foulkes estimate   =   -8377.46950702 Ry
     estimated scf accuracy    <          9.4E-09 Ry

     iteration # 21     ecut=    40.00 Ry     beta=0.30
     Davidson diagonalization with overlap
     ethr =  9.15E-13,  avg # of iterations =  1.8

     total cpu time spent up to now is    46651.7 secs

     total energy              =   -8377.46950701 Ry
     Harris-Foulkes estimate   =   -8377.46950701 Ry
     estimated scf accuracy    <          4.6E-09 Ry

     iteration # 22     ecut=    40.00 Ry     beta=0.30
     Davidson diagonalization with overlap
     ethr =  4.49E-13,  avg # of iterations =  2.0

     total cpu time spent up to now is    48494.2 secs

     total energy              =   -8377.46950701 Ry
     Harris-Foulkes estimate   =   -8377.46950701 Ry
     estimated scf accuracy    <          2.2E-09 Ry

     iteration # 23     ecut=    40.00 Ry     beta=0.30
     Davidson diagonalization with overlap
     ethr =  2.13E-13,  avg # of iterations =  1.0

     total cpu time spent up to now is    50078.1 secs

     total energy              =   -8377.46950701 Ry
     Harris-Foulkes estimate   =   -8377.46950701 Ry
     estimated scf accuracy    <          1.5E-09 Ry

     iteration # 24     ecut=    40.00 Ry     beta=0.30
     Davidson diagonalization with overlap
     ethr =  1.43E-13,  avg # of iterations =  2.0

     total cpu time spent up to now is    52046.1 secs

     total energy              =   -8377.46950701 Ry
     Harris-Foulkes estimate   =   -8377.46950701 Ry
     estimated scf accuracy    <          3.1E-10 Ry

     iteration # 25     ecut=    40.00 Ry     beta=0.30
     Davidson diagonalization with overlap
     ethr =  1.00E-13,  avg # of iterations =  1.0

     total cpu time spent up to now is    53620.9 secs

     total energy              =   -8377.46950701 Ry
     Harris-Foulkes estimate   =   -8377.46950701 Ry
     estimated scf accuracy    <          1.4E-10 Ry

     iteration # 26     ecut=    40.00 Ry     beta=0.30
     Davidson diagonalization with overlap
     ethr =  1.00E-13,  avg # of iterations =  1.0

     total cpu time spent up to now is    55225.6 secs

     End of self-consistent calculation

          k = 0.0000 0.0000 0.0000 ( 42119 PWs)   bands (ev):

   -65.1749 -65.1075 -65.0609 -65.0344 -65.0266 -64.9915 -64.9854 -64.9671
   -64.9230 -64.9206 -64.9187 -64.9112 -64.9046 -64.9027 -64.8953 -64.8669
   -64.8648 -64.8631 -64.8381 -64.8250 -64.8200 -64.8060 -64.8000 -64.7752
   -64.7620 -64.7605 -64.7580 -64.7348 -64.6740 -64.6648 -32.1440 -32.1380
   -32.1324 -32.0769 -32.0734 -32.0614 -32.0301 -32.0247 -32.0156 -32.0065
   -31.9961 -31.9946 -31.9927 -31.9885 -31.9841 -31.9621 -31.9545 -31.9543
   -31.9493 -31.9447 -31.9440 -31.9376 -31.9313 -31.9249 -31.8920 -31.8907
   -31.8858 -31.8846 -31.8830 -31.8823 -31.8823 -31.8809 -31.8789 -31.8763
   -31.8762 -31.8720 -31.8704 -31.8692 -31.8687 -31.8645 -31.8624 -31.8614
   -31.8595 -31.8575 -31.8529 -31.8388 -31.8345 -31.8307 -31.8288 -31.8260
   -31.8257 -31.8240 -31.8221 -31.8177 -31.8076 -31.8024 -31.7957 -31.7952
   -31.7873 -31.7872 -31.7856 -31.7842 -31.7814 -31.7761 -31.7703 -31.7672
   -31.7660 -31.7637 -31.7578 -31.7447 -31.7386 -31.7342 -31.7325 -31.7305
   -31.7296 -31.7242 -31.7220 -31.7195 -31.7172 -31.7169 -31.7131 -31.7035
   -31.6971 -31.6935 -31.6413 -31.6403 -31.6330 -31.6312 -31.6308 -31.6210
   -28.7000 -28.6198 -28.5873 -28.5538 -28.5451 -28.5333 -28.5078 -28.4921
   -28.4892 -28.4856 -28.4729 -28.4584 -28.4556 -28.4351 -28.4290 -28.4161
   -28.4062 -28.4017 -28.3885 -28.3825 -28.3787 -28.3589 -28.3473 -28.3408
   -28.3377 -28.3340 -28.3334 -28.3321 -28.3133 -28.2818 -28.2684 -28.2591
   -28.2428 -28.2243 -11.2556 -11.2463 -11.1850 -11.1674 -10.9796 -10.9583
   -10.9290 -10.9106 -10.8656 -10.8508 -10.8219 -10.7887 -10.7473 -10.7312
   -10.7258 -10.7019 -10.6908 -10.6853 -10.6406 -10.6349 -10.6066 -10.5956
   -10.5908 -10.5471 -10.5317 -10.5253 -10.4977 -10.4111 -10.3775 -10.3617
   -10.3574 -10.3230 -10.3199 -10.3002 -10.2872 -10.2755 -10.2589 -10.2239
   -10.2069 -10.1856 -10.1784 -10.1602 -10.1324 -10.1179 -10.0927 -10.0796
   -10.0597 -10.0401 -10.0265 -10.0175  -9.9692  -9.9689  -9.9506  -9.9438
    -9.9210  -9.8940  -9.8782  -9.8764  -9.8552  -9.8395  -9.8133  -9.8095
    -9.8024  -9.7873  -9.7557  -9.7447  -9.7310  -9.7212  -9.7072  -9.6856
    -9.6780  -9.6733  -9.6591  -9.6539  -9.6416  -9.6367  -9.6176  -9.6126
    -9.5916  -9.5787  -9.5655  -9.5582  -9.5546  -9.5449  -9.5340  -9.5231
    -9.5128  -9.5076  -9.4989  -9.4913  -9.4884  -9.4755  -9.4657  -9.4624
    -9.4487  -9.4458  -9.4238  -9.4169  -9.4016  -9.3891  -9.3846  -9.3697
    -8.1189  -7.6499  -7.5471  -7.5281  -7.5276  -7.5089  -7.4641  -7.4631
    -7.4155  -7.4083  -7.3796  -7.3556  -7.3434  -7.3168  -7.3068  -7.2776
    -7.2469  -7.2388  -7.1874  -7.1662  -7.1587  -7.1267  -7.0960  -7.0759
    -7.0334  -7.0116  -6.9960  -6.9648  -6.9504  -6.9232  -6.9027  -6.8759
    -6.8650  -6.8313  -6.8231  -6.7801  -6.7602  -6.7193  -6.7134  -6.6948
    -6.6696  -6.6518  -6.6402  -6.6071  -6.5753  -6.5547  -6.5472  -6.5240
    -6.5135  -6.4964  -6.4833  -6.4537  -6.4180  -6.3851  -6.3707  -6.3551
    -6.3465  -6.3150  -6.2546  -6.1963  -6.1106  -6.0708  -6.0317  -5.8821
     3.8989   4.0809   4.2009   4.3816   4.5275   4.6300   4.6345   4.6847
     4.7149   4.7931   4.8035   4.8345   4.8502   4.8644   4.8913   4.9151
     4.9252   4.9609   4.9792   4.9941   5.0204   5.0422   5.0499   5.1025
     5.1121   5.1427   5.1890   5.2218   5.2476   5.2957   5.3320   5.3550
     5.4077   5.4352   5.4773   5.5196   5.5532   5.5573   5.5845   5.6026
     5.6174   5.6598   5.6813   5.7257   5.7439   5.7695   5.8012   5.8111
     5.8213   5.8573   5.8581   5.9019   5.9135   5.9374   5.9631   5.9705
     5.9760   5.9916   6.0241   6.0519   6.0735   6.0956   6.1085   6.1132
     6.1392   6.1519   6.1729   6.1929   6.2055   6.2423   6.2617   6.2688
     6.2773   6.2894   6.3090   6.3232   6.3364   6.3592   6.3642   6.3889
     6.3980   6.4055   6.4103   6.4420   6.4482   6.4686   6.4904   6.5013
     6.5100   6.5222   6.5278   6.5518   6.5697   6.5788   6.5917   6.5990
     6.6042   6.6152   6.6327   6.6426   6.6660   6.6812   6.6830   6.6905
     6.6948   6.7130   6.7161   6.7255   6.7308   6.7390   6.7502   6.7569
     6.7602   6.7757   6.7992   6.8089   6.8233   6.8372   6.8537   6.8649
     6.8769   6.8939   6.9043   6.9128   6.9269   6.9298   6.9484   6.9599
     6.9652   6.9784   6.9872   6.9936   7.0150   7.0295   7.0337   7.0492
     7.0534   7.0696   7.0801   7.0909   7.1143   7.1308   7.1401   7.1423
     7.1670   7.1819   7.2049   7.2093   7.2165   7.2335   7.2401   7.2600
     7.2688   7.2776   7.2954   7.3075   7.3117   7.3173   7.3438   7.3538
     7.3665   7.3753   7.3854   7.4008   7.4096   7.4155   7.4270   7.4397
     7.4505   7.4526   7.4663   7.4800   7.4843   7.4883   7.5062   7.5087
     7.5213   7.5373   7.5440   7.5564   7.5593   7.5771   7.5841   7.5953
     7.6341   7.6611   7.6804   7.7081   7.7307   7.9472   7.9648   7.9708
    12.0400  12.4931  12.5618  12.5770  13.3986  13.4728  13.5940  13.6782
    13.7078  13.7512  13.7845  13.8126  13.8756  13.9309  13.9731  14.0074
    14.0644  14.1034  14.1410  14.1493  14.1779  14.1952  14.2107  14.2391
    14.2546  14.3193  14.3448  14.3764  14.4051  14.4596  14.5417  14.5582
    14.6175  14.6354  14.6656  14.6994  14.7342  14.7442  14.7908  14.8210
    14.8596  14.9162  14.9621  15.0175  15.0749  15.1094  15.1387  15.1974
    15.2418  15.2663  15.3093  15.3359  15.3675  15.4043  15.4195  15.4427
    15.4568  15.4894  15.5366  15.5524  15.5868  15.6082  15.6135  15.6319
    15.6449  15.6556  15.6742  15.7100  15.7261  15.7785  15.8002  15.8068
    15.8463  15.8617  15.8899  15.9466  15.9841  15.9866  16.0290  16.0471
    16.0799  16.0905  16.1217  16.1482  16.1839  16.2317  16.2451  16.2743
    16.3048  16.3257  16.3472  16.3905  16.3979  16.4235  16.4600  16.4698
    16.4726  16.5146  16.5407  16.5733  16.5955  16.6044

     occupation numbers 
     1.0000   1.0000   1.0000   1.0000   1.0000   1.0000   1.0000   1.0000
     1.0000   1.0000   1.0000   1.0000   1.0000   1.0000   1.0000   1.0000
     1.0000   1.0000   1.0000   1.0000   1.0000   1.0000   1.0000   1.0000
     1.0000   1.0000   1.0000   1.0000   1.0000   1.0000   1.0000   1.0000
     1.0000   1.0000   1.0000   1.0000   1.0000   1.0000   1.0000   1.0000
     1.0000   1.0000   1.0000   1.0000   1.0000   1.0000   1.0000   1.0000
     1.0000   1.0000   1.0000   1.0000   1.0000   1.0000   1.0000   1.0000
     1.0000   1.0000   1.0000   1.0000   1.0000   1.0000   1.0000   1.0000
     1.0000   1.0000   1.0000   1.0000   1.0000   1.0000   1.0000   1.0000
     1.0000   1.0000   1.0000   1.0000   1.0000   1.0000   1.0000   1.0000
     1.0000   1.0000   1.0000   1.0000   1.0000   1.0000   1.0000   1.0000
     1.0000   1.0000   1.0000   1.0000   1.0000   1.0000   1.0000   1.0000
     1.0000   1.0000   1.0000   1.0000   1.0000   1.0000   1.0000   1.0000
     1.0000   1.0000   1.0000   1.0000   1.0000   1.0000   1.0000   1.0000
     1.0000   1.0000   1.0000   1.0000   1.0000   1.0000   1.0000   1.0000
     1.0000   1.0000   1.0000   1.0000   1.0000   1.0000   1.0000   1.0000
     1.0000   1.0000   1.0000   1.0000   1.0000   1.0000   1.0000   1.0000
     1.0000   1.0000   1.0000   1.0000   1.0000   1.0000   1.0000   1.0000
     1.0000   1.0000   1.0000   1.0000   1.0000   1.0000   1.0000   1.0000
     1.0000   1.0000   1.0000   1.0000   1.0000   1.0000   1.0000   1.0000
     1.0000   1.0000   1.0000   1.0000   1.0000   1.0000   1.0000   1.0000
     1.0000   1.0000   1.0000   1.0000   1.0000   1.0000   1.0000   1.0000
     1.0000   1.0000   1.0000   1.0000   1.0000   1.0000   1.0000   1.0000
     1.0000   1.0000   1.0000   1.0000   1.0000   1.0000   1.0000   1.0000
     1.0000   1.0000   1.0000   1.0000   1.0000   1.0000   1.0000   1.0000
     1.0000   1.0000   1.0000   1.0000   1.0000   1.0000   1.0000   1.0000
     1.0000   1.0000   1.0000   1.0000   1.0000   1.0000   1.0000   1.0000
     1.0000   1.0000   1.0000   1.0000   1.0000   1.0000   1.0000   1.0000
     1.0000   1.0000   1.0000   1.0000   1.0000   1.0000   1.0000   1.0000
     1.0000   1.0000   1.0000   1.0000   1.0000   1.0000   1.0000   1.0000
     1.0000   1.0000   1.0000   1.0000   1.0000   1.0000   1.0000   1.0000
     1.0000   1.0000   1.0000   1.0000   1.0000   1.0000   1.0000   1.0000
     1.0000   1.0000   1.0000   1.0000   1.0000   1.0000   1.0000   1.0000
     1.0000   1.0000   1.0000   1.0000   1.0000   1.0000   1.0000   1.0000
     1.0000   1.0000   1.0000   1.0000   1.0000   1.0000   1.0000   1.0000
     1.0000   1.0000   1.0000   1.0000   1.0000   1.0000   1.0000   1.0000
     1.0000   1.0000   1.0000   1.0000   1.0000   1.0000   1.0000   1.0000
     1.0000   1.0000   1.0000   1.0000   1.0000   1.0000   1.0000   1.0000
     1.0000   1.0000   1.0000   1.0000   1.0000   1.0000   1.0000   1.0000
     1.0000   1.0000   1.0000   1.0000   1.0000   1.0000   1.0000   1.0000
     1.0000   1.0000   1.0000   1.0000   1.0000   1.0000   1.0000   1.0000
     1.0000   1.0000   1.0000   1.0000   1.0000   1.0000   1.0000   1.0000
     1.0000   1.0000   1.0000   1.0000   1.0000   1.0000   1.0000   1.0000
     1.0000   1.0000   1.0000   1.0000   1.0000   1.0000   1.0000   1.0000
     1.0000   1.0000   1.0000   1.0000   1.0000   1.0000   1.0000   1.0000
     1.0000   1.0000   1.0000   1.0000   1.0000   1.0000   1.0000   1.0000
     1.0000   1.0000   1.0000   1.0000   1.0000   1.0000   1.0000   1.0000
     1.0000   1.0000   1.0000   1.0000   1.0000   1.0000   1.0000   1.0000
     1.0000   1.0000   1.0000   1.0000   1.0000   1.0000   1.0000   1.0000
     1.0000   1.0000   1.0000   1.0000   1.0000   1.0000   1.0000   1.0000
     1.0000   1.0000   1.0000   1.0000   1.0000   1.0000   1.0000   1.0000
     1.0000   1.0000   1.0000   1.0000   1.0000   1.0000   1.0000   1.0000
     1.0000   1.0000   1.0000   1.0000   1.0000   1.0000   1.0000   1.0000
     1.0000   1.0000   1.0000   1.0000   1.0000   1.0000   1.0000   1.0000
     1.0000   1.0000   1.0000   1.0000   1.0000   1.0000   1.0000   1.0000
     1.0000   1.0000   1.0000   1.0000   1.0000   1.0000   1.0000   1.0000
     1.0000   1.0000   1.0000   1.0000   1.0000   1.0000   1.0000   1.0000
     1.0000   1.0000   1.0000   1.0000   1.0000   1.0000   1.0000   1.0000
     1.0000   1.0000   1.0000   1.0000   1.0000   1.0000   1.0000   1.0000
     1.0000   1.0000   1.0000   1.0000   1.0000   1.0000   1.0000   1.0000
     1.0000   1.0000   1.0000   1.0000   1.0000   1.0000   1.0000   1.0000
     1.0000   1.0000   1.0000   1.0000   1.0000   1.0000   1.0000   1.0000
     1.0000   1.0000   1.0000   1.0000   1.0000   1.0000   1.0000   1.0000
     1.0000   1.0000   1.0000   1.0000   1.0000   1.0000   1.0000   1.0000
     0.0000   0.0000   0.0000   0.0000   0.0000   0.0000   0.0000   0.0000
     0.0000   0.0000   0.0000   0.0000   0.0000   0.0000   0.0000   0.0000
     0.0000   0.0000   0.0000   0.0000   0.0000   0.0000   0.0000   0.0000
     0.0000   0.0000   0.0000   0.0000   0.0000   0.0000   0.0000   0.0000
     0.0000   0.0000   0.0000   0.0000   0.0000   0.0000   0.0000   0.0000
     0.0000   0.0000   0.0000   0.0000   0.0000   0.0000   0.0000   0.0000
     0.0000   0.0000   0.0000   0.0000   0.0000   0.0000   0.0000   0.0000
     0.0000   0.0000   0.0000   0.0000   0.0000   0.0000   0.0000   0.0000
     0.0000   0.0000   0.0000   0.0000   0.0000   0.0000   0.0000   0.0000
     0.0000   0.0000   0.0000   0.0000   0.0000   0.0000   0.0000   0.0000
     0.0000   0.0000   0.0000   0.0000   0.0000   0.0000   0.0000   0.0000
     0.0000   0.0000   0.0000   0.0000   0.0000   0.0000   0.0000   0.0000
     0.0000   0.0000   0.0000   0.0000   0.0000   0.0000

          k =-0.3551-0.3520 0.3523 ( 42182 PWs)   bands (ev):

   -65.1749 -65.1075 -65.0609 -65.0344 -65.0266 -64.9915 -64.9854 -64.9671
   -64.9230 -64.9206 -64.9187 -64.9112 -64.9046 -64.9027 -64.8953 -64.8669
   -64.8648 -64.8631 -64.8381 -64.8250 -64.8200 -64.8060 -64.8000 -64.7752
   -64.7620 -64.7605 -64.7580 -64.7348 -64.6740 -64.6648 -32.1440 -32.1380
   -32.1324 -32.0769 -32.0734 -32.0614 -32.0301 -32.0247 -32.0156 -32.0065
   -31.9961 -31.9946 -31.9927 -31.9885 -31.9841 -31.9621 -31.9545 -31.9543
   -31.9493 -31.9447 -31.9440 -31.9376 -31.9313 -31.9249 -31.8920 -31.8907
   -31.8858 -31.8846 -31.8830 -31.8823 -31.8823 -31.8809 -31.8789 -31.8763
   -31.8762 -31.8720 -31.8704 -31.8692 -31.8687 -31.8645 -31.8624 -31.8613
   -31.8595 -31.8575 -31.8529 -31.8388 -31.8344 -31.8307 -31.8288 -31.8260
   -31.8257 -31.8240 -31.8221 -31.8177 -31.8076 -31.8024 -31.7957 -31.7952
   -31.7873 -31.7872 -31.7856 -31.7842 -31.7814 -31.7761 -31.7703 -31.7672
   -31.7660 -31.7637 -31.7578 -31.7447 -31.7386 -31.7342 -31.7325 -31.7305
   -31.7296 -31.7242 -31.7220 -31.7195 -31.7172 -31.7169 -31.7131 -31.7035
   -31.6971 -31.6935 -31.6413 -31.6403 -31.6330 -31.6312 -31.6308 -31.6210
   -28.6997 -28.6197 -28.5876 -28.5555 -28.5461 -28.5345 -28.5032 -28.4909
   -28.4893 -28.4824 -28.4756 -28.4622 -28.4560 -28.4306 -28.4254 -28.4207
   -28.4078 -28.4021 -28.3909 -28.3834 -28.3752 -28.3583 -28.3440 -28.3430
   -28.3385 -28.3342 -28.3335 -28.3328 -28.3129 -28.2833 -28.2663 -28.2596
   -28.2429 -28.2243 -11.2425 -11.2290 -11.1610 -11.1553 -10.9919 -10.9761
   -10.9613 -10.9301 -10.9088 -10.8740 -10.8320 -10.8137 -10.7747 -10.7515
   -10.7203 -10.6946 -10.6858 -10.6638 -10.6405 -10.6327 -10.5832 -10.5661
   -10.5462 -10.5294 -10.5105 -10.4954 -10.4851 -10.4244 -10.4032 -10.3845
   -10.3620 -10.3201 -10.3162 -10.3036 -10.2854 -10.2619 -10.2403 -10.2325
   -10.2265 -10.1978 -10.1938 -10.1435 -10.1350 -10.1258 -10.0988 -10.0560
   -10.0402 -10.0260 -10.0176 -10.0057  -9.9962  -9.9764  -9.9446  -9.9179
    -9.9038  -9.8765  -9.8739  -9.8506  -9.8408  -9.8354  -9.8148  -9.7959
    -9.7827  -9.7751  -9.7530  -9.7477  -9.7338  -9.7206  -9.7131  -9.7058
    -9.6872  -9.6763  -9.6670  -9.6533  -9.6465  -9.6324  -9.6161  -9.6087
    -9.5986  -9.5974  -9.5773  -9.5676  -9.5619  -9.5479  -9.5364  -9.5302
    -9.5242  -9.5162  -9.5042  -9.5007  -9.4891  -9.4808  -9.4754  -9.4691
    -9.4569  -9.4460  -9.4411  -9.4169  -9.4128  -9.4048  -9.3857  -9.3828
    -7.8230  -7.8023  -7.6101  -7.5835  -7.5204  -7.4940  -7.4792  -7.4312
    -7.4257  -7.3829  -7.3683  -7.3470  -7.3287  -7.3114  -7.2970  -7.2679
    -7.2599  -7.2374  -7.2124  -7.2017  -7.1326  -7.1147  -7.1121  -7.0606
    -7.0444  -7.0247  -7.0129  -6.9902  -6.9722  -6.9403  -6.8889  -6.8649
    -6.8456  -6.8438  -6.8306  -6.8097  -6.7587  -6.7439  -6.7307  -6.7195
    -6.6901  -6.6653  -6.6417  -6.6365  -6.6165  -6.5656  -6.5568  -6.5258
    -6.5045  -6.4507  -6.4249  -6.4153  -6.3932  -6.3534  -6.3479  -6.3063
    -6.2865  -6.2750  -6.2120  -6.1757  -6.1577  -6.1202  -6.0549  -5.9459
     4.0512   4.2551   4.2970   4.3466   4.4111   4.5126   4.5475   4.6977
     4.7119   4.7370   4.7697   4.7792   4.7894   4.8207   4.8599   4.9001
     4.9080   4.9564   4.9599   4.9908   5.0247   5.0527   5.0706   5.1149
     5.1290   5.1432   5.2241   5.2352   5.2686   5.2886   5.3065   5.3697
     5.3887   5.4010   5.4086   5.4593   5.5027   5.5423   5.5520   5.5760
     5.5987   5.6334   5.6526   5.6783   5.7000   5.7070   5.7356   5.7598
     5.7808   5.8268   5.8664   5.8955   5.9041   5.9172   5.9810   5.9977
     6.0200   6.0339   6.0462   6.0620   6.0686   6.0720   6.1042   6.1131
     6.1665   6.1821   6.1961   6.2303   6.2438   6.2552   6.2765   6.2921
     6.3026   6.3298   6.3500   6.3553   6.3729   6.3883   6.3972   6.4233
     6.4420   6.4541   6.4632   6.4800   6.4956   6.5074   6.5121   6.5249
     6.5348   6.5500   6.5556   6.5754   6.5965   6.6050   6.6094   6.6216
     6.6357   6.6403   6.6491   6.6630   6.6709   6.6760   6.7003   6.7039
     6.7226   6.7264   6.7345   6.7622   6.7713   6.7844   6.7979   6.8067
     6.8221   6.8267   6.8456   6.8518   6.8565   6.8647   6.8793   6.8949
     6.9130   6.9197   6.9285   6.9507   6.9588   6.9642   6.9740   6.9879
     6.9980   7.0045   7.0181   7.0288   7.0471   7.0656   7.0737   7.0786
     7.0878   7.1094   7.1177   7.1235   7.1348   7.1364   7.1446   7.1681
     7.1731   7.1823   7.1890   7.1997   7.2094   7.2147   7.2185   7.2198
     7.2256   7.2434   7.2546   7.2594   7.2642   7.2709   7.2830   7.2916
     7.3006   7.3079   7.3188   7.3401   7.3439   7.3617   7.3721   7.3862
     7.3946   7.4063   7.4142   7.4191   7.4389   7.4466   7.4693   7.4983
     7.4991   7.5142   7.5331   7.5480   7.5599   7.5658   7.5869   7.6111
     7.6212   7.6473   7.6744   7.6782   7.7525   7.7663   7.8368   7.8467
    12.5996  12.7259  12.7717  12.7796  12.9638  13.2992  13.3619  13.4027
    13.5598  13.6005  13.6418  13.6698  13.7400  13.8598  13.8962  13.9379
    13.9698  14.0747  14.0966  14.1667  14.3038  14.3271  14.3969  14.4358
    14.4761  14.4903  14.5350  14.5539  14.5743  14.6072  14.6620  14.7026
    14.7197  14.7477  14.7638  14.7852  14.7864  14.8368  14.8853  14.9058
    14.9204  14.9334  14.9658  14.9908  15.0313  15.0452  15.0745  15.0971
    15.1458  15.1759  15.2082  15.2239  15.2390  15.2900  15.3327  15.3521
    15.3679  15.3974  15.4354  15.4932  15.5149  15.5550  15.5854  15.6095
    15.6113  15.6447  15.6730  15.6877  15.7134  15.7595  15.7936  15.8351
    15.8403  15.8762  15.8970  15.9172  15.9686  15.9832  16.0140  16.0263
    16.0392  16.0621  16.1024  16.1149  16.1324  16.1751  16.2139  16.2334
    16.2551  16.2644  16.2868  16.3009  16.3298  16.3659  16.4210  16.4374
    16.4635  16.4935  16.5483  16.5509  16.5744  16.6173

     occupation numbers 
     1.0000   1.0000   1.0000   1.0000   1.0000   1.0000   1.0000   1.0000
     1.0000   1.0000   1.0000   1.0000   1.0000   1.0000   1.0000   1.0000
     1.0000   1.0000   1.0000   1.0000   1.0000   1.0000   1.0000   1.0000
     1.0000   1.0000   1.0000   1.0000   1.0000   1.0000   1.0000   1.0000
     1.0000   1.0000   1.0000   1.0000   1.0000   1.0000   1.0000   1.0000
     1.0000   1.0000   1.0000   1.0000   1.0000   1.0000   1.0000   1.0000
     1.0000   1.0000   1.0000   1.0000   1.0000   1.0000   1.0000   1.0000
     1.0000   1.0000   1.0000   1.0000   1.0000   1.0000   1.0000   1.0000
     1.0000   1.0000   1.0000   1.0000   1.0000   1.0000   1.0000   1.0000
     1.0000   1.0000   1.0000   1.0000   1.0000   1.0000   1.0000   1.0000
     1.0000   1.0000   1.0000   1.0000   1.0000   1.0000   1.0000   1.0000
     1.0000   1.0000   1.0000   1.0000   1.0000   1.0000   1.0000   1.0000
     1.0000   1.0000   1.0000   1.0000   1.0000   1.0000   1.0000   1.0000
     1.0000   1.0000   1.0000   1.0000   1.0000   1.0000   1.0000   1.0000
     1.0000   1.0000   1.0000   1.0000   1.0000   1.0000   1.0000   1.0000
     1.0000   1.0000   1.0000   1.0000   1.0000   1.0000   1.0000   1.0000
     1.0000   1.0000   1.0000   1.0000   1.0000   1.0000   1.0000   1.0000
     1.0000   1.0000   1.0000   1.0000   1.0000   1.0000   1.0000   1.0000
     1.0000   1.0000   1.0000   1.0000   1.0000   1.0000   1.0000   1.0000
     1.0000   1.0000   1.0000   1.0000   1.0000   1.0000   1.0000   1.0000
     1.0000   1.0000   1.0000   1.0000   1.0000   1.0000   1.0000   1.0000
     1.0000   1.0000   1.0000   1.0000   1.0000   1.0000   1.0000   1.0000
     1.0000   1.0000   1.0000   1.0000   1.0000   1.0000   1.0000   1.0000
     1.0000   1.0000   1.0000   1.0000   1.0000   1.0000   1.0000   1.0000
     1.0000   1.0000   1.0000   1.0000   1.0000   1.0000   1.0000   1.0000
     1.0000   1.0000   1.0000   1.0000   1.0000   1.0000   1.0000   1.0000
     1.0000   1.0000   1.0000   1.0000   1.0000   1.0000   1.0000   1.0000
     1.0000   1.0000   1.0000   1.0000   1.0000   1.0000   1.0000   1.0000
     1.0000   1.0000   1.0000   1.0000   1.0000   1.0000   1.0000   1.0000
     1.0000   1.0000   1.0000   1.0000   1.0000   1.0000   1.0000   1.0000
     1.0000   1.0000   1.0000   1.0000   1.0000   1.0000   1.0000   1.0000
     1.0000   1.0000   1.0000   1.0000   1.0000   1.0000   1.0000   1.0000
     1.0000   1.0000   1.0000   1.0000   1.0000   1.0000   1.0000   1.0000
     1.0000   1.0000   1.0000   1.0000   1.0000   1.0000   1.0000   1.0000
     1.0000   1.0000   1.0000   1.0000   1.0000   1.0000   1.0000   1.0000
     1.0000   1.0000   1.0000   1.0000   1.0000   1.0000   1.0000   1.0000
     1.0000   1.0000   1.0000   1.0000   1.0000   1.0000   1.0000   1.0000
     1.0000   1.0000   1.0000   1.0000   1.0000   1.0000   1.0000   1.0000
     1.0000   1.0000   1.0000   1.0000   1.0000   1.0000   1.0000   1.0000
     1.0000   1.0000   1.0000   1.0000   1.0000   1.0000   1.0000   1.0000
     1.0000   1.0000   1.0000   1.0000   1.0000   1.0000   1.0000   1.0000
     1.0000   1.0000   1.0000   1.0000   1.0000   1.0000   1.0000   1.0000
     1.0000   1.0000   1.0000   1.0000   1.0000   1.0000   1.0000   1.0000
     1.0000   1.0000   1.0000   1.0000   1.0000   1.0000   1.0000   1.0000
     1.0000   1.0000   1.0000   1.0000   1.0000   1.0000   1.0000   1.0000
     1.0000   1.0000   1.0000   1.0000   1.0000   1.0000   1.0000   1.0000
     1.0000   1.0000   1.0000   1.0000   1.0000   1.0000   1.0000   1.0000
     1.0000   1.0000   1.0000   1.0000   1.0000   1.0000   1.0000   1.0000
     1.0000   1.0000   1.0000   1.0000   1.0000   1.0000   1.0000   1.0000
     1.0000   1.0000   1.0000   1.0000   1.0000   1.0000   1.0000   1.0000
     1.0000   1.0000   1.0000   1.0000   1.0000   1.0000   1.0000   1.0000
     1.0000   1.0000   1.0000   1.0000   1.0000   1.0000   1.0000   1.0000
     1.0000   1.0000   1.0000   1.0000   1.0000   1.0000   1.0000   1.0000
     1.0000   1.0000   1.0000   1.0000   1.0000   1.0000   1.0000   1.0000
     1.0000   1.0000   1.0000   1.0000   1.0000   1.0000   1.0000   1.0000
     1.0000   1.0000   1.0000   1.0000   1.0000   1.0000   1.0000   1.0000
     1.0000   1.0000   1.0000   1.0000   1.0000   1.0000   1.0000   1.0000
     1.0000   1.0000   1.0000   1.0000   1.0000   1.0000   1.0000   1.0000
     1.0000   1.0000   1.0000   1.0000   1.0000   1.0000   1.0000   1.0000
     1.0000   1.0000   1.0000   1.0000   1.0000   1.0000   1.0000   1.0000
     1.0000   1.0000   1.0000   1.0000   1.0000   1.0000   1.0000   1.0000
     1.0000   1.0000   1.0000   1.0000   1.0000   1.0000   1.0000   1.0000
     1.0000   1.0000   1.0000   1.0000   1.0000   1.0000   1.0000   1.0000
     1.0000   1.0000   1.0000   1.0000   1.0000   1.0000   1.0000   1.0000
     0.0000   0.0000   0.0000   0.0000   0.0000   0.0000   0.0000   0.0000
     0.0000   0.0000   0.0000   0.0000   0.0000   0.0000   0.0000   0.0000
     0.0000   0.0000   0.0000   0.0000   0.0000   0.0000   0.0000   0.0000
     0.0000   0.0000   0.0000   0.0000   0.0000   0.0000   0.0000   0.0000
     0.0000   0.0000   0.0000   0.0000   0.0000   0.0000   0.0000   0.0000
     0.0000   0.0000   0.0000   0.0000   0.0000   0.0000   0.0000   0.0000
     0.0000   0.0000   0.0000   0.0000   0.0000   0.0000   0.0000   0.0000
     0.0000   0.0000   0.0000   0.0000   0.0000   0.0000   0.0000   0.0000
     0.0000   0.0000   0.0000   0.0000   0.0000   0.0000   0.0000   0.0000
     0.0000   0.0000   0.0000   0.0000   0.0000   0.0000   0.0000   0.0000
     0.0000   0.0000   0.0000   0.0000   0.0000   0.0000   0.0000   0.0000
     0.0000   0.0000   0.0000   0.0000   0.0000   0.0000   0.0000   0.0000
     0.0000   0.0000   0.0000   0.0000   0.0000   0.0000

          k =-0.3542 0.3531-0.3518 ( 42168 PWs)   bands (ev):

   -65.1749 -65.1075 -65.0609 -65.0344 -65.0266 -64.9915 -64.9854 -64.9671
   -64.9230 -64.9206 -64.9187 -64.9112 -64.9046 -64.9027 -64.8953 -64.8669
   -64.8648 -64.8631 -64.8381 -64.8250 -64.8200 -64.8060 -64.8000 -64.7752
   -64.7620 -64.7605 -64.7580 -64.7348 -64.6740 -64.6648 -32.1440 -32.1380
   -32.1324 -32.0769 -32.0734 -32.0614 -32.0301 -32.0247 -32.0156 -32.0065
   -31.9961 -31.9946 -31.9927 -31.9885 -31.9841 -31.9621 -31.9545 -31.9543
   -31.9493 -31.9447 -31.9440 -31.9376 -31.9313 -31.9249 -31.8920 -31.8907
   -31.8858 -31.8846 -31.8830 -31.8823 -31.8823 -31.8809 -31.8789 -31.8763
   -31.8762 -31.8720 -31.8704 -31.8692 -31.8687 -31.8645 -31.8624 -31.8613
   -31.8595 -31.8575 -31.8530 -31.8388 -31.8344 -31.8307 -31.8288 -31.8260
   -31.8257 -31.8240 -31.8221 -31.8177 -31.8076 -31.8024 -31.7957 -31.7952
   -31.7873 -31.7872 -31.7856 -31.7842 -31.7814 -31.7761 -31.7703 -31.7672
   -31.7660 -31.7637 -31.7578 -31.7447 -31.7386 -31.7342 -31.7325 -31.7305
   -31.7296 -31.7242 -31.7220 -31.7195 -31.7172 -31.7170 -31.7131 -31.7035
   -31.6971 -31.6935 -31.6413 -31.6403 -31.6330 -31.6312 -31.6308 -31.6210
   -28.6995 -28.6191 -28.5905 -28.5524 -28.5468 -28.5302 -28.5132 -28.4903
   -28.4890 -28.4811 -28.4713 -28.4603 -28.4566 -28.4349 -28.4284 -28.4167
   -28.4063 -28.4029 -28.3886 -28.3821 -28.3778 -28.3582 -28.3468 -28.3417
   -28.3388 -28.3354 -28.3327 -28.3314 -28.3131 -28.2819 -28.2681 -28.2594
   -28.2427 -28.2242 -11.2326 -11.1952 -11.1487 -11.1204 -11.0325 -10.9939
   -10.9795 -10.9636 -10.8908 -10.8561 -10.8540 -10.8129 -10.8035 -10.7563
   -10.7559 -10.7272 -10.6922 -10.6708 -10.6351 -10.6246 -10.6079 -10.5778
   -10.5512 -10.5364 -10.5051 -10.4683 -10.4348 -10.4300 -10.3992 -10.3610
   -10.3462 -10.3436 -10.3207 -10.2915 -10.2795 -10.2530 -10.2394 -10.2173
   -10.2018 -10.1919 -10.1690 -10.1431 -10.1241 -10.1121 -10.0862 -10.0737
   -10.0562 -10.0399 -10.0229  -9.9938  -9.9699  -9.9453  -9.9280  -9.9169
    -9.9097  -9.9013  -9.8842  -9.8807  -9.8393  -9.8300  -9.7948  -9.7828
    -9.7786  -9.7721  -9.7561  -9.7421  -9.7255  -9.7170  -9.7058  -9.6846
    -9.6810  -9.6668  -9.6637  -9.6502  -9.6467  -9.6331  -9.6301  -9.6142
    -9.6017  -9.5965  -9.5855  -9.5694  -9.5587  -9.5536  -9.5456  -9.5341
    -9.5274  -9.5181  -9.5052  -9.5037  -9.4935  -9.4827  -9.4783  -9.4695
    -9.4654  -9.4604  -9.4475  -9.4422  -9.4288  -9.4146  -9.4115  -9.3896
    -7.8398  -7.7690  -7.6015  -7.5274  -7.5008  -7.4847  -7.4464  -7.4258
    -7.4087  -7.3832  -7.3526  -7.3438  -7.3232  -7.3080  -7.2881  -7.2846
    -7.2509  -7.2469  -7.2184  -7.2081  -7.1725  -7.1301  -7.1168  -7.1057
    -7.0678  -7.0539  -7.0450  -6.9862  -6.9555  -6.9353  -6.9125  -6.8901
    -6.8665  -6.8447  -6.8197  -6.8105  -6.7967  -6.7803  -6.7215  -6.6927
    -6.6558  -6.6367  -6.6334  -6.5995  -6.5950  -6.5839  -6.5725  -6.5420
    -6.4890  -6.4762  -6.4497  -6.4397  -6.4049  -6.3216  -6.3124  -6.2746
    -6.2607  -6.2275  -6.2162  -6.1950  -6.1342  -6.0963  -6.0739  -6.0100
     4.1134   4.1998   4.2572   4.4001   4.4512   4.4865   4.5414   4.6058
     4.6910   4.7045   4.7385   4.7864   4.8039   4.8299   4.8640   4.9165
     4.9396   4.9432   4.9910   5.0100   5.0271   5.0813   5.1144   5.1295
     5.1620   5.1762   5.2240   5.2540   5.2721   5.2885   5.3309   5.3357
     5.3754   5.4240   5.4393   5.4552   5.4853   5.4978   5.5448   5.5718
     5.5960   5.6125   5.6479   5.6563   5.6844   5.6979   5.7258   5.7382
     5.7643   5.7843   5.8117   5.8605   5.8746   5.9171   5.9432   5.9611
     5.9902   6.0287   6.0391   6.0541   6.0632   6.1219   6.1316   6.1443
     6.1714   6.1801   6.2008   6.2167   6.2316   6.2567   6.2775   6.2837
     6.3127   6.3269   6.3327   6.3660   6.3894   6.4165   6.4276   6.4366
     6.4564   6.4610   6.4683   6.4825   6.5003   6.5206   6.5240   6.5466
     6.5527   6.5580   6.5749   6.5839   6.5883   6.5984   6.6142   6.6292
     6.6386   6.6520   6.6594   6.6745   6.6805   6.7082   6.7228   6.7301
     6.7334   6.7520   6.7706   6.7742   6.7782   6.7955   6.7967   6.8146
     6.8264   6.8391   6.8498   6.8625   6.8674   6.8898   6.8937   6.9020
     6.9068   6.9138   6.9189   6.9421   6.9526   6.9562   6.9783   6.9903
     6.9945   7.0045   7.0111   7.0270   7.0350   7.0426   7.0546   7.0720
     7.0739   7.0847   7.0875   7.1160   7.1221   7.1342   7.1387   7.1447
     7.1527   7.1716   7.1755   7.1798   7.1913   7.1980   7.2193   7.2224
     7.2275   7.2420   7.2556   7.2639   7.2672   7.2728   7.2863   7.2944
     7.2957   7.3182   7.3293   7.3355   7.3505   7.3545   7.3617   7.3811
     7.3987   7.4125   7.4167   7.4240   7.4457   7.4497   7.4599   7.4872
     7.4956   7.5126   7.5258   7.5422   7.5699   7.5762   7.5928   7.5940
     7.6233   7.6264   7.6606   7.6784   7.7900   7.8046   7.8111   7.8201
    12.6809  12.7549  12.8445  12.8666  12.8969  13.2301  13.2434  13.2639
    13.4886  13.5598  13.5970  13.6813  13.6947  13.7693  13.8736  14.0056
    14.0621  14.1395  14.2075  14.2512  14.3225  14.3943  14.4225  14.4637
    14.4836  14.4951  14.5284  14.5441  14.5868  14.6001  14.6181  14.6738
    14.7091  14.7207  14.7597  14.7649  14.8053  14.8392  14.8547  14.8869
    14.9060  14.9096  14.9534  14.9871  14.9942  15.0551  15.0701  15.1347
    15.1641  15.1770  15.2055  15.2431  15.2550  15.2749  15.3483  15.3666
    15.4044  15.4540  15.4562  15.4645  15.4954  15.5128  15.5493  15.6040
    15.6170  15.6369  15.6599  15.6884  15.6975  15.7484  15.7834  15.8115
    15.8437  15.8616  15.9026  15.9328  15.9654  15.9711  16.0068  16.0158
    16.0298  16.0640  16.0722  16.1329  16.1749  16.1768  16.2134  16.2335
    16.2651  16.3033  16.3312  16.3699  16.3807  16.4341  16.4619  16.4652
    16.4778  16.5129  16.5333  16.5678  16.5923  16.6376

     occupation numbers 
     1.0000   1.0000   1.0000   1.0000   1.0000   1.0000   1.0000   1.0000
     1.0000   1.0000   1.0000   1.0000   1.0000   1.0000   1.0000   1.0000
     1.0000   1.0000   1.0000   1.0000   1.0000   1.0000   1.0000   1.0000
     1.0000   1.0000   1.0000   1.0000   1.0000   1.0000   1.0000   1.0000
     1.0000   1.0000   1.0000   1.0000   1.0000   1.0000   1.0000   1.0000
     1.0000   1.0000   1.0000   1.0000   1.0000   1.0000   1.0000   1.0000
     1.0000   1.0000   1.0000   1.0000   1.0000   1.0000   1.0000   1.0000
     1.0000   1.0000   1.0000   1.0000   1.0000   1.0000   1.0000   1.0000
     1.0000   1.0000   1.0000   1.0000   1.0000   1.0000   1.0000   1.0000
     1.0000   1.0000   1.0000   1.0000   1.0000   1.0000   1.0000   1.0000
     1.0000   1.0000   1.0000   1.0000   1.0000   1.0000   1.0000   1.0000
     1.0000   1.0000   1.0000   1.0000   1.0000   1.0000   1.0000   1.0000
     1.0000   1.0000   1.0000   1.0000   1.0000   1.0000   1.0000   1.0000
     1.0000   1.0000   1.0000   1.0000   1.0000   1.0000   1.0000   1.0000
     1.0000   1.0000   1.0000   1.0000   1.0000   1.0000   1.0000   1.0000
     1.0000   1.0000   1.0000   1.0000   1.0000   1.0000   1.0000   1.0000
     1.0000   1.0000   1.0000   1.0000   1.0000   1.0000   1.0000   1.0000
     1.0000   1.0000   1.0000   1.0000   1.0000   1.0000   1.0000   1.0000
     1.0000   1.0000   1.0000   1.0000   1.0000   1.0000   1.0000   1.0000
     1.0000   1.0000   1.0000   1.0000   1.0000   1.0000   1.0000   1.0000
     1.0000   1.0000   1.0000   1.0000   1.0000   1.0000   1.0000   1.0000
     1.0000   1.0000   1.0000   1.0000   1.0000   1.0000   1.0000   1.0000
     1.0000   1.0000   1.0000   1.0000   1.0000   1.0000   1.0000   1.0000
     1.0000   1.0000   1.0000   1.0000   1.0000   1.0000   1.0000   1.0000
     1.0000   1.0000   1.0000   1.0000   1.0000   1.0000   1.0000   1.0000
     1.0000   1.0000   1.0000   1.0000   1.0000   1.0000   1.0000   1.0000
     1.0000   1.0000   1.0000   1.0000   1.0000   1.0000   1.0000   1.0000
     1.0000   1.0000   1.0000   1.0000   1.0000   1.0000   1.0000   1.0000
     1.0000   1.0000   1.0000   1.0000   1.0000   1.0000   1.0000   1.0000
     1.0000   1.0000   1.0000   1.0000   1.0000   1.0000   1.0000   1.0000
     1.0000   1.0000   1.0000   1.0000   1.0000   1.0000   1.0000   1.0000
     1.0000   1.0000   1.0000   1.0000   1.0000   1.0000   1.0000   1.0000
     1.0000   1.0000   1.0000   1.0000   1.0000   1.0000   1.0000   1.0000
     1.0000   1.0000   1.0000   1.0000   1.0000   1.0000   1.0000   1.0000
     1.0000   1.0000   1.0000   1.0000   1.0000   1.0000   1.0000   1.0000
     1.0000   1.0000   1.0000   1.0000   1.0000   1.0000   1.0000   1.0000
     1.0000   1.0000   1.0000   1.0000   1.0000   1.0000   1.0000   1.0000
     1.0000   1.0000   1.0000   1.0000   1.0000   1.0000   1.0000   1.0000
     1.0000   1.0000   1.0000   1.0000   1.0000   1.0000   1.0000   1.0000
     1.0000   1.0000   1.0000   1.0000   1.0000   1.0000   1.0000   1.0000
     1.0000   1.0000   1.0000   1.0000   1.0000   1.0000   1.0000   1.0000
     1.0000   1.0000   1.0000   1.0000   1.0000   1.0000   1.0000   1.0000
     1.0000   1.0000   1.0000   1.0000   1.0000   1.0000   1.0000   1.0000
     1.0000   1.0000   1.0000   1.0000   1.0000   1.0000   1.0000   1.0000
     1.0000   1.0000   1.0000   1.0000   1.0000   1.0000   1.0000   1.0000
     1.0000   1.0000   1.0000   1.0000   1.0000   1.0000   1.0000   1.0000
     1.0000   1.0000   1.0000   1.0000   1.0000   1.0000   1.0000   1.0000
     1.0000   1.0000   1.0000   1.0000   1.0000   1.0000   1.0000   1.0000
     1.0000   1.0000   1.0000   1.0000   1.0000   1.0000   1.0000   1.0000
     1.0000   1.0000   1.0000   1.0000   1.0000   1.0000   1.0000   1.0000
     1.0000   1.0000   1.0000   1.0000   1.0000   1.0000   1.0000   1.0000
     1.0000   1.0000   1.0000   1.0000   1.0000   1.0000   1.0000   1.0000
     1.0000   1.0000   1.0000   1.0000   1.0000   1.0000   1.0000   1.0000
     1.0000   1.0000   1.0000   1.0000   1.0000   1.0000   1.0000   1.0000
     1.0000   1.0000   1.0000   1.0000   1.0000   1.0000   1.0000   1.0000
     1.0000   1.0000   1.0000   1.0000   1.0000   1.0000   1.0000   1.0000
     1.0000   1.0000   1.0000   1.0000   1.0000   1.0000   1.0000   1.0000
     1.0000   1.0000   1.0000   1.0000   1.0000   1.0000   1.0000   1.0000
     1.0000   1.0000   1.0000   1.0000   1.0000   1.0000   1.0000   1.0000
     1.0000   1.0000   1.0000   1.0000   1.0000   1.0000   1.0000   1.0000
     1.0000   1.0000   1.0000   1.0000   1.0000   1.0000   1.0000   1.0000
     1.0000   1.0000   1.0000   1.0000   1.0000   1.0000   1.0000   1.0000
     1.0000   1.0000   1.0000   1.0000   1.0000   1.0000   1.0000   1.0000
     1.0000   1.0000   1.0000   1.0000   1.0000   1.0000   1.0000   1.0000
     0.0000   0.0000   0.0000   0.0000   0.0000   0.0000   0.0000   0.0000
     0.0000   0.0000   0.0000   0.0000   0.0000   0.0000   0.0000   0.0000
     0.0000   0.0000   0.0000   0.0000   0.0000   0.0000   0.0000   0.0000
     0.0000   0.0000   0.0000   0.0000   0.0000   0.0000   0.0000   0.0000
     0.0000   0.0000   0.0000   0.0000   0.0000   0.0000   0.0000   0.0000
     0.0000   0.0000   0.0000   0.0000   0.0000   0.0000   0.0000   0.0000
     0.0000   0.0000   0.0000   0.0000   0.0000   0.0000   0.0000   0.0000
     0.0000   0.0000   0.0000   0.0000   0.0000   0.0000   0.0000   0.0000
     0.0000   0.0000   0.0000   0.0000   0.0000   0.0000   0.0000   0.0000
     0.0000   0.0000   0.0000   0.0000   0.0000   0.0000   0.0000   0.0000
     0.0000   0.0000   0.0000   0.0000   0.0000   0.0000   0.0000   0.0000
     0.0000   0.0000   0.0000   0.0000   0.0000   0.0000   0.0000   0.0000
     0.0000   0.0000   0.0000   0.0000   0.0000   0.0000

          k =-0.7093 0.0011 0.0005 ( 42230 PWs)   bands (ev):

   -65.1749 -65.1075 -65.0609 -65.0344 -65.0266 -64.9915 -64.9854 -64.9671
   -64.9230 -64.9206 -64.9187 -64.9112 -64.9046 -64.9027 -64.8953 -64.8669
   -64.8648 -64.8631 -64.8381 -64.8250 -64.8200 -64.8060 -64.8000 -64.7752
   -64.7620 -64.7605 -64.7580 -64.7348 -64.6740 -64.6648 -32.1440 -32.1380
   -32.1324 -32.0769 -32.0734 -32.0614 -32.0301 -32.0247 -32.0156 -32.0065
   -31.9961 -31.9946 -31.9927 -31.9885 -31.9841 -31.9621 -31.9545 -31.9543
   -31.9493 -31.9447 -31.9440 -31.9376 -31.9313 -31.9249 -31.8920 -31.8907
   -31.8858 -31.8845 -31.8830 -31.8823 -31.8823 -31.8809 -31.8789 -31.8763
   -31.8762 -31.8720 -31.8704 -31.8692 -31.8687 -31.8645 -31.8624 -31.8613
   -31.8595 -31.8575 -31.8529 -31.8388 -31.8344 -31.8307 -31.8288 -31.8260
   -31.8257 -31.8240 -31.8221 -31.8177 -31.8076 -31.8024 -31.7957 -31.7952
   -31.7873 -31.7872 -31.7856 -31.7842 -31.7814 -31.7761 -31.7703 -31.7672
   -31.7660 -31.7637 -31.7578 -31.7447 -31.7386 -31.7342 -31.7325 -31.7305
   -31.7296 -31.7242 -31.7220 -31.7195 -31.7172 -31.7170 -31.7131 -31.7035
   -31.6971 -31.6935 -31.6413 -31.6403 -31.6330 -31.6312 -31.6308 -31.6210
   -28.6995 -28.6190 -28.5906 -28.5531 -28.5469 -28.5315 -28.5041 -28.4949
   -28.4889 -28.4813 -28.4776 -28.4633 -28.4519 -28.4307 -28.4244 -28.4202
   -28.4085 -28.4024 -28.3913 -28.3825 -28.3758 -28.3582 -28.3446 -28.3429
   -28.3392 -28.3361 -28.3327 -28.3315 -28.3120 -28.2834 -28.2670 -28.2595
   -28.2428 -28.2242 -11.2412 -11.2021 -11.1507 -11.1173 -11.0230 -10.9997
   -10.9888 -10.9747 -10.8836 -10.8649 -10.8484 -10.8020 -10.7770 -10.7442
   -10.7375 -10.6954 -10.6922 -10.6748 -10.6330 -10.6030 -10.5900 -10.5880
   -10.5733 -10.5473 -10.4993 -10.4843 -10.4590 -10.4439 -10.4170 -10.3916
   -10.3378 -10.3315 -10.3226 -10.2938 -10.2892 -10.2779 -10.2547 -10.2409
   -10.2171 -10.1912 -10.1649 -10.1507 -10.1161 -10.0957 -10.0748 -10.0705
   -10.0273 -10.0044  -9.9893  -9.9834  -9.9756  -9.9532  -9.9366  -9.9269
    -9.9044  -9.8794  -9.8738  -9.8658  -9.8486  -9.8325  -9.8203  -9.8081
    -9.7755  -9.7641  -9.7519  -9.7448  -9.7278  -9.7076  -9.6998  -9.6922
    -9.6823  -9.6820  -9.6668  -9.6566  -9.6440  -9.6284  -9.6266  -9.6211
    -9.6006  -9.5905  -9.5825  -9.5696  -9.5599  -9.5573  -9.5429  -9.5373
    -9.5284  -9.5255  -9.5109  -9.4988  -9.4955  -9.4855  -9.4832  -9.4783
    -9.4684  -9.4643  -9.4488  -9.4440  -9.4295  -9.4092  -9.3967  -9.3741
    -7.7768  -7.7316  -7.6529  -7.5590  -7.5389  -7.4913  -7.4634  -7.4262
    -7.3940  -7.3844  -7.3616  -7.3464  -7.3277  -7.3033  -7.2913  -7.2763
    -7.2592  -7.2330  -7.2315  -7.2191  -7.1892  -7.1474  -7.1195  -7.1036
    -7.0648  -7.0244  -7.0083  -6.9819  -6.9676  -6.9385  -6.9049  -6.8939
    -6.8650  -6.8442  -6.8200  -6.7740  -6.7698  -6.7464  -6.7324  -6.6958
    -6.6713  -6.6579  -6.6266  -6.6066  -6.5892  -6.5705  -6.5456  -6.5202
    -6.5116  -6.4618  -6.4273  -6.4191  -6.3888  -6.3734  -6.3531  -6.3249
    -6.2800  -6.2481  -6.2298  -6.1740  -6.1411  -6.1077  -6.0814  -5.9451
     4.1248   4.2659   4.3017   4.4078   4.4877   4.5116   4.5223   4.5905
[...]
     atom   77 type  2   force =   0.00000000E+00  0.00000000E+00  0.00000000E+00
     atom   78 type  3   force =   0.00000000E+00  0.00000000E+00  0.00000000E+00
     atom   79 type  1   force =   0.00000000E+00  0.00000000E+00  0.00000000E+00
     atom   80 type  3   force =   0.00000000E+00  0.00000000E+00  0.00000000E+00
     atom   81 type  2   force =   0.00000000E+00  0.00000000E+00  0.00000000E+00
     atom   82 type  3   force =   0.00000000E+00  0.00000000E+00  0.00000000E+00
     atom   83 type  2   force =   0.00000000E+00  0.00000000E+00  0.00000000E+00
     atom   84 type  3   force =   0.00000000E+00  0.00000000E+00  0.00000000E+00
     atom   85 type  1   force =   0.00000000E+00  0.00000000E+00  0.00000000E+00
     atom   86 type  3   force =   0.00000000E+00  0.00000000E+00  0.00000000E+00
     atom   87 type  1   force =   0.00000000E+00  0.00000000E+00  0.00000000E+00
     atom   88 type  3   force =   0.00000000E+00  0.00000000E+00  0.00000000E+00
     atom   89 type  2   force =   0.00000000E+00  0.00000000E+00  0.00000000E+00
     atom   90 type  3   force =   0.00000000E+00  0.00000000E+00  0.00000000E+00
     atom   91 type  2   force =   0.00000000E+00  0.00000000E+00  0.00000000E+00
     atom   92 type  3   force =   0.00000000E+00  0.00000000E+00  0.00000000E+00
     atom   93 type  1   force =   0.00000000E+00  0.00000000E+00  0.00000000E+00
     atom   94 type  3   force =   0.00000000E+00  0.00000000E+00  0.00000000E+00
     atom   95 type  1   force =   0.00000000E+00  0.00000000E+00  0.00000000E+00
     atom   96 type  3   force =   0.00000000E+00  0.00000000E+00  0.00000000E+00
     atom   97 type  2   force =   0.00000000E+00  0.00000000E+00  0.00000000E+00
     atom   98 type  3   force =   0.00000000E+00  0.00000000E+00  0.00000000E+00
     atom   99 type  1   force =   0.00000000E+00  0.00000000E+00  0.00000000E+00
     atom  100 type  3   force =   0.00000000E+00  0.00000000E+00  0.00000000E+00
     atom  101 type  1   force =   0.00000000E+00  0.00000000E+00  0.00000000E+00
     atom  102 type  3   force =   0.00000000E+00  0.00000000E+00  0.00000000E+00
     atom  103 type  2   force =   0.00000000E+00  0.00000000E+00  0.00000000E+00
     atom  104 type  3   force =   0.00000000E+00  0.00000000E+00  0.00000000E+00
     atom  105 type  2   force =   0.00000000E+00  0.00000000E+00  0.00000000E+00
     atom  106 type  3   force =   0.00000000E+00  0.00000000E+00  0.00000000E+00
     atom  107 type  1   force =   0.00000000E+00  0.00000000E+00  0.00000000E+00
     atom  108 type  3   force =   0.00000000E+00  0.00000000E+00  0.00000000E+00
     atom  109 type  2   force =   0.00000000E+00  0.00000000E+00  0.00000000E+00
     atom  110 type  3   force =   0.00000000E+00  0.00000000E+00  0.00000000E+00
     atom  111 type  1   force =   0.00000000E+00  0.00000000E+00  0.00000000E+00
     atom  112 type  3   force =   0.00000000E+00  0.00000000E+00  0.00000000E+00
     atom  113 type  2   force =   0.00000000E+00  0.00000000E+00  0.00000000E+00
     atom  114 type  3   force =   0.00000000E+00  0.00000000E+00  0.00000000E+00
     atom  115 type  2   force =   0.00000000E+00  0.00000000E+00  0.00000000E+00
     atom  116 type  3   force =   0.00000000E+00  0.00000000E+00  0.00000000E+00
     atom  117 type  1   force =   0.00000000E+00  0.00000000E+00  0.00000000E+00
     atom  118 type  3   force =   0.00000000E+00  0.00000000E+00  0.00000000E+00
     atom  119 type  2   force =   0.00000000E+00  0.00000000E+00  0.00000000E+00
     atom  120 type  3   force =   0.00000000E+00  0.00000000E+00  0.00000000E+00
     atom  121 type  1   force =   0.00000000E+00  0.00000000E+00  0.00000000E+00
     atom  122 type  3   force =   0.00000000E+00  0.00000000E+00  0.00000000E+00
     atom  123 type  1   force =   0.00000000E+00  0.00000000E+00  0.00000000E+00
     atom  124 type  3   force =   0.00000000E+00  0.00000000E+00  0.00000000E+00
     atom  125 type  2   force =   0.00000000E+00  0.00000000E+00  0.00000000E+00
     atom  126 type  3   force =   0.00000000E+00  0.00000000E+00  0.00000000E+00
     atom  127 type  2   force =   0.00000000E+00  0.00000000E+00  0.00000000E+00
     atom  128 type  3   force =   0.00000000E+00  0.00000000E+00  0.00000000E+00
     The SCF correction term to forces
     atom    1 type  1   force =   0.52202997E-06 -0.94075168E-06 -0.18946023E-06
     atom    2 type  3   force =   0.65230173E-06  0.95402456E-06 -0.15610193E-05
     atom    3 type  1   force =   0.12830387E-05  0.82038820E-06  0.29058293E-06
     atom    4 type  3   force =  -0.98026101E-06  0.76090443E-06 -0.13823648E-05
     atom    5 type  1   force =  -0.11439470E-05  0.20860044E-05  0.19314109E-05
     atom    6 type  3   force =  -0.62628344E-06 -0.44797807E-06 -0.11604079E-05
     atom    7 type  1   force =  -0.14876868E-05 -0.15021556E-05  0.16642418E-05
     atom    8 type  3   force =  -0.91979514E-07 -0.41484835E-06 -0.97680864E-06
     atom    9 type  2   force =  -0.11617869E-05  0.81527568E-06 -0.27736265E-05
     atom   10 type  3   force =  -0.32509039E-06  0.82226374E-06 -0.45801155E-06
     atom   11 type  2   force =  -0.12029343E-05  0.22360883E-05 -0.29099384E-05
     atom   12 type  3   force =  -0.31782865E-08  0.11075894E-05 -0.16031294E-06
     atom   13 type  1   force =  -0.80503362E-06  0.23125680E-05 -0.24350746E-05
     atom   14 type  3   force =  -0.58861266E-06  0.40012544E-06  0.63382648E-06
     atom   15 type  1   force =  -0.19847863E-05 -0.96186016E-06 -0.17437440E-05
     atom   16 type  3   force =  -0.13546764E-05 -0.12341202E-06  0.77701527E-06
     atom   17 type  1   force =  -0.81668309E-07  0.10474334E-05  0.11364736E-05
     atom   18 type  3   force =   0.40660632E-06  0.26108341E-06  0.10922086E-05
     atom   19 type  2   force =   0.11041876E-06  0.12569272E-05  0.35878398E-06
     atom   20 type  3   force =   0.38601777E-06  0.87330537E-06  0.15958856E-05
     atom   21 type  1   force =  -0.11239523E-05  0.17470584E-05 -0.14866924E-06
     atom   22 type  3   force =  -0.96190737E-06  0.25971285E-08  0.27380011E-05
     atom   23 type  1   force =  -0.31036197E-05  0.73228536E-06  0.18140461E-05
     atom   24 type  3   force =  -0.61072111E-06 -0.29898214E-06  0.23258252E-05
     atom   25 type  2   force =   0.43689543E-06  0.11192901E-06  0.24189911E-05
     atom   26 type  3   force =   0.57029190E-06 -0.33476193E-07 -0.36626773E-06
     atom   27 type  2   force =   0.63396166E-06  0.29294395E-06  0.25886088E-05
     atom   28 type  3   force =   0.10610927E-06  0.14081311E-05  0.33124656E-06
     atom   29 type  1   force =  -0.89663618E-06  0.17033161E-05  0.51226836E-05
     atom   30 type  3   force =  -0.11337824E-05 -0.39058668E-07  0.10363250E-05
     atom   31 type  1   force =  -0.21161997E-05  0.46159350E-06  0.62014744E-05
     atom   32 type  3   force =  -0.59760371E-07 -0.10272896E-05  0.40915735E-07
     atom   33 type  2   force =   0.18138139E-05 -0.84884308E-06 -0.26257573E-05
     atom   34 type  3   force =   0.75543956E-06  0.46201033E-06 -0.10050667E-05
     atom   35 type  2   force =   0.20287828E-05  0.19111774E-05 -0.31466331E-05
     atom   36 type  3   force =  -0.13801703E-06 -0.77409554E-08 -0.68547468E-06
     atom   37 type  1   force =  -0.13298404E-05 -0.11375091E-05 -0.33641281E-05
     atom   38 type  3   force =   0.52326048E-06 -0.16790703E-05  0.56190552E-06
     atom   39 type  2   force =  -0.11165761E-06 -0.29305615E-05 -0.17788594E-05
     atom   40 type  3   force =   0.93558777E-06 -0.10818061E-05  0.13930241E-06
     atom   41 type  2   force =  -0.27165420E-06  0.60607460E-06  0.24563387E-06
     atom   42 type  3   force =   0.16007900E-06  0.12484295E-06  0.11036008E-06
     atom   43 type  2   force =  -0.10417352E-06  0.17896919E-05 -0.17586566E-05
     atom   44 type  3   force =   0.65569628E-06  0.32527114E-06  0.65452371E-06
     atom   45 type  1   force =  -0.33004489E-06  0.89811062E-07 -0.20593587E-06
     atom   46 type  3   force =   0.27416016E-06 -0.10120194E-05  0.15845053E-05
     atom   47 type  2   force =  -0.13182243E-06 -0.17955388E-05  0.78183367E-06
     atom   48 type  3   force =  -0.30789944E-06 -0.60934140E-06  0.11751226E-05
     atom   49 type  2   force =  -0.70682979E-06 -0.17260174E-07  0.17168071E-05
     atom   50 type  3   force =   0.12224744E-05  0.51691139E-06 -0.16599954E-05
     atom   51 type  2   force =   0.12265351E-05  0.12011062E-05  0.10975105E-05
     atom   52 type  3   force =   0.12362363E-05  0.55748350E-06 -0.83427980E-06
     atom   53 type  2   force =   0.65823572E-06  0.12515893E-06  0.21596487E-05
     atom   54 type  3   force =  -0.22640443E-06 -0.15846255E-05 -0.58772244E-07
     atom   55 type  2   force =  -0.14173690E-05 -0.10464942E-05  0.35740852E-05
     atom   56 type  3   force =  -0.46338914E-06 -0.13052396E-05 -0.55955193E-06
     atom   57 type  2   force =   0.92016669E-06 -0.46135759E-06 -0.10912382E-05
     atom   58 type  3   force =   0.24158179E-05  0.17565903E-06 -0.21017117E-05
     atom   59 type  2   force =   0.25106525E-05  0.12998049E-05 -0.16438415E-05
     atom   60 type  3   force =   0.11488859E-05 -0.34332101E-06 -0.18854210E-05
     atom   61 type  1   force =   0.15063586E-05 -0.29570622E-06  0.49230289E-06
     atom   62 type  3   force =  -0.83774488E-06 -0.17167283E-05 -0.17550274E-05
     atom   63 type  2   force =  -0.20597751E-05 -0.26081590E-05  0.81483079E-06
     atom   64 type  3   force =   0.47532329E-06 -0.11934237E-05 -0.16749831E-05
     atom   65 type  1   force =   0.30221327E-05 -0.29061195E-06  0.19398637E-06
     atom   66 type  3   force =   0.88481896E-07  0.47184510E-06  0.10256969E-05
     atom   67 type  1   force =   0.22196357E-05  0.16475675E-05 -0.26607756E-05
     atom   68 type  3   force =   0.21539369E-06 -0.47261183E-06  0.80750754E-06
     atom   69 type  1   force =  -0.10853371E-05 -0.30314762E-05  0.16658713E-06
     atom   70 type  3   force =   0.20859806E-06 -0.95940669E-06  0.19446599E-05
     atom   71 type  2   force =   0.12604080E-05 -0.25263410E-05  0.69864300E-06
     atom   72 type  3   force =   0.51402412E-06  0.44000867E-07  0.14437553E-05
     atom   73 type  1   force =  -0.23839428E-06 -0.45888752E-06  0.14764551E-05
     atom   74 type  3   force =  -0.10960351E-06  0.79328943E-06 -0.14553955E-05
     atom   75 type  2   force =   0.91791403E-06  0.14098949E-05 -0.13251943E-06
     atom   76 type  3   force =   0.10466350E-05 -0.17695618E-06 -0.14948609E-05
     atom   77 type  2   force =   0.24993278E-06 -0.19436095E-05  0.17504408E-05
     atom   78 type  3   force =  -0.50805427E-07 -0.12158542E-05  0.10393300E-06
     atom   79 type  1   force =   0.14732195E-05 -0.20553910E-05  0.26635017E-05
     atom   80 type  3   force =  -0.99834995E-06  0.16520447E-06 -0.30438763E-06
     atom   81 type  2   force =   0.10159712E-06 -0.51469039E-06 -0.20805205E-05
     atom   82 type  3   force =   0.10743022E-05  0.10017615E-05 -0.22998241E-05
     atom   83 type  2   force =   0.22132142E-05  0.55589107E-06 -0.28430293E-05
     atom   84 type  3   force =   0.16033800E-05 -0.29500759E-06 -0.21131713E-05
     atom   85 type  1   force =   0.20301435E-05 -0.66126422E-06 -0.96913784E-06
     atom   86 type  3   force =  -0.86239768E-06 -0.97598677E-06 -0.13933319E-05
     atom   87 type  1   force =  -0.13232755E-05 -0.17897941E-05 -0.46524768E-06
     atom   88 type  3   force =  -0.90303999E-06 -0.43432415E-06 -0.16837625E-05
     atom   89 type  2   force =   0.17336051E-05 -0.50588627E-06 -0.35900330E-05
     atom   90 type  3   force =   0.17625732E-05  0.78873471E-06 -0.10972730E-06
     atom   91 type  2   force =   0.39628792E-05  0.13248179E-05 -0.35273339E-05
     atom   92 type  3   force =   0.23518067E-06 -0.10207385E-05 -0.33255995E-06
     atom   93 type  1   force =   0.16044281E-06 -0.26970666E-05 -0.29824687E-05
     atom   94 type  3   force =  -0.69553584E-06 -0.16350400E-05  0.45237496E-06
     atom   95 type  1   force =  -0.62453042E-06 -0.37645728E-05 -0.28071938E-05
     atom   96 type  3   force =   0.55069461E-06 -0.18592334E-06  0.10832698E-05
     atom   97 type  2   force =   0.89132797E-06  0.11213966E-05  0.28189502E-05
     atom   98 type  3   force =  -0.79947636E-06 -0.97921207E-07 -0.40561103E-06
     atom   99 type  1   force =   0.77195692E-07  0.37499430E-06  0.17084108E-05
     atom  100 type  3   force =  -0.48866687E-06  0.60111908E-06  0.71765648E-06
     atom  101 type  1   force =  -0.15810081E-05 -0.14837612E-05  0.37663148E-05
     atom  102 type  3   force =  -0.59101320E-06  0.82228559E-06  0.82085296E-06
     atom  103 type  2   force =  -0.12865985E-06  0.48225306E-06  0.42766243E-05
     atom  104 type  3   force =  -0.14429051E-06  0.62971847E-06  0.32440010E-06
     atom  105 type  2   force =  -0.15902657E-05  0.16639462E-05 -0.81250330E-06
     atom  106 type  3   force =  -0.55376536E-06  0.14206084E-05 -0.14051446E-05
     atom  107 type  1   force =  -0.17258478E-06  0.16405074E-05 -0.24874848E-05
     atom  108 type  3   force =  -0.37468769E-06  0.90273536E-06 -0.14936710E-05
     atom  109 type  2   force =   0.24934400E-06  0.15584677E-06  0.25567993E-06
     atom  110 type  3   force =  -0.41174347E-06  0.61240493E-06 -0.10504972E-05
     atom  111 type  1   force =  -0.73573683E-06  0.66039288E-06  0.17790449E-05
     atom  112 type  3   force =  -0.17018953E-05  0.25030972E-06 -0.13992957E-05
     atom  113 type  2   force =  -0.97758976E-06  0.17851484E-05 -0.20782348E-05
     atom  114 type  3   force =   0.35658351E-06  0.44186374E-06  0.71868003E-06
     atom  115 type  2   force =   0.12914252E-05  0.82379957E-06 -0.24094820E-05
     atom  116 type  3   force =   0.33002525E-06  0.16008216E-06  0.27981274E-06
     atom  117 type  1   force =   0.27653012E-06  0.25206441E-06 -0.27523061E-05
     atom  118 type  3   force =  -0.17059128E-05  0.37397924E-06  0.79604953E-06
     atom  119 type  2   force =  -0.33803433E-05 -0.14247834E-06 -0.24792705E-05
     atom  120 type  3   force =  -0.91044079E-06  0.76474425E-06  0.10871975E-05
     atom  121 type  1   force =   0.55309230E-06  0.16824022E-05  0.16195377E-05
     atom  122 type  3   force =   0.41618960E-06  0.57610350E-07  0.16643499E-05
     atom  123 type  1   force =   0.24199502E-05 -0.32994001E-06 -0.26775272E-07
     atom  124 type  3   force =  -0.36447437E-06 -0.38645254E-07  0.16152698E-05
     atom  125 type  2   force =  -0.13476928E-05 -0.19623515E-05  0.69234768E-06
     atom  126 type  3   force =  -0.10484970E-05  0.47931599E-06  0.30191583E-05
     atom  127 type  2   force =  -0.13019531E-05  0.68981113E-06  0.22172111E-05
     atom  128 type  3   force =   0.18188203E-07  0.44274063E-06  0.26681547E-05

     Total force =     0.460993     Total SCF correction =     0.000028


     entering subroutine stress ...

          total   stress  (Ry/bohr**3)                   (kbar)     P=   51.02
   0.0003993346  -0.0000059366  -0.0000039878         58.74     -0.87     -0.59
  -0.0000059366   0.0003309387   0.0000154220         -0.87     48.68      2.27
  -0.0000039878   0.0000154220   0.0003101886         -0.59      2.27     45.63

     kinetic stress (kbar)  21363.82     -0.92     -0.90
                               -0.92  21350.22      1.35
                               -0.90      1.35  21345.69

     local   stress (kbar)  -3273.24     -8.43    -17.35
                               -8.43  -2709.47     37.10
                              -17.35     37.10  -2621.75

     nonloc. stress (kbar)   5355.92      0.05     -0.05
                                0.05   5354.93      0.03
                               -0.05      0.03   5355.14

     hartree stress (kbar)  10917.19      2.90      8.76
                                2.90  10713.03    -13.34
                                8.76    -13.34  10684.00

     exc-cor stress (kbar)  -5284.57      0.01      0.02
                                0.01  -5285.02     -0.06
                                0.02     -0.06  -5285.13

     corecor stress (kbar)  -1117.99      0.00      0.01
                                0.00  -1117.93     -0.01
                                0.01     -0.01  -1117.91

     ewald   stress (kbar) -27902.39      5.51      8.93
                                5.51 -28257.07    -22.81
                                8.93    -22.81 -28314.41

     hubbard stress (kbar)      0.00      0.00      0.00
                                0.00      0.00      0.00
                                0.00      0.00      0.00

     london  stress (kbar)      0.00      0.00      0.00
                                0.00      0.00      0.00
                                0.00      0.00      0.00

     XDM     stress (kbar)      0.00      0.00      0.00
                                0.00      0.00      0.00
                                0.00      0.00      0.00

     dft-nl  stress (kbar)      0.00      0.00      0.00
                                0.00      0.00      0.00
                                0.00      0.00      0.00



     Writing output data file mix_rocksalt.relax.in.up_1.00.super.444.a.066.save

     init_run     :    966.29s CPU    693.28s WALL (       1 calls)
     electrons    :  71863.06s CPU  54531.73s WALL (       1 calls)
     forces       :    722.71s CPU    507.63s WALL (       1 calls)
     stress       :   3183.03s CPU   3125.31s WALL (       1 calls)

     Called by init_run:
     wfcinit      :    923.95s CPU    650.87s WALL (       1 calls)
     potinit      :      6.84s CPU      6.87s WALL (       1 calls)

     Called by electrons:
     c_bands      :  63779.55s CPU  47915.06s WALL (      26 calls)
     sum_band     :   7249.80s CPU   5771.27s WALL (      26 calls)
     v_of_rho     :     20.21s CPU     20.39s WALL (      27 calls)
     v_h          :      1.25s CPU      1.29s WALL (      27 calls)
     v_xc         :     20.19s CPU     20.67s WALL (      29 calls)
     newd         :    801.94s CPU    810.86s WALL (      27 calls)
     mix_rho      :     32.28s CPU     34.64s WALL (      26 calls)

     Called by c_bands:
     init_us_2    :     79.46s CPU     81.94s WALL (     440 calls)
     cegterg      :  63239.42s CPU  47349.48s WALL (     208 calls)

     Called by sum_band:
     sum_band:bec :     23.23s CPU     24.03s WALL (     208 calls)
     addusdens    :    599.24s CPU    613.39s WALL (      26 calls)

     Called by *egterg:
     h_psi        :  26793.34s CPU  20419.27s WALL (     840 calls)
     s_psi        :   7946.57s CPU   4695.97s WALL (     840 calls)
     g_psi        :     13.94s CPU     16.65s WALL (     624 calls)
     cdiaghg      :  14162.25s CPU  12860.67s WALL (     832 calls)
     cegterg:over :   6512.94s CPU   4208.70s WALL (     624 calls)
     cegterg:upda :   3092.09s CPU   1859.08s WALL (     624 calls)
     cegterg:last :   2313.48s CPU   1364.85s WALL (     208 calls)

     Called by h_psi:
     h_psi:vloc   :  10115.31s CPU  10339.89s WALL (     840 calls)
     h_psi:vnl    :  16652.47s CPU  10052.97s WALL (     840 calls)
     add_vuspsi   :   7797.76s CPU   4616.17s WALL (     840 calls)

     General routines
     calbec       :  13491.06s CPU   8404.82s WALL (    1064 calls)
     fft          :    244.69s CPU    246.83s WALL (     453 calls)
     ffts         :     17.25s CPU     18.52s WALL (     706 calls)
     fftw         :  11098.83s CPU  11354.63s WALL (  707300 calls)
     interpolate  :      4.34s CPU      4.38s WALL (      53 calls)

     Parallel routines
     fft_scatter  :   6771.96s CPU   6958.88s WALL (  708459 calls)

     PWSCF        :    21h19m CPU       16h21m WALL


   This run was terminated on:  12:15:23   4Nov2017            

=------------------------------------------------------------------------------=
   JOB DONE.
=------------------------------------------------------------------------------=
