
     Program PWSCF v.5.1 starts on 27Sep2017 at 16:55: 9 

     This program is part of the open-source Quantum ESPRESSO suite
     for quantum simulation of materials; please cite
         "P. Giannozzi et al., J. Phys.:Condens. Matter 21 395502 (2009);
          URL http://www.quantum-espresso.org", 
     in publications or presentations arising from this work. More details at
     http://www.quantum-espresso.org/quote

     Parallel version (MPI), running on     8 processors
     R & G space division:  proc/nbgrp/npool/nimage =       8
     Reading input from /tmp/Ge_diamond.scf.in.super.222.largdist.a.02.657/Ge_diamond.scf.in.super.222.largdist.a.02.t
Warning: card &IONS ignored
Warning: card   ION_DYNAMICS='BFGS', ignored
Warning: card / ignored
Warning: card &CELL ignored
Warning: card  CELL_DYNAMICS = 'BFGS' ignored
Warning: card / ignored
     Message from routine read_cards :
     DEPRECATED: no units specified in CELL_PARAMETERS card

     Current dimensions of program PWSCF are:
     Max number of different atomic species (ntypx) = 10
     Max number of k-points (npk) =  40000
     Max angular momentum in pseudopotentials (lmaxx) =  3
 kfg - two_fermi_energies  F

     Subspace diagonalization in iterative solution of the eigenvalue problem:
     a serial algorithm will be used


     Parallelization info
     --------------------
     sticks:   dense  smooth     PW     G-vecs:    dense   smooth      PW
     Min         397     277     76                14695     8616    1260
     Max         399     278     77                14696     8641    1261
     Sum        3181    2221    613               117565    69041   10081



     bravais-lattice index     =            0
     lattice parameter (alat)  =    15.161884076  a.u.
     unit-cell volume          =    2464.5891 (a.u.)^3
     number of atoms/cell      =           16
     number of atomic types    =            1
     number of electrons       =       224.00
     number of Kohn-Sham states=          134
     kinetic-energy cutoff     =      35.0000  Ry
     charge density cutoff     =     200.0000  Ry
     convergence threshold     =      1.0E-09
     mixing beta               =       0.3000
     number of iterations used =            8  local-TF  mixing
     Exchange-correlation      = SLA  PW   PSX  PSC ( 1  4 10  8 0)
     A smooth kinetic-energy cutoff is imposed at      34.5000 Ry
     height of the smooth step-function =             800.0000 Ry
     width of the smooth step-function  =               1.0000 Ry


     celldm(1)=  15.161884  celldm(2)=   0.000000  celldm(3)=   0.000000
     celldm(4)=   0.000000  celldm(5)=   0.000000  celldm(6)=   0.000000

     crystal axes: (cart. coord. in units of alat)
               a(1) = (   0.000000000000   0.707106781187   0.707106781187 )  
               a(2) = (   0.707106781187   0.000000000000   0.707106781187 )  
               a(3) = (   0.707106781187   0.707106781187  -0.000000000000 )  

     reciprocal axes: (cart. coord. in units 2 pi/alat)
               b(1) = ( -0.707107  0.707107  0.707107 )  
               b(2) = (  0.707107 -0.707107  0.707107 )  
               b(3) = (  0.707107  0.707107 -0.707107 )  


     PseudoPot. # 1 for Ge read from file:
     /users/kfg/psuedo/gbrv_1.5/ge.pbesol.UPF
     MD5 check sum: 7bed0412183f5e553a4d27ec7023354d
     Pseudo is Ultrasoft + core correction, Zval = 14.0
     Generated by new atomic code, or converted to UPF format
     Using radial grid of  873 points,  6 beta functions with: 
                l(1) =   0
                l(2) =   0
                l(3) =   1
                l(4) =   1
                l(5) =   2
                l(6) =   2
     Q(r) pseudized with  8 coefficients,  rinner =    1.400   1.400   1.400
                                                       1.400   1.400

     atomic species   valence    mass     pseudopotential
        Ge            14.00    72.64000     Ge( 1.00)

     No symmetry found


                                    s                        frac. trans.

      isym =  1     identity                                     

 cryst.   s( 1) = (     1          0          0      )
                  (     0          1          0      )
                  (     0          0          1      )

 cart.    s( 1) = (  1.0000000  0.0000000  0.0000000 )
                  (  0.0000000  1.0000000  0.0000000 )
                  (  0.0000000  0.0000000  1.0000000 )


     point group C_1 (1)    
     there are  1 classes
     the character table:

       E    
A      1.00

     the symmetry operations in each class:
     E        1

   Cartesian axes

     site n.     atom                  positions (alat units)
         1           Ge  tau(   1) = (   -0.01055049895   -0.02127327947    0.02529948930  )
         2           Ge  tau(   2) = (    0.17362777345    0.16350058929    0.15205753136  )
         3           Ge  tau(   3) = (    0.36100348415    0.32560340391    0.02352255909  )
         4           Ge  tau(   4) = (    0.54602446424    0.52791355544    0.17519714063  )
         5           Ge  tau(   5) = (    0.37212629399   -0.00844040180    0.33403175327  )
         6           Ge  tau(   6) = (    0.55898892036    0.19479747459    0.51309660324  )
         7           Ge  tau(   7) = (    0.68687556011    0.36731297682    0.33478807684  )
         8           Ge  tau(   8) = (    0.85708293457    0.52509061253    0.55795996438  )
         9           Ge  tau(   9) = (    0.01363353499    0.34930243525    0.36844021952  )
        10           Ge  tau(  10) = (    0.18602476562    0.52728697607    0.55624717257  )
        11           Ge  tau(  11) = (    0.36467666442    0.71687183675    0.36876140059  )
        12           Ge  tau(  12) = (    0.55809710398    0.91345352277    0.56064850566  )
        13           Ge  tau(  13) = (    0.38232196559    0.32603855135    0.72110586804  )
        14           Ge  tau(  14) = (    0.54437963973    0.51686673993    0.86377946349  )
        15           Ge  tau(  15) = (    0.71934847074    0.69133923312    0.69216882736  )
        16           Ge  tau(  16) = (    0.86270860400    0.87208627692    0.87136261853  )

   Crystallographic axes

     site n.     atom                  positions (cryst. coord.)
         1           Ge  tau(   1) = (    0.01030728963    0.02547159127   -0.04039224997  )
         2           Ge  tau(   2) = (    0.10035991096    0.11468191215    0.13086483988  )
         3           Ge  tau(   3) = (   -0.00839867575    0.04166459784    0.46887142552  )
         4           Ge  tau(   4) = (    0.11107673975    0.13668943262    0.63550577010  )
         5           Ge  tau(   5) = (   -0.03290517342    0.50529740916    0.02096864272  )
         6           Ge  tau(   6) = (    0.10529184660    0.62033632851    0.17019338387  )
         7           Ge  tau(   7) = (    0.01076604973    0.46269578905    0.50869294372  )
         8           Ge  tau(   8) = (    0.15978325222    0.62929129666    0.58280701349  )
         9           Ge  tau(   9) = (    0.49788033329    0.02317282208   -0.00389209199  )
        10           Ge  tau(  10) = (    0.63463497091    0.15201732457    0.11106142192  )
        11           Ge  tau(  11) = (    0.50979328165    0.01171409234    0.50401659237  )
        12           Ge  tau(  12) = (    0.64771329368    0.14516342675    0.64410506682  )
        13           Ge  tau(  13) = (    0.47010046537    0.54969723312   -0.00901232420  )
        14           Ge  tau(  14) = (    0.59132975807    0.63023887410    0.13963019549  )
        15           Ge  tau(  15) = (    0.46963174970    0.50924279341    0.50806956998  )
        16           Ge  tau(  16) = (    0.62277743255    0.60951540032    0.61053880783  )

     number of k points=    36  gaussian smearing, width (Ry)=  0.0150
                       cart. coord. in units 2pi/alat
        k(    1) = (   0.0000000   0.0000000   0.0000000), wk =   0.0312500
        k(    2) = (   0.1767767   0.1767767  -0.1767767), wk =   0.0625000
        k(    3) = (  -0.3535534  -0.3535534   0.3535534), wk =   0.0312500
        k(    4) = (   0.3535534   0.0000000   0.0000000), wk =   0.0625000
        k(    5) = (  -0.1767767  -0.5303301   0.5303301), wk =   0.0625000
        k(    6) = (   0.0000000  -0.3535534   0.3535534), wk =   0.0625000
        k(    7) = (  -0.7071068   0.0000000   0.0000000), wk =   0.0312500
        k(    8) = (  -0.7071068   0.3535534   0.0000000), wk =   0.0625000
        k(    9) = (  -0.1767767  -0.1767767  -0.1767767), wk =   0.0625000
        k(   10) = (  -0.1767767   0.1767767   0.1767767), wk =   0.0625000
        k(   11) = (   0.1767767  -0.1767767   0.1767767), wk =   0.0625000
        k(   12) = (   0.3535534   0.3535534   0.3535534), wk =   0.0312500
        k(   13) = (   0.3535534  -0.3535534  -0.3535534), wk =   0.0312500
        k(   14) = (  -0.3535534   0.3535534  -0.3535534), wk =   0.0312500
        k(   15) = (   0.0000000   0.3535534   0.0000000), wk =   0.0625000
        k(   16) = (   0.0000000   0.0000000   0.3535534), wk =   0.0625000
        k(   17) = (   0.1767767   0.5303301   0.5303301), wk =   0.0625000
        k(   18) = (   0.1767767  -0.5303301  -0.5303301), wk =   0.0625000
        k(   19) = (  -0.1767767   0.5303301  -0.5303301), wk =   0.0625000
        k(   20) = (  -0.5303301  -0.1767767  -0.5303301), wk =   0.0625000
        k(   21) = (   0.5303301   0.1767767  -0.5303301), wk =   0.0625000
        k(   22) = (  -0.5303301   0.1767767   0.5303301), wk =   0.0625000
        k(   23) = (   0.5303301  -0.1767767   0.5303301), wk =   0.0625000
        k(   24) = (   0.5303301   0.5303301  -0.1767767), wk =   0.0625000
        k(   25) = (  -0.5303301   0.5303301   0.1767767), wk =   0.0625000
        k(   26) = (   0.5303301  -0.5303301   0.1767767), wk =   0.0625000
        k(   27) = (  -0.5303301  -0.5303301  -0.1767767), wk =   0.0625000
        k(   28) = (   0.0000000   0.3535534   0.3535534), wk =   0.0625000
        k(   29) = (  -0.3535534   0.0000000  -0.3535534), wk =   0.0625000
        k(   30) = (   0.3535534   0.0000000  -0.3535534), wk =   0.0625000
        k(   31) = (   0.3535534   0.3535534   0.0000000), wk =   0.0625000
        k(   32) = (  -0.3535534   0.3535534   0.0000000), wk =   0.0625000
        k(   33) = (   0.0000000  -0.7071068   0.0000000), wk =   0.0312500
        k(   34) = (   0.0000000   0.0000000  -0.7071068), wk =   0.0312500
        k(   35) = (   0.3535534  -0.7071068   0.0000000), wk =   0.0625000
        k(   36) = (   0.7071068  -0.0000000   0.3535534), wk =   0.0625000

                       cryst. coord.
        k(    1) = (   0.0000000   0.0000000   0.0000000), wk =   0.0312500
        k(    2) = (   0.0000000   0.0000000   0.2500000), wk =   0.0625000
        k(    3) = (   0.0000000   0.0000000  -0.5000000), wk =   0.0312500
        k(    4) = (   0.0000000   0.2500000   0.2500000), wk =   0.0625000
        k(    5) = (   0.0000000   0.2500000  -0.5000000), wk =   0.0625000
        k(    6) = (   0.0000000   0.2500000  -0.2500000), wk =   0.0625000
        k(    7) = (   0.0000000  -0.5000000  -0.5000000), wk =   0.0312500
        k(    8) = (   0.2500000  -0.5000000  -0.2500000), wk =   0.0625000
        k(    9) = (  -0.2500000  -0.2500000  -0.2500000), wk =   0.0625000
        k(   10) = (   0.2500000   0.0000000   0.0000000), wk =   0.0625000
        k(   11) = (   0.0000000   0.2500000   0.0000000), wk =   0.0625000
        k(   12) = (   0.5000000   0.5000000   0.5000000), wk =   0.0312500
        k(   13) = (  -0.5000000   0.0000000   0.0000000), wk =   0.0312500
        k(   14) = (   0.0000000  -0.5000000   0.0000000), wk =   0.0312500
        k(   15) = (   0.2500000   0.0000000   0.2500000), wk =   0.0625000
        k(   16) = (   0.2500000   0.2500000   0.0000000), wk =   0.0625000
        k(   17) = (   0.7500000   0.5000000   0.5000000), wk =   0.0625000
        k(   18) = (  -0.7500000  -0.2500000  -0.2500000), wk =   0.0625000
        k(   19) = (   0.0000000  -0.5000000   0.2500000), wk =   0.0625000
        k(   20) = (  -0.5000000  -0.7500000  -0.5000000), wk =   0.0625000
        k(   21) = (  -0.2500000   0.0000000   0.5000000), wk =   0.0625000
        k(   22) = (   0.5000000   0.0000000  -0.2500000), wk =   0.0625000
        k(   23) = (   0.2500000   0.7500000   0.2500000), wk =   0.0625000
        k(   24) = (   0.2500000   0.2500000   0.7500000), wk =   0.0625000
        k(   25) = (   0.5000000  -0.2500000   0.0000000), wk =   0.0625000
        k(   26) = (  -0.2500000   0.5000000   0.0000000), wk =   0.0625000
        k(   27) = (  -0.5000000  -0.5000000  -0.7500000), wk =   0.0625000
        k(   28) = (   0.5000000   0.2500000   0.2500000), wk =   0.0625000
        k(   29) = (  -0.2500000  -0.5000000  -0.2500000), wk =   0.0625000
        k(   30) = (  -0.2500000   0.0000000   0.2500000), wk =   0.0625000
        k(   31) = (   0.2500000   0.2500000   0.5000000), wk =   0.0625000
        k(   32) = (   0.2500000  -0.2500000   0.0000000), wk =   0.0625000
        k(   33) = (  -0.5000000   0.0000000  -0.5000000), wk =   0.0312500
        k(   34) = (  -0.5000000  -0.5000000   0.0000000), wk =   0.0312500
        k(   35) = (  -0.5000000   0.2500000  -0.2500000), wk =   0.0625000
        k(   36) = (   0.2500000   0.7500000   0.5000000), wk =   0.0625000

     Dense  grid:   117565 G-vectors     FFT dimensions: (  72,  72,  72)

     Smooth grid:    69041 G-vectors     FFT dimensions: (  60,  60,  60)

     Largest allocated arrays     est. size (Mb)     dimensions
        Kohn-Sham Wavefunctions         2.25 Mb     (    1100,  134)
        NL pseudopotentials             4.83 Mb     (    1100,  288)
        Each V/rho on FFT grid          0.71 Mb     (   46656)
        Each G-vector array             0.11 Mb     (   14696)
        G-vector shells                 0.01 Mb     (     776)
     Largest temporary arrays     est. size (Mb)     dimensions
        Auxiliary wavefunctions         9.00 Mb     (    1100,  536)
        Each subspace H/S matrix        4.38 Mb     (     536,  536)
        Each <psi_i|beta_j> matrix      0.59 Mb     (     288,  134)
        Arrays for rho mixing           5.70 Mb     (   46656,    8)

     Check: negative/imaginary core charge=   -0.000002    0.000000

     Initial potential from superposition of free atoms

     starting charge  223.98707, renormalised to  224.00000
     Starting wfc are  144 randomized atomic wfcs

     total cpu time spent up to now is       33.5 secs

     per-process dynamical memory:   105.7 Mb

     Self-consistent Calculation

     iteration #  1     ecut=    35.00 Ry     beta=0.30
     Davidson diagonalization with overlap
     ethr =  1.00E-02,  avg # of iterations =  3.6

     Threshold (ethr) on eigenvalues was too large:
     Diagonalizing with lowered threshold

     Davidson diagonalization with overlap
     ethr =  1.14E-04,  avg # of iterations =  5.5

     total cpu time spent up to now is      353.1 secs

     total energy              =   -3410.62669181 Ry
     Harris-Foulkes estimate   =   -3410.65604353 Ry
     estimated scf accuracy    <       0.26629900 Ry

     iteration #  2     ecut=    35.00 Ry     beta=0.30
     Davidson diagonalization with overlap
     ethr =  1.19E-04,  avg # of iterations =  1.0

     total cpu time spent up to now is      453.4 secs

     total energy              =   -3410.57235712 Ry
     Harris-Foulkes estimate   =   -3410.62779331 Ry
     estimated scf accuracy    <       0.16222510 Ry

     iteration #  3     ecut=    35.00 Ry     beta=0.30
     Davidson diagonalization with overlap
     ethr =  7.24E-05,  avg # of iterations =  2.0

     total cpu time spent up to now is      568.7 secs

     total energy              =   -3410.58324021 Ry
     Harris-Foulkes estimate   =   -3410.58361668 Ry
     estimated scf accuracy    <       0.00265635 Ry

     iteration #  4     ecut=    35.00 Ry     beta=0.30
     Davidson diagonalization with overlap
     ethr =  1.19E-06,  avg # of iterations =  5.8

     total cpu time spent up to now is      790.5 secs

     total energy              =   -3410.58368391 Ry
     Harris-Foulkes estimate   =   -3410.58373091 Ry
     estimated scf accuracy    <       0.00056670 Ry

     iteration #  5     ecut=    35.00 Ry     beta=0.30
     Davidson diagonalization with overlap
     ethr =  2.53E-07,  avg # of iterations =  2.0

     total cpu time spent up to now is      911.1 secs

     total energy              =   -3410.58370790 Ry
     Harris-Foulkes estimate   =   -3410.58373167 Ry
     estimated scf accuracy    <       0.00007216 Ry

     iteration #  6     ecut=    35.00 Ry     beta=0.30
     Davidson diagonalization with overlap
     ethr =  3.22E-08,  avg # of iterations =  2.0

     total cpu time spent up to now is     1027.7 secs

     total energy              =   -3410.58371079 Ry
     Harris-Foulkes estimate   =   -3410.58371172 Ry
     estimated scf accuracy    <       0.00000522 Ry

     iteration #  7     ecut=    35.00 Ry     beta=0.30
     Davidson diagonalization with overlap
     ethr =  2.33E-09,  avg # of iterations =  2.0

     total cpu time spent up to now is     1147.1 secs

     total energy              =   -3410.58371184 Ry
     Harris-Foulkes estimate   =   -3410.58371128 Ry
     estimated scf accuracy    <       0.00000118 Ry

     iteration #  8     ecut=    35.00 Ry     beta=0.30
     Davidson diagonalization with overlap
     ethr =  5.28E-10,  avg # of iterations =  2.0

     total cpu time spent up to now is     1264.3 secs

     total energy              =   -3410.58371223 Ry
     Harris-Foulkes estimate   =   -3410.58371194 Ry
     estimated scf accuracy    <       0.00000022 Ry

     iteration #  9     ecut=    35.00 Ry     beta=0.30
     Davidson diagonalization with overlap
     ethr =  9.86E-11,  avg # of iterations =  2.0

     total cpu time spent up to now is     1409.7 secs

     total energy              =   -3410.58371244 Ry
     Harris-Foulkes estimate   =   -3410.58371227 Ry
     estimated scf accuracy    <       0.00000001 Ry

     iteration # 10     ecut=    35.00 Ry     beta=0.30
     Davidson diagonalization with overlap
     ethr =  5.63E-12,  avg # of iterations =  2.0

     total cpu time spent up to now is     1529.8 secs

     total energy              =   -3410.58371252 Ry
     Harris-Foulkes estimate   =   -3410.58371244 Ry
     estimated scf accuracy    <          3.1E-09 Ry

     iteration # 11     ecut=    35.00 Ry     beta=0.30
     Davidson diagonalization with overlap
     ethr =  1.38E-12,  avg # of iterations =  2.0

     total cpu time spent up to now is     1680.4 secs

     End of self-consistent calculation

          k = 0.0000 0.0000 0.0000 (  8609 PWs)   bands (ev):

   -17.3641 -17.3411 -17.2874 -17.1102 -17.0970 -17.0777 -17.0699 -17.0545
   -17.0488 -17.0165 -16.9840 -16.9440 -16.9364 -16.9255 -16.9062 -16.8890
   -16.8853 -16.8776 -16.8714 -16.8565 -16.7981 -16.7921 -16.7847 -16.7671
   -16.7022 -16.6922 -16.6901 -16.6820 -16.6675 -16.6609 -16.6537 -16.6398
   -16.6312 -16.6165 -16.6081 -16.5950 -16.5877 -16.5801 -16.5754 -16.5736
   -16.5701 -16.5644 -16.5592 -16.5543 -16.5422 -16.5409 -16.5375 -16.5214
   -16.5135 -16.5130 -16.5059 -16.4962 -16.4849 -16.4760 -16.4606 -16.4478
   -16.4386 -16.4287 -16.4100 -16.4048 -16.3994 -16.3922 -16.3766 -16.3528
   -16.3216 -16.3017 -16.2698 -16.2600 -16.2477 -16.2454 -16.2328 -16.2202
   -16.2140 -16.2032 -16.1687 -16.1657 -16.1650 -16.1585 -16.1512 -16.1398
    -4.9017  -3.4788  -2.9114  -2.5675  -2.0316  -1.7460  -1.0231  -0.9478
    -0.5085  -0.3633  -0.0521   0.3646   0.6831   0.9335   1.1931   4.6855
     4.9051   4.9483   5.0277   5.1978   5.4183   5.9102   6.0514   6.4662
     6.9259   7.0601   7.1094   7.3255   7.4325   7.6745   7.8457   7.9431
     8.0055   8.0826   8.1627   8.3231   8.4603   8.6112   8.6965   9.0286
     9.1479   9.3027   9.6792  10.5843  10.6565  10.8708  11.2509  11.4589
    11.5713  11.7623  12.0427  12.2505  12.7979  12.9290

     occupation numbers 
     1.0000   1.0000   1.0000   1.0000   1.0000   1.0000   1.0000   1.0000
     1.0000   1.0000   1.0000   1.0000   1.0000   1.0000   1.0000   1.0000
     1.0000   1.0000   1.0000   1.0000   1.0000   1.0000   1.0000   1.0000
     1.0000   1.0000   1.0000   1.0000   1.0000   1.0000   1.0000   1.0000
     1.0000   1.0000   1.0000   1.0000   1.0000   1.0000   1.0000   1.0000
     1.0000   1.0000   1.0000   1.0000   1.0000   1.0000   1.0000   1.0000
     1.0000   1.0000   1.0000   1.0000   1.0000   1.0000   1.0000   1.0000
     1.0000   1.0000   1.0000   1.0000   1.0000   1.0000   1.0000   1.0000
     1.0000   1.0000   1.0000   1.0000   1.0000   1.0000   1.0000   1.0000
     1.0000   1.0000   1.0000   1.0000   1.0000   1.0000   1.0000   1.0000
     1.0000   1.0000   1.0000   1.0000   1.0000   1.0000   1.0000   1.0000
     1.0000   1.0000   1.0000   1.0000   1.0000   1.0000   1.0000   1.0000
     1.0000   1.0000   1.0000   1.0000   1.0000   1.0000   1.0000   1.0000
     1.0000   1.0000   1.0000   1.0000   1.0000   0.9992   0.9750   0.9006
     0.8031   0.6248   0.4064   0.0887   0.0108   0.0004   0.0000   0.0000
     0.0000   0.0000   0.0000   0.0000   0.0000   0.0000   0.0000   0.0000
     0.0000   0.0000   0.0000   0.0000   0.0000   0.0000

          k = 0.1768 0.1768-0.1768 (  8627 PWs)   bands (ev):

   -17.3641 -17.3412 -17.2867 -17.1105 -17.0966 -17.0795 -17.0697 -17.0563
   -17.0488 -17.0184 -16.9865 -16.9476 -16.9371 -16.9255 -16.9052 -16.8909
   -16.8814 -16.8745 -16.8670 -16.8539 -16.8028 -16.7929 -16.7841 -16.7671
   -16.7003 -16.6922 -16.6887 -16.6796 -16.6685 -16.6644 -16.6530 -16.6361
   -16.6269 -16.6151 -16.6086 -16.5940 -16.5877 -16.5799 -16.5767 -16.5726
   -16.5693 -16.5646 -16.5590 -16.5544 -16.5461 -16.5414 -16.5371 -16.5224
   -16.5154 -16.5139 -16.5076 -16.4994 -16.4871 -16.4807 -16.4639 -16.4463
   -16.4388 -16.4283 -16.4106 -16.4045 -16.3962 -16.3918 -16.3750 -16.3515
   -16.3216 -16.3013 -16.2716 -16.2615 -16.2479 -16.2455 -16.2328 -16.2209
   -16.2126 -16.2018 -16.1690 -16.1658 -16.1651 -16.1584 -16.1513 -16.1398
    -4.7437  -3.5408  -3.0845  -2.8021  -2.1655  -1.7228  -1.5530  -1.0571
    -0.2689   0.1732   0.3863   0.7855   0.9597   1.2758   1.5844   4.0018
     4.2598   4.4834   4.8325   5.0810   5.1571   5.3665   5.6785   5.8457
     6.1744   6.4166   6.6648   6.9038   7.0390   7.2792   7.9007   8.1322
     8.2543   8.3839   8.8761   9.0659   9.2200   9.2840   9.4560   9.6098
     9.6625  10.0644  10.4550  11.0367  11.1694  11.3140  11.4260  11.7570
    11.7739  12.0111  12.1869  12.4627  12.9453  13.1676

     occupation numbers 
     1.0000   1.0000   1.0000   1.0000   1.0000   1.0000   1.0000   1.0000
     1.0000   1.0000   1.0000   1.0000   1.0000   1.0000   1.0000   1.0000
     1.0000   1.0000   1.0000   1.0000   1.0000   1.0000   1.0000   1.0000
     1.0000   1.0000   1.0000   1.0000   1.0000   1.0000   1.0000   1.0000
     1.0000   1.0000   1.0000   1.0000   1.0000   1.0000   1.0000   1.0000
     1.0000   1.0000   1.0000   1.0000   1.0000   1.0000   1.0000   1.0000
     1.0000   1.0000   1.0000   1.0000   1.0000   1.0000   1.0000   1.0000
     1.0000   1.0000   1.0000   1.0000   1.0000   1.0000   1.0000   1.0000
     1.0000   1.0000   1.0000   1.0000   1.0000   1.0000   1.0000   1.0000
     1.0000   1.0000   1.0000   1.0000   1.0000   1.0000   1.0000   1.0000
     1.0000   1.0000   1.0000   1.0000   1.0000   1.0000   1.0000   1.0000
     1.0000   1.0000   1.0000   1.0000   1.0000   1.0000   1.0000   1.0000
     1.0000   1.0000   1.0000   1.0000   1.0000   1.0000   1.0000   1.0000
     1.0000   1.0000   1.0000   1.0000   1.0000   1.0000   0.9428   0.4900
     0.1918   0.0384   0.0000   0.0000   0.0000   0.0000   0.0000   0.0000
     0.0000   0.0000   0.0000   0.0000   0.0000   0.0000   0.0000   0.0000
     0.0000   0.0000   0.0000   0.0000   0.0000   0.0000

          k =-0.3536-0.3536 0.3536 (  8646 PWs)   bands (ev):

   -17.3640 -17.3414 -17.2859 -17.1101 -17.0976 -17.0811 -17.0684 -17.0577
   -17.0480 -17.0208 -16.9883 -16.9507 -16.9375 -16.9258 -16.9045 -16.8922
   -16.8805 -16.8700 -16.8606 -16.8516 -16.8087 -16.7918 -16.7841 -16.7667
   -16.6983 -16.6920 -16.6880 -16.6758 -16.6709 -16.6668 -16.6539 -16.6330
   -16.6194 -16.6154 -16.6097 -16.5921 -16.5879 -16.5788 -16.5742 -16.5710
   -16.5688 -16.5663 -16.5572 -16.5546 -16.5516 -16.5426 -16.5372 -16.5252
   -16.5172 -16.5151 -16.5092 -16.5014 -16.4874 -16.4856 -16.4672 -16.4446
   -16.4390 -16.4287 -16.4105 -16.4032 -16.3928 -16.3926 -16.3732 -16.3498
   -16.3213 -16.3009 -16.2734 -16.2630 -16.2481 -16.2454 -16.2328 -16.2214
   -16.2111 -16.2002 -16.1692 -16.1657 -16.1651 -16.1581 -16.1513 -16.1399
    -4.4595  -3.8948  -3.1820  -2.8025  -2.2289  -2.0094  -1.5280  -1.4105
     0.2865   0.5004   0.7543   0.9809   1.2849   1.5798   2.8356   2.9749
     3.7529   4.0502   4.1789   4.4071   4.7048   5.2402   5.4896   5.5071
     5.9648   6.0931   6.2516   6.3767   7.1401   7.3827   7.6644   7.9024
     8.3336   8.6972   9.0089   9.2561   9.4030   9.7712   9.9626  10.0290
    11.2653  11.3439  11.4619  11.7645  11.9777  12.1593  12.2507  12.4284
    12.4561  12.6219  12.6675  12.9576  13.0688  13.2174

     occupation numbers 
     1.0000   1.0000   1.0000   1.0000   1.0000   1.0000   1.0000   1.0000
     1.0000   1.0000   1.0000   1.0000   1.0000   1.0000   1.0000   1.0000
     1.0000   1.0000   1.0000   1.0000   1.0000   1.0000   1.0000   1.0000
     1.0000   1.0000   1.0000   1.0000   1.0000   1.0000   1.0000   1.0000
     1.0000   1.0000   1.0000   1.0000   1.0000   1.0000   1.0000   1.0000
     1.0000   1.0000   1.0000   1.0000   1.0000   1.0000   1.0000   1.0000
     1.0000   1.0000   1.0000   1.0000   1.0000   1.0000   1.0000   1.0000
     1.0000   1.0000   1.0000   1.0000   1.0000   1.0000   1.0000   1.0000
     1.0000   1.0000   1.0000   1.0000   1.0000   1.0000   1.0000   1.0000
     1.0000   1.0000   1.0000   1.0000   1.0000   1.0000   1.0000   1.0000
     1.0000   1.0000   1.0000   1.0000   1.0000   1.0000   1.0000   1.0000
     1.0000   1.0000   1.0000   1.0000   1.0000   1.0000   1.0000   1.0000
     1.0000   1.0000   1.0000   1.0000   1.0000   1.0000   1.0000   1.0000
     1.0000   1.0000   1.0000   1.0000   1.0000   1.0000   0.9994   0.9415
     0.0776   0.0000   0.0000   0.0000   0.0000   0.0000   0.0000   0.0000
     0.0000   0.0000   0.0000   0.0000   0.0000   0.0000   0.0000   0.0000
     0.0000   0.0000   0.0000   0.0000   0.0000   0.0000

          k = 0.3536 0.0000 0.0000 (  8620 PWs)   bands (ev):

   -17.3640 -17.3413 -17.2874 -17.1102 -17.0958 -17.0787 -17.0698 -17.0583
   -17.0495 -17.0159 -16.9849 -16.9489 -16.9368 -16.9248 -16.9038 -16.8904
   -16.8802 -16.8759 -16.8710 -16.8539 -16.7998 -16.7935 -16.7842 -16.7666
   -16.7023 -16.6933 -16.6904 -16.6820 -16.6677 -16.6637 -16.6521 -16.6356
   -16.6268 -16.6159 -16.6091 -16.5944 -16.5880 -16.5805 -16.5754 -16.5729
   -16.5684 -16.5676 -16.5598 -16.5538 -16.5457 -16.5417 -16.5373 -16.5216
   -16.5153 -16.5129 -16.5064 -16.4964 -16.4882 -16.4788 -16.4624 -16.4457
   -16.4378 -16.4283 -16.4112 -16.4039 -16.3985 -16.3923 -16.3773 -16.3522
   -16.3219 -16.3024 -16.2714 -16.2610 -16.2478 -16.2457 -16.2319 -16.2205
   -16.2128 -16.2021 -16.1688 -16.1658 -16.1651 -16.1584 -16.1513 -16.1399
    -4.7069  -3.5454  -3.0854  -2.7660  -2.4176  -1.8532  -1.3973  -0.7342
    -0.5517  -0.1616   0.5190   0.9684   1.2512   1.5062   1.6515   4.1417
     4.4391   4.5293   4.6562   4.9139   5.1367   5.3350   5.4744   5.6090
     5.7965   5.9959   6.3537   6.6992   7.0267   7.4633   7.5429   7.6765
     8.3897   8.6885   9.0426   9.2951   9.3385   9.4880   9.7179  10.0151
    10.0947  10.3874  10.4946  10.8751  11.2402  11.5157  11.6858  11.8542
    11.9673  12.1141  12.4023  12.5568  12.6567  13.1415

     occupation numbers 
     1.0000   1.0000   1.0000   1.0000   1.0000   1.0000   1.0000   1.0000
     1.0000   1.0000   1.0000   1.0000   1.0000   1.0000   1.0000   1.0000
     1.0000   1.0000   1.0000   1.0000   1.0000   1.0000   1.0000   1.0000
     1.0000   1.0000   1.0000   1.0000   1.0000   1.0000   1.0000   1.0000
     1.0000   1.0000   1.0000   1.0000   1.0000   1.0000   1.0000   1.0000
     1.0000   1.0000   1.0000   1.0000   1.0000   1.0000   1.0000   1.0000
     1.0000   1.0000   1.0000   1.0000   1.0000   1.0000   1.0000   1.0000
     1.0000   1.0000   1.0000   1.0000   1.0000   1.0000   1.0000   1.0000
     1.0000   1.0000   1.0000   1.0000   1.0000   1.0000   1.0000   1.0000
     1.0000   1.0000   1.0000   1.0000   1.0000   1.0000   1.0000   1.0000
     1.0000   1.0000   1.0000   1.0000   1.0000   1.0000   1.0000   1.0000
     1.0000   1.0000   1.0000   1.0000   1.0000   1.0000   1.0000   1.0000
     1.0000   1.0000   1.0000   1.0000   1.0000   1.0000   1.0000   1.0000
     1.0000   1.0000   1.0000   1.0000   1.0000   1.0000   1.0000   0.9991
     0.0352   0.0001   0.0000   0.0000   0.0000   0.0000   0.0000   0.0000
     0.0000   0.0000   0.0000   0.0000   0.0000   0.0000   0.0000   0.0000
     0.0000   0.0000   0.0000   0.0000   0.0000   0.0000

          k =-0.1768-0.5303 0.5303 (  8605 PWs)   bands (ev):

   -17.3640 -17.3414 -17.2867 -17.1098 -17.0970 -17.0805 -17.0684 -17.0592
   -17.0486 -17.0192 -16.9868 -16.9501 -16.9375 -16.9270 -16.9030 -16.8905
   -16.8800 -16.8712 -16.8662 -16.8507 -16.8045 -16.7926 -16.7848 -16.7663
   -16.7007 -16.6936 -16.6890 -16.6788 -16.6707 -16.6648 -16.6521 -16.6325
   -16.6200 -16.6155 -16.6107 -16.5934 -16.5880 -16.5791 -16.5746 -16.5701
   -16.5691 -16.5670 -16.5580 -16.5547 -16.5503 -16.5427 -16.5377 -16.5248
   -16.5172 -16.5133 -16.5086 -16.4994 -16.4889 -16.4830 -16.4658 -16.4438
   -16.4383 -16.4278 -16.4116 -16.4037 -16.3950 -16.3921 -16.3756 -16.3506
   -16.3218 -16.3020 -16.2732 -16.2624 -16.2479 -16.2456 -16.2318 -16.2210
   -16.2114 -16.2006 -16.1690 -16.1658 -16.1651 -16.1582 -16.1513 -16.1399
    -4.4356  -3.7396  -3.2769  -3.0426  -2.3807  -1.8768  -1.6286  -0.9890
    -0.1037   0.2482   0.7989   1.1517   1.6444   2.1502   2.6146   3.1770
     3.8327   3.9476   4.2423   4.5407   4.6427   5.0005   5.0575   5.4333
     5.7159   5.8298   6.0991   6.3230   6.8278   6.9982   7.1314   7.3881
     8.9718   9.3312   9.5173   9.6991   9.9794  10.2735  10.4912  10.6914
    10.8043  11.1074  11.5577  11.6543  11.8475  12.0002  12.1123  12.1788
    12.4751  12.6305  12.7675  12.9223  13.0036  13.2508

     occupation numbers 
     1.0000   1.0000   1.0000   1.0000   1.0000   1.0000   1.0000   1.0000
     1.0000   1.0000   1.0000   1.0000   1.0000   1.0000   1.0000   1.0000
     1.0000   1.0000   1.0000   1.0000   1.0000   1.0000   1.0000   1.0000
     1.0000   1.0000   1.0000   1.0000   1.0000   1.0000   1.0000   1.0000
     1.0000   1.0000   1.0000   1.0000   1.0000   1.0000   1.0000   1.0000
     1.0000   1.0000   1.0000   1.0000   1.0000   1.0000   1.0000   1.0000
     1.0000   1.0000   1.0000   1.0000   1.0000   1.0000   1.0000   1.0000
     1.0000   1.0000   1.0000   1.0000   1.0000   1.0000   1.0000   1.0000
     1.0000   1.0000   1.0000   1.0000   1.0000   1.0000   1.0000   1.0000
     1.0000   1.0000   1.0000   1.0000   1.0000   1.0000   1.0000   1.0000
     1.0000   1.0000   1.0000   1.0000   1.0000   1.0000   1.0000   1.0000
     1.0000   1.0000   1.0000   1.0000   1.0000   1.0000   1.0000   1.0000
     1.0000   1.0000   1.0000   1.0000   1.0000   1.0000   1.0000   1.0000
     1.0000   1.0000   1.0000   1.0000   1.0000   1.0000   1.0000   1.0000
     0.0000   0.0000   0.0000   0.0000   0.0000   0.0000   0.0000   0.0000
     0.0000   0.0000   0.0000   0.0000   0.0000   0.0000   0.0000   0.0000
     0.0000   0.0000   0.0000   0.0000   0.0000   0.0000

          k = 0.0000-0.3536 0.3536 (  8602 PWs)   bands (ev):

   -17.3643 -17.3413 -17.2860 -17.1106 -17.0979 -17.0803 -17.0698 -17.0574
   -17.0496 -17.0168 -16.9870 -16.9447 -16.9377 -16.9278 -16.9047 -16.8886
   -16.8814 -16.8728 -16.8612 -16.8544 -16.8076 -16.7934 -16.7846 -16.7675
   -16.6991 -16.6914 -16.6888 -16.6785 -16.6692 -16.6646 -16.6536 -16.6372
   -16.6264 -16.6169 -16.6085 -16.5945 -16.5873 -16.5808 -16.5766 -16.5714
   -16.5691 -16.5631 -16.5592 -16.5547 -16.5461 -16.5409 -16.5357 -16.5225
   -16.5153 -16.5145 -16.5087 -16.5013 -16.4852 -16.4804 -16.4645 -16.4449
   -16.4394 -16.4271 -16.4114 -16.4048 -16.3954 -16.3930 -16.3760 -16.3512
   -16.3210 -16.3027 -16.2718 -16.2618 -16.2476 -16.2454 -16.2320 -16.2209
   -16.2124 -16.2010 -16.1692 -16.1658 -16.1652 -16.1582 -16.1513 -16.1399
    -4.5184  -3.7921  -3.1197  -2.9569  -2.2827  -1.9132  -1.4741  -1.1304
    -0.0699   0.1842   0.6127   1.0456   1.2210   1.8428   2.3606   3.4815
     3.9889   4.2032   4.5887   4.8686   5.0258   5.0986   5.2962   5.5423
     5.7755   6.0012   6.2173   6.3698   6.4483   6.8073   6.9836   7.9018
     8.7974   9.2054   9.3846   9.5768   9.8680   9.9546  10.1539  10.3509
    10.6421  10.8680  11.0440  11.1860  11.2929  11.5127  11.6516  11.9665
    12.0928  12.6608  12.7989  12.9777  13.3232  13.5020

     occupation numbers 
     1.0000   1.0000   1.0000   1.0000   1.0000   1.0000   1.0000   1.0000
     1.0000   1.0000   1.0000   1.0000   1.0000   1.0000   1.0000   1.0000
     1.0000   1.0000   1.0000   1.0000   1.0000   1.0000   1.0000   1.0000
     1.0000   1.0000   1.0000   1.0000   1.0000   1.0000   1.0000   1.0000
     1.0000   1.0000   1.0000   1.0000   1.0000   1.0000   1.0000   1.0000
     1.0000   1.0000   1.0000   1.0000   1.0000   1.0000   1.0000   1.0000
     1.0000   1.0000   1.0000   1.0000   1.0000   1.0000   1.0000   1.0000
     1.0000   1.0000   1.0000   1.0000   1.0000   1.0000   1.0000   1.0000
     1.0000   1.0000   1.0000   1.0000   1.0000   1.0000   1.0000   1.0000
     1.0000   1.0000   1.0000   1.0000   1.0000   1.0000   1.0000   1.0000
     1.0000   1.0000   1.0000   1.0000   1.0000   1.0000   1.0000   1.0000
     1.0000   1.0000   1.0000   1.0000   1.0000   1.0000   1.0000   1.0000
     1.0000   1.0000   1.0000   1.0000   1.0000   1.0000   1.0000   1.0000
     1.0000   1.0000   1.0000   1.0000   1.0000   1.0000   1.0000   0.9419
     0.0000   0.0000   0.0000   0.0000   0.0000   0.0000   0.0000   0.0000
     0.0000   0.0000   0.0000   0.0000   0.0000   0.0000   0.0000   0.0000
     0.0000   0.0000   0.0000   0.0000   0.0000   0.0000

          k =-0.7071 0.0000 0.0000 (  8616 PWs)   bands (ev):

   -17.3639 -17.3414 -17.2875 -17.1097 -17.0965 -17.0799 -17.0683 -17.0609
   -17.0491 -17.0179 -16.9851 -16.9499 -16.9376 -16.9281 -16.9016 -16.8892
   -16.8790 -16.8736 -16.8700 -16.8505 -16.8009 -16.7933 -16.7855 -16.7658
   -16.7034 -16.6945 -16.6902 -16.6809 -16.6704 -16.6636 -16.6513 -16.6321
   -16.6206 -16.6161 -16.6118 -16.5940 -16.5887 -16.5794 -16.5752 -16.5704
   -16.5689 -16.5668 -16.5589 -16.5549 -16.5490 -16.5431 -16.5382 -16.5247
   -16.5170 -16.5123 -16.5076 -16.4967 -16.4902 -16.4816 -16.4641 -16.4434
   -16.4371 -16.4273 -16.4126 -16.4029 -16.3985 -16.3919 -16.3782 -16.3513
   -16.3221 -16.3031 -16.2730 -16.2618 -16.2479 -16.2458 -16.2309 -16.2207
   -16.2118 -16.2010 -16.1687 -16.1658 -16.1652 -16.1583 -16.1513 -16.1400
    -4.3886  -3.6215  -3.4366  -2.9213  -2.7528  -1.9896  -1.3010  -0.6752
    -0.5185  -0.0800   1.3238   1.5579   1.6593   1.9078   3.1105   3.2602
     3.9787   4.1256   4.2403   4.3165   4.4853   4.4951   4.7046   4.7698
     5.6683   5.6956   6.1883   6.6828   6.7533   6.9404   7.0342   7.4262
     8.5204   9.0873   9.4919   9.7643  10.0393  10.2663  10.4554  10.9556
    11.7735  11.8663  12.0223  12.1068  12.2804  12.3623  12.5127  12.6183
    12.7690  12.8701  12.9979  13.0370  13.1301  13.2023

     occupation numbers 
     1.0000   1.0000   1.0000   1.0000   1.0000   1.0000   1.0000   1.0000
     1.0000   1.0000   1.0000   1.0000   1.0000   1.0000   1.0000   1.0000
     1.0000   1.0000   1.0000   1.0000   1.0000   1.0000   1.0000   1.0000
     1.0000   1.0000   1.0000   1.0000   1.0000   1.0000   1.0000   1.0000
     1.0000   1.0000   1.0000   1.0000   1.0000   1.0000   1.0000   1.0000
     1.0000   1.0000   1.0000   1.0000   1.0000   1.0000   1.0000   1.0000
     1.0000   1.0000   1.0000   1.0000   1.0000   1.0000   1.0000   1.0000
     1.0000   1.0000   1.0000   1.0000   1.0000   1.0000   1.0000   1.0000
     1.0000   1.0000   1.0000   1.0000   1.0000   1.0000   1.0000   1.0000
     1.0000   1.0000   1.0000   1.0000   1.0000   1.0000   1.0000   1.0000
     1.0000   1.0000   1.0000   1.0000   1.0000   1.0000   1.0000   1.0000
     1.0000   1.0000   1.0000   1.0000   1.0000   1.0000   1.0000   1.0000
     1.0000   1.0000   1.0000   1.0000   1.0000   1.0000   1.0000   1.0000
     1.0000   1.0000   1.0000   1.0000   1.0000   1.0000   1.0000   1.0000
     0.0033   0.0000   0.0000   0.0000   0.0000   0.0000   0.0000   0.0000
     0.0000   0.0000   0.0000   0.0000   0.0000   0.0000   0.0000   0.0000
     0.0000   0.0000   0.0000   0.0000   0.0000   0.0000

          k =-0.7071 0.3536 0.0000 (  8652 PWs)   bands (ev):

   -17.3642 -17.3415 -17.2868 -17.1106 -17.0963 -17.0823 -17.0687 -17.0569
   -17.0503 -17.0171 -16.9862 -16.9476 -16.9369 -16.9268 -16.9044 -16.8893
   -16.8797 -16.8730 -16.8662 -16.8540 -16.8038 -16.7914 -16.7847 -16.7665
   -16.6994 -16.6944 -16.6893 -16.6797 -16.6698 -16.6654 -16.6512 -16.6333
   -16.6227 -16.6160 -16.6115 -16.5956 -16.5892 -16.5805 -16.5784 -16.5734
   -16.5703 -16.5647 -16.5584 -16.5531 -16.5490 -16.5417 -16.5350 -16.5228
   -16.5170 -16.5115 -16.5073 -16.5002 -16.4855 -16.4790 -16.4652 -16.4433
   -16.4391 -16.4263 -16.4110 -16.4034 -16.3982 -16.3931 -16.3783 -16.3523
   -16.3218 -16.3049 -16.2727 -16.2614 -16.2477 -16.2455 -16.2306 -16.2206
   -16.2117 -16.2015 -16.1689 -16.1658 -16.1652 -16.1582 -16.1507 -16.1396
    -4.2782  -3.9784  -3.2010  -3.0444  -2.2835  -2.0996  -1.4635  -1.2871
     0.1352   0.4311   0.5998   0.8456   2.4812   2.5178   2.7242   3.1036
     3.7687   3.8611   4.1143   4.2282   4.7096   4.9560   5.2369   5.3438
     5.4655   5.5350   5.7553   5.8709   6.6550   6.8733   7.0321   7.0793
     9.6083   9.7147   9.9565  10.1189  10.4065  10.5144  10.6340  10.8401
    10.9153  11.0492  11.1654  11.2339  11.9779  12.2359  12.3429  12.4682
    12.6381  12.8367  12.9841  13.0497  13.1500  13.2913

     occupation numbers 
     1.0000   1.0000   1.0000   1.0000   1.0000   1.0000   1.0000   1.0000
     1.0000   1.0000   1.0000   1.0000   1.0000   1.0000   1.0000   1.0000
     1.0000   1.0000   1.0000   1.0000   1.0000   1.0000   1.0000   1.0000
     1.0000   1.0000   1.0000   1.0000   1.0000   1.0000   1.0000   1.0000
     1.0000   1.0000   1.0000   1.0000   1.0000   1.0000   1.0000   1.0000
     1.0000   1.0000   1.0000   1.0000   1.0000   1.0000   1.0000   1.0000
     1.0000   1.0000   1.0000   1.0000   1.0000   1.0000   1.0000   1.0000
     1.0000   1.0000   1.0000   1.0000   1.0000   1.0000   1.0000   1.0000
     1.0000   1.0000   1.0000   1.0000   1.0000   1.0000   1.0000   1.0000
     1.0000   1.0000   1.0000   1.0000   1.0000   1.0000   1.0000   1.0000
     1.0000   1.0000   1.0000   1.0000   1.0000   1.0000   1.0000   1.0000
     1.0000   1.0000   1.0000   1.0000   1.0000   1.0000   1.0000   1.0000
     1.0000   1.0000   1.0000   1.0000   1.0000   1.0000   1.0000   1.0000
     1.0000   1.0000   1.0000   1.0000   1.0000   1.0000   1.0000   1.0000
     0.0000   0.0000   0.0000   0.0000   0.0000   0.0000   0.0000   0.0000
     0.0000   0.0000   0.0000   0.0000   0.0000   0.0000   0.0000   0.0000
     0.0000   0.0000   0.0000   0.0000   0.0000   0.0000

          k =-0.1768-0.1768-0.1768 (  8627 PWs)   bands (ev):

   -17.3639 -17.3413 -17.2874 -17.1105 -17.0947 -17.0808 -17.0687 -17.0562
   -17.0486 -17.0184 -16.9851 -16.9477 -16.9385 -16.9262 -16.9036 -16.8896
   -16.8794 -16.8753 -16.8710 -16.8538 -16.7996 -16.7929 -16.7846 -16.7666
   -16.7035 -16.6929 -16.6906 -16.6826 -16.6675 -16.6625 -16.6523 -16.6385
   -16.6296 -16.6147 -16.6086 -16.5952 -16.5868 -16.5815 -16.5791 -16.5729
   -16.5704 -16.5661 -16.5607 -16.5520 -16.5427 -16.5419 -16.5369 -16.5208
   -16.5144 -16.5100 -16.5049 -16.4971 -16.4855 -16.4781 -16.4607 -16.4474
   -16.4385 -16.4284 -16.4111 -16.4041 -16.3982 -16.3924 -16.3787 -16.3534
   -16.3219 -16.3037 -16.2702 -16.2610 -16.2479 -16.2456 -16.2318 -16.2206
   -16.2135 -16.2020 -16.1688 -16.1659 -16.1652 -16.1585 -16.1508 -16.1396
    -4.7362  -3.6889  -3.0129  -2.5440  -2.1304  -1.8701  -1.5950  -0.9925
    -0.4530   0.0535   0.4682   0.7394   0.9003   1.2477   1.7343   4.2501
     4.3236   4.6734   4.9515   5.1444   5.2992   5.3789   5.5715   5.8350
     6.0005   6.1632   6.5474   6.6057   7.1541   7.5019   7.7772   8.0594
     8.1724   8.3057   8.7397   9.0414   9.1697   9.3139   9.5184   9.6066
     9.7324   9.9326  10.5550  10.9960  11.1851  11.3771  11.5141  11.6413
    11.7520  11.9222  12.2880  12.7158  12.9909  13.2799

     occupation numbers 
     1.0000   1.0000   1.0000   1.0000   1.0000   1.0000   1.0000   1.0000
     1.0000   1.0000   1.0000   1.0000   1.0000   1.0000   1.0000   1.0000
     1.0000   1.0000   1.0000   1.0000   1.0000   1.0000   1.0000   1.0000
     1.0000   1.0000   1.0000   1.0000   1.0000   1.0000   1.0000   1.0000
     1.0000   1.0000   1.0000   1.0000   1.0000   1.0000   1.0000   1.0000
     1.0000   1.0000   1.0000   1.0000   1.0000   1.0000   1.0000   1.0000
     1.0000   1.0000   1.0000   1.0000   1.0000   1.0000   1.0000   1.0000
     1.0000   1.0000   1.0000   1.0000   1.0000   1.0000   1.0000   1.0000
     1.0000   1.0000   1.0000   1.0000   1.0000   1.0000   1.0000   1.0000
     1.0000   1.0000   1.0000   1.0000   1.0000   1.0000   1.0000   1.0000
     1.0000   1.0000   1.0000   1.0000   1.0000   1.0000   1.0000   1.0000
     1.0000   1.0000   1.0000   1.0000   1.0000   1.0000   1.0000   1.0000
     1.0000   1.0000   1.0000   1.0000   1.0000   1.0000   1.0000   1.0000
     1.0000   1.0000   1.0000   1.0000   1.0000   1.0000   0.9925   0.6841
     0.3805   0.1098   0.0000   0.0000   0.0000   0.0000   0.0000   0.0000
     0.0000   0.0000   0.0000   0.0000   0.0000   0.0000   0.0000   0.0000
     0.0000   0.0000   0.0000   0.0000   0.0000   0.0000

          k =-0.1768 0.1768 0.1768 (  8627 PWs)   bands (ev):

   -17.3642 -17.3414 -17.2875 -17.1104 -17.0962 -17.0816 -17.0680 -17.0548
   -17.0514 -17.0140 -16.9843 -16.9466 -16.9359 -16.9240 -16.9068 -16.8905
   -16.8839 -16.8751 -16.8714 -16.8563 -16.7981 -16.7906 -16.7844 -16.7665
   -16.7012 -16.6928 -16.6905 -16.6820 -16.6676 -16.6637 -16.6517 -16.6377
   -16.6289 -16.6175 -16.6087 -16.5965 -16.5898 -16.5806 -16.5774 -16.5747
   -16.5709 -16.5664 -16.5589 -16.5520 -16.5447 -16.5398 -16.5364 -16.5226
   -16.5137 -16.5100 -16.5050 -16.4976 -16.4863 -16.4758 -16.4636 -16.4465
   -16.4388 -16.4282 -16.4100 -16.4056 -16.3983 -16.3922 -16.3768 -16.3533
   -16.3217 -16.3031 -16.2710 -16.2599 -16.2479 -16.2455 -16.2325 -16.2201
   -16.2132 -16.2032 -16.1687 -16.1658 -16.1651 -16.1583 -16.1507 -16.1395
    -4.7453  -3.6910  -2.8535  -2.5446  -2.2731  -1.9527  -1.4942  -1.3344
    -0.0782   0.1894   0.4309   0.7363   0.9309   1.0924   1.7760   4.2365
     4.4469   4.5627   4.9391   5.0301   5.3156   5.4219   5.5363   5.6787
     5.9066   6.0292   6.4478   6.7574   7.3910   7.5140   7.9004   8.0014
     8.2669   8.4445   8.6465   8.9610   9.1470   9.2916   9.4817   9.6743
     9.9126  10.0885  10.3975  11.0383  11.2281  11.3505  11.4799  11.6952
    11.9462  12.0066  12.1135  12.4423  12.9413  13.1625

     occupation numbers 
     1.0000   1.0000   1.0000   1.0000   1.0000   1.0000   1.0000   1.0000
     1.0000   1.0000   1.0000   1.0000   1.0000   1.0000   1.0000   1.0000
     1.0000   1.0000   1.0000   1.0000   1.0000   1.0000   1.0000   1.0000
     1.0000   1.0000   1.0000   1.0000   1.0000   1.0000   1.0000   1.0000
     1.0000   1.0000   1.0000   1.0000   1.0000   1.0000   1.0000   1.0000
     1.0000   1.0000   1.0000   1.0000   1.0000   1.0000   1.0000   1.0000
     1.0000   1.0000   1.0000   1.0000   1.0000   1.0000   1.0000   1.0000
     1.0000   1.0000   1.0000   1.0000   1.0000   1.0000   1.0000   1.0000
     1.0000   1.0000   1.0000   1.0000   1.0000   1.0000   1.0000   1.0000
     1.0000   1.0000   1.0000   1.0000   1.0000   1.0000   1.0000   1.0000
     1.0000   1.0000   1.0000   1.0000   1.0000   1.0000   1.0000   1.0000
     1.0000   1.0000   1.0000   1.0000   1.0000   1.0000   1.0000   1.0000
     1.0000   1.0000   1.0000   1.0000   1.0000   1.0000   1.0000   1.0000
     1.0000   1.0000   1.0000   1.0000   1.0000   1.0000   0.9430   0.8109
     0.1688   0.0143   0.0002   0.0000   0.0000   0.0000   0.0000   0.0000
     0.0000   0.0000   0.0000   0.0000   0.0000   0.0000   0.0000   0.0000
     0.0000   0.0000   0.0000   0.0000   0.0000   0.0000

          k = 0.1768-0.1768 0.1768 (  8627 PWs)   bands (ev):

   -17.3643 -17.3413 -17.2867 -17.1106 -17.0981 -17.0787 -17.0701 -17.0561
   -17.0500 -17.0142 -16.9852 -16.9437 -16.9367 -16.9250 -16.9068 -16.8888
   -16.8828 -16.8764 -16.8668 -16.8565 -16.8019 -16.7932 -16.7854 -16.7677
   -16.7009 -16.6925 -16.6899 -16.6803 -16.6681 -16.6623 -16.6538 -16.6409
   -16.6311 -16.6184 -16.6078 -16.5956 -16.5875 -16.5804 -16.5769 -16.5722
   -16.5703 -16.5629 -16.5598 -16.5545 -16.5424 -16.5403 -16.5363 -16.5213
   -16.5142 -16.5124 -16.5073 -16.4991 -16.4846 -16.4744 -16.4611 -16.4467
   -16.4391 -16.4275 -16.4094 -16.4066 -16.3991 -16.3931 -16.3778 -16.3526
   -16.3210 -16.3031 -16.2702 -16.2604 -16.2476 -16.2454 -16.2321 -16.2202
   -16.2141 -16.2025 -16.1690 -16.1658 -16.1652 -16.1585 -16.1513 -16.1399
    -4.7521  -3.6390  -3.0667  -2.5168  -2.0835  -1.9497  -1.4643  -1.1387
    -0.2194   0.0977   0.2323   0.6568   0.8970   1.0563   1.8912   4.3183
     4.4921   4.6741   4.9676   5.1599   5.2818   5.4741   5.6515   5.8666
     6.1118   6.2837   6.4025   6.6499   7.0166   7.3474   7.7962   7.9513
     8.1382   8.1780   8.7584   8.9267   9.0542   9.1455   9.5303   9.6543
     9.8270  10.0453  10.4948  10.9822  11.1082  11.3224  11.3962  11.6909
    11.8254  11.9199  12.2447  12.8094  13.0910  13.4017

     occupation numbers 
     1.0000   1.0000   1.0000   1.0000   1.0000   1.0000   1.0000   1.0000
     1.0000   1.0000   1.0000   1.0000   1.0000   1.0000   1.0000   1.0000
     1.0000   1.0000   1.0000   1.0000   1.0000   1.0000   1.0000   1.0000
     1.0000   1.0000   1.0000   1.0000   1.0000   1.0000   1.0000   1.0000
     1.0000   1.0000   1.0000   1.0000   1.0000   1.0000   1.0000   1.0000
     1.0000   1.0000   1.0000   1.0000   1.0000   1.0000   1.0000   1.0000
     1.0000   1.0000   1.0000   1.0000   1.0000   1.0000   1.0000   1.0000
     1.0000   1.0000   1.0000   1.0000   1.0000   1.0000   1.0000   1.0000
     1.0000   1.0000   1.0000   1.0000   1.0000   1.0000   1.0000   1.0000
     1.0000   1.0000   1.0000   1.0000   1.0000   1.0000   1.0000   1.0000
     1.0000   1.0000   1.0000   1.0000   1.0000   1.0000   1.0000   1.0000
     1.0000   1.0000   1.0000   1.0000   1.0000   1.0000   1.0000   1.0000
     1.0000   1.0000   1.0000   1.0000   1.0000   1.0000   1.0000   1.0000
     1.0000   1.0000   1.0000   1.0000   1.0000   1.0000   0.9894   0.8903
     0.4733   0.3660   0.0000   0.0000   0.0000   0.0000   0.0000   0.0000
     0.0000   0.0000   0.0000   0.0000   0.0000   0.0000   0.0000   0.0000
     0.0000   0.0000   0.0000   0.0000   0.0000   0.0000

          k = 0.3536 0.3536 0.3536 (  8646 PWs)   bands (ev):

   -17.3638 -17.3416 -17.2874 -17.1101 -17.0941 -17.0820 -17.0688 -17.0557
   -17.0484 -17.0205 -16.9859 -16.9516 -16.9392 -16.9266 -16.9023 -16.8908
   -16.8751 -16.8722 -16.8697 -16.8503 -16.8006 -16.7908 -16.7875 -16.7659
   -16.7056 -16.6930 -16.6908 -16.6830 -16.6670 -16.6635 -16.6514 -16.6378
   -16.6279 -16.6130 -16.6091 -16.5959 -16.5849 -16.5826 -16.5801 -16.5727
   -16.5703 -16.5668 -16.5612 -16.5514 -16.5446 -16.5426 -16.5363 -16.5202
   -16.5145 -16.5076 -16.5048 -16.4980 -16.4839 -16.4806 -16.4607 -16.4470
   -16.4386 -16.4277 -16.4131 -16.4024 -16.3985 -16.3918 -16.3807 -16.3539
   -16.3222 -16.3055 -16.2706 -16.2618 -16.2478 -16.2457 -16.2306 -16.2207
   -16.2131 -16.2007 -16.1689 -16.1659 -16.1653 -16.1584 -16.1501 -16.1393
    -4.3256  -4.2117  -2.9756  -2.5517  -2.2552  -2.0084  -1.6773  -1.3919
    -0.1119   0.4069   0.7221   1.1245   1.2532   1.3281   3.2227   3.3372
     3.9768   4.1997   4.5000   4.5777   4.8215   4.9583   5.3240   5.5993
     5.7856   5.8633   5.9472   6.1575   7.2775   7.3877   7.8056   7.8552
     8.3649   8.4110   8.9017   9.1288   9.3618   9.5004   9.7261   9.8753
    11.2029  11.3999  11.5754  11.7964  11.9608  12.0904  12.2851  12.4247
    12.6374  12.8959  13.0479  13.1443  13.2168  13.2521

     occupation numbers 
     1.0000   1.0000   1.0000   1.0000   1.0000   1.0000   1.0000   1.0000
     1.0000   1.0000   1.0000   1.0000   1.0000   1.0000   1.0000   1.0000
     1.0000   1.0000   1.0000   1.0000   1.0000   1.0000   1.0000   1.0000
     1.0000   1.0000   1.0000   1.0000   1.0000   1.0000   1.0000   1.0000
     1.0000   1.0000   1.0000   1.0000   1.0000   1.0000   1.0000   1.0000
     1.0000   1.0000   1.0000   1.0000   1.0000   1.0000   1.0000   1.0000
     1.0000   1.0000   1.0000   1.0000   1.0000   1.0000   1.0000   1.0000
     1.0000   1.0000   1.0000   1.0000   1.0000   1.0000   1.0000   1.0000
     1.0000   1.0000   1.0000   1.0000   1.0000   1.0000   1.0000   1.0000
     1.0000   1.0000   1.0000   1.0000   1.0000   1.0000   1.0000   1.0000
     1.0000   1.0000   1.0000   1.0000   1.0000   1.0000   1.0000   1.0000
     1.0000   1.0000   1.0000   1.0000   1.0000   1.0000   1.0000   1.0000
     1.0000   1.0000   1.0000   1.0000   1.0000   1.0000   1.0000   1.0000
     1.0000   1.0000   1.0000   1.0000   1.0000   1.0000   0.9874   0.9709
     0.0507   0.0252   0.0000   0.0000   0.0000   0.0000   0.0000   0.0000
     0.0000   0.0000   0.0000   0.0000   0.0000   0.0000   0.0000   0.0000
     0.0000   0.0000   0.0000   0.0000   0.0000   0.0000

          k = 0.3536-0.3536-0.3536 (  8646 PWs)   bands (ev):

   -17.3643 -17.3416 -17.2876 -17.1105 -17.0948 -17.0851 -17.0664 -17.0555
   -17.0531 -17.0115 -16.9845 -16.9486 -16.9357 -16.9226 -16.9072 -16.8912
   -16.8829 -16.8726 -16.8711 -16.8560 -16.7979 -16.7890 -16.7840 -16.7660
   -16.6993 -16.6942 -16.6916 -16.6819 -16.6671 -16.6651 -16.6511 -16.6345
   -16.6262 -16.6179 -16.6101 -16.5981 -16.5915 -16.5819 -16.5785 -16.5762
   -16.5705 -16.5672 -16.5559 -16.5538 -16.5464 -16.5386 -16.5351 -16.5236
   -16.5139 -16.5066 -16.5043 -16.4994 -16.4874 -16.4747 -16.4676 -16.4453
   -16.4387 -16.4273 -16.4102 -16.4060 -16.3975 -16.3919 -16.3768 -16.3538
   -16.3218 -16.3046 -16.2720 -16.2598 -16.2478 -16.2453 -16.2319 -16.2200
   -16.2121 -16.2032 -16.1686 -16.1659 -16.1652 -16.1580 -16.1501 -16.1392
    -4.4358  -4.0888  -2.7465  -2.5199  -2.3921  -2.0997  -1.8648  -1.5656
     0.2861   0.5438   0.9520   0.9681   1.2037   1.2674   3.1782   3.3695
     4.0372   4.2424   4.3683   4.4880   4.6837   4.7570   5.1761   5.4826
     5.7444   5.8936   6.0777   6.2141   7.4540   7.5698   7.7324   7.8382
     8.2062   8.7963   8.9269   9.0816   9.3088   9.5584   9.6858  10.0709
    11.2442  11.5501  11.6443  11.8735  11.9810  12.1144  12.3074  12.4337
    12.5411  12.7635  12.9291  13.0504  13.2636  13.4656

     occupation numbers 
     1.0000   1.0000   1.0000   1.0000   1.0000   1.0000   1.0000   1.0000
     1.0000   1.0000   1.0000   1.0000   1.0000   1.0000   1.0000   1.0000
     1.0000   1.0000   1.0000   1.0000   1.0000   1.0000   1.0000   1.0000
     1.0000   1.0000   1.0000   1.0000   1.0000   1.0000   1.0000   1.0000
     1.0000   1.0000   1.0000   1.0000   1.0000   1.0000   1.0000   1.0000
     1.0000   1.0000   1.0000   1.0000   1.0000   1.0000   1.0000   1.0000
     1.0000   1.0000   1.0000   1.0000   1.0000   1.0000   1.0000   1.0000
     1.0000   1.0000   1.0000   1.0000   1.0000   1.0000   1.0000   1.0000
     1.0000   1.0000   1.0000   1.0000   1.0000   1.0000   1.0000   1.0000
     1.0000   1.0000   1.0000   1.0000   1.0000   1.0000   1.0000   1.0000
     1.0000   1.0000   1.0000   1.0000   1.0000   1.0000   1.0000   1.0000
     1.0000   1.0000   1.0000   1.0000   1.0000   1.0000   1.0000   1.0000
     1.0000   1.0000   1.0000   1.0000   1.0000   1.0000   1.0000   1.0000
     1.0000   1.0000   1.0000   1.0000   1.0000   0.9999   0.9970   0.9779
     0.2953   0.0000   0.0000   0.0000   0.0000   0.0000   0.0000   0.0000
     0.0000   0.0000   0.0000   0.0000   0.0000   0.0000   0.0000   0.0000
     0.0000   0.0000   0.0000   0.0000   0.0000   0.0000

          k =-0.3536 0.3536-0.3536 (  8646 PWs)   bands (ev):

   -17.3645 -17.3415 -17.2861 -17.1109 -17.0992 -17.0794 -17.0702 -17.0578
   -17.0505 -17.0121 -16.9861 -16.9433 -16.9369 -16.9245 -16.9072 -16.8882
   -16.8808 -16.8749 -16.8619 -16.8561 -16.8063 -16.7943 -16.7860 -16.7679
   -16.7002 -16.6914 -16.6889 -16.6794 -16.6673 -16.6649 -16.6537 -16.6421
   -16.6307 -16.6199 -16.6072 -16.5958 -16.5874 -16.5810 -16.5768 -16.5719
   -16.5703 -16.5616 -16.5600 -16.5542 -16.5424 -16.5398 -16.5347 -16.5214
   -16.5148 -16.5115 -16.5082 -16.5014 -16.4844 -16.4727 -16.4619 -16.4457
   -16.4396 -16.4262 -16.4109 -16.4068 -16.3975 -16.3947 -16.3788 -16.3525
   -16.3205 -16.3046 -16.2706 -16.2606 -16.2474 -16.2450 -16.2313 -16.2201
   -16.2140 -16.2017 -16.1694 -16.1658 -16.1652 -16.1583 -16.1512 -16.1401
    -4.4795  -4.0099  -3.0509  -2.4934  -2.3241  -1.9077  -1.6068  -1.4733
     0.0359   0.4408   0.7176   0.8315   1.0030   1.2144   3.0262   3.8850
     4.1841   4.3997   4.5074   4.7024   4.9930   5.1369   5.3600   5.4647
     5.6974   5.7680   5.9897   6.1534   7.1001   7.2735   7.7115   7.8479
     8.2248   8.3617   8.8373   8.9255   9.2101   9.4317   9.7056   9.9558
    11.1569  11.3948  11.5175  11.6020  11.8648  11.9302  12.1497  12.3609
    12.5267  12.7088  13.0071  13.2562  13.4970  13.6476

     occupation numbers 
     1.0000   1.0000   1.0000   1.0000   1.0000   1.0000   1.0000   1.0000
     1.0000   1.0000   1.0000   1.0000   1.0000   1.0000   1.0000   1.0000
     1.0000   1.0000   1.0000   1.0000   1.0000   1.0000   1.0000   1.0000
     1.0000   1.0000   1.0000   1.0000   1.0000   1.0000   1.0000   1.0000
     1.0000   1.0000   1.0000   1.0000   1.0000   1.0000   1.0000   1.0000
     1.0000   1.0000   1.0000   1.0000   1.0000   1.0000   1.0000   1.0000
     1.0000   1.0000   1.0000   1.0000   1.0000   1.0000   1.0000   1.0000
     1.0000   1.0000   1.0000   1.0000   1.0000   1.0000   1.0000   1.0000
     1.0000   1.0000   1.0000   1.0000   1.0000   1.0000   1.0000   1.0000
     1.0000   1.0000   1.0000   1.0000   1.0000   1.0000   1.0000   1.0000
     1.0000   1.0000   1.0000   1.0000   1.0000   1.0000   1.0000   1.0000
     1.0000   1.0000   1.0000   1.0000   1.0000   1.0000   1.0000   1.0000
     1.0000   1.0000   1.0000   1.0000   1.0000   1.0000   1.0000   1.0000
     1.0000   1.0000   1.0000   1.0000   1.0000   1.0000   0.9981   0.9741
     0.2524   0.0531   0.0000   0.0000   0.0000   0.0000   0.0000   0.0000
     0.0000   0.0000   0.0000   0.0000   0.0000   0.0000   0.0000   0.0000
     0.0000   0.0000   0.0000   0.0000   0.0000   0.0000

          k = 0.0000 0.3536 0.0000 (  8620 PWs)   bands (ev):

   -17.3640 -17.3414 -17.2867 -17.1107 -17.0957 -17.0817 -17.0689 -17.0564
   -17.0502 -17.0165 -16.9862 -16.9461 -16.9384 -16.9282 -16.9034 -16.8883
   -16.8811 -16.8732 -16.8667 -16.8538 -16.8027 -16.7923 -16.7851 -16.7674
   -16.7012 -16.6943 -16.6889 -16.6803 -16.6679 -16.6641 -16.6522 -16.6399
   -16.6298 -16.6159 -16.6080 -16.5951 -16.5879 -16.5812 -16.5775 -16.5743
   -16.5707 -16.5645 -16.5597 -16.5516 -16.5435 -16.5404 -16.5362 -16.5214
   -16.5144 -16.5112 -16.5053 -16.5000 -16.4857 -16.4792 -16.4615 -16.4476
   -16.4394 -16.4293 -16.4110 -16.4062 -16.3953 -16.3920 -16.3765 -16.3526
   -16.3211 -16.3029 -16.2705 -16.2615 -16.2479 -16.2454 -16.2328 -16.2208
   -16.2134 -16.2017 -16.1691 -16.1659 -16.1653 -16.1584 -16.1508 -16.1396
    -4.6760  -3.6138  -3.1120  -2.7671  -2.4743  -1.8514  -0.9981  -0.8449
    -0.4689  -0.3246   0.5612   0.7928   1.2558   1.5021   1.6700   4.1073
     4.2711   4.4703   4.5508   4.8492   5.2399   5.3970   5.5337   5.7128
     5.8966   6.0734   6.3769   6.9915   7.0180   7.3348   7.4971   7.7013
     8.2767   8.8681   9.1926   9.2660   9.3647   9.4346   9.7368   9.9401
    10.0127  10.0709  10.5704  10.6455  11.0186  11.5404  11.6945  11.8809
    12.0421  12.2855  12.3866  12.5591  12.9132  13.2497

     occupation numbers 
     1.0000   1.0000   1.0000   1.0000   1.0000   1.0000   1.0000   1.0000
     1.0000   1.0000   1.0000   1.0000   1.0000   1.0000   1.0000   1.0000
     1.0000   1.0000   1.0000   1.0000   1.0000   1.0000   1.0000   1.0000
     1.0000   1.0000   1.0000   1.0000   1.0000   1.0000   1.0000   1.0000
     1.0000   1.0000   1.0000   1.0000   1.0000   1.0000   1.0000   1.0000
     1.0000   1.0000   1.0000   1.0000   1.0000   1.0000   1.0000   1.0000
     1.0000   1.0000   1.0000   1.0000   1.0000   1.0000   1.0000   1.0000
     1.0000   1.0000   1.0000   1.0000   1.0000   1.0000   1.0000   1.0000
     1.0000   1.0000   1.0000   1.0000   1.0000   1.0000   1.0000   1.0000
     1.0000   1.0000   1.0000   1.0000   1.0000   1.0000   1.0000   1.0000
     1.0000   1.0000   1.0000   1.0000   1.0000   1.0000   1.0000   1.0000
     1.0000   1.0000   1.0000   1.0000   1.0000   1.0000   1.0000   1.0000
     1.0000   1.0000   1.0000   1.0000   1.0000   1.0000   1.0000   1.0000
     1.0000   1.0000   1.0000   1.0000   1.0000   1.0000   1.0000   0.9985
     0.1523   0.0000   0.0000   0.0000   0.0000   0.0000   0.0000   0.0000
     0.0000   0.0000   0.0000   0.0000   0.0000   0.0000   0.0000   0.0000
     0.0000   0.0000   0.0000   0.0000   0.0000   0.0000

          k = 0.0000 0.0000 0.3536 (  8620 PWs)   bands (ev):

   -17.3643 -17.3414 -17.2868 -17.1107 -17.0972 -17.0817 -17.0682 -17.0548
   -17.0493 -17.0169 -16.9854 -16.9460 -16.9358 -16.9246 -16.9071 -16.8895
   -16.8845 -16.8746 -16.8667 -16.8564 -16.8019 -16.7913 -16.7845 -16.7672
   -16.7000 -16.6915 -16.6899 -16.6797 -16.6693 -16.6637 -16.6523 -16.6378
   -16.6290 -16.6168 -16.6089 -16.5966 -16.5887 -16.5810 -16.5791 -16.5738
   -16.5703 -16.5629 -16.5595 -16.5524 -16.5448 -16.5410 -16.5355 -16.5228
   -16.5143 -16.5096 -16.5074 -16.5010 -16.4850 -16.4744 -16.4644 -16.4455
   -16.4395 -16.4266 -16.4085 -16.4060 -16.3991 -16.3928 -16.3779 -16.3530
   -16.3216 -16.3042 -16.2713 -16.2603 -16.2477 -16.2454 -16.2316 -16.2203
   -16.2131 -16.2025 -16.1689 -16.1659 -16.1652 -16.1583 -16.1508 -16.1395
    -4.6966  -3.6469  -3.0302  -2.6160  -2.3445  -2.0817  -1.3457  -0.9172
    -0.4156  -0.1165   0.5093   1.0743   1.1810   1.4168   1.7014   4.2545
     4.4167   4.4872   4.7047   4.7950   5.0939   5.3292   5.4776   5.6413
     5.8877   6.0410   6.2107   6.8217   7.0635   7.3104   7.5583   7.7409
     8.3562   8.6376   8.9626   9.3272   9.4425   9.5591   9.7219   9.8487
    10.1568  10.3751  10.5155  10.7830  11.2590  11.5060  11.6941  11.8137
    12.0190  12.2207  12.2830  12.4996  12.7957  13.2444

     occupation numbers 
     1.0000   1.0000   1.0000   1.0000   1.0000   1.0000   1.0000   1.0000
     1.0000   1.0000   1.0000   1.0000   1.0000   1.0000   1.0000   1.0000
     1.0000   1.0000   1.0000   1.0000   1.0000   1.0000   1.0000   1.0000
     1.0000   1.0000   1.0000   1.0000   1.0000   1.0000   1.0000   1.0000
     1.0000   1.0000   1.0000   1.0000   1.0000   1.0000   1.0000   1.0000
     1.0000   1.0000   1.0000   1.0000   1.0000   1.0000   1.0000   1.0000
     1.0000   1.0000   1.0000   1.0000   1.0000   1.0000   1.0000   1.0000
     1.0000   1.0000   1.0000   1.0000   1.0000   1.0000   1.0000   1.0000
     1.0000   1.0000   1.0000   1.0000   1.0000   1.0000   1.0000   1.0000
     1.0000   1.0000   1.0000   1.0000   1.0000   1.0000   1.0000   1.0000
     1.0000   1.0000   1.0000   1.0000   1.0000   1.0000   1.0000   1.0000
     1.0000   1.0000   1.0000   1.0000   1.0000   1.0000   1.0000   1.0000
     1.0000   1.0000   1.0000   1.0000   1.0000   1.0000   1.0000   1.0000
     1.0000   1.0000   1.0000   1.0000   1.0000   1.0000   1.0000   0.9964
     0.0574   0.0002   0.0000   0.0000   0.0000   0.0000   0.0000   0.0000
     0.0000   0.0000   0.0000   0.0000   0.0000   0.0000   0.0000   0.0000
     0.0000   0.0000   0.0000   0.0000   0.0000   0.0000

          k = 0.1768 0.5303 0.5303 (  8605 PWs)   bands (ev):

   -17.3638 -17.3414 -17.2874 -17.1098 -17.0953 -17.0809 -17.0686 -17.0584
   -17.0487 -17.0190 -16.9855 -16.9508 -16.9384 -16.9274 -16.9019 -16.8900
   -16.8770 -16.8728 -16.8698 -16.8504 -16.8007 -16.7919 -16.7866 -16.7659
   -16.7043 -16.6941 -16.6906 -16.6813 -16.6687 -16.6640 -16.6511 -16.6353
   -16.6245 -16.6145 -16.6102 -16.5939 -16.5874 -16.5806 -16.5782 -16.5715
   -16.5702 -16.5673 -16.5599 -16.5531 -16.5460 -16.5433 -16.5370 -16.5221
   -16.5156 -16.5105 -16.5054 -16.4972 -16.4872 -16.4810 -16.4628 -16.4452
   -16.4377 -16.4275 -16.4128 -16.4026 -16.3984 -16.3918 -16.3794 -16.3525
   -16.3221 -16.3043 -16.2718 -16.2618 -16.2478 -16.2457 -16.2307 -16.2207
   -16.2124 -16.2008 -16.1688 -16.1659 -16.1652 -16.1583 -16.1507 -16.1396
    -4.3996  -3.9237  -3.1971  -2.7986  -2.4999  -1.8587  -1.5329  -1.1352
    -0.2224   0.2490   0.6739   1.2098   1.5558   2.1755   2.6406   3.4014
     3.8761   4.0992   4.4127   4.7120   4.7738   4.9223   5.0785   5.3967
     5.5824   5.7545   5.9316   6.3048   6.4052   6.7876   7.2634   7.7031
     8.7461   9.2398   9.5036   9.8911  10.1110  10.3080  10.3781  10.4953
    10.8245  11.0697  11.2312  11.4070  11.6149  12.0076  12.1835  12.3981
    12.6132  12.7290  12.8887  13.0368  13.1125  13.2745

     occupation numbers 
     1.0000   1.0000   1.0000   1.0000   1.0000   1.0000   1.0000   1.0000
     1.0000   1.0000   1.0000   1.0000   1.0000   1.0000   1.0000   1.0000
     1.0000   1.0000   1.0000   1.0000   1.0000   1.0000   1.0000   1.0000
     1.0000   1.0000   1.0000   1.0000   1.0000   1.0000   1.0000   1.0000
     1.0000   1.0000   1.0000   1.0000   1.0000   1.0000   1.0000   1.0000
     1.0000   1.0000   1.0000   1.0000   1.0000   1.0000   1.0000   1.0000
     1.0000   1.0000   1.0000   1.0000   1.0000   1.0000   1.0000   1.0000
     1.0000   1.0000   1.0000   1.0000   1.0000   1.0000   1.0000   1.0000
     1.0000   1.0000   1.0000   1.0000   1.0000   1.0000   1.0000   1.0000
     1.0000   1.0000   1.0000   1.0000   1.0000   1.0000   1.0000   1.0000
     1.0000   1.0000   1.0000   1.0000   1.0000   1.0000   1.0000   1.0000
     1.0000   1.0000   1.0000   1.0000   1.0000   1.0000   1.0000   1.0000
     1.0000   1.0000   1.0000   1.0000   1.0000   1.0000   1.0000   1.0000
     1.0000   1.0000   1.0000   1.0000   1.0000   1.0000   1.0000   0.9984
     0.0000   0.0000   0.0000   0.0000   0.0000   0.0000   0.0000   0.0000
     0.0000   0.0000   0.0000   0.0000   0.0000   0.0000   0.0000   0.0000
     0.0000   0.0000   0.0000   0.0000   0.0000   0.0000

          k = 0.1768-0.5303-0.5303 (  8605 PWs)   bands (ev):

   -17.3641 -17.3415 -17.2875 -17.1102 -17.0952 -17.0820 -17.0685 -17.0579
   -17.0513 -17.0144 -16.9848 -16.9497 -16.9364 -16.9258 -16.9031 -16.8897
   -16.8801 -16.8740 -16.8709 -16.8537 -16.7998 -16.7911 -16.7844 -16.7660
   -16.7011 -16.6942 -16.6908 -16.6814 -16.6692 -16.6642 -16.6510 -16.6332
   -16.6231 -16.6165 -16.6111 -16.5963 -16.5899 -16.5801 -16.5776 -16.5738
   -16.5701 -16.5675 -16.5573 -16.5538 -16.5478 -16.5412 -16.5360 -16.5227
   -16.5167 -16.5092 -16.5058 -16.4979 -16.4879 -16.4795 -16.4655 -16.4443
   -16.4379 -16.4275 -16.4108 -16.4052 -16.3973 -16.3923 -16.3773 -16.3525
   -16.3220 -16.3038 -16.2725 -16.2609 -16.2478 -16.2456 -16.2314 -16.2203
   -16.2119 -16.2020 -16.1686 -16.1658 -16.1652 -16.1582 -16.1506 -16.1396
    -4.4312  -3.8801  -3.1191  -2.8235  -2.5249  -1.8940  -1.6356  -1.2050
    -0.0950   0.4171   0.6144   1.2748   1.5189   2.1713   2.6518   3.4555
     3.9686   4.0315   4.3105   4.4900   4.7129   4.9159   5.0783   5.3457
     5.4860   5.7497   5.9461   6.3536   6.5648   6.9406   7.2412   7.6912
     8.7156   9.3100   9.6938   9.7573  10.0294  10.2887  10.4119  10.5371
    10.9143  11.0872  11.1854  11.4618  11.6785  12.1847  12.3142  12.3336
    12.5135  12.6523  12.7902  13.1116  13.1924  13.3027

     occupation numbers 
     1.0000   1.0000   1.0000   1.0000   1.0000   1.0000   1.0000   1.0000
     1.0000   1.0000   1.0000   1.0000   1.0000   1.0000   1.0000   1.0000
     1.0000   1.0000   1.0000   1.0000   1.0000   1.0000   1.0000   1.0000
     1.0000   1.0000   1.0000   1.0000   1.0000   1.0000   1.0000   1.0000
     1.0000   1.0000   1.0000   1.0000   1.0000   1.0000   1.0000   1.0000
     1.0000   1.0000   1.0000   1.0000   1.0000   1.0000   1.0000   1.0000
     1.0000   1.0000   1.0000   1.0000   1.0000   1.0000   1.0000   1.0000
     1.0000   1.0000   1.0000   1.0000   1.0000   1.0000   1.0000   1.0000
     1.0000   1.0000   1.0000   1.0000   1.0000   1.0000   1.0000   1.0000
     1.0000   1.0000   1.0000   1.0000   1.0000   1.0000   1.0000   1.0000
     1.0000   1.0000   1.0000   1.0000   1.0000   1.0000   1.0000   1.0000
     1.0000   1.0000   1.0000   1.0000   1.0000   1.0000   1.0000   1.0000
     1.0000   1.0000   1.0000   1.0000   1.0000   1.0000   1.0000   1.0000
     1.0000   1.0000   1.0000   1.0000   1.0000   1.0000   1.0000   0.9988
     0.0000   0.0000   0.0000   0.0000   0.0000   0.0000   0.0000   0.0000
     0.0000   0.0000   0.0000   0.0000   0.0000   0.0000   0.0000   0.0000
     0.0000   0.0000   0.0000   0.0000   0.0000   0.0000

          k =-0.1768 0.5303-0.5303 (  8605 PWs)   bands (ev):

   -17.3642 -17.3414 -17.2868 -17.1104 -17.0971 -17.0795 -17.0699 -17.0594
   -17.0501 -17.0148 -16.9857 -16.9461 -16.9373 -16.9269 -16.9034 -16.8884
   -16.8799 -16.8739 -16.8663 -16.8540 -16.8037 -16.7943 -16.7849 -16.7671
   -16.7006 -16.6944 -16.6900 -16.6809 -16.6671 -16.6647 -16.6524 -16.6365
   -16.6263 -16.6175 -16.6093 -16.5949 -16.5879 -16.5811 -16.5758 -16.5717
   -16.5685 -16.5655 -16.5598 -16.5541 -16.5459 -16.5409 -16.5363 -16.5219
   -16.5149 -16.5135 -16.5080 -16.4991 -16.4862 -16.4780 -16.4628 -16.4444
   -16.4386 -16.4267 -16.4119 -16.4047 -16.3980 -16.3931 -16.3785 -16.3519
   -16.3212 -16.3038 -16.2716 -16.2614 -16.2476 -16.2454 -16.2311 -16.2205
   -16.2126 -16.2014 -16.1690 -16.1657 -16.1652 -16.1583 -16.1512 -16.1400
    -4.4495  -3.8211  -3.2445  -2.8714  -2.3705  -1.8492  -1.6870  -0.9856
    -0.0799   0.1993   0.4092   1.1971   1.5344   2.0148   2.6211   3.8181
     3.9792   4.3282   4.4110   4.5438   4.7461   4.9325   5.0729   5.4224
     5.6003   5.6625   5.7743   6.2646   6.7772   6.8888   7.0516   7.5147
     9.0094   9.2196   9.3758   9.6813   9.8465  10.1165  10.3490  10.4704
    10.6442  10.9465  11.3403  11.4055  11.7194  12.0408  12.1566  12.3924
    12.5648  12.8614  13.0041  13.1085  13.2326  13.3288

     occupation numbers 
     1.0000   1.0000   1.0000   1.0000   1.0000   1.0000   1.0000   1.0000
     1.0000   1.0000   1.0000   1.0000   1.0000   1.0000   1.0000   1.0000
     1.0000   1.0000   1.0000   1.0000   1.0000   1.0000   1.0000   1.0000
     1.0000   1.0000   1.0000   1.0000   1.0000   1.0000   1.0000   1.0000
     1.0000   1.0000   1.0000   1.0000   1.0000   1.0000   1.0000   1.0000
     1.0000   1.0000   1.0000   1.0000   1.0000   1.0000   1.0000   1.0000
     1.0000   1.0000   1.0000   1.0000   1.0000   1.0000   1.0000   1.0000
     1.0000   1.0000   1.0000   1.0000   1.0000   1.0000   1.0000   1.0000
     1.0000   1.0000   1.0000   1.0000   1.0000   1.0000   1.0000   1.0000
     1.0000   1.0000   1.0000   1.0000   1.0000   1.0000   1.0000   1.0000
     1.0000   1.0000   1.0000   1.0000   1.0000   1.0000   1.0000   1.0000
     1.0000   1.0000   1.0000   1.0000   1.0000   1.0000   1.0000   1.0000
     1.0000   1.0000   1.0000   1.0000   1.0000   1.0000   1.0000   1.0000
     1.0000   1.0000   1.0000   1.0000   1.0000   1.0000   1.0000   1.0000
     0.0000   0.0000   0.0000   0.0000   0.0000   0.0000   0.0000   0.0000
     0.0000   0.0000   0.0000   0.0000   0.0000   0.0000   0.0000   0.0000
     0.0000   0.0000   0.0000   0.0000   0.0000   0.0000

          k =-0.5303-0.1768-0.5303 (  8605 PWs)   bands (ev):

   -17.3639 -17.3417 -17.2866 -17.1102 -17.0953 -17.0829 -17.0687 -17.0567
   -17.0497 -17.0187 -16.9866 -16.9512 -16.9386 -16.9280 -16.9016 -16.8897
   -16.8771 -16.8697 -16.8657 -16.8506 -16.8043 -16.7902 -16.7873 -16.7667
   -16.7027 -16.6959 -16.6888 -16.6805 -16.6684 -16.6642 -16.6515 -16.6392
   -16.6278 -16.6138 -16.6088 -16.5956 -16.5870 -16.5819 -16.5796 -16.5727
   -16.5713 -16.5646 -16.5595 -16.5508 -16.5458 -16.5421 -16.5356 -16.5209
   -16.5141 -16.5087 -16.5048 -16.5022 -16.4841 -16.4811 -16.4616 -16.4471
   -16.4394 -16.4291 -16.4126 -16.4052 -16.3945 -16.3918 -16.3784 -16.3531
   -16.3214 -16.3048 -16.2709 -16.2624 -16.2479 -16.2454 -16.2317 -16.2209
   -16.2130 -16.2005 -16.1691 -16.1659 -16.1653 -16.1584 -16.1502 -16.1394
    -4.3072  -4.0138  -3.3106  -2.7166  -2.6120  -1.6681  -1.5193  -1.0817
    -0.1660   0.1597   0.8728   0.9360   1.4293   2.1224   2.8316   3.4255
     3.7882   4.0787   4.3805   4.5673   4.6516   4.9031   4.9437   5.5228
     5.6828   5.8762   6.0911   6.3330   6.7350   6.9910   7.1698   7.4182
     8.8963   9.2360   9.5464   9.6062   9.8831   9.9966  10.3271  10.5483
    10.8923  11.1269  11.4759  11.5599  11.8514  11.9366  12.1980  12.3722
    12.4933  12.6937  12.9211  13.0430  13.1228  13.3638

     occupation numbers 
     1.0000   1.0000   1.0000   1.0000   1.0000   1.0000   1.0000   1.0000
     1.0000   1.0000   1.0000   1.0000   1.0000   1.0000   1.0000   1.0000
     1.0000   1.0000   1.0000   1.0000   1.0000   1.0000   1.0000   1.0000
     1.0000   1.0000   1.0000   1.0000   1.0000   1.0000   1.0000   1.0000
     1.0000   1.0000   1.0000   1.0000   1.0000   1.0000   1.0000   1.0000
     1.0000   1.0000   1.0000   1.0000   1.0000   1.0000   1.0000   1.0000
     1.0000   1.0000   1.0000   1.0000   1.0000   1.0000   1.0000   1.0000
     1.0000   1.0000   1.0000   1.0000   1.0000   1.0000   1.0000   1.0000
     1.0000   1.0000   1.0000   1.0000   1.0000   1.0000   1.0000   1.0000
     1.0000   1.0000   1.0000   1.0000   1.0000   1.0000   1.0000   1.0000
     1.0000   1.0000   1.0000   1.0000   1.0000   1.0000   1.0000   1.0000
     1.0000   1.0000   1.0000   1.0000   1.0000   1.0000   1.0000   1.0000
     1.0000   1.0000   1.0000   1.0000   1.0000   1.0000   1.0000   1.0000
     1.0000   1.0000   1.0000   1.0000   1.0000   1.0000   1.0000   1.0000
     0.0000   0.0000   0.0000   0.0000   0.0000   0.0000   0.0000   0.0000
     0.0000   0.0000   0.0000   0.0000   0.0000   0.0000   0.0000   0.0000
     0.0000   0.0000   0.0000   0.0000   0.0000   0.0000

          k = 0.5303 0.1768-0.5303 (  8605 PWs)   bands (ev):

   -17.3640 -17.3415 -17.2859 -17.1103 -17.0971 -17.0824 -17.0685 -17.0577
   -17.0493 -17.0188 -16.9878 -16.9509 -16.9378 -16.9277 -16.9026 -16.8904
   -16.8795 -16.8693 -16.8602 -16.8516 -16.8087 -16.7907 -16.7858 -16.7670
   -16.6988 -16.6949 -16.6875 -16.6775 -16.6705 -16.6646 -16.6534 -16.6374
   -16.6238 -16.6149 -16.6091 -16.5937 -16.5876 -16.5802 -16.5771 -16.5727
   -16.5704 -16.5632 -16.5582 -16.5528 -16.5487 -16.5423 -16.5359 -16.5231
   -16.5154 -16.5123 -16.5080 -16.5026 -16.4864 -16.4830 -16.4656 -16.4461
   -16.4396 -16.4295 -16.4113 -16.4045 -16.3930 -16.3919 -16.3747 -16.3511
   -16.3209 -16.3025 -16.2722 -16.2630 -16.2480 -16.2453 -16.2328 -16.2212
   -16.2119 -16.2003 -16.1693 -16.1658 -16.1653 -16.1583 -16.1507 -16.1396
    -4.3736  -3.7794  -3.4399  -2.9181  -2.5906  -1.5992  -1.4395  -1.1292
     0.0192   0.1607   0.5195   1.3613   1.7546   2.0207   2.4440   3.1549
     3.7331   3.9137   4.3836   4.5684   4.6235   4.9331   5.1471   5.3799
     5.8605   6.0102   6.0901   6.4496   6.5857   6.7878   7.1451   7.6969
     8.9543   9.4753   9.6639   9.8215  10.1302  10.2237  10.3520  10.5587
    10.7026  10.9463  11.1528  11.4577  11.7798  11.8479  12.1131  12.2936
    12.5025  12.5729  12.8024  13.0005  13.0654  13.3776

     occupation numbers 
     1.0000   1.0000   1.0000   1.0000   1.0000   1.0000   1.0000   1.0000
     1.0000   1.0000   1.0000   1.0000   1.0000   1.0000   1.0000   1.0000
     1.0000   1.0000   1.0000   1.0000   1.0000   1.0000   1.0000   1.0000
     1.0000   1.0000   1.0000   1.0000   1.0000   1.0000   1.0000   1.0000
     1.0000   1.0000   1.0000   1.0000   1.0000   1.0000   1.0000   1.0000
     1.0000   1.0000   1.0000   1.0000   1.0000   1.0000   1.0000   1.0000
     1.0000   1.0000   1.0000   1.0000   1.0000   1.0000   1.0000   1.0000
     1.0000   1.0000   1.0000   1.0000   1.0000   1.0000   1.0000   1.0000
     1.0000   1.0000   1.0000   1.0000   1.0000   1.0000   1.0000   1.0000
     1.0000   1.0000   1.0000   1.0000   1.0000   1.0000   1.0000   1.0000
     1.0000   1.0000   1.0000   1.0000   1.0000   1.0000   1.0000   1.0000
     1.0000   1.0000   1.0000   1.0000   1.0000   1.0000   1.0000   1.0000
     1.0000   1.0000   1.0000   1.0000   1.0000   1.0000   1.0000   1.0000
     1.0000   1.0000   1.0000   1.0000   1.0000   1.0000   1.0000   0.9986
     0.0000   0.0000   0.0000   0.0000   0.0000   0.0000   0.0000   0.0000
     0.0000   0.0000   0.0000   0.0000   0.0000   0.0000   0.0000   0.0000
     0.0000   0.0000   0.0000   0.0000   0.0000   0.0000

          k =-0.5303 0.1768 0.5303 (  8605 PWs)   bands (ev):

   -17.3641 -17.3417 -17.2867 -17.1107 -17.0949 -17.0845 -17.0679 -17.0568
   -17.0522 -17.0141 -16.9860 -16.9497 -16.9368 -16.9267 -16.9030 -16.8890
   -16.8810 -16.8709 -16.8665 -16.8536 -16.8027 -16.7894 -16.7859 -16.7667
   -16.6990 -16.6962 -16.6893 -16.6801 -16.6690 -16.6640 -16.6519 -16.6381
   -16.6262 -16.6169 -16.6090 -16.5972 -16.5898 -16.5817 -16.5788 -16.5747
   -16.5695 -16.5668 -16.5577 -16.5508 -16.5458 -16.5398 -16.5360 -16.5222
   -16.5143 -16.5074 -16.5047 -16.5023 -16.4869 -16.4781 -16.4652 -16.4465
   -16.4396 -16.4288 -16.4106 -16.4065 -16.3947 -16.3917 -16.3766 -16.3530
   -16.3210 -16.3044 -16.2716 -16.2614 -16.2479 -16.2453 -16.2323 -16.2207
   -16.2125 -16.2016 -16.1690 -16.1659 -16.1652 -16.1582 -16.1502 -16.1393
    -4.3599  -3.9482  -3.2224  -2.8133  -2.6044  -1.7743  -1.4251  -1.2150
    -0.0773   0.2474   0.5973   1.2690   1.6677   2.0035   2.5440   3.5870
     3.8497   4.0831   4.3126   4.5007   4.6995   4.8384   5.0983   5.1584
     5.5600   5.7834   6.1142   6.4482   6.5789   7.0466   7.2112   7.7569
     9.1753   9.3023   9.4828   9.6650   9.9696  10.1607  10.3127  10.5150
    10.6699  10.9111  11.2520  11.3757  11.6608  11.9998  12.2129  12.3731
    12.6484  12.8130  13.0251  13.1551  13.3143  13.4683

     occupation numbers 
     1.0000   1.0000   1.0000   1.0000   1.0000   1.0000   1.0000   1.0000
     1.0000   1.0000   1.0000   1.0000   1.0000   1.0000   1.0000   1.0000
     1.0000   1.0000   1.0000   1.0000   1.0000   1.0000   1.0000   1.0000
     1.0000   1.0000   1.0000   1.0000   1.0000   1.0000   1.0000   1.0000
     1.0000   1.0000   1.0000   1.0000   1.0000   1.0000   1.0000   1.0000
     1.0000   1.0000   1.0000   1.0000   1.0000   1.0000   1.0000   1.0000
     1.0000   1.0000   1.0000   1.0000   1.0000   1.0000   1.0000   1.0000
     1.0000   1.0000   1.0000   1.0000   1.0000   1.0000   1.0000   1.0000
     1.0000   1.0000   1.0000   1.0000   1.0000   1.0000   1.0000   1.0000
     1.0000   1.0000   1.0000   1.0000   1.0000   1.0000   1.0000   1.0000
     1.0000   1.0000   1.0000   1.0000   1.0000   1.0000   1.0000   1.0000
     1.0000   1.0000   1.0000   1.0000   1.0000   1.0000   1.0000   1.0000
     1.0000   1.0000   1.0000   1.0000   1.0000   1.0000   1.0000   1.0000
     1.0000   1.0000   1.0000   1.0000   1.0000   1.0000   1.0000   0.9950
     0.0000   0.0000   0.0000   0.0000   0.0000   0.0000   0.0000   0.0000
     0.0000   0.0000   0.0000   0.0000   0.0000   0.0000   0.0000   0.0000
     0.0000   0.0000   0.0000   0.0000   0.0000   0.0000

          k = 0.5303-0.1768 0.5303 (  8605 PWs)   bands (ev):

   -17.3642 -17.3416 -17.2860 -17.1110 -17.0972 -17.0819 -17.0689 -17.0586
   -17.0506 -17.0145 -16.9867 -16.9463 -16.9378 -16.9278 -16.9031 -16.8879
   -16.8803 -16.8714 -16.8607 -16.8543 -16.8074 -16.7931 -16.7857 -16.7678
   -16.7003 -16.6938 -16.6881 -16.6790 -16.6680 -16.6657 -16.6527 -16.6414
   -16.6292 -16.6169 -16.6079 -16.5954 -16.5878 -16.5817 -16.5779 -16.5740
   -16.5694 -16.5646 -16.5576 -16.5524 -16.5440 -16.5403 -16.5346 -16.5216
   -16.5145 -16.5106 -16.5068 -16.5027 -16.4842 -16.4782 -16.4623 -16.4463
   -16.4398 -16.4282 -16.4121 -16.4061 -16.3952 -16.3928 -16.3776 -16.3524
   -16.3205 -16.3042 -16.2708 -16.2619 -16.2476 -16.2452 -16.2320 -16.2207
   -16.2133 -16.2010 -16.1693 -16.1659 -16.1653 -16.1584 -16.1507 -16.1397
    -4.3891  -3.8555  -3.4044  -2.7341  -2.5719  -1.7019  -1.3888  -1.1395
    -0.1288   0.1385   0.7186   0.9432   1.3912   2.0240   2.7327   3.6505
     3.8989   4.2319   4.3706   4.5814   4.7752   4.8828   5.0777   5.4247
     5.7291   5.7908   6.2110   6.3756   6.6810   6.8287   6.9041   7.4846
     8.8507   9.1476   9.5239   9.6920   9.8336   9.9998  10.3396  10.7273
    10.9488  11.0382  11.1468  11.2285  11.6726  11.8259  12.1369  12.3529
    12.4654  12.7763  12.9061  13.1184  13.2447  13.5400

     occupation numbers 
     1.0000   1.0000   1.0000   1.0000   1.0000   1.0000   1.0000   1.0000
     1.0000   1.0000   1.0000   1.0000   1.0000   1.0000   1.0000   1.0000
     1.0000   1.0000   1.0000   1.0000   1.0000   1.0000   1.0000   1.0000
     1.0000   1.0000   1.0000   1.0000   1.0000   1.0000   1.0000   1.0000
     1.0000   1.0000   1.0000   1.0000   1.0000   1.0000   1.0000   1.0000
     1.0000   1.0000   1.0000   1.0000   1.0000   1.0000   1.0000   1.0000
     1.0000   1.0000   1.0000   1.0000   1.0000   1.0000   1.0000   1.0000
     1.0000   1.0000   1.0000   1.0000   1.0000   1.0000   1.0000   1.0000
     1.0000   1.0000   1.0000   1.0000   1.0000   1.0000   1.0000   1.0000
     1.0000   1.0000   1.0000   1.0000   1.0000   1.0000   1.0000   1.0000
     1.0000   1.0000   1.0000   1.0000   1.0000   1.0000   1.0000   1.0000
     1.0000   1.0000   1.0000   1.0000   1.0000   1.0000   1.0000   1.0000
     1.0000   1.0000   1.0000   1.0000   1.0000   1.0000   1.0000   1.0000
     1.0000   1.0000   1.0000   1.0000   1.0000   1.0000   1.0000   1.0000
     0.0000   0.0000   0.0000   0.0000   0.0000   0.0000   0.0000   0.0000
     0.0000   0.0000   0.0000   0.0000   0.0000   0.0000   0.0000   0.0000
     0.0000   0.0000   0.0000   0.0000   0.0000   0.0000

          k = 0.5303 0.5303-0.1768 (  8605 PWs)   bands (ev):

   -17.3643 -17.3415 -17.2860 -17.1108 -17.0972 -17.0823 -17.0689 -17.0557
   -17.0496 -17.0187 -16.9875 -16.9488 -16.9365 -16.9250 -16.9057 -16.8914
   -16.8811 -16.8714 -16.8609 -16.8543 -16.8076 -16.7911 -16.7841 -16.7670
   -16.6972 -16.6924 -16.6879 -16.6774 -16.6698 -16.6671 -16.6532 -16.6334
   -16.6229 -16.6158 -16.6104 -16.5947 -16.5892 -16.5800 -16.5784 -16.5732
   -16.5695 -16.5644 -16.5579 -16.5529 -16.5505 -16.5416 -16.5344 -16.5240
   -16.5160 -16.5130 -16.5090 -16.5022 -16.4852 -16.4799 -16.4673 -16.4438
   -16.4399 -16.4270 -16.4105 -16.4038 -16.3956 -16.3928 -16.3761 -16.3516
   -16.3215 -16.3038 -16.2731 -16.2618 -16.2478 -16.2454 -16.2315 -16.2210
   -16.2116 -16.2010 -16.1691 -16.1658 -16.1652 -16.1582 -16.1507 -16.1395
    -4.4124  -3.8209  -3.3299  -2.8262  -2.3835  -2.0785  -1.4770  -1.0707
    -0.1006   0.3552   0.6319   1.0866   1.9464   2.2032   2.3884   3.2610
     3.7454   3.9347   4.1936   4.4675   4.8639   4.9959   5.0958   5.4710
     5.6220   5.8514   5.9728   6.4573   6.7414   6.8961   7.0505   7.6270
     8.8326   9.4692   9.6046   9.8288  10.0518  10.2409  10.3790  10.6346
    10.7750  11.0265  11.2810  11.4836  11.7317  11.9444  12.0586  12.3407
    12.6353  12.6800  12.8671  12.9981  13.0649  13.3427

     occupation numbers 
[...]
   -16.5688 -16.5654 -16.5569 -16.5511 -16.5476 -16.5405 -16.5346 -16.5226
   -16.5148 -16.5089 -16.5071 -16.5040 -16.4848 -16.4770 -16.4654 -16.4455
   -16.4403 -16.4280 -16.4110 -16.4050 -16.3950 -16.3927 -16.3776 -16.3529
   -16.3210 -16.3054 -16.2720 -16.2618 -16.2478 -16.2452 -16.2315 -16.2208
   -16.2125 -16.2010 -16.1693 -16.1659 -16.1653 -16.1584 -16.1501 -16.1393
    -4.2039  -3.9552  -3.4850  -3.0085  -2.3533  -1.8116  -1.4043  -1.2530
    -0.0236   0.3448   0.6491   0.9837   2.2856   2.3838   2.7183   3.2217
     3.7566   3.8564   4.1222   4.2353   4.6568   4.9514   5.0569   5.2769
     5.6270   5.7064   5.9356   5.9995   6.5700   6.7679   7.0146   7.2220
     9.5863   9.7250   9.9029  10.2493  10.3647  10.4419  10.6532  10.7576
    10.9479  11.0599  11.1463  11.3732  11.8914  11.9582  12.2090  12.4846
    12.6171  12.7705  12.8411  13.0787  13.1755  13.2561

     occupation numbers 
     1.0000   1.0000   1.0000   1.0000   1.0000   1.0000   1.0000   1.0000
     1.0000   1.0000   1.0000   1.0000   1.0000   1.0000   1.0000   1.0000
     1.0000   1.0000   1.0000   1.0000   1.0000   1.0000   1.0000   1.0000
     1.0000   1.0000   1.0000   1.0000   1.0000   1.0000   1.0000   1.0000
     1.0000   1.0000   1.0000   1.0000   1.0000   1.0000   1.0000   1.0000
     1.0000   1.0000   1.0000   1.0000   1.0000   1.0000   1.0000   1.0000
     1.0000   1.0000   1.0000   1.0000   1.0000   1.0000   1.0000   1.0000
     1.0000   1.0000   1.0000   1.0000   1.0000   1.0000   1.0000   1.0000
     1.0000   1.0000   1.0000   1.0000   1.0000   1.0000   1.0000   1.0000
     1.0000   1.0000   1.0000   1.0000   1.0000   1.0000   1.0000   1.0000
     1.0000   1.0000   1.0000   1.0000   1.0000   1.0000   1.0000   1.0000
     1.0000   1.0000   1.0000   1.0000   1.0000   1.0000   1.0000   1.0000
     1.0000   1.0000   1.0000   1.0000   1.0000   1.0000   1.0000   1.0000
     1.0000   1.0000   1.0000   1.0000   1.0000   1.0000   1.0000   1.0000
     0.0000   0.0000   0.0000   0.0000   0.0000   0.0000   0.0000   0.0000
     0.0000   0.0000   0.0000   0.0000   0.0000   0.0000   0.0000   0.0000
     0.0000   0.0000   0.0000   0.0000   0.0000   0.0000

          k = 0.7071-0.0000 0.3536 (  8652 PWs)   bands (ev):

   -17.3640 -17.3416 -17.2867 -17.1099 -17.0966 -17.0820 -17.0685 -17.0593
   -17.0496 -17.0175 -16.9863 -16.9502 -16.9378 -16.9287 -16.9014 -16.8887
   -16.8787 -16.8705 -16.8660 -16.8507 -16.8044 -16.7914 -16.7864 -16.7665
   -16.7013 -16.6959 -16.6894 -16.6797 -16.6688 -16.6645 -16.6521 -16.6364
   -16.6242 -16.6156 -16.6099 -16.5943 -16.5883 -16.5805 -16.5778 -16.5719
   -16.5696 -16.5651 -16.5584 -16.5534 -16.5469 -16.5423 -16.5368 -16.5224
   -16.5153 -16.5099 -16.5072 -16.5008 -16.4860 -16.4826 -16.4645 -16.4454
   -16.4386 -16.4284 -16.4123 -16.4054 -16.3946 -16.3918 -16.3772 -16.3519
   -16.3213 -16.3035 -16.2720 -16.2623 -16.2478 -16.2455 -16.2318 -16.2209
   -16.2123 -16.2006 -16.1690 -16.1659 -16.1653 -16.1582 -16.1507 -16.1397
    -4.2655  -3.7941  -3.5554  -3.0850  -2.2895  -1.8636  -1.4491  -1.1589
    -0.0027   0.3789   0.6769   0.8597   2.2986   2.4794   2.7329   3.0264
     3.7780   3.8579   4.1803   4.2752   4.7175   4.8442   5.0596   5.3376
     5.6188   5.7155   5.8505   6.0341   6.6176   6.7530   7.0502   7.1143
     9.6296   9.7770   9.9537  10.2644  10.3777  10.4506  10.5774  10.7236
    10.8668  11.0667  11.2332  11.4737  11.9602  12.0797  12.2523  12.4145
    12.5144  12.6108  12.8762  13.0254  13.1377  13.2312

     occupation numbers 
     1.0000   1.0000   1.0000   1.0000   1.0000   1.0000   1.0000   1.0000
     1.0000   1.0000   1.0000   1.0000   1.0000   1.0000   1.0000   1.0000
     1.0000   1.0000   1.0000   1.0000   1.0000   1.0000   1.0000   1.0000
     1.0000   1.0000   1.0000   1.0000   1.0000   1.0000   1.0000   1.0000
     1.0000   1.0000   1.0000   1.0000   1.0000   1.0000   1.0000   1.0000
     1.0000   1.0000   1.0000   1.0000   1.0000   1.0000   1.0000   1.0000
     1.0000   1.0000   1.0000   1.0000   1.0000   1.0000   1.0000   1.0000
     1.0000   1.0000   1.0000   1.0000   1.0000   1.0000   1.0000   1.0000
     1.0000   1.0000   1.0000   1.0000   1.0000   1.0000   1.0000   1.0000
     1.0000   1.0000   1.0000   1.0000   1.0000   1.0000   1.0000   1.0000
     1.0000   1.0000   1.0000   1.0000   1.0000   1.0000   1.0000   1.0000
     1.0000   1.0000   1.0000   1.0000   1.0000   1.0000   1.0000   1.0000
     1.0000   1.0000   1.0000   1.0000   1.0000   1.0000   1.0000   1.0000
     1.0000   1.0000   1.0000   1.0000   1.0000   1.0000   1.0000   1.0000
     0.0000   0.0000   0.0000   0.0000   0.0000   0.0000   0.0000   0.0000
     0.0000   0.0000   0.0000   0.0000   0.0000   0.0000   0.0000   0.0000
     0.0000   0.0000   0.0000   0.0000   0.0000   0.0000

     the Fermi energy is     8.1285 ev

!    total energy              =   -3410.58371261 Ry
     Harris-Foulkes estimate   =   -3410.58371252 Ry
     estimated scf accuracy    <          2.9E-10 Ry

     The total energy is the sum of the following terms:

     one-electron contribution =   -2269.47708860 Ry
     hartree contribution      =    1338.24597089 Ry
     xc contribution           =    -922.15937808 Ry
     ewald contribution        =   -1557.18871699 Ry
     smearing contrib. (-TS)   =      -0.00449982 Ry

     convergence has been achieved in  11 iterations

     Forces acting on atoms (Ry/au):

     atom    1 type  1   force =   0.79299371E-01  0.96029268E-01 -0.16200612E+00
     atom    2 type  1   force =  -0.20062319E-01 -0.26115551E-01  0.12156933E+00
     atom    3 type  1   force =  -0.67366094E-02  0.10566392E+00 -0.33780776E-01
     atom    4 type  1   force =  -0.21570228E+00  0.13573698E-01  0.33478542E-01
     atom    5 type  1   force =  -0.26919832E-01  0.68430015E-02  0.41858303E-01
     atom    6 type  1   force =  -0.70112580E-01 -0.11105764E+00  0.49228553E-01
     atom    7 type  1   force =   0.15690049E+00 -0.46979726E-01  0.60198240E-01
     atom    8 type  1   force =   0.19864302E+00 -0.16512544E+00 -0.18561979E+00
     atom    9 type  1   force =   0.37726056E-01  0.33320782E-01 -0.55962968E-01
     atom   10 type  1   force =   0.34060396E-01 -0.83176360E-02 -0.18342867E-01
     atom   11 type  1   force =  -0.13028926E-01  0.46022551E-02  0.46279551E-02
     atom   12 type  1   force =  -0.25256747E-01 -0.77849173E-01 -0.55160122E-01
     atom   13 type  1   force =  -0.69083306E-01 -0.83822525E-02 -0.41271242E-01
     atom   14 type  1   force =   0.12796399E-01  0.17523833E-01  0.71405220E-01
     atom   15 type  1   force =  -0.14321626E+00  0.14200295E+00  0.11050591E+00
     atom   16 type  1   force =   0.70693128E-01  0.24267704E-01  0.59271833E-01
     The non-local contrib.  to forces
     atom    1 type  1   force =  -0.43598522E-01  0.19601667E-01  0.44611191E-01
     atom    2 type  1   force =  -0.77454659E-02  0.58951684E-01 -0.65750948E-01
     atom    3 type  1   force =   0.18282073E-01  0.32395198E-01 -0.22911840E-01
     atom    4 type  1   force =   0.34339023E-01 -0.11709513E-01 -0.70104073E-01
     atom    5 type  1   force =   0.15171102E-01  0.24582922E-03 -0.31475389E-01
     atom    6 type  1   force =   0.38692958E-01 -0.40166112E-02  0.35241988E-01
     atom    7 type  1   force =   0.47882811E-01 -0.20248723E-01 -0.10613853E-01
     atom    8 type  1   force =  -0.50306341E-01  0.31940992E-01 -0.33615600E-02
     atom    9 type  1   force =  -0.67259982E-01 -0.75766358E-01  0.10586725E-02
     atom   10 type  1   force =  -0.70878119E-01  0.20754139E-01 -0.16121448E-01
     atom   11 type  1   force =   0.17611603E-01 -0.66469935E-01 -0.47526379E-01
     atom   12 type  1   force =  -0.28115726E-01 -0.46057096E-01  0.26603221E-01
     atom   13 type  1   force =  -0.29122799E-02  0.30379218E-01  0.18795289E-01
     atom   14 type  1   force =   0.55599756E-01 -0.10337484E-01 -0.27036458E-01
     atom   15 type  1   force =  -0.27146591E-01  0.43047944E-01  0.52845091E-01
     atom   16 type  1   force =   0.11478701E-02  0.55916358E-01 -0.49689699E-01
     The ionic contribution  to forces
     atom    1 type  1   force =  -0.17109793E+01  0.41798196E+01 -0.71380639E+01
     atom    2 type  1   force =  -0.22571512E+01  0.19494347E+00  0.42952351E+01
     atom    3 type  1   force =  -0.30292172E+01  0.54809331E+01 -0.28013730E+01
     atom    4 type  1   force =  -0.10661264E+02  0.39887173E+01 -0.25841978E+00
     atom    5 type  1   force =  -0.16511060E+01 -0.29300531E+01  0.65793060E+01
     atom    6 type  1   force =  -0.13958159E+01 -0.78444273E+01  0.16242617E+01
     atom    7 type  1   force =   0.86732742E+01 -0.15572138E+01  0.22275428E+01
     atom    8 type  1   force =   0.12303351E+02 -0.56627069E+01 -0.69325938E+01
     atom    9 type  1   force =   0.21609297E+01  0.19516877E+01 -0.32661086E+01
     atom   10 type  1   force =   0.24774518E+01  0.99878533E+00 -0.27597226E+01
     atom   11 type  1   force =  -0.20193818E+01  0.28667012E+01 -0.27355725E+00
     atom   12 type  1   force =  -0.24898776E+01  0.10362978E+00 -0.49396527E+01
     atom   13 type  1   force =  -0.34547066E+01 -0.44862016E+01  0.10559750E+01
     atom   14 type  1   force =  -0.22380115E+00 -0.40095625E+00  0.58563312E+01
     atom   15 type  1   force =  -0.15392678E+01  0.32999113E+01  0.15524599E+01
     atom   16 type  1   force =   0.48175610E+01 -0.18357001E+00  0.51783799E+01
     The local contribution  to forces
     atom    1 type  1   force =   0.18343804E+01 -0.40948319E+01  0.69197412E+01
     atom    2 type  1   force =   0.22400404E+01 -0.27995211E+00 -0.41020703E+01
     atom    3 type  1   force =   0.30036199E+01 -0.53975296E+01  0.27886273E+01
     atom    4 type  1   force =   0.10392446E+02 -0.39621140E+01  0.36089625E+00
     atom    5 type  1   force =   0.16065765E+01  0.29360462E+01 -0.65013301E+01
     atom    6 type  1   force =   0.12862604E+01  0.77273395E+01 -0.16051767E+01
     atom    7 type  1   force =  -0.85491737E+01  0.15281012E+01 -0.21543892E+01
     atom    8 type  1   force =  -0.12038328E+02  0.54507903E+01  0.67366153E+01
     atom    9 type  1   force =  -0.20534460E+01 -0.18421478E+01  0.32026498E+01
     atom   10 type  1   force =  -0.23705951E+01 -0.10275073E+01  0.27573399E+01
     atom   11 type  1   force =   0.19896560E+01 -0.27950769E+01  0.32491542E+00
     atom   12 type  1   force =   0.24915151E+01 -0.14043712E+00  0.48561347E+01
     atom   13 type  1   force =   0.33827539E+01  0.44434946E+01 -0.11166361E+01
     atom   14 type  1   force =   0.18541003E+00  0.42979249E+00 -0.57540659E+01
     atom   15 type  1   force =   0.14103296E+01 -0.31883914E+01 -0.14868756E+01
     atom   16 type  1   force =  -0.47451631E+01  0.15533321E+00 -0.50655604E+01
     The core correction contribution to forces
     atom    1 type  1   force =  -0.50481977E-03 -0.85507265E-02  0.11697317E-01
     atom    2 type  1   force =   0.47884221E-02 -0.63728018E-04 -0.58379983E-02
     atom    3 type  1   force =   0.56746889E-03 -0.10129979E-01  0.18783079E-02
     atom    4 type  1   force =   0.18794068E-01 -0.13187460E-02  0.11058693E-02
     atom    5 type  1   force =   0.24489250E-02  0.59424263E-03 -0.46430140E-02
     atom    6 type  1   force =   0.73656155E-03  0.10041604E-01 -0.50979098E-02
     atom    7 type  1   force =  -0.15085437E-01  0.23776689E-02 -0.23292676E-02
     atom    8 type  1   force =  -0.16081910E-01  0.14867523E-01  0.13717122E-01
     atom    9 type  1   force =  -0.24954430E-02 -0.44306663E-03  0.64270839E-02
     atom   10 type  1   force =  -0.19197037E-02 -0.36125613E-03  0.16826420E-03
     atom   11 type  1   force =  -0.91825935E-03 -0.56143942E-03  0.80242767E-03
     atom   12 type  1   force =   0.12388009E-02  0.50160692E-02  0.17541332E-02
     atom   13 type  1   force =   0.57971174E-02  0.39539960E-02  0.59539311E-03
     atom   14 type  1   force =  -0.44237901E-02 -0.97188109E-03 -0.38229150E-02
     atom   15 type  1   force =   0.12869362E-01 -0.12582830E-01 -0.79214914E-02
     atom   16 type  1   force =  -0.28574105E-02 -0.34056756E-02 -0.38702387E-02
     The Hubbard contrib.    to forces
     atom    1 type  1   force =   0.00000000E+00  0.00000000E+00  0.00000000E+00
     atom    2 type  1   force =   0.00000000E+00  0.00000000E+00  0.00000000E+00
     atom    3 type  1   force =   0.00000000E+00  0.00000000E+00  0.00000000E+00
     atom    4 type  1   force =   0.00000000E+00  0.00000000E+00  0.00000000E+00
     atom    5 type  1   force =   0.00000000E+00  0.00000000E+00  0.00000000E+00
     atom    6 type  1   force =   0.00000000E+00  0.00000000E+00  0.00000000E+00
     atom    7 type  1   force =   0.00000000E+00  0.00000000E+00  0.00000000E+00
     atom    8 type  1   force =   0.00000000E+00  0.00000000E+00  0.00000000E+00
     atom    9 type  1   force =   0.00000000E+00  0.00000000E+00  0.00000000E+00
     atom   10 type  1   force =   0.00000000E+00  0.00000000E+00  0.00000000E+00
     atom   11 type  1   force =   0.00000000E+00  0.00000000E+00  0.00000000E+00
     atom   12 type  1   force =   0.00000000E+00  0.00000000E+00  0.00000000E+00
     atom   13 type  1   force =   0.00000000E+00  0.00000000E+00  0.00000000E+00
     atom   14 type  1   force =   0.00000000E+00  0.00000000E+00  0.00000000E+00
     atom   15 type  1   force =   0.00000000E+00  0.00000000E+00  0.00000000E+00
     atom   16 type  1   force =   0.00000000E+00  0.00000000E+00  0.00000000E+00
     The SCF correction term to forces
     atom    1 type  1   force =   0.69003188E-06 -0.10118524E-04  0.84006982E-05
     atom    2 type  1   force =   0.45126998E-05  0.44627389E-05 -0.61901389E-05
     atom    3 type  1   force =   0.10195999E-04 -0.54439821E-05 -0.11849962E-05
     atom    4 type  1   force =  -0.18467580E-04 -0.20369063E-05  0.61148157E-06
     atom    5 type  1   force =  -0.11300698E-04  0.91583742E-05  0.11509611E-05
     atom    6 type  1   force =   0.12466681E-04  0.44318211E-05 -0.20955272E-06
     atom    7 type  1   force =   0.16992149E-05  0.31733341E-05 -0.11853387E-04
     atom    8 type  1   force =   0.69201898E-05 -0.18096575E-04  0.34757639E-05
     atom    9 type  1   force =  -0.31410874E-05 -0.10363186E-04  0.10486000E-04
     atom   10 type  1   force =   0.61714696E-06  0.10804497E-04 -0.66675307E-05
     atom   11 type  1   force =   0.25592889E-05  0.85804170E-05 -0.59246312E-05
     atom   12 type  1   force =  -0.18200446E-04 -0.14819335E-05  0.95084309E-06
     atom   13 type  1   force =  -0.16398946E-04 -0.91736305E-05 -0.50856240E-06
     atom   14 type  1   force =   0.10615404E-04 -0.37140130E-05 -0.38859336E-06
     atom   15 type  1   force =  -0.17683474E-05  0.17246204E-04 -0.17306858E-05
     atom   16 type  1   force =   0.38691267E-05 -0.68564059E-05  0.12554114E-04

     Total force =     0.602425     Total SCF correction =     0.000059


     entering subroutine stress ...

          total   stress  (Ry/bohr**3)                   (kbar)     P=   43.14
   0.0002645860   0.0000427695  -0.0002436994         38.92      6.29    -35.85
   0.0000427695   0.0003608488  -0.0000401845          6.29     53.08     -5.91
  -0.0002436994  -0.0000401845   0.0002542465        -35.85     -5.91     37.40

     kinetic stress (kbar)  10010.77    -12.41     19.01
                              -12.41  10008.16     -0.34
                               19.01     -0.34  10013.18

     local   stress (kbar)   2021.24  -2406.03   4099.96
                            -2406.03   -461.06   -686.89
                             4099.96   -686.89   1723.13

     nonloc. stress (kbar)   2963.51      9.69    -21.60
                                9.69   2968.18      3.30
                              -21.60      3.30   2962.93

     hartree stress (kbar)  26220.16    974.47  -1598.66
                              974.47  27286.41    310.80
                            -1598.66    310.80  26369.93

     exc-cor stress (kbar)  19473.32      0.52     -1.11
                                0.52  19473.60      0.09
                               -1.11      0.09  19473.30

     corecor stress (kbar) -29144.14     -0.50      1.42
                               -0.50 -29144.50     -0.06
                                1.42     -0.06 -29144.08

     ewald   stress (kbar) -31505.94   1440.55  -2534.86
                             1440.55 -30077.71    367.20
                            -2534.86    367.20 -31360.99

     hubbard stress (kbar)      0.00      0.00      0.00
                                0.00      0.00      0.00
                                0.00      0.00      0.00

     london  stress (kbar)      0.00      0.00      0.00
                                0.00      0.00      0.00
                                0.00      0.00      0.00

     XDM     stress (kbar)      0.00      0.00      0.00
                                0.00      0.00      0.00
                                0.00      0.00      0.00

     dft-nl  stress (kbar)      0.00      0.00      0.00
                                0.00      0.00      0.00
                                0.00      0.00      0.00



     Writing output data file Ge_diamond.scf.in.super.222.largdist.a.022.save

     init_run     :     34.69s CPU     33.34s WALL (       1 calls)
     electrons    :   1534.36s CPU   1646.96s WALL (       1 calls)
     forces       :     13.77s CPU     12.21s WALL (       1 calls)
     stress       :    124.20s CPU    127.01s WALL (       1 calls)

     Called by init_run:
     wfcinit      :     33.63s CPU     32.27s WALL (       1 calls)
     potinit      :      0.13s CPU      0.13s WALL (       1 calls)

     Called by electrons:
     c_bands      :   1350.61s CPU   1462.89s WALL (      12 calls)
     sum_band     :    172.22s CPU    172.24s WALL (      12 calls)
     v_of_rho     :      1.38s CPU      1.48s WALL (      12 calls)
     v_h          :      0.08s CPU      0.07s WALL (      12 calls)
     v_xc         :      1.58s CPU      1.70s WALL (      14 calls)
     newd         :      8.56s CPU      8.68s WALL (      12 calls)
     mix_rho      :      2.08s CPU      2.12s WALL (      12 calls)

     Called by c_bands:
     init_us_2    :      5.02s CPU      5.25s WALL (     972 calls)
     cegterg      :   1322.17s CPU   1432.78s WALL (     432 calls)

     Called by sum_band:
     sum_band:bec :      1.19s CPU      1.29s WALL (     432 calls)
     addusdens    :      9.25s CPU      9.52s WALL (      12 calls)

     Called by *egterg:
     h_psi        :    680.48s CPU    677.89s WALL (    1615 calls)
     s_psi        :     63.18s CPU     50.35s WALL (    1615 calls)
     g_psi        :      1.74s CPU      1.80s WALL (    1147 calls)
     cdiaghg      :    317.65s CPU    453.27s WALL (    1543 calls)
     cegterg:over :    129.90s CPU    118.77s WALL (    1147 calls)
     cegterg:upda :     45.19s CPU     40.56s WALL (    1147 calls)
     cegterg:last :     26.17s CPU     20.08s WALL (     432 calls)

     Called by h_psi:
     h_psi:vloc   :    522.26s CPU    539.39s WALL (    1615 calls)
     h_psi:vnl    :    155.67s CPU    135.72s WALL (    1615 calls)
     add_vuspsi   :     62.74s CPU     51.87s WALL (    1615 calls)

     General routines
     calbec       :    152.47s CPU    138.55s WALL (    2119 calls)
     fft          :      2.10s CPU      2.16s WALL (     217 calls)
     ffts         :      1.13s CPU      1.11s WALL (     368 calls)
     fftw         :    573.10s CPU    591.72s WALL (  338234 calls)
     interpolate  :      0.24s CPU      0.26s WALL (      24 calls)

     Parallel routines
     fft_scatter  :    305.47s CPU    315.64s WALL (  338819 calls)

     PWSCF        : 28m32.66s CPU    30m28.17s WALL


   This run was terminated on:  17:25:37  27Sep2017            

=------------------------------------------------------------------------------=
   JOB DONE.
=------------------------------------------------------------------------------=
