
     Program PWSCF v.5.1 starts on 27Sep2017 at 16:55: 9 

     This program is part of the open-source Quantum ESPRESSO suite
     for quantum simulation of materials; please cite
         "P. Giannozzi et al., J. Phys.:Condens. Matter 21 395502 (2009);
          URL http://www.quantum-espresso.org", 
     in publications or presentations arising from this work. More details at
     http://www.quantum-espresso.org/quote

     Parallel version (MPI), running on     8 processors
     R & G space division:  proc/nbgrp/npool/nimage =       8
     Reading input from /tmp/Ge_diamond.scf.in.super.222.largdist.a.03.18400/Ge_diamond.scf.in.super.222.largdist.a.03.t
Warning: card &IONS ignored
Warning: card   ION_DYNAMICS='BFGS', ignored
Warning: card / ignored
Warning: card &CELL ignored
Warning: card  CELL_DYNAMICS = 'BFGS' ignored
Warning: card / ignored
     Message from routine read_cards :
     DEPRECATED: no units specified in CELL_PARAMETERS card

     Current dimensions of program PWSCF are:
     Max number of different atomic species (ntypx) = 10
     Max number of k-points (npk) =  40000
     Max angular momentum in pseudopotentials (lmaxx) =  3
 kfg - two_fermi_energies  F

     Subspace diagonalization in iterative solution of the eigenvalue problem:
     a serial algorithm will be used


     Parallelization info
     --------------------
     sticks:   dense  smooth     PW     G-vecs:    dense   smooth      PW
     Min         397     277     76                14695     8616    1260
     Max         399     278     77                14696     8641    1261
     Sum        3181    2221    613               117565    69041   10081



     bravais-lattice index     =            0
     lattice parameter (alat)  =    15.161884076  a.u.
     unit-cell volume          =    2464.5891 (a.u.)^3
     number of atoms/cell      =           16
     number of atomic types    =            1
     number of electrons       =       224.00
     number of Kohn-Sham states=          134
     kinetic-energy cutoff     =      35.0000  Ry
     charge density cutoff     =     200.0000  Ry
     convergence threshold     =      1.0E-09
     mixing beta               =       0.3000
     number of iterations used =            8  local-TF  mixing
     Exchange-correlation      = SLA  PW   PSX  PSC ( 1  4 10  8 0)
     A smooth kinetic-energy cutoff is imposed at      34.5000 Ry
     height of the smooth step-function =             800.0000 Ry
     width of the smooth step-function  =               1.0000 Ry


     celldm(1)=  15.161884  celldm(2)=   0.000000  celldm(3)=   0.000000
     celldm(4)=   0.000000  celldm(5)=   0.000000  celldm(6)=   0.000000

     crystal axes: (cart. coord. in units of alat)
               a(1) = (   0.000000000000   0.707106781187   0.707106781187 )  
               a(2) = (   0.707106781187   0.000000000000   0.707106781187 )  
               a(3) = (   0.707106781187   0.707106781187  -0.000000000000 )  

     reciprocal axes: (cart. coord. in units 2 pi/alat)
               b(1) = ( -0.707107  0.707107  0.707107 )  
               b(2) = (  0.707107 -0.707107  0.707107 )  
               b(3) = (  0.707107  0.707107 -0.707107 )  


     PseudoPot. # 1 for Ge read from file:
     /users/kfg/psuedo/gbrv_1.5/ge.pbesol.UPF
     MD5 check sum: 7bed0412183f5e553a4d27ec7023354d
     Pseudo is Ultrasoft + core correction, Zval = 14.0
     Generated by new atomic code, or converted to UPF format
     Using radial grid of  873 points,  6 beta functions with: 
                l(1) =   0
                l(2) =   0
                l(3) =   1
                l(4) =   1
                l(5) =   2
                l(6) =   2
     Q(r) pseudized with  8 coefficients,  rinner =    1.400   1.400   1.400
                                                       1.400   1.400

     atomic species   valence    mass     pseudopotential
        Ge            14.00    72.64000     Ge( 1.00)

     No symmetry found


                                    s                        frac. trans.

      isym =  1     identity                                     

 cryst.   s( 1) = (     1          0          0      )
                  (     0          1          0      )
                  (     0          0          1      )

 cart.    s( 1) = (  1.0000000  0.0000000  0.0000000 )
                  (  0.0000000  1.0000000  0.0000000 )
                  (  0.0000000  0.0000000  1.0000000 )


     point group C_1 (1)    
     there are  1 classes
     the character table:

       E    
A      1.00

     the symmetry operations in each class:
     E        1

   Cartesian axes

     site n.     atom                  positions (alat units)
         1           Ge  tau(   1) = (   -0.02520058054    0.02816769447   -0.02594734200  )
         2           Ge  tau(   2) = (    0.16049897059    0.16715285261    0.14920076961  )
         3           Ge  tau(   3) = (    0.35970645034    0.33162716494    0.00136385933  )
         4           Ge  tau(   4) = (    0.53621483988    0.52297567854    0.20706677273  )
         5           Ge  tau(   5) = (    0.32382521484   -0.02967728332    0.35850315329  )
         6           Ge  tau(   6) = (    0.55770027005    0.19233397189    0.56292635335  )
         7           Ge  tau(   7) = (    0.68088242721    0.35290120296    0.34900957343  )
         8           Ge  tau(   8) = (    0.87557537294    0.52468249380    0.51470679112  )
         9           Ge  tau(   9) = (    0.01664517765    0.35234503002    0.37692356510  )
        10           Ge  tau(  10) = (    0.19113942201    0.55071671524    0.54800751149  )
        11           Ge  tau(  11) = (    0.36464849476    0.73608947954    0.37371671103  )
        12           Ge  tau(  12) = (    0.54338335493    0.90400449486    0.52974879369  )
        13           Ge  tau(  13) = (    0.33137376196    0.37821511001    0.68392803884  )
        14           Ge  tau(  14) = (    0.53777970139    0.53469146656    0.88162968590  )
        15           Ge  tau(  15) = (    0.69046136045    0.67473329547    0.73571622501  )
        16           Ge  tau(  16) = (    0.89659179759    0.89040847569    0.88672823515  )

   Crystallographic axes

     site n.     atom                  positions (cryst. coord.)
         1           Ge  tau(   1) = (    0.01938952767   -0.05608461064    0.02044560786  )
         2           Ge  tau(   2) = (    0.11020588105    0.10079587085    0.12618395010  )
         3           Ge  tau(   3) = (   -0.01889065894    0.02081944730    0.48788229325  )
         4           Ge  tau(   4) = (    0.13705681839    0.15577981992    0.60254247899  )
         5           Ge  tau(   5) = (    0.00353599716    0.50346402438   -0.04550601372  )
         6           Ge  tau(   6) = (    0.13969605471    0.65640202881    0.13230525684  )
         7           Ge  tau(   7) = (    0.01486928830    0.47870478383    0.48420837910  )
         8           Ge  tau(   8) = (    0.11583392801    0.61207139663    0.62617917067  )
         9           Ge  tau(   9) = (    0.50390085093    0.02914956682   -0.00560973084  )
        10           Ge  tau(  10) = (    0.64175936992    0.13324028511    0.13707167779  )
        11           Ge  tau(  11) = (    0.52690605976    0.00160918145    0.51408166533  )
        12           Ge  tau(  12) = (    0.62958661783    0.11959131086    0.64886879925  )
        13           Ge  tau(  13) = (    0.51673198895    0.45048831926    0.01814494912  )
        14           Ge  tau(  14) = (    0.62122261761    0.62559004119    0.13494530609  )
        15           Ge  tau(  15) = (    0.50910851033    0.53135135314    0.44510846710  )
        16           Ge  tau(  16) = (    0.62263927930    0.63138381699    0.63658846308  )

     number of k points=    36  gaussian smearing, width (Ry)=  0.0150
                       cart. coord. in units 2pi/alat
        k(    1) = (   0.0000000   0.0000000   0.0000000), wk =   0.0312500
        k(    2) = (   0.1767767   0.1767767  -0.1767767), wk =   0.0625000
        k(    3) = (  -0.3535534  -0.3535534   0.3535534), wk =   0.0312500
        k(    4) = (   0.3535534   0.0000000   0.0000000), wk =   0.0625000
        k(    5) = (  -0.1767767  -0.5303301   0.5303301), wk =   0.0625000
        k(    6) = (   0.0000000  -0.3535534   0.3535534), wk =   0.0625000
        k(    7) = (  -0.7071068   0.0000000   0.0000000), wk =   0.0312500
        k(    8) = (  -0.7071068   0.3535534   0.0000000), wk =   0.0625000
        k(    9) = (  -0.1767767  -0.1767767  -0.1767767), wk =   0.0625000
        k(   10) = (  -0.1767767   0.1767767   0.1767767), wk =   0.0625000
        k(   11) = (   0.1767767  -0.1767767   0.1767767), wk =   0.0625000
        k(   12) = (   0.3535534   0.3535534   0.3535534), wk =   0.0312500
        k(   13) = (   0.3535534  -0.3535534  -0.3535534), wk =   0.0312500
        k(   14) = (  -0.3535534   0.3535534  -0.3535534), wk =   0.0312500
        k(   15) = (   0.0000000   0.3535534   0.0000000), wk =   0.0625000
        k(   16) = (   0.0000000   0.0000000   0.3535534), wk =   0.0625000
        k(   17) = (   0.1767767   0.5303301   0.5303301), wk =   0.0625000
        k(   18) = (   0.1767767  -0.5303301  -0.5303301), wk =   0.0625000
        k(   19) = (  -0.1767767   0.5303301  -0.5303301), wk =   0.0625000
        k(   20) = (  -0.5303301  -0.1767767  -0.5303301), wk =   0.0625000
        k(   21) = (   0.5303301   0.1767767  -0.5303301), wk =   0.0625000
        k(   22) = (  -0.5303301   0.1767767   0.5303301), wk =   0.0625000
        k(   23) = (   0.5303301  -0.1767767   0.5303301), wk =   0.0625000
        k(   24) = (   0.5303301   0.5303301  -0.1767767), wk =   0.0625000
        k(   25) = (  -0.5303301   0.5303301   0.1767767), wk =   0.0625000
        k(   26) = (   0.5303301  -0.5303301   0.1767767), wk =   0.0625000
        k(   27) = (  -0.5303301  -0.5303301  -0.1767767), wk =   0.0625000
        k(   28) = (   0.0000000   0.3535534   0.3535534), wk =   0.0625000
        k(   29) = (  -0.3535534   0.0000000  -0.3535534), wk =   0.0625000
        k(   30) = (   0.3535534   0.0000000  -0.3535534), wk =   0.0625000
        k(   31) = (   0.3535534   0.3535534   0.0000000), wk =   0.0625000
        k(   32) = (  -0.3535534   0.3535534   0.0000000), wk =   0.0625000
        k(   33) = (   0.0000000  -0.7071068   0.0000000), wk =   0.0312500
        k(   34) = (   0.0000000   0.0000000  -0.7071068), wk =   0.0312500
        k(   35) = (   0.3535534  -0.7071068   0.0000000), wk =   0.0625000
        k(   36) = (   0.7071068  -0.0000000   0.3535534), wk =   0.0625000

                       cryst. coord.
        k(    1) = (   0.0000000   0.0000000   0.0000000), wk =   0.0312500
        k(    2) = (   0.0000000   0.0000000   0.2500000), wk =   0.0625000
        k(    3) = (   0.0000000   0.0000000  -0.5000000), wk =   0.0312500
        k(    4) = (   0.0000000   0.2500000   0.2500000), wk =   0.0625000
        k(    5) = (   0.0000000   0.2500000  -0.5000000), wk =   0.0625000
        k(    6) = (   0.0000000   0.2500000  -0.2500000), wk =   0.0625000
        k(    7) = (   0.0000000  -0.5000000  -0.5000000), wk =   0.0312500
        k(    8) = (   0.2500000  -0.5000000  -0.2500000), wk =   0.0625000
        k(    9) = (  -0.2500000  -0.2500000  -0.2500000), wk =   0.0625000
        k(   10) = (   0.2500000   0.0000000   0.0000000), wk =   0.0625000
        k(   11) = (   0.0000000   0.2500000   0.0000000), wk =   0.0625000
        k(   12) = (   0.5000000   0.5000000   0.5000000), wk =   0.0312500
        k(   13) = (  -0.5000000   0.0000000   0.0000000), wk =   0.0312500
        k(   14) = (   0.0000000  -0.5000000   0.0000000), wk =   0.0312500
        k(   15) = (   0.2500000   0.0000000   0.2500000), wk =   0.0625000
        k(   16) = (   0.2500000   0.2500000   0.0000000), wk =   0.0625000
        k(   17) = (   0.7500000   0.5000000   0.5000000), wk =   0.0625000
        k(   18) = (  -0.7500000  -0.2500000  -0.2500000), wk =   0.0625000
        k(   19) = (   0.0000000  -0.5000000   0.2500000), wk =   0.0625000
        k(   20) = (  -0.5000000  -0.7500000  -0.5000000), wk =   0.0625000
        k(   21) = (  -0.2500000   0.0000000   0.5000000), wk =   0.0625000
        k(   22) = (   0.5000000   0.0000000  -0.2500000), wk =   0.0625000
        k(   23) = (   0.2500000   0.7500000   0.2500000), wk =   0.0625000
        k(   24) = (   0.2500000   0.2500000   0.7500000), wk =   0.0625000
        k(   25) = (   0.5000000  -0.2500000   0.0000000), wk =   0.0625000
        k(   26) = (  -0.2500000   0.5000000   0.0000000), wk =   0.0625000
        k(   27) = (  -0.5000000  -0.5000000  -0.7500000), wk =   0.0625000
        k(   28) = (   0.5000000   0.2500000   0.2500000), wk =   0.0625000
        k(   29) = (  -0.2500000  -0.5000000  -0.2500000), wk =   0.0625000
        k(   30) = (  -0.2500000   0.0000000   0.2500000), wk =   0.0625000
        k(   31) = (   0.2500000   0.2500000   0.5000000), wk =   0.0625000
        k(   32) = (   0.2500000  -0.2500000   0.0000000), wk =   0.0625000
        k(   33) = (  -0.5000000   0.0000000  -0.5000000), wk =   0.0312500
        k(   34) = (  -0.5000000  -0.5000000   0.0000000), wk =   0.0312500
        k(   35) = (  -0.5000000   0.2500000  -0.2500000), wk =   0.0625000
        k(   36) = (   0.2500000   0.7500000   0.5000000), wk =   0.0625000

     Dense  grid:   117565 G-vectors     FFT dimensions: (  72,  72,  72)

     Smooth grid:    69041 G-vectors     FFT dimensions: (  60,  60,  60)

     Largest allocated arrays     est. size (Mb)     dimensions
        Kohn-Sham Wavefunctions         2.25 Mb     (    1100,  134)
        NL pseudopotentials             4.83 Mb     (    1100,  288)
        Each V/rho on FFT grid          0.71 Mb     (   46656)
        Each G-vector array             0.11 Mb     (   14696)
        G-vector shells                 0.01 Mb     (     776)
     Largest temporary arrays     est. size (Mb)     dimensions
        Auxiliary wavefunctions         9.00 Mb     (    1100,  536)
        Each subspace H/S matrix        4.38 Mb     (     536,  536)
        Each <psi_i|beta_j> matrix      0.59 Mb     (     288,  134)
        Arrays for rho mixing           5.70 Mb     (   46656,    8)

     Check: negative/imaginary core charge=   -0.000002    0.000000

     Initial potential from superposition of free atoms

     starting charge  223.98707, renormalised to  224.00000
     Starting wfc are  144 randomized atomic wfcs

     total cpu time spent up to now is       33.5 secs

     per-process dynamical memory:   106.0 Mb

     Self-consistent Calculation

     iteration #  1     ecut=    35.00 Ry     beta=0.30
     Davidson diagonalization with overlap
     ethr =  1.00E-02,  avg # of iterations =  3.9

     Threshold (ethr) on eigenvalues was too large:
     Diagonalizing with lowered threshold

     Davidson diagonalization with overlap
     ethr =  1.19E-04,  avg # of iterations =  5.8

     total cpu time spent up to now is      359.7 secs

     total energy              =   -3410.43038536 Ry
     Harris-Foulkes estimate   =   -3410.46218030 Ry
     estimated scf accuracy    <       0.27615107 Ry

     iteration #  2     ecut=    35.00 Ry     beta=0.30
     Davidson diagonalization with overlap
     ethr =  1.23E-04,  avg # of iterations =  1.0

     total cpu time spent up to now is      460.3 secs

     total energy              =   -3410.37079987 Ry
     Harris-Foulkes estimate   =   -3410.43159283 Ry
     estimated scf accuracy    <       0.16880808 Ry

     iteration #  3     ecut=    35.00 Ry     beta=0.30
     Davidson diagonalization with overlap
     ethr =  7.54E-05,  avg # of iterations =  2.0

     total cpu time spent up to now is      579.2 secs

     total energy              =   -3410.38320238 Ry
     Harris-Foulkes estimate   =   -3410.38375197 Ry
     estimated scf accuracy    <       0.00311800 Ry

     iteration #  4     ecut=    35.00 Ry     beta=0.30
     Davidson diagonalization with overlap
     ethr =  1.39E-06,  avg # of iterations =  6.1

     total cpu time spent up to now is      803.1 secs

     total energy              =   -3410.38358901 Ry
     Harris-Foulkes estimate   =   -3410.38370022 Ry
     estimated scf accuracy    <       0.00081210 Ry

     iteration #  5     ecut=    35.00 Ry     beta=0.30
     Davidson diagonalization with overlap
     ethr =  3.63E-07,  avg # of iterations =  2.0

     total cpu time spent up to now is      924.4 secs

     total energy              =   -3410.38363259 Ry
     Harris-Foulkes estimate   =   -3410.38365842 Ry
     estimated scf accuracy    <       0.00007971 Ry

     iteration #  6     ecut=    35.00 Ry     beta=0.30
     Davidson diagonalization with overlap
     ethr =  3.56E-08,  avg # of iterations =  2.0

     total cpu time spent up to now is     1042.1 secs

     total energy              =   -3410.38363541 Ry
     Harris-Foulkes estimate   =   -3410.38363733 Ry
     estimated scf accuracy    <       0.00000776 Ry

     iteration #  7     ecut=    35.00 Ry     beta=0.30
     Davidson diagonalization with overlap
     ethr =  3.47E-09,  avg # of iterations =  2.0

     total cpu time spent up to now is     1157.7 secs

     total energy              =   -3410.38363620 Ry
     Harris-Foulkes estimate   =   -3410.38363596 Ry
     estimated scf accuracy    <       0.00000172 Ry

     iteration #  8     ecut=    35.00 Ry     beta=0.30
     Davidson diagonalization with overlap
     ethr =  7.69E-10,  avg # of iterations =  2.0

     total cpu time spent up to now is     1276.7 secs

     total energy              =   -3410.38363665 Ry
     Harris-Foulkes estimate   =   -3410.38363638 Ry
     estimated scf accuracy    <       0.00000024 Ry

     iteration #  9     ecut=    35.00 Ry     beta=0.30
     Davidson diagonalization with overlap
     ethr =  1.06E-10,  avg # of iterations =  2.0

     total cpu time spent up to now is     1416.3 secs

     total energy              =   -3410.38363688 Ry
     Harris-Foulkes estimate   =   -3410.38363670 Ry
     estimated scf accuracy    <       0.00000001 Ry

     iteration # 10     ecut=    35.00 Ry     beta=0.30
     Davidson diagonalization with overlap
     ethr =  6.64E-12,  avg # of iterations =  2.1

     total cpu time spent up to now is     1540.7 secs

     total energy              =   -3410.38363696 Ry
     Harris-Foulkes estimate   =   -3410.38363688 Ry
     estimated scf accuracy    <          9.1E-09 Ry

     iteration # 11     ecut=    35.00 Ry     beta=0.30
     Davidson diagonalization with overlap
     ethr =  4.04E-12,  avg # of iterations =  2.0

     total cpu time spent up to now is     1697.5 secs

     End of self-consistent calculation

          k = 0.0000 0.0000 0.0000 (  8609 PWs)   bands (ev):

   -17.8999 -17.4087 -17.3924 -17.3324 -17.1672 -17.0749 -17.0687 -17.0561
   -17.0444 -17.0178 -16.9603 -16.9303 -16.9092 -16.9057 -16.8719 -16.8453
   -16.8419 -16.8369 -16.8305 -16.8220 -16.8183 -16.8116 -16.7970 -16.7902
   -16.7864 -16.7573 -16.7465 -16.7311 -16.7254 -16.7005 -16.6925 -16.6798
   -16.6659 -16.6556 -16.6506 -16.6444 -16.6291 -16.6226 -16.6188 -16.6154
   -16.6025 -16.5992 -16.5888 -16.5873 -16.5847 -16.5776 -16.5661 -16.5595
   -16.5479 -16.5377 -16.5281 -16.5239 -16.5188 -16.5087 -16.5066 -16.5056
   -16.4966 -16.4940 -16.4854 -16.4792 -16.4712 -16.4700 -16.4608 -16.4541
   -16.4474 -16.4361 -16.4310 -16.4118 -16.4090 -16.3987 -16.3954 -16.3909
   -16.3815 -16.3762 -16.3449 -16.3314 -16.3206 -16.3115 -16.2799 -16.2132
    -4.8930  -3.4007  -3.0036  -2.7079  -2.6009  -1.8126  -1.2098  -1.0002
    -0.7395  -0.4639  -0.0642   0.5108   0.8244   1.0104   1.4487   4.7655
     4.8749   5.0149   5.0452   5.1478   5.2552   6.0872   6.2569   6.3654
     6.6389   6.7562   6.9999   7.1484   7.2944   7.6555   7.8383   7.9725
     8.0649   8.1339   8.2054   8.4002   8.6668   8.7913   8.8388   9.0464
     9.1504   9.2268   9.6954   9.9210  10.2814  10.4657  11.2198  11.5687
    11.8214  11.9567  12.2909  12.6131  12.8192  13.0257

     occupation numbers 
     1.0000   1.0000   1.0000   1.0000   1.0000   1.0000   1.0000   1.0000
     1.0000   1.0000   1.0000   1.0000   1.0000   1.0000   1.0000   1.0000
     1.0000   1.0000   1.0000   1.0000   1.0000   1.0000   1.0000   1.0000
     1.0000   1.0000   1.0000   1.0000   1.0000   1.0000   1.0000   1.0000
     1.0000   1.0000   1.0000   1.0000   1.0000   1.0000   1.0000   1.0000
     1.0000   1.0000   1.0000   1.0000   1.0000   1.0000   1.0000   1.0000
     1.0000   1.0000   1.0000   1.0000   1.0000   1.0000   1.0000   1.0000
     1.0000   1.0000   1.0000   1.0000   1.0000   1.0000   1.0000   1.0000
     1.0000   1.0000   1.0000   1.0000   1.0000   1.0000   1.0000   1.0000
     1.0000   1.0000   1.0000   1.0000   1.0000   1.0000   1.0000   1.0000
     1.0000   1.0000   1.0000   1.0000   1.0000   1.0000   1.0000   1.0000
     1.0000   1.0000   1.0000   1.0000   1.0000   1.0000   1.0000   1.0000
     1.0000   1.0000   1.0000   1.0000   1.0000   1.0000   1.0000   1.0000
     1.0000   1.0000   1.0000   1.0000   1.0000   0.9999   0.9947   0.9481
     0.8381   0.6947   0.5054   0.0907   0.0007   0.0000   0.0000   0.0000
     0.0000   0.0000   0.0000   0.0000   0.0000   0.0000   0.0000   0.0000
     0.0000   0.0000   0.0000   0.0000   0.0000   0.0000

          k = 0.1768 0.1768-0.1768 (  8627 PWs)   bands (ev):

   -17.9000 -17.4087 -17.3924 -17.3325 -17.1674 -17.0745 -17.0691 -17.0564
   -17.0462 -17.0193 -16.9583 -16.9317 -16.9121 -16.9061 -16.8712 -16.8492
   -16.8468 -16.8376 -16.8258 -16.8217 -16.8181 -16.8116 -16.7962 -16.7883
   -16.7770 -16.7541 -16.7457 -16.7324 -16.7207 -16.6994 -16.6910 -16.6826
   -16.6666 -16.6579 -16.6535 -16.6464 -16.6305 -16.6272 -16.6223 -16.6103
   -16.6017 -16.5958 -16.5913 -16.5857 -16.5811 -16.5759 -16.5653 -16.5586
   -16.5477 -16.5388 -16.5340 -16.5261 -16.5194 -16.5100 -16.5076 -16.5047
   -16.4971 -16.4914 -16.4846 -16.4783 -16.4737 -16.4699 -16.4623 -16.4561
   -16.4454 -16.4390 -16.4344 -16.4176 -16.4080 -16.4028 -16.3926 -16.3893
   -16.3775 -16.3722 -16.3461 -16.3336 -16.3244 -16.3095 -16.2749 -16.2135
    -4.7366  -3.5002  -3.1568  -2.7465  -2.5994  -2.0500  -1.7292  -1.4389
    -0.2230   0.1492   0.4205   0.8800   1.2014   1.3370   1.7140   4.2485
     4.3590   4.5450   4.8397   5.0808   5.1389   5.3584   5.4345   5.5785
     5.6695   6.3508   6.5719   6.7869   7.0572   7.3500   8.0093   8.0920
     8.4905   8.6977   8.7777   8.9893   9.1335   9.2360   9.3856   9.6616
     9.7483  10.0209  10.3501  10.6998  10.9928  11.2616  11.6864  11.8661
    11.9387  12.1576  12.4737  12.5112  12.6527  13.0741

     occupation numbers 
     1.0000   1.0000   1.0000   1.0000   1.0000   1.0000   1.0000   1.0000
     1.0000   1.0000   1.0000   1.0000   1.0000   1.0000   1.0000   1.0000
     1.0000   1.0000   1.0000   1.0000   1.0000   1.0000   1.0000   1.0000
     1.0000   1.0000   1.0000   1.0000   1.0000   1.0000   1.0000   1.0000
     1.0000   1.0000   1.0000   1.0000   1.0000   1.0000   1.0000   1.0000
     1.0000   1.0000   1.0000   1.0000   1.0000   1.0000   1.0000   1.0000
     1.0000   1.0000   1.0000   1.0000   1.0000   1.0000   1.0000   1.0000
     1.0000   1.0000   1.0000   1.0000   1.0000   1.0000   1.0000   1.0000
     1.0000   1.0000   1.0000   1.0000   1.0000   1.0000   1.0000   1.0000
     1.0000   1.0000   1.0000   1.0000   1.0000   1.0000   1.0000   1.0000
     1.0000   1.0000   1.0000   1.0000   1.0000   1.0000   1.0000   1.0000
     1.0000   1.0000   1.0000   1.0000   1.0000   1.0000   1.0000   1.0000
     1.0000   1.0000   1.0000   1.0000   1.0000   1.0000   1.0000   1.0000
     1.0000   1.0000   1.0000   1.0000   1.0000   1.0000   0.9150   0.7879
     0.0249   0.0003   0.0000   0.0000   0.0000   0.0000   0.0000   0.0000
     0.0000   0.0000   0.0000   0.0000   0.0000   0.0000   0.0000   0.0000
     0.0000   0.0000   0.0000   0.0000   0.0000   0.0000

          k =-0.3536-0.3536 0.3536 (  8646 PWs)   bands (ev):

   -17.9002 -17.4086 -17.3923 -17.3327 -17.1675 -17.0740 -17.0693 -17.0566
   -17.0480 -17.0204 -16.9564 -16.9328 -16.9140 -16.9065 -16.8711 -16.8533
   -16.8487 -16.8344 -16.8305 -16.8201 -16.8147 -16.8124 -16.7924 -16.7863
   -16.7703 -16.7518 -16.7425 -16.7347 -16.7122 -16.7022 -16.6906 -16.6831
   -16.6649 -16.6588 -16.6548 -16.6513 -16.6378 -16.6291 -16.6199 -16.6103
   -16.6024 -16.5960 -16.5921 -16.5842 -16.5764 -16.5701 -16.5598 -16.5547
   -16.5488 -16.5451 -16.5406 -16.5295 -16.5187 -16.5124 -16.5052 -16.5042
   -16.4989 -16.4892 -16.4835 -16.4790 -16.4731 -16.4705 -16.4648 -16.4585
   -16.4442 -16.4399 -16.4358 -16.4224 -16.4080 -16.4039 -16.3948 -16.3879
   -16.3732 -16.3683 -16.3448 -16.3354 -16.3311 -16.3063 -16.2702 -16.2133
    -4.4591  -3.8851  -3.1551  -2.6920  -2.6449  -2.1601  -1.9836  -1.7862
     0.1967   0.4768   0.8381   1.1008   1.5841   1.8169   2.9128   3.3386
     3.9218   4.0197   4.1572   4.2782   4.4342   4.5970   5.3952   5.6927
     5.7713   5.9781   6.1067   6.3056   7.2271   7.4798   7.5552   8.0682
     8.3337   8.7914   9.0698   9.1292   9.4241   9.6638   9.7262  10.1463
    11.2712  11.4430  11.6439  11.7352  11.9551  12.1670  12.2662  12.4522
    12.7056  12.7577  12.9523  13.0577  13.0799  13.2130

     occupation numbers 
     1.0000   1.0000   1.0000   1.0000   1.0000   1.0000   1.0000   1.0000
     1.0000   1.0000   1.0000   1.0000   1.0000   1.0000   1.0000   1.0000
     1.0000   1.0000   1.0000   1.0000   1.0000   1.0000   1.0000   1.0000
     1.0000   1.0000   1.0000   1.0000   1.0000   1.0000   1.0000   1.0000
     1.0000   1.0000   1.0000   1.0000   1.0000   1.0000   1.0000   1.0000
     1.0000   1.0000   1.0000   1.0000   1.0000   1.0000   1.0000   1.0000
     1.0000   1.0000   1.0000   1.0000   1.0000   1.0000   1.0000   1.0000
     1.0000   1.0000   1.0000   1.0000   1.0000   1.0000   1.0000   1.0000
     1.0000   1.0000   1.0000   1.0000   1.0000   1.0000   1.0000   1.0000
     1.0000   1.0000   1.0000   1.0000   1.0000   1.0000   1.0000   1.0000
     1.0000   1.0000   1.0000   1.0000   1.0000   1.0000   1.0000   1.0000
     1.0000   1.0000   1.0000   1.0000   1.0000   1.0000   1.0000   1.0000
     1.0000   1.0000   1.0000   1.0000   1.0000   1.0000   1.0000   1.0000
     1.0000   1.0000   1.0000   1.0000   1.0000   1.0000   1.0000   0.8326
     0.1905   0.0000   0.0000   0.0000   0.0000   0.0000   0.0000   0.0000
     0.0000   0.0000   0.0000   0.0000   0.0000   0.0000   0.0000   0.0000
     0.0000   0.0000   0.0000   0.0000   0.0000   0.0000

          k = 0.3536 0.0000 0.0000 (  8620 PWs)   bands (ev):

   -17.9000 -17.4081 -17.3924 -17.3322 -17.1673 -17.0877 -17.0740 -17.0589
   -17.0338 -17.0061 -16.9654 -16.9369 -16.9116 -16.9033 -16.8671 -16.8497
   -16.8421 -16.8386 -16.8272 -16.8220 -16.8191 -16.8128 -16.7966 -16.7846
   -16.7791 -16.7562 -16.7460 -16.7307 -16.7220 -16.7032 -16.6934 -16.6799
   -16.6656 -16.6558 -16.6511 -16.6411 -16.6342 -16.6304 -16.6176 -16.6105
   -16.6007 -16.5970 -16.5916 -16.5846 -16.5806 -16.5781 -16.5657 -16.5583
   -16.5468 -16.5386 -16.5328 -16.5261 -16.5197 -16.5136 -16.5081 -16.5039
   -16.4989 -16.4950 -16.4876 -16.4791 -16.4737 -16.4716 -16.4644 -16.4553
   -16.4432 -16.4381 -16.4312 -16.4142 -16.4119 -16.4065 -16.3918 -16.3841
   -16.3767 -16.3712 -16.3443 -16.3301 -16.3248 -16.3149 -16.2751 -16.2137
    -4.6803  -3.5267  -3.1517  -2.8621  -2.6591  -2.3702  -1.2366  -1.0096
    -0.6160  -0.4039   0.8019   0.9554   1.2446   1.5375   1.8784   4.2283
     4.4368   4.5054   4.6312   4.9812   5.1555   5.2270   5.4012   5.5424
     5.7431   5.9233   6.6156   6.7844   6.9790   7.2342   7.4301   7.8955
     8.1881   8.7607   9.1013   9.2088   9.2733   9.5120   9.6182   9.7653
     9.9564  10.3318  10.4750  10.5651  11.0109  11.4400  11.5378  12.0784
    12.1393  12.2004  12.5912  12.7714  12.9832  13.3667

     occupation numbers 
     1.0000   1.0000   1.0000   1.0000   1.0000   1.0000   1.0000   1.0000
     1.0000   1.0000   1.0000   1.0000   1.0000   1.0000   1.0000   1.0000
     1.0000   1.0000   1.0000   1.0000   1.0000   1.0000   1.0000   1.0000
     1.0000   1.0000   1.0000   1.0000   1.0000   1.0000   1.0000   1.0000
     1.0000   1.0000   1.0000   1.0000   1.0000   1.0000   1.0000   1.0000
     1.0000   1.0000   1.0000   1.0000   1.0000   1.0000   1.0000   1.0000
     1.0000   1.0000   1.0000   1.0000   1.0000   1.0000   1.0000   1.0000
     1.0000   1.0000   1.0000   1.0000   1.0000   1.0000   1.0000   1.0000
     1.0000   1.0000   1.0000   1.0000   1.0000   1.0000   1.0000   1.0000
     1.0000   1.0000   1.0000   1.0000   1.0000   1.0000   1.0000   1.0000
     1.0000   1.0000   1.0000   1.0000   1.0000   1.0000   1.0000   1.0000
     1.0000   1.0000   1.0000   1.0000   1.0000   1.0000   1.0000   1.0000
     1.0000   1.0000   1.0000   1.0000   1.0000   1.0000   1.0000   1.0000
     1.0000   1.0000   1.0000   1.0000   1.0000   1.0000   1.0000   0.9846
     0.5530   0.0001   0.0000   0.0000   0.0000   0.0000   0.0000   0.0000
     0.0000   0.0000   0.0000   0.0000   0.0000   0.0000   0.0000   0.0000
     0.0000   0.0000   0.0000   0.0000   0.0000   0.0000

          k =-0.1768-0.5303 0.5303 (  8605 PWs)   bands (ev):

   -17.8999 -17.4080 -17.3924 -17.3324 -17.1675 -17.0876 -17.0738 -17.0593
   -17.0363 -17.0068 -16.9632 -16.9375 -16.9127 -16.9060 -16.8647 -16.8539
   -16.8461 -16.8334 -16.8320 -16.8215 -16.8169 -16.8128 -16.7941 -16.7811
   -16.7728 -16.7539 -16.7438 -16.7303 -16.7170 -16.7014 -16.6954 -16.6801
   -16.6657 -16.6553 -16.6541 -16.6497 -16.6386 -16.6277 -16.6171 -16.6091
   -16.6007 -16.5965 -16.5918 -16.5852 -16.5798 -16.5682 -16.5639 -16.5582
   -16.5480 -16.5422 -16.5359 -16.5278 -16.5217 -16.5153 -16.5069 -16.5047
   -16.4979 -16.4929 -16.4869 -16.4786 -16.4756 -16.4716 -16.4638 -16.4605
   -16.4430 -16.4381 -16.4342 -16.4201 -16.4100 -16.4061 -16.3904 -16.3871
   -16.3727 -16.3659 -16.3443 -16.3329 -16.3315 -16.3101 -16.2705 -16.2137
    -4.4009  -3.6608  -3.4823  -2.9942  -2.6499  -2.3655  -1.5603  -1.2951
    -0.4443   0.2984   0.9310   1.4753   1.8090   2.2801   2.4174   3.6474
     3.8114   3.9341   4.0456   4.4452   4.6373   4.8887   5.1555   5.2866
     5.5764   5.7313   5.8916   6.2779   6.4882   7.1150   7.2207   7.8898
     9.0658   9.2613   9.4946   9.8923   9.9527  10.0725  10.1652  10.4310
    10.5659  10.9201  11.2754  11.5609  11.7504  11.9737  12.3159  12.5481
    12.7053  12.7923  12.9315  13.1107  13.1858  13.3442

     occupation numbers 
     1.0000   1.0000   1.0000   1.0000   1.0000   1.0000   1.0000   1.0000
     1.0000   1.0000   1.0000   1.0000   1.0000   1.0000   1.0000   1.0000
     1.0000   1.0000   1.0000   1.0000   1.0000   1.0000   1.0000   1.0000
     1.0000   1.0000   1.0000   1.0000   1.0000   1.0000   1.0000   1.0000
     1.0000   1.0000   1.0000   1.0000   1.0000   1.0000   1.0000   1.0000
     1.0000   1.0000   1.0000   1.0000   1.0000   1.0000   1.0000   1.0000
     1.0000   1.0000   1.0000   1.0000   1.0000   1.0000   1.0000   1.0000
     1.0000   1.0000   1.0000   1.0000   1.0000   1.0000   1.0000   1.0000
     1.0000   1.0000   1.0000   1.0000   1.0000   1.0000   1.0000   1.0000
     1.0000   1.0000   1.0000   1.0000   1.0000   1.0000   1.0000   1.0000
     1.0000   1.0000   1.0000   1.0000   1.0000   1.0000   1.0000   1.0000
     1.0000   1.0000   1.0000   1.0000   1.0000   1.0000   1.0000   1.0000
     1.0000   1.0000   1.0000   1.0000   1.0000   1.0000   1.0000   1.0000
     1.0000   1.0000   1.0000   1.0000   1.0000   1.0000   1.0000   0.9861
     0.0000   0.0000   0.0000   0.0000   0.0000   0.0000   0.0000   0.0000
     0.0000   0.0000   0.0000   0.0000   0.0000   0.0000   0.0000   0.0000
     0.0000   0.0000   0.0000   0.0000   0.0000   0.0000

          k = 0.0000-0.3536 0.3536 (  8602 PWs)   bands (ev):

   -17.9000 -17.4079 -17.3923 -17.3325 -17.1675 -17.0874 -17.0736 -17.0598
   -17.0375 -17.0073 -16.9612 -16.9363 -16.9097 -16.9042 -16.8705 -16.8499
   -16.8470 -16.8404 -16.8290 -16.8220 -16.8204 -16.8128 -16.7938 -16.7812
   -16.7678 -16.7488 -16.7425 -16.7337 -16.7199 -16.7015 -16.6937 -16.6847
   -16.6645 -16.6577 -16.6507 -16.6498 -16.6306 -16.6257 -16.6202 -16.6102
   -16.6021 -16.5967 -16.5923 -16.5891 -16.5851 -16.5741 -16.5653 -16.5572
   -16.5448 -16.5391 -16.5331 -16.5264 -16.5218 -16.5162 -16.5090 -16.5059
   -16.4964 -16.4916 -16.4848 -16.4789 -16.4740 -16.4684 -16.4631 -16.4560
   -16.4462 -16.4375 -16.4321 -16.4203 -16.4064 -16.4030 -16.3951 -16.3882
   -16.3771 -16.3694 -16.3475 -16.3374 -16.3248 -16.3046 -16.2746 -16.2131
    -4.4720  -3.7218  -3.3259  -2.9662  -2.6242  -2.1666  -1.9404  -0.9866
    -0.5763   0.5863   0.7879   1.2363   1.4000   2.0083   2.4898   3.5373
     3.6695   4.2347   4.3873   4.5406   4.7175   4.8007   5.1323   5.4924
     5.7703   6.1096   6.3125   6.4533   6.5780   6.6936   6.9710   8.5414
     8.9947   9.2235   9.3743   9.6582   9.7422   9.9377  10.2065  10.4049
    10.5830  10.7353  10.8833  11.1687  11.4967  11.7787  11.8628  12.0238
    12.2593  12.6488  12.8283  12.9595  13.0716  13.2499

     occupation numbers 
     1.0000   1.0000   1.0000   1.0000   1.0000   1.0000   1.0000   1.0000
     1.0000   1.0000   1.0000   1.0000   1.0000   1.0000   1.0000   1.0000
     1.0000   1.0000   1.0000   1.0000   1.0000   1.0000   1.0000   1.0000
     1.0000   1.0000   1.0000   1.0000   1.0000   1.0000   1.0000   1.0000
     1.0000   1.0000   1.0000   1.0000   1.0000   1.0000   1.0000   1.0000
     1.0000   1.0000   1.0000   1.0000   1.0000   1.0000   1.0000   1.0000
     1.0000   1.0000   1.0000   1.0000   1.0000   1.0000   1.0000   1.0000
     1.0000   1.0000   1.0000   1.0000   1.0000   1.0000   1.0000   1.0000
     1.0000   1.0000   1.0000   1.0000   1.0000   1.0000   1.0000   1.0000
     1.0000   1.0000   1.0000   1.0000   1.0000   1.0000   1.0000   1.0000
     1.0000   1.0000   1.0000   1.0000   1.0000   1.0000   1.0000   1.0000
     1.0000   1.0000   1.0000   1.0000   1.0000   1.0000   1.0000   1.0000
     1.0000   1.0000   1.0000   1.0000   1.0000   1.0000   1.0000   1.0000
     1.0000   1.0000   1.0000   1.0000   1.0000   1.0000   1.0000   0.0103
     0.0000   0.0000   0.0000   0.0000   0.0000   0.0000   0.0000   0.0000
     0.0000   0.0000   0.0000   0.0000   0.0000   0.0000   0.0000   0.0000
     0.0000   0.0000   0.0000   0.0000   0.0000   0.0000

          k =-0.7071 0.0000 0.0000 (  8616 PWs)   bands (ev):

   -17.8999 -17.4075 -17.3925 -17.3321 -17.1675 -17.0988 -17.0747 -17.0610
   -17.0287 -16.9934 -16.9722 -16.9427 -16.9110 -16.9060 -16.8580 -16.8544
   -16.8419 -16.8374 -16.8318 -16.8237 -16.8156 -16.8134 -16.7966 -16.7810
   -16.7679 -16.7569 -16.7449 -16.7287 -16.7221 -16.7030 -16.6968 -16.6770
   -16.6657 -16.6571 -16.6499 -16.6461 -16.6399 -16.6284 -16.6137 -16.6088
   -16.6002 -16.5982 -16.5919 -16.5825 -16.5785 -16.5728 -16.5663 -16.5600
   -16.5481 -16.5397 -16.5322 -16.5259 -16.5257 -16.5179 -16.5065 -16.5052
   -16.5013 -16.4938 -16.4920 -16.4810 -16.4753 -16.4717 -16.4647 -16.4582
   -16.4455 -16.4361 -16.4328 -16.4151 -16.4133 -16.4081 -16.3898 -16.3824
   -16.3749 -16.3630 -16.3434 -16.3331 -16.3271 -16.3165 -16.2708 -16.2142
    -4.2641  -3.8357  -3.3154  -3.0651  -2.9075  -2.5365  -1.1538  -0.8406
    -0.6380  -0.3080   1.2924   1.4650   1.8725   2.2390   3.2995   3.3545
     3.9852   4.0687   4.1568   4.2095   4.3476   4.4021   4.5601   4.6804
     5.9593   5.9853   6.1380   6.4230   6.7883   7.0389   7.1601   7.3827
     8.4402   8.8775   9.2147   9.6971   9.9314  10.0348  10.6882  10.8246
    11.3985  11.6151  11.7491  11.9735  12.3091  12.4943  12.5571  12.6833
    12.7958  13.0514  13.0678  13.2115  13.2381  13.3542

     occupation numbers 
     1.0000   1.0000   1.0000   1.0000   1.0000   1.0000   1.0000   1.0000
     1.0000   1.0000   1.0000   1.0000   1.0000   1.0000   1.0000   1.0000
     1.0000   1.0000   1.0000   1.0000   1.0000   1.0000   1.0000   1.0000
     1.0000   1.0000   1.0000   1.0000   1.0000   1.0000   1.0000   1.0000
     1.0000   1.0000   1.0000   1.0000   1.0000   1.0000   1.0000   1.0000
     1.0000   1.0000   1.0000   1.0000   1.0000   1.0000   1.0000   1.0000
     1.0000   1.0000   1.0000   1.0000   1.0000   1.0000   1.0000   1.0000
     1.0000   1.0000   1.0000   1.0000   1.0000   1.0000   1.0000   1.0000
     1.0000   1.0000   1.0000   1.0000   1.0000   1.0000   1.0000   1.0000
     1.0000   1.0000   1.0000   1.0000   1.0000   1.0000   1.0000   1.0000
     1.0000   1.0000   1.0000   1.0000   1.0000   1.0000   1.0000   1.0000
     1.0000   1.0000   1.0000   1.0000   1.0000   1.0000   1.0000   1.0000
     1.0000   1.0000   1.0000   1.0000   1.0000   1.0000   1.0000   1.0000
     1.0000   1.0000   1.0000   1.0000   1.0000   1.0000   1.0000   1.0000
     0.0533   0.0000   0.0000   0.0000   0.0000   0.0000   0.0000   0.0000
     0.0000   0.0000   0.0000   0.0000   0.0000   0.0000   0.0000   0.0000
     0.0000   0.0000   0.0000   0.0000   0.0000   0.0000

          k =-0.7071 0.3536 0.0000 (  8652 PWs)   bands (ev):

   -17.8999 -17.4081 -17.3925 -17.3324 -17.1675 -17.0878 -17.0738 -17.0595
   -17.0363 -17.0067 -16.9633 -16.9370 -16.9099 -16.9036 -16.8695 -16.8536
   -16.8454 -16.8368 -16.8295 -16.8226 -16.8169 -16.8123 -16.7960 -16.7815
   -16.7730 -16.7547 -16.7435 -16.7313 -16.7193 -16.7042 -16.6954 -16.6822
   -16.6640 -16.6568 -16.6519 -16.6456 -16.6335 -16.6235 -16.6155 -16.6087
   -16.6003 -16.5951 -16.5910 -16.5881 -16.5788 -16.5699 -16.5662 -16.5631
   -16.5468 -16.5382 -16.5347 -16.5276 -16.5226 -16.5155 -16.5093 -16.5048
   -16.4994 -16.4943 -16.4860 -16.4801 -16.4746 -16.4713 -16.4650 -16.4588
   -16.4446 -16.4390 -16.4337 -16.4214 -16.4102 -16.4064 -16.3907 -16.3859
   -16.3747 -16.3626 -16.3448 -16.3330 -16.3317 -16.3095 -16.2705 -16.2138
    -4.2844  -3.7491  -3.4446  -3.2245  -2.7048  -2.1807  -1.6631  -1.0446
    -0.6847   0.3224   1.0227   1.2321   2.3645   2.4736   2.7675   3.4522
     3.8037   3.8817   3.9674   4.0273   4.6934   5.1330   5.1774   5.2545
     5.4738   5.5580   5.7063   6.0083   6.2097   6.6770   7.2591   7.3614
     9.3241   9.5227   9.8116  10.1245  10.2260  10.4024  10.5733  10.6921
    10.8214  11.1023  11.2687  11.4359  11.9980  12.2747  12.4640  12.5574
    12.6418  12.8236  12.9020  13.0339  13.1433  13.2223

     occupation numbers 
     1.0000   1.0000   1.0000   1.0000   1.0000   1.0000   1.0000   1.0000
     1.0000   1.0000   1.0000   1.0000   1.0000   1.0000   1.0000   1.0000
     1.0000   1.0000   1.0000   1.0000   1.0000   1.0000   1.0000   1.0000
     1.0000   1.0000   1.0000   1.0000   1.0000   1.0000   1.0000   1.0000
     1.0000   1.0000   1.0000   1.0000   1.0000   1.0000   1.0000   1.0000
     1.0000   1.0000   1.0000   1.0000   1.0000   1.0000   1.0000   1.0000
     1.0000   1.0000   1.0000   1.0000   1.0000   1.0000   1.0000   1.0000
     1.0000   1.0000   1.0000   1.0000   1.0000   1.0000   1.0000   1.0000
     1.0000   1.0000   1.0000   1.0000   1.0000   1.0000   1.0000   1.0000
     1.0000   1.0000   1.0000   1.0000   1.0000   1.0000   1.0000   1.0000
     1.0000   1.0000   1.0000   1.0000   1.0000   1.0000   1.0000   1.0000
     1.0000   1.0000   1.0000   1.0000   1.0000   1.0000   1.0000   1.0000
     1.0000   1.0000   1.0000   1.0000   1.0000   1.0000   1.0000   1.0000
     1.0000   1.0000   1.0000   1.0000   1.0000   1.0000   1.0000   1.0000
     0.0000   0.0000   0.0000   0.0000   0.0000   0.0000   0.0000   0.0000
     0.0000   0.0000   0.0000   0.0000   0.0000   0.0000   0.0000   0.0000
     0.0000   0.0000   0.0000   0.0000   0.0000   0.0000

          k =-0.1768-0.1768-0.1768 (  8627 PWs)   bands (ev):

   -17.9000 -17.4087 -17.3926 -17.3325 -17.1673 -17.0751 -17.0689 -17.0567
   -17.0446 -17.0180 -16.9609 -16.9320 -16.9110 -16.9061 -16.8705 -16.8447
   -16.8415 -16.8367 -16.8305 -16.8235 -16.8193 -16.8096 -16.7953 -16.7894
   -16.7859 -16.7581 -16.7449 -16.7325 -16.7202 -16.7005 -16.6922 -16.6790
   -16.6660 -16.6557 -16.6499 -16.6421 -16.6304 -16.6221 -16.6216 -16.6151
   -16.6048 -16.5981 -16.5903 -16.5869 -16.5844 -16.5813 -16.5649 -16.5622
   -16.5475 -16.5372 -16.5316 -16.5232 -16.5165 -16.5116 -16.5076 -16.5055
   -16.4995 -16.4949 -16.4862 -16.4793 -16.4733 -16.4706 -16.4622 -16.4509
   -16.4448 -16.4348 -16.4299 -16.4132 -16.4095 -16.4062 -16.3915 -16.3889
   -16.3802 -16.3746 -16.3444 -16.3313 -16.3207 -16.3115 -16.2800 -16.2133
    -4.7564  -3.5206  -3.0379  -2.8453  -2.6857  -1.9750  -1.3555  -1.1466
    -0.6609  -0.4162   0.4077   0.8440   0.9862   1.3998   2.0249   4.4465
     4.5605   4.6812   4.9240   4.9923   5.2067   5.5862   5.8937   5.9529
     6.1284   6.2622   6.4177   6.6111   6.6685   6.8579   7.7427   8.0324
     8.2118   8.4177   8.5271   8.7567   8.9538   9.2151   9.3864   9.5463
     9.9128  10.1569  10.3631  10.5004  10.7638  11.2463  11.4357  11.7187
    11.8333  12.3419  12.6995  13.1025  13.2914  13.4183

     occupation numbers 
     1.0000   1.0000   1.0000   1.0000   1.0000   1.0000   1.0000   1.0000
     1.0000   1.0000   1.0000   1.0000   1.0000   1.0000   1.0000   1.0000
     1.0000   1.0000   1.0000   1.0000   1.0000   1.0000   1.0000   1.0000
     1.0000   1.0000   1.0000   1.0000   1.0000   1.0000   1.0000   1.0000
     1.0000   1.0000   1.0000   1.0000   1.0000   1.0000   1.0000   1.0000
     1.0000   1.0000   1.0000   1.0000   1.0000   1.0000   1.0000   1.0000
     1.0000   1.0000   1.0000   1.0000   1.0000   1.0000   1.0000   1.0000
     1.0000   1.0000   1.0000   1.0000   1.0000   1.0000   1.0000   1.0000
     1.0000   1.0000   1.0000   1.0000   1.0000   1.0000   1.0000   1.0000
     1.0000   1.0000   1.0000   1.0000   1.0000   1.0000   1.0000   1.0000
     1.0000   1.0000   1.0000   1.0000   1.0000   1.0000   1.0000   1.0000
     1.0000   1.0000   1.0000   1.0000   1.0000   1.0000   1.0000   1.0000
     1.0000   1.0000   1.0000   1.0000   1.0000   1.0000   1.0000   1.0000
     1.0000   1.0000   1.0000   1.0000   1.0000   1.0000   0.9994   0.8873
     0.4876   0.0725   0.0133   0.0001   0.0000   0.0000   0.0000   0.0000
     0.0000   0.0000   0.0000   0.0000   0.0000   0.0000   0.0000   0.0000
     0.0000   0.0000   0.0000   0.0000   0.0000   0.0000

          k =-0.1768 0.1768 0.1768 (  8627 PWs)   bands (ev):

   -17.8999 -17.4081 -17.3923 -17.3322 -17.1672 -17.0878 -17.0739 -17.0586
   -17.0335 -17.0061 -16.9654 -16.9366 -16.9084 -16.9002 -16.8724 -16.8493
   -16.8422 -16.8383 -16.8268 -16.8218 -16.8194 -16.8143 -16.7981 -16.7854
   -16.7798 -16.7558 -16.7468 -16.7314 -16.7265 -16.7024 -16.6956 -16.6812
   -16.6649 -16.6571 -16.6500 -16.6387 -16.6348 -16.6222 -16.6163 -16.6103
   -16.6023 -16.5920 -16.5892 -16.5851 -16.5829 -16.5742 -16.5699 -16.5605
   -16.5446 -16.5414 -16.5327 -16.5249 -16.5221 -16.5129 -16.5081 -16.5046
   -16.5005 -16.4902 -16.4875 -16.4821 -16.4749 -16.4699 -16.4635 -16.4528
   -16.4439 -16.4407 -16.4315 -16.4143 -16.4102 -16.4045 -16.3924 -16.3844
   -16.3784 -16.3731 -16.3436 -16.3302 -16.3248 -16.3151 -16.2751 -16.2136
    -4.7309  -3.6504  -3.0460  -2.6793  -2.5482  -2.0955  -1.5987  -1.4473
    -0.2990   0.0735   0.3791   0.6884   1.0404   1.4124   1.7700   4.3320
     4.5153   4.6957   5.0858   5.1290   5.2187   5.4227   5.5460   5.6246
     5.9111   6.1758   6.4704   6.6614   6.8708   7.3938   7.7842   8.0718
     8.2112   8.5511   8.7699   8.9217   9.0629   9.2408   9.4561   9.6259
     9.7394   9.9921  10.1405  10.6640  11.0030  11.2261  11.3620  11.6455
    11.9095  12.2331  12.5362  12.9577  13.0758  13.4220

     occupation numbers 
     1.0000   1.0000   1.0000   1.0000   1.0000   1.0000   1.0000   1.0000
     1.0000   1.0000   1.0000   1.0000   1.0000   1.0000   1.0000   1.0000
     1.0000   1.0000   1.0000   1.0000   1.0000   1.0000   1.0000   1.0000
     1.0000   1.0000   1.0000   1.0000   1.0000   1.0000   1.0000   1.0000
     1.0000   1.0000   1.0000   1.0000   1.0000   1.0000   1.0000   1.0000
     1.0000   1.0000   1.0000   1.0000   1.0000   1.0000   1.0000   1.0000
     1.0000   1.0000   1.0000   1.0000   1.0000   1.0000   1.0000   1.0000
     1.0000   1.0000   1.0000   1.0000   1.0000   1.0000   1.0000   1.0000
     1.0000   1.0000   1.0000   1.0000   1.0000   1.0000   1.0000   1.0000
     1.0000   1.0000   1.0000   1.0000   1.0000   1.0000   1.0000   1.0000
     1.0000   1.0000   1.0000   1.0000   1.0000   1.0000   1.0000   1.0000
     1.0000   1.0000   1.0000   1.0000   1.0000   1.0000   1.0000   1.0000
     1.0000   1.0000   1.0000   1.0000   1.0000   1.0000   1.0000   1.0000
     1.0000   1.0000   1.0000   1.0000   1.0000   1.0000   0.9983   0.8263
     0.4893   0.0086   0.0000   0.0000   0.0000   0.0000   0.0000   0.0000
     0.0000   0.0000   0.0000   0.0000   0.0000   0.0000   0.0000   0.0000
     0.0000   0.0000   0.0000   0.0000   0.0000   0.0000

          k = 0.1768-0.1768 0.1768 (  8627 PWs)   bands (ev):

   -17.9000 -17.4080 -17.3924 -17.3323 -17.1673 -17.0875 -17.0738 -17.0593
   -17.0352 -17.0068 -16.9632 -16.9357 -16.9084 -16.9009 -16.8731 -16.8457
   -16.8437 -16.8376 -16.8311 -16.8270 -16.8206 -16.8129 -16.7955 -16.7844
   -16.7737 -16.7513 -16.7461 -16.7328 -16.7243 -16.7021 -16.6934 -16.6828
   -16.6638 -16.6578 -16.6483 -16.6450 -16.6277 -16.6259 -16.6194 -16.6106
   -16.6050 -16.5979 -16.5929 -16.5891 -16.5843 -16.5779 -16.5670 -16.5587
   -16.5447 -16.5380 -16.5305 -16.5244 -16.5188 -16.5146 -16.5096 -16.5063
   -16.4961 -16.4948 -16.4854 -16.4782 -16.4735 -16.4694 -16.4630 -16.4518
   -16.4456 -16.4347 -16.4321 -16.4120 -16.4101 -16.4023 -16.3945 -16.3885
   -16.3818 -16.3736 -16.3464 -16.3374 -16.3197 -16.3062 -16.2798 -16.2129
    -4.7186  -3.5604  -3.1316  -2.8963  -2.5401  -2.0050  -1.6189  -1.2511
    -0.3311   0.0533   0.3772   0.7603   1.0397   1.4135   1.8960   4.0255
     4.2298   4.5442   4.8509   5.1016   5.2150   5.3805   5.6403   5.8690
     6.0396   6.3696   6.6320   6.7849   6.8099   7.2024   7.7198   8.1921
     8.4938   8.6570   8.7422   8.8867   9.0429   9.2242   9.3561   9.5801
     9.9224  10.2016  10.2823  10.6612  10.8995  11.2565  11.4405  11.7410
    11.8969  12.1032  12.4292  12.7337  12.8980  13.2562

     occupation numbers 
     1.0000   1.0000   1.0000   1.0000   1.0000   1.0000   1.0000   1.0000
     1.0000   1.0000   1.0000   1.0000   1.0000   1.0000   1.0000   1.0000
     1.0000   1.0000   1.0000   1.0000   1.0000   1.0000   1.0000   1.0000
     1.0000   1.0000   1.0000   1.0000   1.0000   1.0000   1.0000   1.0000
     1.0000   1.0000   1.0000   1.0000   1.0000   1.0000   1.0000   1.0000
     1.0000   1.0000   1.0000   1.0000   1.0000   1.0000   1.0000   1.0000
     1.0000   1.0000   1.0000   1.0000   1.0000   1.0000   1.0000   1.0000
     1.0000   1.0000   1.0000   1.0000   1.0000   1.0000   1.0000   1.0000
     1.0000   1.0000   1.0000   1.0000   1.0000   1.0000   1.0000   1.0000
     1.0000   1.0000   1.0000   1.0000   1.0000   1.0000   1.0000   1.0000
     1.0000   1.0000   1.0000   1.0000   1.0000   1.0000   1.0000   1.0000
     1.0000   1.0000   1.0000   1.0000   1.0000   1.0000   1.0000   1.0000
     1.0000   1.0000   1.0000   1.0000   1.0000   1.0000   1.0000   1.0000
     1.0000   1.0000   1.0000   1.0000   1.0000   1.0000   0.9996   0.5422
     0.0236   0.0009   0.0001   0.0000   0.0000   0.0000   0.0000   0.0000
     0.0000   0.0000   0.0000   0.0000   0.0000   0.0000   0.0000   0.0000
     0.0000   0.0000   0.0000   0.0000   0.0000   0.0000

          k = 0.3536 0.3536 0.3536 (  8646 PWs)   bands (ev):

   -17.9001 -17.4088 -17.3926 -17.3327 -17.1674 -17.0753 -17.0689 -17.0570
   -17.0446 -17.0182 -16.9613 -16.9334 -16.9124 -16.9066 -16.8691 -16.8460
   -16.8376 -16.8367 -16.8305 -16.8244 -16.8204 -16.8080 -16.7935 -16.7886
   -16.7851 -16.7590 -16.7433 -16.7333 -16.7146 -16.7005 -16.6915 -16.6767
   -16.6667 -16.6554 -16.6502 -16.6436 -16.6344 -16.6209 -16.6188 -16.6128
   -16.6072 -16.5988 -16.5915 -16.5885 -16.5836 -16.5797 -16.5702 -16.5609
   -16.5482 -16.5354 -16.5311 -16.5278 -16.5149 -16.5111 -16.5081 -16.5062
   -16.5026 -16.4957 -16.4875 -16.4800 -16.4738 -16.4705 -16.4631 -16.4490
   -16.4420 -16.4312 -16.4297 -16.4180 -16.4115 -16.4063 -16.3912 -16.3858
   -16.3794 -16.3732 -16.3438 -16.3311 -16.3207 -16.3115 -16.2800 -16.2134
    -4.5446  -3.7930  -3.0883  -2.8890  -2.7029  -2.1553  -1.4347  -1.2796
    -0.5836  -0.3065   0.8589   1.0958   1.1446   1.7801   3.3230   3.8262
     4.1838   4.2925   4.4388   4.9004   4.9587   5.1794   5.2693   5.5278
     5.7178   5.9572   6.1518   6.2360   6.4669   6.7202   7.7990   7.9471
     8.4125   8.4861   8.6125   8.7951   8.9785   9.2374   9.7119  10.0900
    10.5003  10.6980  11.2490  11.4814  11.9479  12.3406  12.4637  12.5783
    12.7281  12.9770  13.2425  13.3016  13.4603  13.6454

     occupation numbers 
     1.0000   1.0000   1.0000   1.0000   1.0000   1.0000   1.0000   1.0000
     1.0000   1.0000   1.0000   1.0000   1.0000   1.0000   1.0000   1.0000
     1.0000   1.0000   1.0000   1.0000   1.0000   1.0000   1.0000   1.0000
     1.0000   1.0000   1.0000   1.0000   1.0000   1.0000   1.0000   1.0000
     1.0000   1.0000   1.0000   1.0000   1.0000   1.0000   1.0000   1.0000
     1.0000   1.0000   1.0000   1.0000   1.0000   1.0000   1.0000   1.0000
     1.0000   1.0000   1.0000   1.0000   1.0000   1.0000   1.0000   1.0000
     1.0000   1.0000   1.0000   1.0000   1.0000   1.0000   1.0000   1.0000
     1.0000   1.0000   1.0000   1.0000   1.0000   1.0000   1.0000   1.0000
     1.0000   1.0000   1.0000   1.0000   1.0000   1.0000   1.0000   1.0000
     1.0000   1.0000   1.0000   1.0000   1.0000   1.0000   1.0000   1.0000
     1.0000   1.0000   1.0000   1.0000   1.0000   1.0000   1.0000   1.0000
     1.0000   1.0000   1.0000   1.0000   1.0000   1.0000   1.0000   1.0000
     1.0000   1.0000   1.0000   1.0000   1.0000   1.0000   0.9977   0.9643
     0.0776   0.0267   0.0025   0.0000   0.0000   0.0000   0.0000   0.0000
     0.0000   0.0000   0.0000   0.0000   0.0000   0.0000   0.0000   0.0000
     0.0000   0.0000   0.0000   0.0000   0.0000   0.0000

          k = 0.3536-0.3536-0.3536 (  8646 PWs)   bands (ev):

   -17.9000 -17.4074 -17.3922 -17.3320 -17.1674 -17.0988 -17.0745 -17.0605
   -17.0281 -16.9930 -16.9723 -16.9421 -16.9070 -16.8967 -16.8727 -16.8535
   -16.8391 -16.8366 -16.8318 -16.8239 -16.8153 -16.8149 -16.7993 -16.7820
   -16.7694 -16.7567 -16.7470 -16.7310 -16.7284 -16.7055 -16.6972 -16.6824
   -16.6656 -16.6567 -16.6508 -16.6378 -16.6310 -16.6180 -16.6167 -16.6074
   -16.6010 -16.5926 -16.5844 -16.5825 -16.5778 -16.5776 -16.5665 -16.5630
   -16.5443 -16.5435 -16.5332 -16.5292 -16.5258 -16.5182 -16.5098 -16.5027
   -16.5005 -16.4906 -16.4884 -16.4847 -16.4773 -16.4674 -16.4644 -16.4595
   -16.4429 -16.4375 -16.4340 -16.4147 -16.4107 -16.4084 -16.3900 -16.3821
   -16.3769 -16.3670 -16.3419 -16.3333 -16.3270 -16.3164 -16.2709 -16.2142
    -4.3634  -4.1510  -2.9692  -2.6112  -2.5771  -2.2762  -1.8491  -1.7413
     0.0773   0.4297   0.7976   0.9912   1.1688   1.3513   3.2558   3.4781
     4.2406   4.3986   4.4324   4.6635   4.7603   4.8922   5.4546   5.4998
     5.6793   5.7201   5.8628   6.2910   6.9905   7.2881   7.7848   8.1343
     8.3928   8.5011   8.5968   8.8807   9.2824   9.4255   9.6383   9.9554
    11.0057  11.1715  11.4746  11.7220  11.8464  11.9830  12.0834  12.3086
    12.5936  12.8337  13.1357  13.3646  13.5599  13.5978

     occupation numbers 
     1.0000   1.0000   1.0000   1.0000   1.0000   1.0000   1.0000   1.0000
     1.0000   1.0000   1.0000   1.0000   1.0000   1.0000   1.0000   1.0000
     1.0000   1.0000   1.0000   1.0000   1.0000   1.0000   1.0000   1.0000
     1.0000   1.0000   1.0000   1.0000   1.0000   1.0000   1.0000   1.0000
     1.0000   1.0000   1.0000   1.0000   1.0000   1.0000   1.0000   1.0000
     1.0000   1.0000   1.0000   1.0000   1.0000   1.0000   1.0000   1.0000
     1.0000   1.0000   1.0000   1.0000   1.0000   1.0000   1.0000   1.0000
     1.0000   1.0000   1.0000   1.0000   1.0000   1.0000   1.0000   1.0000
     1.0000   1.0000   1.0000   1.0000   1.0000   1.0000   1.0000   1.0000
     1.0000   1.0000   1.0000   1.0000   1.0000   1.0000   1.0000   1.0000
     1.0000   1.0000   1.0000   1.0000   1.0000   1.0000   1.0000   1.0000
     1.0000   1.0000   1.0000   1.0000   1.0000   1.0000   1.0000   1.0000
     1.0000   1.0000   1.0000   1.0000   1.0000   1.0000   1.0000   1.0000
     1.0000   1.0000   1.0000   1.0000   1.0000   1.0000   0.9983   0.6937
     0.0994   0.0209   0.0035   0.0000   0.0000   0.0000   0.0000   0.0000
     0.0000   0.0000   0.0000   0.0000   0.0000   0.0000   0.0000   0.0000
     0.0000   0.0000   0.0000   0.0000   0.0000   0.0000

          k =-0.3536 0.3536-0.3536 (  8646 PWs)   bands (ev):

   -17.8996 -17.4074 -17.3924 -17.3322 -17.1675 -17.0984 -17.0742 -17.0618
   -17.0323 -16.9941 -16.9680 -16.9396 -16.9070 -16.8981 -16.8742 -16.8475
   -16.8428 -16.8408 -16.8324 -16.8276 -16.8226 -16.8129 -16.7953 -16.7793
   -16.7568 -16.7478 -16.7445 -16.7343 -16.7250 -16.7046 -16.6972 -16.6832
   -16.6679 -16.6531 -16.6477 -16.6439 -16.6286 -16.6228 -16.6158 -16.6122
   -16.6053 -16.5992 -16.5967 -16.5919 -16.5852 -16.5790 -16.5656 -16.5579
   -16.5414 -16.5366 -16.5319 -16.5288 -16.5194 -16.5169 -16.5114 -16.5062
   -16.4962 -16.4951 -16.4850 -16.4799 -16.4755 -16.4680 -16.4631 -16.4529
   -16.4431 -16.4340 -16.4319 -16.4148 -16.4070 -16.4011 -16.3994 -16.3881
   -16.3783 -16.3718 -16.3492 -16.3398 -16.3198 -16.3020 -16.2796 -16.2127
    -4.2949  -4.1246  -3.1757  -2.8499  -2.5898  -2.0061  -1.9723  -1.4613
    -0.0755   0.5223   0.7938   1.0453   1.3428   1.8520   2.9712   3.0035
     3.6580   4.0032   4.2860   4.6828   4.7112   5.1390   5.5416   5.6591
     5.7736   5.8662   6.1766   6.4064   6.8426   7.2496   7.3943   8.2158
     8.5046   8.6812   9.0383   9.1482   9.3838   9.4271   9.9041  10.2413
    10.9504  11.3638  11.6217  11.6823  11.8551  11.9921  12.1531  12.3340
    12.4144  12.5282  12.7235  12.8751  13.1242  13.3480

     occupation numbers 
     1.0000   1.0000   1.0000   1.0000   1.0000   1.0000   1.0000   1.0000
     1.0000   1.0000   1.0000   1.0000   1.0000   1.0000   1.0000   1.0000
     1.0000   1.0000   1.0000   1.0000   1.0000   1.0000   1.0000   1.0000
     1.0000   1.0000   1.0000   1.0000   1.0000   1.0000   1.0000   1.0000
     1.0000   1.0000   1.0000   1.0000   1.0000   1.0000   1.0000   1.0000
     1.0000   1.0000   1.0000   1.0000   1.0000   1.0000   1.0000   1.0000
     1.0000   1.0000   1.0000   1.0000   1.0000   1.0000   1.0000   1.0000
     1.0000   1.0000   1.0000   1.0000   1.0000   1.0000   1.0000   1.0000
     1.0000   1.0000   1.0000   1.0000   1.0000   1.0000   1.0000   1.0000
     1.0000   1.0000   1.0000   1.0000   1.0000   1.0000   1.0000   1.0000
     1.0000   1.0000   1.0000   1.0000   1.0000   1.0000   1.0000   1.0000
     1.0000   1.0000   1.0000   1.0000   1.0000   1.0000   1.0000   1.0000
     1.0000   1.0000   1.0000   1.0000   1.0000   1.0000   1.0000   1.0000
     1.0000   1.0000   1.0000   1.0000   1.0000   1.0000   1.0000   0.4767
     0.0197   0.0005   0.0000   0.0000   0.0000   0.0000   0.0000   0.0000
     0.0000   0.0000   0.0000   0.0000   0.0000   0.0000   0.0000   0.0000
     0.0000   0.0000   0.0000   0.0000   0.0000   0.0000

          k = 0.0000 0.3536 0.0000 (  8620 PWs)   bands (ev):

   -17.8999 -17.4081 -17.3923 -17.3323 -17.1674 -17.0875 -17.0738 -17.0592
   -17.0351 -17.0069 -16.9637 -16.9373 -16.9092 -16.9041 -16.8693 -16.8455
   -16.8432 -16.8373 -16.8308 -16.8263 -16.8220 -16.8127 -16.7935 -16.7844
   -16.7731 -16.7507 -16.7450 -16.7339 -16.7222 -16.7006 -16.6942 -16.6815
   -16.6637 -16.6602 -16.6483 -16.6438 -16.6301 -16.6259 -16.6215 -16.6110
   -16.6025 -16.5977 -16.5916 -16.5877 -16.5842 -16.5796 -16.5679 -16.5624
   -16.5429 -16.5392 -16.5332 -16.5255 -16.5193 -16.5137 -16.5095 -16.5067
   -16.4980 -16.4936 -16.4854 -16.4807 -16.4745 -16.4681 -16.4614 -16.4479
   -16.4441 -16.4393 -16.4293 -16.4125 -16.4079 -16.3974 -16.3962 -16.3908
   -16.3839 -16.3738 -16.3455 -16.3370 -16.3199 -16.3066 -16.2798 -16.2130
    -4.6748  -3.5368  -3.0704  -2.9276  -2.7971  -2.1941  -1.4936  -0.9191
    -0.5135  -0.0570   0.4014   0.9639   1.1989   1.4764   2.0848   4.1431
     4.3058   4.4506   4.6755   4.8949   5.1234   5.3072   5.4812   5.7467
     5.7875   5.9283   6.5825   6.7845   6.8761   7.2781   7.4415   7.6829
     8.4617   8.7164   8.9520   9.3150   9.3645   9.4916   9.6175   9.8079
    10.0624  10.3311  10.4429  10.5175  11.1995  11.5236  11.6559  11.8208
    11.8994  12.2079  12.5126  12.6977  12.8765  13.3185

     occupation numbers 
     1.0000   1.0000   1.0000   1.0000   1.0000   1.0000   1.0000   1.0000
     1.0000   1.0000   1.0000   1.0000   1.0000   1.0000   1.0000   1.0000
     1.0000   1.0000   1.0000   1.0000   1.0000   1.0000   1.0000   1.0000
     1.0000   1.0000   1.0000   1.0000   1.0000   1.0000   1.0000   1.0000
     1.0000   1.0000   1.0000   1.0000   1.0000   1.0000   1.0000   1.0000
     1.0000   1.0000   1.0000   1.0000   1.0000   1.0000   1.0000   1.0000
     1.0000   1.0000   1.0000   1.0000   1.0000   1.0000   1.0000   1.0000
     1.0000   1.0000   1.0000   1.0000   1.0000   1.0000   1.0000   1.0000
     1.0000   1.0000   1.0000   1.0000   1.0000   1.0000   1.0000   1.0000
     1.0000   1.0000   1.0000   1.0000   1.0000   1.0000   1.0000   1.0000
     1.0000   1.0000   1.0000   1.0000   1.0000   1.0000   1.0000   1.0000
     1.0000   1.0000   1.0000   1.0000   1.0000   1.0000   1.0000   1.0000
     1.0000   1.0000   1.0000   1.0000   1.0000   1.0000   1.0000   1.0000
     1.0000   1.0000   1.0000   1.0000   1.0000   1.0000   1.0000   0.9999
     0.0390   0.0002   0.0000   0.0000   0.0000   0.0000   0.0000   0.0000
     0.0000   0.0000   0.0000   0.0000   0.0000   0.0000   0.0000   0.0000
     0.0000   0.0000   0.0000   0.0000   0.0000   0.0000

          k = 0.0000 0.0000 0.3536 (  8620 PWs)   bands (ev):

   -17.9001 -17.4087 -17.3925 -17.3326 -17.1673 -17.0746 -17.0692 -17.0566
   -17.0462 -17.0193 -16.9584 -16.9306 -16.9091 -16.9048 -16.8736 -16.8496
   -16.8478 -16.8370 -16.8266 -16.8223 -16.8189 -16.8099 -16.7988 -16.7884
   -16.7776 -16.7551 -16.7460 -16.7328 -16.7234 -16.6998 -16.6935 -16.6827
   -16.6657 -16.6568 -16.6518 -16.6427 -16.6281 -16.6251 -16.6178 -16.6096
   -16.6021 -16.5940 -16.5916 -16.5874 -16.5835 -16.5742 -16.5673 -16.5601
   -16.5479 -16.5387 -16.5315 -16.5257 -16.5193 -16.5122 -16.5080 -16.5056
   -16.4990 -16.4914 -16.4841 -16.4790 -16.4739 -16.4701 -16.4633 -16.4543
   -16.4465 -16.4397 -16.4336 -16.4197 -16.4087 -16.4039 -16.3923 -16.3876
   -16.3791 -16.3694 -16.3461 -16.3338 -16.3247 -16.3089 -16.2749 -16.2134
    -4.6940  -3.4706  -3.1384  -2.9294  -2.6805  -2.1919  -1.5416  -1.0899
    -0.5720  -0.1948   0.6942   1.1202   1.3825   1.4274   1.7951   4.3366
     4.4576   4.5599   4.7420   4.8912   4.9754   5.2508   5.4472   5.5517
     5.6173   5.9222   6.4746   6.7672   6.9303   7.1237   7.5264   7.9069
     8.1954   8.7682   9.0567   9.1650   9.3632   9.5950   9.7480   9.8832
    10.1670  10.2208  10.4854  10.6937  11.1243  11.4014  11.5054  11.7819
    11.9238  12.2860  12.5705  12.7908  12.9785  13.1860

     occupation numbers 
     1.0000   1.0000   1.0000   1.0000   1.0000   1.0000   1.0000   1.0000
     1.0000   1.0000   1.0000   1.0000   1.0000   1.0000   1.0000   1.0000
     1.0000   1.0000   1.0000   1.0000   1.0000   1.0000   1.0000   1.0000
     1.0000   1.0000   1.0000   1.0000   1.0000   1.0000   1.0000   1.0000
     1.0000   1.0000   1.0000   1.0000   1.0000   1.0000   1.0000   1.0000
     1.0000   1.0000   1.0000   1.0000   1.0000   1.0000   1.0000   1.0000
     1.0000   1.0000   1.0000   1.0000   1.0000   1.0000   1.0000   1.0000
     1.0000   1.0000   1.0000   1.0000   1.0000   1.0000   1.0000   1.0000
     1.0000   1.0000   1.0000   1.0000   1.0000   1.0000   1.0000   1.0000
     1.0000   1.0000   1.0000   1.0000   1.0000   1.0000   1.0000   1.0000
     1.0000   1.0000   1.0000   1.0000   1.0000   1.0000   1.0000   1.0000
     1.0000   1.0000   1.0000   1.0000   1.0000   1.0000   1.0000   1.0000
     1.0000   1.0000   1.0000   1.0000   1.0000   1.0000   1.0000   1.0000
     1.0000   1.0000   1.0000   1.0000   1.0000   1.0000   1.0000   0.9813
     0.5330   0.0001   0.0000   0.0000   0.0000   0.0000   0.0000   0.0000
     0.0000   0.0000   0.0000   0.0000   0.0000   0.0000   0.0000   0.0000
     0.0000   0.0000   0.0000   0.0000   0.0000   0.0000

          k = 0.1768 0.5303 0.5303 (  8605 PWs)   bands (ev):

   -17.9000 -17.4081 -17.3926 -17.3323 -17.1674 -17.0877 -17.0741 -17.0592
   -17.0339 -17.0062 -16.9658 -16.9380 -16.9122 -16.9059 -16.8635 -16.8507
   -16.8410 -16.8371 -16.8284 -16.8226 -16.8200 -16.8118 -16.7947 -16.7841
   -16.7781 -16.7567 -16.7440 -16.7317 -16.7174 -16.7011 -16.6949 -16.6767
   -16.6656 -16.6570 -16.6505 -16.6416 -16.6378 -16.6284 -16.6183 -16.6074
   -16.6035 -16.5962 -16.5926 -16.5847 -16.5810 -16.5797 -16.5646 -16.5626
   -16.5468 -16.5372 -16.5337 -16.5281 -16.5178 -16.5148 -16.5091 -16.5040
   -16.5013 -16.4954 -16.4888 -16.4821 -16.4740 -16.4694 -16.4657 -16.4534
   -16.4417 -16.4364 -16.4304 -16.4171 -16.4125 -16.4066 -16.3909 -16.3830
   -16.3773 -16.3683 -16.3438 -16.3299 -16.3248 -16.3149 -16.2750 -16.2137
    -4.4480  -3.6388  -3.4179  -2.9749  -2.8028  -2.2707  -1.2399  -1.1406
    -0.5562  -0.3336   0.9259   1.2459   1.6087   2.1000   3.0289   3.7895
     3.9622   4.1193   4.3346   4.5842   4.7582   4.8791   5.1529   5.2957
     5.5758   5.7343   6.2533   6.3982   6.5316   6.7331   6.8338   7.6125
     8.5040   9.0991   9.3269   9.4626   9.7084   9.9395  10.3497  10.6221
    10.7117  10.9686  11.1356  11.3513  11.4968  12.0730  12.2746  12.4534
    12.7612  12.9112  13.0298  13.0775  13.4501  13.5752

     occupation numbers 
     1.0000   1.0000   1.0000   1.0000   1.0000   1.0000   1.0000   1.0000
     1.0000   1.0000   1.0000   1.0000   1.0000   1.0000   1.0000   1.0000
     1.0000   1.0000   1.0000   1.0000   1.0000   1.0000   1.0000   1.0000
     1.0000   1.0000   1.0000   1.0000   1.0000   1.0000   1.0000   1.0000
     1.0000   1.0000   1.0000   1.0000   1.0000   1.0000   1.0000   1.0000
     1.0000   1.0000   1.0000   1.0000   1.0000   1.0000   1.0000   1.0000
     1.0000   1.0000   1.0000   1.0000   1.0000   1.0000   1.0000   1.0000
     1.0000   1.0000   1.0000   1.0000   1.0000   1.0000   1.0000   1.0000
     1.0000   1.0000   1.0000   1.0000   1.0000   1.0000   1.0000   1.0000
     1.0000   1.0000   1.0000   1.0000   1.0000   1.0000   1.0000   1.0000
     1.0000   1.0000   1.0000   1.0000   1.0000   1.0000   1.0000   1.0000
     1.0000   1.0000   1.0000   1.0000   1.0000   1.0000   1.0000   1.0000
     1.0000   1.0000   1.0000   1.0000   1.0000   1.0000   1.0000   1.0000
     1.0000   1.0000   1.0000   1.0000   1.0000   1.0000   1.0000   1.0000
     0.0199   0.0000   0.0000   0.0000   0.0000   0.0000   0.0000   0.0000
     0.0000   0.0000   0.0000   0.0000   0.0000   0.0000   0.0000   0.0000
     0.0000   0.0000   0.0000   0.0000   0.0000   0.0000

          k = 0.1768-0.5303-0.5303 (  8605 PWs)   bands (ev):

   -17.8999 -17.4074 -17.3923 -17.3320 -17.1674 -17.0988 -17.0745 -17.0607
   -17.0283 -16.9932 -16.9722 -16.9424 -16.9091 -16.9020 -16.8651 -16.8538
   -16.8405 -16.8365 -16.8317 -16.8238 -16.8154 -16.8140 -16.7979 -16.7815
   -16.7687 -16.7568 -16.7460 -16.7304 -16.7245 -16.7050 -16.6969 -16.6801
   -16.6661 -16.6566 -16.6502 -16.6418 -16.6331 -16.6251 -16.6157 -16.6071
   -16.6003 -16.5942 -16.5915 -16.5828 -16.5785 -16.5726 -16.5660 -16.5618
   -16.5462 -16.5393 -16.5353 -16.5286 -16.5242 -16.5179 -16.5086 -16.5036
   -16.5007 -16.4943 -16.4886 -16.4821 -16.4766 -16.4700 -16.4640 -16.4585
   -16.4441 -16.4379 -16.4327 -16.4149 -16.4118 -16.4082 -16.3898 -16.3830
   -16.3751 -16.3649 -16.3426 -16.3332 -16.3271 -16.3164 -16.2708 -16.2142
    -4.3432  -3.9709  -3.1314  -2.9666  -2.7738  -2.2766  -1.5363  -1.3964
    -0.1755   0.0763   0.9336   1.2778   1.3568   2.1068   2.9383   3.5741
     3.9837   4.1449   4.3016   4.5394   4.6692   4.9036   5.0410   5.3030
     5.5134   5.9541   6.0511   6.4021   6.6150   6.8938   7.2099   7.3164
     8.5608   8.9414   9.3920   9.6271   9.9529  10.0749  10.4470  10.5468
    10.8280  11.0079  11.3262  11.6144  11.6748  11.8899  12.0627  12.3716
    12.6414  12.8767  12.9476  13.0741  13.3017  13.5391

     occupation numbers 
     1.0000   1.0000   1.0000   1.0000   1.0000   1.0000   1.0000   1.0000
     1.0000   1.0000   1.0000   1.0000   1.0000   1.0000   1.0000   1.0000
     1.0000   1.0000   1.0000   1.0000   1.0000   1.0000   1.0000   1.0000
     1.0000   1.0000   1.0000   1.0000   1.0000   1.0000   1.0000   1.0000
     1.0000   1.0000   1.0000   1.0000   1.0000   1.0000   1.0000   1.0000
     1.0000   1.0000   1.0000   1.0000   1.0000   1.0000   1.0000   1.0000
     1.0000   1.0000   1.0000   1.0000   1.0000   1.0000   1.0000   1.0000
     1.0000   1.0000   1.0000   1.0000   1.0000   1.0000   1.0000   1.0000
     1.0000   1.0000   1.0000   1.0000   1.0000   1.0000   1.0000   1.0000
     1.0000   1.0000   1.0000   1.0000   1.0000   1.0000   1.0000   1.0000
     1.0000   1.0000   1.0000   1.0000   1.0000   1.0000   1.0000   1.0000
     1.0000   1.0000   1.0000   1.0000   1.0000   1.0000   1.0000   1.0000
     1.0000   1.0000   1.0000   1.0000   1.0000   1.0000   1.0000   1.0000
     1.0000   1.0000   1.0000   1.0000   1.0000   1.0000   1.0000   1.0000
     0.0072   0.0000   0.0000   0.0000   0.0000   0.0000   0.0000   0.0000
     0.0000   0.0000   0.0000   0.0000   0.0000   0.0000   0.0000   0.0000
     0.0000   0.0000   0.0000   0.0000   0.0000   0.0000

          k =-0.1768 0.5303-0.5303 (  8605 PWs)   bands (ev):

   -17.8998 -17.4073 -17.3924 -17.3321 -17.1674 -17.0986 -17.0744 -17.0613
   -17.0306 -16.9937 -16.9698 -16.9412 -16.9091 -16.9025 -16.8661 -16.8506
   -16.8429 -16.8378 -16.8334 -16.8234 -16.8207 -16.8133 -16.7950 -16.7801
   -16.7626 -16.7534 -16.7444 -16.7305 -16.7233 -16.7053 -16.6967 -16.6801
   -16.6656 -16.6549 -16.6497 -16.6443 -16.6337 -16.6278 -16.6165 -16.6084
   -16.6009 -16.5981 -16.5924 -16.5906 -16.5860 -16.5738 -16.5636 -16.5584
   -16.5437 -16.5399 -16.5311 -16.5275 -16.5231 -16.5179 -16.5097 -16.5050
   -16.4991 -16.4948 -16.4871 -16.4815 -16.4744 -16.4697 -16.4643 -16.4543
   -16.4449 -16.4373 -16.4300 -16.4166 -16.4101 -16.4059 -16.3919 -16.3852
   -16.3770 -16.3678 -16.3452 -16.3365 -16.3254 -16.3080 -16.2748 -16.2132
    -4.3223  -3.9013  -3.3045  -3.0634  -2.6642  -2.3348  -1.5756  -0.9575
    -0.5970   0.2358   0.7418   1.4847   1.7090   2.3572   2.5056   3.2962
     3.8371   3.9279   4.2824   4.4198   4.7982   4.9839   5.2278   5.2982
     5.6713   5.8445   5.9808   6.2863   6.5710   6.6743   7.0610   7.9621
     9.0760   9.2724   9.5632   9.7629   9.8654  10.0262  10.3601  10.4443
    10.8100  10.9475  11.2196  11.2936  11.4326  11.8586  12.1773  12.4246
    12.5735  12.7401  12.8268  13.0555  13.2116  13.4825

     occupation numbers 
     1.0000   1.0000   1.0000   1.0000   1.0000   1.0000   1.0000   1.0000
     1.0000   1.0000   1.0000   1.0000   1.0000   1.0000   1.0000   1.0000
     1.0000   1.0000   1.0000   1.0000   1.0000   1.0000   1.0000   1.0000
     1.0000   1.0000   1.0000   1.0000   1.0000   1.0000   1.0000   1.0000
     1.0000   1.0000   1.0000   1.0000   1.0000   1.0000   1.0000   1.0000
     1.0000   1.0000   1.0000   1.0000   1.0000   1.0000   1.0000   1.0000
     1.0000   1.0000   1.0000   1.0000   1.0000   1.0000   1.0000   1.0000
     1.0000   1.0000   1.0000   1.0000   1.0000   1.0000   1.0000   1.0000
     1.0000   1.0000   1.0000   1.0000   1.0000   1.0000   1.0000   1.0000
     1.0000   1.0000   1.0000   1.0000   1.0000   1.0000   1.0000   1.0000
     1.0000   1.0000   1.0000   1.0000   1.0000   1.0000   1.0000   1.0000
     1.0000   1.0000   1.0000   1.0000   1.0000   1.0000   1.0000   1.0000
     1.0000   1.0000   1.0000   1.0000   1.0000   1.0000   1.0000   1.0000
     1.0000   1.0000   1.0000   1.0000   1.0000   1.0000   1.0000   0.9554
     0.0000   0.0000   0.0000   0.0000   0.0000   0.0000   0.0000   0.0000
     0.0000   0.0000   0.0000   0.0000   0.0000   0.0000   0.0000   0.0000
     0.0000   0.0000   0.0000   0.0000   0.0000   0.0000

          k =-0.5303-0.1768-0.5303 (  8605 PWs)   bands (ev):

   -17.8999 -17.4080 -17.3924 -17.3324 -17.1675 -17.0876 -17.0739 -17.0595
   -17.0354 -17.0071 -16.9640 -16.9380 -16.9110 -16.9060 -16.8653 -16.8475
   -16.8414 -16.8352 -16.8307 -16.8291 -16.8228 -16.8107 -16.7917 -16.7841
   -16.7720 -16.7517 -16.7427 -16.7353 -16.7174 -16.7011 -16.6933 -16.6783
   -16.6639 -16.6605 -16.6500 -16.6421 -16.6354 -16.6228 -16.6187 -16.6124
   -16.6016 -16.5998 -16.5928 -16.5915 -16.5839 -16.5800 -16.5687 -16.5602
   -16.5440 -16.5377 -16.5335 -16.5316 -16.5185 -16.5123 -16.5101 -16.5050
   -16.5023 -16.4950 -16.4856 -16.4830 -16.4745 -16.4677 -16.4615 -16.4472
   -16.4420 -16.4374 -16.4284 -16.4149 -16.4069 -16.4037 -16.3941 -16.3894
   -16.3803 -16.3727 -16.3451 -16.3366 -16.3201 -16.3065 -16.2797 -16.2130
    -4.4360  -3.6453  -3.4284  -2.9906  -2.8653  -2.0121  -1.6855  -0.9757
    -0.5584   0.1105   0.5085   1.3807   1.4422   2.3356   2.8555   3.6732
     3.9632   4.1008   4.4337   4.5066   4.7182   5.0119   5.2466   5.3205
     5.6772   5.8505   6.0884   6.2859   6.3974   6.6319   7.0046   7.5345
     8.8910   9.0387   9.3776   9.6207   9.7509   9.9317  10.1525  10.5380
    10.7203  10.8044  11.2530  11.2923  11.4701  12.0762  12.2489  12.4005
    12.6871  12.9463  13.0389  13.1998  13.4084  13.6189

     occupation numbers 
     1.0000   1.0000   1.0000   1.0000   1.0000   1.0000   1.0000   1.0000
     1.0000   1.0000   1.0000   1.0000   1.0000   1.0000   1.0000   1.0000
     1.0000   1.0000   1.0000   1.0000   1.0000   1.0000   1.0000   1.0000
     1.0000   1.0000   1.0000   1.0000   1.0000   1.0000   1.0000   1.0000
     1.0000   1.0000   1.0000   1.0000   1.0000   1.0000   1.0000   1.0000
     1.0000   1.0000   1.0000   1.0000   1.0000   1.0000   1.0000   1.0000
     1.0000   1.0000   1.0000   1.0000   1.0000   1.0000   1.0000   1.0000
     1.0000   1.0000   1.0000   1.0000   1.0000   1.0000   1.0000   1.0000
     1.0000   1.0000   1.0000   1.0000   1.0000   1.0000   1.0000   1.0000
     1.0000   1.0000   1.0000   1.0000   1.0000   1.0000   1.0000   1.0000
     1.0000   1.0000   1.0000   1.0000   1.0000   1.0000   1.0000   1.0000
     1.0000   1.0000   1.0000   1.0000   1.0000   1.0000   1.0000   1.0000
     1.0000   1.0000   1.0000   1.0000   1.0000   1.0000   1.0000   1.0000
     1.0000   1.0000   1.0000   1.0000   1.0000   1.0000   1.0000   1.0000
     0.0000   0.0000   0.0000   0.0000   0.0000   0.0000   0.0000   0.0000
     0.0000   0.0000   0.0000   0.0000   0.0000   0.0000   0.0000   0.0000
     0.0000   0.0000   0.0000   0.0000   0.0000   0.0000

          k = 0.5303 0.1768-0.5303 (  8605 PWs)   bands (ev):

   -17.9000 -17.4080 -17.3923 -17.3325 -17.1676 -17.0875 -17.0736 -17.0598
   -17.0375 -17.0076 -16.9617 -16.9375 -16.9114 -16.9060 -16.8667 -16.8503
   -16.8475 -16.8368 -16.8317 -16.8231 -16.8200 -16.8120 -16.7920 -16.7811
   -16.7670 -16.7483 -16.7421 -16.7350 -16.7166 -16.7025 -16.6930 -16.6824
   -16.6642 -16.6586 -16.6527 -16.6476 -16.6357 -16.6273 -16.6184 -16.6115
   -16.6025 -16.5968 -16.5917 -16.5884 -16.5811 -16.5773 -16.5655 -16.5562
   -16.5458 -16.5418 -16.5341 -16.5290 -16.5232 -16.5145 -16.5092 -16.5057
   -16.4994 -16.4904 -16.4841 -16.4820 -16.4748 -16.4672 -16.4621 -16.4533
   -16.4426 -16.4397 -16.4312 -16.4188 -16.4067 -16.4025 -16.3957 -16.3885
   -16.3765 -16.3711 -16.3471 -16.3369 -16.3248 -16.3052 -16.2745 -16.2130
    -4.3805  -3.7222  -3.4721  -2.8933  -2.8028  -2.1342  -1.7804  -1.4143
     0.0172   0.3514   0.8855   1.0709   1.5966   2.4467   2.7592   3.4942
     3.7568   3.9652   4.0898   4.3236   4.4687   4.7387   5.1006   5.2577
     5.8865   6.0591   6.1611   6.3770   6.4216   6.8685   7.1648   7.5846
     9.0121   9.3858   9.4825   9.7095   9.9967  10.1033  10.3046  10.4011
    10.8693  11.0707  11.4449  11.6407  11.7597  11.9803  12.3138  12.4167
    12.5157  12.6192  12.9022  12.9798  13.0523  13.2564

     occupation numbers 
     1.0000   1.0000   1.0000   1.0000   1.0000   1.0000   1.0000   1.0000
     1.0000   1.0000   1.0000   1.0000   1.0000   1.0000   1.0000   1.0000
     1.0000   1.0000   1.0000   1.0000   1.0000   1.0000   1.0000   1.0000
     1.0000   1.0000   1.0000   1.0000   1.0000   1.0000   1.0000   1.0000
     1.0000   1.0000   1.0000   1.0000   1.0000   1.0000   1.0000   1.0000
     1.0000   1.0000   1.0000   1.0000   1.0000   1.0000   1.0000   1.0000
     1.0000   1.0000   1.0000   1.0000   1.0000   1.0000   1.0000   1.0000
     1.0000   1.0000   1.0000   1.0000   1.0000   1.0000   1.0000   1.0000
     1.0000   1.0000   1.0000   1.0000   1.0000   1.0000   1.0000   1.0000
     1.0000   1.0000   1.0000   1.0000   1.0000   1.0000   1.0000   1.0000
     1.0000   1.0000   1.0000   1.0000   1.0000   1.0000   1.0000   1.0000
     1.0000   1.0000   1.0000   1.0000   1.0000   1.0000   1.0000   1.0000
     1.0000   1.0000   1.0000   1.0000   1.0000   1.0000   1.0000   1.0000
     1.0000   1.0000   1.0000   1.0000   1.0000   1.0000   1.0000   1.0000
     0.0000   0.0000   0.0000   0.0000   0.0000   0.0000   0.0000   0.0000
     0.0000   0.0000   0.0000   0.0000   0.0000   0.0000   0.0000   0.0000
     0.0000   0.0000   0.0000   0.0000   0.0000   0.0000

          k =-0.5303 0.1768 0.5303 (  8605 PWs)   bands (ev):

   -17.8999 -17.4073 -17.3922 -17.3321 -17.1675 -17.0987 -17.0744 -17.0611
   -17.0303 -16.9938 -16.9704 -16.9418 -16.9087 -16.9016 -16.8666 -16.8505
   -16.8428 -16.8363 -16.8334 -16.8243 -16.8206 -16.8142 -16.7951 -16.7799
   -16.7626 -16.7532 -16.7454 -16.7324 -16.7255 -16.7022 -16.6981 -16.6828
   -16.6649 -16.6578 -16.6494 -16.6385 -16.6306 -16.6263 -16.6183 -16.6069
   -16.6019 -16.5966 -16.5904 -16.5867 -16.5807 -16.5768 -16.5688 -16.5606
   -16.5444 -16.5382 -16.5358 -16.5323 -16.5238 -16.5144 -16.5098 -16.5063
   -16.5022 -16.4918 -16.4863 -16.4841 -16.4759 -16.4666 -16.4636 -16.4521
   -16.4422 -16.4381 -16.4300 -16.4149 -16.4103 -16.4039 -16.3916 -16.3879
   -16.3755 -16.3728 -16.3440 -16.3360 -16.3253 -16.3086 -16.2748 -16.2133
    -4.3311  -3.9596  -3.2633  -2.9032  -2.7722  -2.1131  -1.7784  -1.3326
    -0.0650   0.2903   0.6780   1.0886   1.5330   2.2574   2.7021   3.4968
     3.9170   4.0786   4.3886   4.5533   4.7992   5.0023   5.1363   5.5247
     5.6630   5.8036   5.9933   6.0929   6.4040   6.6086   7.1408   7.7661
     8.9295   9.2115   9.5560   9.6723   9.8610  10.0101  10.2728  10.4710
    10.8501  11.0006  11.1655  11.3629  11.5613  11.7815  12.1253  12.2766
    12.5612  12.7400  12.7938  13.1070  13.2834  13.4621

     occupation numbers 
     1.0000   1.0000   1.0000   1.0000   1.0000   1.0000   1.0000   1.0000
     1.0000   1.0000   1.0000   1.0000   1.0000   1.0000   1.0000   1.0000
     1.0000   1.0000   1.0000   1.0000   1.0000   1.0000   1.0000   1.0000
     1.0000   1.0000   1.0000   1.0000   1.0000   1.0000   1.0000   1.0000
     1.0000   1.0000   1.0000   1.0000   1.0000   1.0000   1.0000   1.0000
     1.0000   1.0000   1.0000   1.0000   1.0000   1.0000   1.0000   1.0000
     1.0000   1.0000   1.0000   1.0000   1.0000   1.0000   1.0000   1.0000
     1.0000   1.0000   1.0000   1.0000   1.0000   1.0000   1.0000   1.0000
     1.0000   1.0000   1.0000   1.0000   1.0000   1.0000   1.0000   1.0000
     1.0000   1.0000   1.0000   1.0000   1.0000   1.0000   1.0000   1.0000
     1.0000   1.0000   1.0000   1.0000   1.0000   1.0000   1.0000   1.0000
     1.0000   1.0000   1.0000   1.0000   1.0000   1.0000   1.0000   1.0000
     1.0000   1.0000   1.0000   1.0000   1.0000   1.0000   1.0000   1.0000
     1.0000   1.0000   1.0000   1.0000   1.0000   1.0000   1.0000   0.9989
     0.0000   0.0000   0.0000   0.0000   0.0000   0.0000   0.0000   0.0000
     0.0000   0.0000   0.0000   0.0000   0.0000   0.0000   0.0000   0.0000
     0.0000   0.0000   0.0000   0.0000   0.0000   0.0000

          k = 0.5303-0.1768 0.5303 (  8605 PWs)   bands (ev):

   -17.8998 -17.4074 -17.3923 -17.3322 -17.1676 -17.0985 -17.0742 -17.0617
   -17.0322 -16.9943 -16.9684 -16.9406 -16.9086 -16.9021 -16.8676 -16.8486
   -16.8423 -16.8402 -16.8324 -16.8274 -16.8233 -16.8130 -16.7934 -16.7789
   -16.7563 -16.7476 -16.7443 -16.7345 -16.7240 -16.7040 -16.6962 -16.6828
   -16.6670 -16.6542 -16.6494 -16.6408 -16.6311 -16.6259 -16.6208 -16.6110
   -16.6013 -16.5971 -16.5956 -16.5921 -16.5856 -16.5802 -16.5673 -16.5586
   -16.5421 -16.5376 -16.5320 -16.5300 -16.5232 -16.5162 -16.5105 -16.5066
   -16.4983 -16.4940 -16.4852 -16.4829 -16.4748 -16.4655 -16.4627 -16.4499
   -16.4431 -16.4358 -16.4299 -16.4140 -16.4057 -16.4004 -16.3991 -16.3885
   -16.3811 -16.3718 -16.3482 -16.3396 -16.3199 -16.3025 -16.2795 -16.2127
    -4.2866  -3.9614  -3.2685  -2.9964  -2.8707  -2.0586  -1.7526  -1.1494
    -0.3265   0.4242   0.7361   1.3472   1.5662   2.1088   2.8693   3.2188
     3.6134   3.8883   4.3303   4.5870   4.7892   5.0312   5.2177   5.3309
     5.6190   5.9223   6.0816   6.3196   6.5757   6.7409   7.1440   7.4392
     8.9561   9.3375   9.4910   9.7523  10.0256  10.1489  10.3870  10.6695
    10.8210  10.9952  11.3792  11.4612  11.8259  11.9317  12.0488  12.3199
    12.3715  12.6327  12.7667  12.9279  13.1013  13.2195

     occupation numbers 
     1.0000   1.0000   1.0000   1.0000   1.0000   1.0000   1.0000   1.0000
     1.0000   1.0000   1.0000   1.0000   1.0000   1.0000   1.0000   1.0000
     1.0000   1.0000   1.0000   1.0000   1.0000   1.0000   1.0000   1.0000
     1.0000   1.0000   1.0000   1.0000   1.0000   1.0000   1.0000   1.0000
     1.0000   1.0000   1.0000   1.0000   1.0000   1.0000   1.0000   1.0000
     1.0000   1.0000   1.0000   1.0000   1.0000   1.0000   1.0000   1.0000
     1.0000   1.0000   1.0000   1.0000   1.0000   1.0000   1.0000   1.0000
     1.0000   1.0000   1.0000   1.0000   1.0000   1.0000   1.0000   1.0000
     1.0000   1.0000   1.0000   1.0000   1.0000   1.0000   1.0000   1.0000
     1.0000   1.0000   1.0000   1.0000   1.0000   1.0000   1.0000   1.0000
     1.0000   1.0000   1.0000   1.0000   1.0000   1.0000   1.0000   1.0000
     1.0000   1.0000   1.0000   1.0000   1.0000   1.0000   1.0000   1.0000
     1.0000   1.0000   1.0000   1.0000   1.0000   1.0000   1.0000   1.0000
     1.0000   1.0000   1.0000   1.0000   1.0000   1.0000   1.0000   1.0000
     0.0000   0.0000   0.0000   0.0000   0.0000   0.0000   0.0000   0.0000
     0.0000   0.0000   0.0000   0.0000   0.0000   0.0000   0.0000   0.0000
     0.0000   0.0000   0.0000   0.0000   0.0000   0.0000

          k = 0.5303 0.5303-0.1768 (  8605 PWs)   bands (ev):

   -17.9001 -17.4087 -17.3925 -17.3327 -17.1675 -17.0741 -17.0694 -17.0568
   -17.0479 -17.0204 -16.9565 -16.9319 -16.9116 -16.9052 -16.8730 -16.8534
   -16.8495 -16.8372 -16.8282 -16.8212 -16.8156 -16.8105 -16.7951 -16.7864
   -16.7709 -16.7527 -16.7437 -16.7340 -16.7178 -16.7002 -16.6913 -16.6874
   -16.6637 -16.6571 -16.6550 -16.6464 -16.6303 -16.6267 -16.6200 -16.6089
   -16.6019 -16.5943 -16.5920 -16.5860 -16.5786 -16.5704 -16.5643 -16.5578
   -16.5463 -16.5432 -16.5379 -16.5295 -16.5196 -16.5132 -16.5069 -16.5049
   -16.4987 -16.4908 -16.4832 -16.4784 -16.4758 -16.4696 -16.4630 -16.4602
   -16.4444 -16.4392 -16.4373 -16.4234 -16.4080 -16.4036 -16.3961 -16.3871
   -16.3742 -16.3653 -16.3453 -16.3352 -16.3314 -16.3057 -16.2703 -16.2135
    -4.4233  -3.7205  -3.2312  -3.0929  -2.7565  -2.1912  -1.7618  -1.4139
    -0.1545   0.1674   0.9851   1.4803   1.7535   2.1856   2.6771   3.5841
     3.7897   3.9555   4.0565   4.3932   4.5847   4.9298   5.1188   5.1632
     5.4205   5.8477   6.1795   6.3030   6.5429   7.0160   7.3674   7.4720
     8.4901   9.3061   9.6175   9.9351  10.1369  10.2690  10.4361  10.6047
    10.8101  10.9158  11.3228  11.6404  11.8934  12.1739  12.2694  12.3589
    12.5444  12.7239  12.7738  13.0361  13.0653  13.1915

[...]
   -16.6040 -16.5971 -16.5929 -16.5873 -16.5823 -16.5753 -16.5697 -16.5575
   -16.5454 -16.5394 -16.5343 -16.5301 -16.5233 -16.5138 -16.5104 -16.5051
   -16.5013 -16.4922 -16.4844 -16.4827 -16.4757 -16.4653 -16.4626 -16.4522
   -16.4439 -16.4395 -16.4328 -16.4179 -16.4074 -16.4040 -16.3969 -16.3878
   -16.3759 -16.3690 -16.3477 -16.3364 -16.3252 -16.3046 -16.2745 -16.2130
    -4.2584  -3.7501  -3.5074  -3.2766  -2.5744  -2.0197  -1.7951  -1.4867
     0.0622   0.3860   0.6906   0.9516   2.4280   2.6944   2.9028   3.1479
     3.6653   3.7912   4.0478   4.1872   4.6720   4.9641   5.1942   5.3032
     5.4417   5.5786   5.8431   6.0970   6.5548   6.7419   6.8813   7.1143
     9.3011   9.7984  10.0136  10.1626  10.3890  10.4818  10.5761  10.6767
    10.8499  10.9992  11.0373  11.4614  11.9680  12.2381  12.3880  12.4955
    12.5832  12.8315  12.8861  12.9458  13.0468  13.2332

     occupation numbers 
     1.0000   1.0000   1.0000   1.0000   1.0000   1.0000   1.0000   1.0000
     1.0000   1.0000   1.0000   1.0000   1.0000   1.0000   1.0000   1.0000
     1.0000   1.0000   1.0000   1.0000   1.0000   1.0000   1.0000   1.0000
     1.0000   1.0000   1.0000   1.0000   1.0000   1.0000   1.0000   1.0000
     1.0000   1.0000   1.0000   1.0000   1.0000   1.0000   1.0000   1.0000
     1.0000   1.0000   1.0000   1.0000   1.0000   1.0000   1.0000   1.0000
     1.0000   1.0000   1.0000   1.0000   1.0000   1.0000   1.0000   1.0000
     1.0000   1.0000   1.0000   1.0000   1.0000   1.0000   1.0000   1.0000
     1.0000   1.0000   1.0000   1.0000   1.0000   1.0000   1.0000   1.0000
     1.0000   1.0000   1.0000   1.0000   1.0000   1.0000   1.0000   1.0000
     1.0000   1.0000   1.0000   1.0000   1.0000   1.0000   1.0000   1.0000
     1.0000   1.0000   1.0000   1.0000   1.0000   1.0000   1.0000   1.0000
     1.0000   1.0000   1.0000   1.0000   1.0000   1.0000   1.0000   1.0000
     1.0000   1.0000   1.0000   1.0000   1.0000   1.0000   1.0000   1.0000
     0.0000   0.0000   0.0000   0.0000   0.0000   0.0000   0.0000   0.0000
     0.0000   0.0000   0.0000   0.0000   0.0000   0.0000   0.0000   0.0000
     0.0000   0.0000   0.0000   0.0000   0.0000   0.0000

          k = 0.7071-0.0000 0.3536 (  8652 PWs)   bands (ev):

   -17.8999 -17.4074 -17.3924 -17.3322 -17.1676 -17.0986 -17.0744 -17.0614
   -17.0305 -16.9939 -16.9703 -16.9421 -16.9104 -16.9057 -16.8602 -16.8512
   -16.8430 -16.8364 -16.8346 -16.8239 -16.8211 -16.8134 -16.7935 -16.7796
   -16.7622 -16.7529 -16.7440 -16.7311 -16.7228 -16.7009 -16.6975 -16.6789
   -16.6646 -16.6588 -16.6509 -16.6428 -16.6352 -16.6292 -16.6169 -16.6095
   -16.6004 -16.5954 -16.5941 -16.5884 -16.5851 -16.5768 -16.5643 -16.5568
   -16.5428 -16.5423 -16.5335 -16.5315 -16.5239 -16.5163 -16.5093 -16.5063
   -16.4995 -16.4931 -16.4875 -16.4838 -16.4760 -16.4667 -16.4643 -16.4530
   -16.4435 -16.4361 -16.4297 -16.4167 -16.4097 -16.4044 -16.3913 -16.3874
   -16.3754 -16.3702 -16.3441 -16.3362 -16.3253 -16.3086 -16.2748 -16.2133
    -4.1996  -3.8437  -3.5126  -3.2533  -2.6199  -2.1293  -1.7069  -1.1484
    -0.3652   0.4312   0.7408   1.0994   2.3417   2.5393   2.8391   3.2723
     3.6854   3.8231   4.0227   4.2406   4.6691   4.7972   5.2365   5.4451
     5.5127   5.6597   5.8988   6.1109   6.3571   6.7517   6.9075   7.1968
     9.3586   9.8179   9.9130  10.1126  10.2206  10.3209  10.6046  10.7151
    10.9564  10.9764  11.1821  11.2547  11.8787  12.2108  12.4613  12.5025
    12.6160  12.6700  12.8144  13.0001  13.1085  13.1911

     occupation numbers 
     1.0000   1.0000   1.0000   1.0000   1.0000   1.0000   1.0000   1.0000
     1.0000   1.0000   1.0000   1.0000   1.0000   1.0000   1.0000   1.0000
     1.0000   1.0000   1.0000   1.0000   1.0000   1.0000   1.0000   1.0000
     1.0000   1.0000   1.0000   1.0000   1.0000   1.0000   1.0000   1.0000
     1.0000   1.0000   1.0000   1.0000   1.0000   1.0000   1.0000   1.0000
     1.0000   1.0000   1.0000   1.0000   1.0000   1.0000   1.0000   1.0000
     1.0000   1.0000   1.0000   1.0000   1.0000   1.0000   1.0000   1.0000
     1.0000   1.0000   1.0000   1.0000   1.0000   1.0000   1.0000   1.0000
     1.0000   1.0000   1.0000   1.0000   1.0000   1.0000   1.0000   1.0000
     1.0000   1.0000   1.0000   1.0000   1.0000   1.0000   1.0000   1.0000
     1.0000   1.0000   1.0000   1.0000   1.0000   1.0000   1.0000   1.0000
     1.0000   1.0000   1.0000   1.0000   1.0000   1.0000   1.0000   1.0000
     1.0000   1.0000   1.0000   1.0000   1.0000   1.0000   1.0000   1.0000
     1.0000   1.0000   1.0000   1.0000   1.0000   1.0000   1.0000   1.0000
     0.0000   0.0000   0.0000   0.0000   0.0000   0.0000   0.0000   0.0000
     0.0000   0.0000   0.0000   0.0000   0.0000   0.0000   0.0000   0.0000
     0.0000   0.0000   0.0000   0.0000   0.0000   0.0000

     the Fermi energy is     8.2073 ev

!    total energy              =   -3410.38363704 Ry
     Harris-Foulkes estimate   =   -3410.38363696 Ry
     estimated scf accuracy    <          3.3E-10 Ry

     The total energy is the sum of the following terms:

     one-electron contribution =   -2278.01445274 Ry
     hartree contribution      =    1342.13063981 Ry
     xc contribution           =    -922.26550985 Ry
     ewald contribution        =   -1552.22962987 Ry
     smearing contrib. (-TS)   =      -0.00468439 Ry

     convergence has been achieved in  11 iterations

     Forces acting on atoms (Ry/au):

     atom    1 type  1   force =   0.20385257E+00 -0.36075220E+00  0.23906750E+00
     atom    2 type  1   force =   0.34166163E-01  0.63510838E-02  0.91269487E-01
     atom    3 type  1   force =  -0.21680339E-01  0.80543801E-01  0.19193713E-01
     atom    4 type  1   force =  -0.11980795E+00  0.12449694E+00 -0.13327770E+00
     atom    5 type  1   force =   0.10663968E+00  0.12828054E+00 -0.94112203E-01
     atom    6 type  1   force =  -0.30065274E+00  0.27557355E+00 -0.24419677E+00
     atom    7 type  1   force =   0.13543385E+00 -0.10251268E+00  0.58108735E-01
     atom    8 type  1   force =  -0.70446807E-01 -0.90276548E-01  0.12684020E+00
     atom    9 type  1   force =   0.39104570E-01  0.43050924E-01 -0.85972081E-01
     atom   10 type  1   force =  -0.11965668E+00  0.12760253E+00 -0.12035612E+00
     atom   11 type  1   force =  -0.74698677E-02 -0.47431296E-01 -0.38316207E-01
     atom   12 type  1   force =   0.19142746E-01 -0.67900817E-01  0.66114196E-01
     atom   13 type  1   force =   0.13734444E+00 -0.14474583E+00  0.14517771E+00
     atom   14 type  1   force =  -0.17160831E+00 -0.16025006E+00  0.16717786E+00
     atom   15 type  1   force =   0.18462210E+00  0.19234624E+00 -0.17979427E+00
     atom   16 type  1   force =  -0.48983422E-01 -0.43761903E-02 -0.16924054E-01
     The non-local contrib.  to forces
     atom    1 type  1   force =  -0.74372479E-02  0.17678446E-01 -0.23687313E-01
     atom    2 type  1   force =  -0.34001670E-02  0.72733444E-01  0.18709417E-01
     atom    3 type  1   force =  -0.30952634E-02  0.26479924E-02 -0.10143432E-01
     atom    4 type  1   force =   0.17334113E-01 -0.10747812E-01 -0.20270241E-01
     atom    5 type  1   force =  -0.16702266E-01 -0.65461258E-01 -0.30463911E-01
     atom    6 type  1   force =  -0.73983183E-02 -0.36263359E-01 -0.51240524E-02
     atom    7 type  1   force =  -0.10032077E-01 -0.13046327E-01  0.39581782E-01
     atom    8 type  1   force =  -0.18512215E-01  0.47796307E-01  0.37481182E-01
     atom    9 type  1   force =  -0.42674878E-01 -0.12198549E-01  0.46682213E-01
     atom   10 type  1   force =  -0.16568476E-01 -0.48693105E-01 -0.24862593E-01
     atom   11 type  1   force =  -0.27691308E-01 -0.54107107E-01 -0.28140304E-02
     atom   12 type  1   force =  -0.10774018E-01 -0.14174000E-02 -0.40912212E-01
     atom   13 type  1   force =   0.91615228E-03 -0.23369728E-01 -0.48492362E-02
     atom   14 type  1   force =   0.12025842E-01  0.18424611E-01 -0.10536618E-01
     atom   15 type  1   force =   0.22415908E-01 -0.34608941E-02 -0.23607132E-01
     atom   16 type  1   force =   0.23566271E-01  0.45040636E-01  0.18218926E-01
     The ionic contribution  to forces
     atom    1 type  1   force =  -0.18311965E+01 -0.14066139E+02  0.49544218E+01
     atom    2 type  1   force =   0.25066787E+01  0.15038808E+01  0.73030224E+01
     atom    3 type  1   force =   0.71817975E+00  0.67205580E+01  0.39407310E+01
     atom    4 type  1   force =  -0.58315738E+01  0.49888557E+01 -0.73358868E+01
     atom    5 type  1   force =   0.52349259E+01  0.80774293E+01  0.55173934E+00
     atom    6 type  1   force =  -0.12625923E+02  0.31420135E+01 -0.66104260E+01
     atom    7 type  1   force =   0.16348789E+01 -0.56867256E+01 -0.28799042E+01
     atom    8 type  1   force =   0.77527197E+00  0.57927840E+00  0.66078181E+01
     atom    9 type  1   force =   0.44795196E+01  0.17607316E+01 -0.25177515E+01
     atom   10 type  1   force =  -0.51249228E+01  0.27957028E+01 -0.48588639E+01
     atom   11 type  1   force =  -0.91545626E+00 -0.16769971E+01 -0.53306058E+01
     atom   12 type  1   force =   0.53498047E+01 -0.57374165E+00  0.25826131E+01
     atom   13 type  1   force =   0.91975116E+00 -0.77805177E+01  0.28426882E+01
     atom   14 type  1   force =  -0.33981338E+01 -0.45659050E+01  0.82090292E+01
     atom   15 type  1   force =   0.86177114E+01  0.71930404E+01 -0.34827088E+01
     atom   16 type  1   force =  -0.50951605E+00 -0.24114646E+01 -0.39759160E+01
     The local contribution  to forces
     atom    1 type  1   force =   0.20533596E+01  0.13655784E+02 -0.46761872E+01
     atom    2 type  1   force =  -0.24679170E+01 -0.15685375E+01 -0.72226489E+01
     atom    3 type  1   force =  -0.73798870E+00 -0.66348528E+01 -0.39089492E+01
     atom    4 type  1   force =   0.56858406E+01 -0.48415191E+01  0.72104623E+01
     atom    5 type  1   force =  -0.51016708E+01 -0.78723935E+01 -0.62264894E+00
     atom    6 type  1   force =   0.12308493E+02 -0.28099150E+01  0.63548604E+01
     atom    7 type  1   force =  -0.14805455E+01  0.55857602E+01  0.29022325E+01
     atom    8 type  1   force =  -0.83444666E+00 -0.72414003E+00 -0.65056573E+01
     atom    9 type  1   force =  -0.43923420E+01 -0.17013700E+01  0.23798140E+01
     atom   10 type  1   force =   0.50109148E+01 -0.26076289E+01  0.47542647E+01
     atom   11 type  1   force =   0.93409010E+00  0.16791316E+01  0.52921517E+01
     atom   12 type  1   force =  -0.53148461E+01  0.50195633E+00 -0.24710202E+01
     atom   13 type  1   force =  -0.77372498E+00  0.76463899E+01 -0.26839340E+01
     atom   14 type  1   force =   0.32009627E+01  0.43723921E+01 -0.80165865E+01
     atom   15 type  1   force =  -0.84399583E+01 -0.69822994E+01  0.33117145E+01
     atom   16 type  1   force =   0.43509349E+00  0.23629666E+01  0.39383148E+01
     The core correction contribution to forces
     atom    1 type  1   force =  -0.10879590E-01  0.31955522E-01 -0.15489681E-01
     atom    2 type  1   force =  -0.11900766E-02 -0.17324577E-02 -0.78187652E-02
     atom    3 type  1   force =   0.12082543E-02 -0.78100431E-02 -0.24422965E-02
     atom    4 type  1   force =   0.86050946E-02 -0.12105283E-01  0.12408513E-01
     atom    5 type  1   force =  -0.99162920E-02 -0.11297741E-01  0.72654587E-02
     atom    6 type  1   force =   0.24189384E-01 -0.20278263E-01  0.16494900E-01
     atom    7 type  1   force =  -0.88778490E-02  0.11504495E-01 -0.37834358E-02
     atom    8 type  1   force =   0.72490708E-02  0.67958820E-02 -0.12807285E-01
     atom    9 type  1   force =  -0.54007056E-02 -0.41176496E-02  0.52694003E-02
     atom   10 type  1   force =   0.10910889E-01 -0.11782871E-01  0.91243622E-02
     atom   11 type  1   force =   0.15928004E-02  0.45436195E-02  0.29561059E-02
     atom   12 type  1   force =  -0.50381855E-02  0.53097592E-02 -0.45547300E-02
     atom   13 type  1   force =  -0.95821231E-02  0.12751545E-01 -0.87358280E-02
     atom   14 type  1   force =   0.13539080E-01  0.14855705E-01 -0.14727914E-01
     atom   15 type  1   force =  -0.15557752E-01 -0.14954275E-01  0.14805124E-01
     atom   16 type  1   force =   0.18610644E-02 -0.91594363E-03  0.24549042E-02
     The Hubbard contrib.    to forces
     atom    1 type  1   force =   0.00000000E+00  0.00000000E+00  0.00000000E+00
     atom    2 type  1   force =   0.00000000E+00  0.00000000E+00  0.00000000E+00
     atom    3 type  1   force =   0.00000000E+00  0.00000000E+00  0.00000000E+00
     atom    4 type  1   force =   0.00000000E+00  0.00000000E+00  0.00000000E+00
     atom    5 type  1   force =   0.00000000E+00  0.00000000E+00  0.00000000E+00
     atom    6 type  1   force =   0.00000000E+00  0.00000000E+00  0.00000000E+00
     atom    7 type  1   force =   0.00000000E+00  0.00000000E+00  0.00000000E+00
     atom    8 type  1   force =   0.00000000E+00  0.00000000E+00  0.00000000E+00
     atom    9 type  1   force =   0.00000000E+00  0.00000000E+00  0.00000000E+00
     atom   10 type  1   force =   0.00000000E+00  0.00000000E+00  0.00000000E+00
     atom   11 type  1   force =   0.00000000E+00  0.00000000E+00  0.00000000E+00
     atom   12 type  1   force =   0.00000000E+00  0.00000000E+00  0.00000000E+00
     atom   13 type  1   force =   0.00000000E+00  0.00000000E+00  0.00000000E+00
     atom   14 type  1   force =   0.00000000E+00  0.00000000E+00  0.00000000E+00
     atom   15 type  1   force =   0.00000000E+00  0.00000000E+00  0.00000000E+00
     atom   16 type  1   force =   0.00000000E+00  0.00000000E+00  0.00000000E+00
     The SCF correction term to forces
     atom    1 type  1   force =   0.69476154E-05 -0.31698897E-04  0.10432355E-04
     atom    2 type  1   force =  -0.46042006E-05  0.62151728E-05  0.59464074E-05
     atom    3 type  1   force =   0.16310750E-04  0.11621112E-06 -0.17984264E-05
     atom    4 type  1   force =  -0.13217121E-04  0.12940957E-04  0.91353820E-05
     atom    5 type  1   force =   0.38692082E-05  0.31400908E-05 -0.35385467E-05
     atom    6 type  1   force =  -0.13523770E-04  0.16008737E-04 -0.13951169E-05
     atom    7 type  1   force =   0.11095797E-04 -0.59797234E-05 -0.17267804E-04
     atom    8 type  1   force =  -0.82858782E-05 -0.76830401E-05  0.61697755E-05
     atom    9 type  1   force =   0.32898433E-05  0.49771218E-05  0.14381390E-04
     atom   10 type  1   force =   0.95834014E-05  0.40007005E-05 -0.18072992E-04
     atom   11 type  1   force =  -0.45109894E-05 -0.28654658E-05 -0.35202330E-05
     atom   12 type  1   force =  -0.30201288E-05 -0.84459570E-05 -0.11160152E-04
     atom   13 type  1   force =  -0.15079783E-04 -0.46244674E-06  0.91505683E-05
     atom   14 type  1   force =  -0.14043413E-05 -0.18135183E-04  0.25703123E-06
     atom   15 type  1   force =   0.11596645E-04  0.19851840E-04  0.26614701E-05
     atom   16 type  1   force =   0.12492288E-04 -0.35592250E-05  0.39710422E-05

     Total force =     0.967716     Total SCF correction =     0.000073


     entering subroutine stress ...

          total   stress  (Ry/bohr**3)                   (kbar)     P=   70.78
   0.0004740849  -0.0001182039   0.0000646380         69.74    -17.39      9.51
  -0.0001182039   0.0005827229  -0.0006101697        -17.39     85.72    -89.76
   0.0000646380  -0.0006101697   0.0003866266          9.51    -89.76     56.87

     kinetic stress (kbar)  10021.71      3.24      9.66
                                3.24  10020.14     32.62
                                9.66     32.62  10024.12

     local   stress (kbar)    351.34    888.84   1329.76
                              888.84    776.27   7636.64
                             1329.76   7636.64   1629.84

     nonloc. stress (kbar)   2986.76      1.93     -8.09
                                1.93   2982.46    -35.87
                               -8.09    -35.87   2980.86

     hartree stress (kbar)  26941.15   -368.85   -554.58
                             -368.85  26735.79  -2964.93
                             -554.58  -2964.93  26431.43

     exc-cor stress (kbar)  19472.02     -0.09     -0.31
                               -0.09  19471.97     -2.07
                               -0.31     -2.07  19471.75

     corecor stress (kbar) -29145.64      0.19      0.22
                                0.19 -29145.74      2.79
                                0.22      2.79 -29145.25

     ewald   stress (kbar) -30557.59   -542.65   -767.15
                             -542.65 -30755.18  -4758.95
                             -767.15  -4758.95 -31335.87

     hubbard stress (kbar)      0.00      0.00      0.00
                                0.00      0.00      0.00
                                0.00      0.00      0.00

     london  stress (kbar)      0.00      0.00      0.00
                                0.00      0.00      0.00
                                0.00      0.00      0.00

     XDM     stress (kbar)      0.00      0.00      0.00
                                0.00      0.00      0.00
                                0.00      0.00      0.00

     dft-nl  stress (kbar)      0.00      0.00      0.00
                                0.00      0.00      0.00
                                0.00      0.00      0.00



     Writing output data file Ge_diamond.scf.in.super.222.largdist.a.033.save

     init_run     :     34.23s CPU     33.32s WALL (       1 calls)
     electrons    :   1540.72s CPU   1664.15s WALL (       1 calls)
     forces       :     15.16s CPU     13.73s WALL (       1 calls)
     stress       :    124.60s CPU    125.61s WALL (       1 calls)

     Called by init_run:
     wfcinit      :     33.17s CPU     32.23s WALL (       1 calls)
     potinit      :      0.13s CPU      0.13s WALL (       1 calls)

     Called by electrons:
     c_bands      :   1355.76s CPU   1477.22s WALL (      12 calls)
     sum_band     :    173.69s CPU    175.32s WALL (      12 calls)
     v_of_rho     :      1.37s CPU      1.42s WALL (      12 calls)
     v_h          :      0.07s CPU      0.08s WALL (      12 calls)
     v_xc         :      1.56s CPU      1.63s WALL (      14 calls)
     newd         :      8.32s CPU      8.47s WALL (      12 calls)
     mix_rho      :      2.06s CPU      2.14s WALL (      12 calls)

     Called by c_bands:
     init_us_2    :      4.67s CPU      4.91s WALL (     972 calls)
     cegterg      :   1327.58s CPU   1447.50s WALL (     432 calls)

     Called by sum_band:
     sum_band:bec :      1.27s CPU      1.30s WALL (     432 calls)
     addusdens    :      8.90s CPU      9.12s WALL (      12 calls)

     Called by *egterg:
     h_psi        :    675.81s CPU    675.81s WALL (    1652 calls)
     s_psi        :     62.62s CPU     50.30s WALL (    1652 calls)
     g_psi        :      1.74s CPU      1.77s WALL (    1184 calls)
     cdiaghg      :    327.11s CPU    469.36s WALL (    1580 calls)
     cegterg:over :    130.42s CPU    119.33s WALL (    1184 calls)
     cegterg:upda :     45.50s CPU     41.08s WALL (    1184 calls)
     cegterg:last :     26.21s CPU     20.09s WALL (     432 calls)

     Called by h_psi:
     h_psi:vloc   :    518.32s CPU    536.64s WALL (    1652 calls)
     h_psi:vnl    :    155.04s CPU    136.62s WALL (    1652 calls)
     add_vuspsi   :     62.41s CPU     51.82s WALL (    1652 calls)

     General routines
     calbec       :    176.68s CPU    164.91s WALL (    2156 calls)
     fft          :      3.15s CPU      3.17s WALL (     217 calls)
     ffts         :      1.05s CPU      1.10s WALL (     362 calls)
     fftw         :    571.64s CPU    592.71s WALL (  339238 calls)
     interpolate  :      0.26s CPU      0.24s WALL (      24 calls)

     Parallel routines
     fft_scatter  :    304.08s CPU    316.61s WALL (  339817 calls)

     PWSCF        : 28m39.77s CPU    30m44.34s WALL


   This run was terminated on:  17:25:53  27Sep2017            

=------------------------------------------------------------------------------=
   JOB DONE.
=------------------------------------------------------------------------------=
