
     Program PWSCF v.5.1 starts on 27Sep2017 at 11: 9:52 

     This program is part of the open-source Quantum ESPRESSO suite
     for quantum simulation of materials; please cite
         "P. Giannozzi et al., J. Phys.:Condens. Matter 21 395502 (2009);
          URL http://www.quantum-espresso.org", 
     in publications or presentations arising from this work. More details at
     http://www.quantum-espresso.org/quote

     Parallel version (MPI), running on     8 processors
     R & G space division:  proc/nbgrp/npool/nimage =       8
     Reading input from /tmp/Ge_diamond.scf.in.super.222.largdist.01.12907/Ge_diamond.scf.in.super.222.largdist.01.t
Warning: card &IONS ignored
Warning: card   ION_DYNAMICS='BFGS', ignored
Warning: card / ignored
Warning: card &CELL ignored
Warning: card  CELL_DYNAMICS = 'BFGS' ignored
Warning: card / ignored
     Message from routine read_cards :
     DEPRECATED: no units specified in CELL_PARAMETERS card

     Current dimensions of program PWSCF are:
     Max number of different atomic species (ntypx) = 10
     Max number of k-points (npk) =  40000
     Max angular momentum in pseudopotentials (lmaxx) =  3
 kfg - two_fermi_energies  F

     Subspace diagonalization in iterative solution of the eigenvalue problem:
     a serial algorithm will be used


     Parallelization info
     --------------------
     sticks:   dense  smooth     PW     G-vecs:    dense   smooth      PW
     Min         394     275     78                14780     8647    1306
     Max         395     276     79                14781     8670    1308
     Sum        3153    2207    625               118241    69259   10455



     bravais-lattice index     =            0
     lattice parameter (alat)  =    15.138423866  a.u.
     unit-cell volume          =    2474.9339 (a.u.)^3
     number of atoms/cell      =           16
     number of atomic types    =            1
     number of electrons       =       224.00
     number of Kohn-Sham states=          134
     kinetic-energy cutoff     =      35.0000  Ry
     charge density cutoff     =     200.0000  Ry
     convergence threshold     =      1.0E-09
     mixing beta               =       0.3000
     number of iterations used =            8  local-TF  mixing
     Exchange-correlation      = SLA  PW   PSX  PSC ( 1  4 10  8 0)
     A smooth kinetic-energy cutoff is imposed at      34.5000 Ry
     height of the smooth step-function =             800.0000 Ry
     width of the smooth step-function  =               1.0000 Ry


     celldm(1)=  15.138424  celldm(2)=   0.000000  celldm(3)=   0.000000
     celldm(4)=   0.000000  celldm(5)=   0.000000  celldm(6)=   0.000000

     crystal axes: (cart. coord. in units of alat)
               a(1) = (   0.005183133409   0.701799683570   0.712355486586 )  
               a(2) = (   0.708677269845   0.006571873246   0.714395509733 )  
               a(3) = (   0.712318326099   0.711159556999  -0.006443888634 )  

     reciprocal axes: (cart. coord. in units 2 pi/alat)
               b(1) = ( -0.712230  0.719733  0.699908 )  
               b(2) = (  0.716476 -0.711341  0.695587 )  
               b(3) = (  0.696235  0.702468 -0.697124 )  


     PseudoPot. # 1 for Ge read from file:
     /users/kfg/psuedo/gbrv_1.5/ge.pbesol.UPF
     MD5 check sum: 7bed0412183f5e553a4d27ec7023354d
     Pseudo is Ultrasoft + core correction, Zval = 14.0
     Generated by new atomic code, or converted to UPF format
     Using radial grid of  873 points,  6 beta functions with: 
                l(1) =   0
                l(2) =   0
                l(3) =   1
                l(4) =   1
                l(5) =   2
                l(6) =   2
     Q(r) pseudized with  8 coefficients,  rinner =    1.400   1.400   1.400
                                                       1.400   1.400

     atomic species   valence    mass     pseudopotential
        Ge            14.00    72.64000     Ge( 1.00)

     No symmetry found


                                    s                        frac. trans.

      isym =  1     identity                                     

 cryst.   s( 1) = (     1          0          0      )
                  (     0          1          0      )
                  (     0          0          1      )

 cart.    s( 1) = (  1.0000000  0.0000000  0.0000000 )
                  (  0.0000000  1.0000000  0.0000000 )
                  ( -0.0000000 -0.0000000  1.0000000 )


     point group C_1 (1)    
     there are  1 classes
     the character table:

       E    
A      1.00

     the symmetry operations in each class:
     E        1

   Cartesian axes

     site n.     atom                  positions (alat units)
         1           Ge  tau(   1) = (    0.00116967330    0.01245025074   -0.02518244870  )
         2           Ge  tau(   2) = (    0.15863461498    0.15277825110    0.17090783452  )
         3           Ge  tau(   3) = (    0.36772874154    0.33198259656   -0.00849701180  )
         4           Ge  tau(   4) = (    0.50894696515    0.54134052434    0.19633173734  )
         5           Ge  tau(   5) = (    0.36723810644    0.00747396984    0.33231846473  )
         6           Ge  tau(   6) = (    0.51205839024    0.18754148805    0.54823495150  )
         7           Ge  tau(   7) = (    0.69187610958    0.37943164580    0.35151518475  )
         8           Ge  tau(   8) = (    0.90907703839    0.56088063013    0.55745689652  )
         9           Ge  tau(   9) = (   -0.00312015838    0.37407435770    0.36149784457  )
        10           Ge  tau(  10) = (    0.16453676518    0.51474914070    0.54757355504  )
        11           Ge  tau(  11) = (    0.38284439895    0.71126649409    0.35497526633  )
        12           Ge  tau(  12) = (    0.54478371250    0.87874597108    0.54085930007  )
        13           Ge  tau(  13) = (    0.35500942597    0.35691922304    0.73610446156  )
        14           Ge  tau(  14) = (    0.55206381553    0.53466613772    0.88207358449  )
        15           Ge  tau(  15) = (    0.73820777679    0.70967060244    0.73186725094  )
        16           Ge  tau(  16) = (    0.88334017302    0.86767060529    0.91059612600  )

   Crystallographic axes

     site n.     atom                  positions (cryst. coord.)
         1           Ge  tau(   1) = (   -0.00949762912   -0.02553491803    0.02711556908  )
         2           Ge  tau(   2) = (    0.11659493675    0.12386180700    0.09862478343  )
         3           Ge  tau(   3) = (   -0.02891592640    0.02140570402    0.49515626348  )
         4           Ge  tau(   4) = (    0.16454725402    0.11613658494    0.59775344989  )
         5           Ge  tau(   5) = (   -0.02358634881    0.48895733267    0.02926698538  )
         6           Ge  tau(   6) = (    0.15399047272    0.61481696202    0.10606694818  )
         7           Ge  tau(   7) = (    0.02634268568    0.47031703052    0.50319719378  )
         8           Ge  tau(   8) = (    0.14638068979    0.64011466318    0.63831520151  )
         9           Ge  tau(   9) = (    0.52447109971   -0.01687670585    0.00859387656  )
        10           Ge  tau(  10) = (    0.63654493762    0.13260964473    0.09442411406  )
        11           Ge  tau(  11) = (    0.48769847376    0.01526216052    0.51872966468  )
        12           Ge  tau(  12) = (    0.62300262133    0.14145137240    0.61954216005  )
        13           Ge  tau(  13) = (    0.51924357253    0.51248937279   -0.01526207016  )
        14           Ge  tau(  14) = (    0.60899073888    0.62876975904    0.14503698038  )
        15           Ge  tau(  15) = (    0.49723916404    0.53316806208    0.50228447051  )
        16           Ge  tau(  16) = (    0.63268306351    0.64908161732    0.58972440893  )

     number of k points=    36  gaussian smearing, width (Ry)=  0.0150
                       cart. coord. in units 2pi/alat
        k(    1) = (   0.0000000   0.0000000   0.0000000), wk =   0.0312500
        k(    2) = (   0.1740588   0.1756170  -0.1742811), wk =   0.0625000
        k(    3) = (  -0.3481176  -0.3512339   0.3485622), wk =   0.0312500
        k(    4) = (   0.1791191  -0.1778353   0.1738968), wk =   0.0625000
        k(    5) = (   0.3531779  -0.0022183  -0.0003843), wk =   0.0625000
        k(    6) = (  -0.1689985  -0.5290692   0.5224590), wk =   0.0625000
        k(    7) = (   0.0050603  -0.3534522   0.3481779), wk =   0.0625000
        k(    8) = (  -0.3582382   0.3556705  -0.3477936), wk =   0.0312500
        k(    9) = (  -0.1841794   0.5312875  -0.5220747), wk =   0.0625000
        k(   10) = (  -0.7063558   0.0044366   0.0007686), wk =   0.0312500
        k(   11) = (  -0.1780575   0.1799331   0.1749771), wk =   0.0625000
        k(   12) = (  -0.0039987   0.3555501   0.0006960), wk =   0.0625000
        k(   13) = (  -0.5261751  -0.1713008   0.5235393), wk =   0.0625000
        k(   14) = (  -0.3521163   0.0043162   0.3492582), wk =   0.0625000
        k(   15) = (   0.0010616   0.0020979   0.3488738), wk =   0.0625000
        k(   16) = (   0.1751204   0.1777149   0.1745927), wk =   0.0625000
        k(   17) = (  -0.3470560  -0.3491360   0.6974361), wk =   0.0625000
        k(   18) = (  -0.1729972  -0.1735191   0.5231550), wk =   0.0625000
        k(   19) = (  -0.5362957   0.5356037  -0.1728165), wk =   0.0625000
        k(   20) = (  -0.3622369   0.7112206  -0.3470976), wk =   0.0625000
        k(   21) = (  -0.8844133   0.1843697   0.1757457), wk =   0.0625000
        k(   22) = (  -0.7103545   0.3599867   0.0014646), wk =   0.0625000
        k(   23) = (  -0.3571766   0.3577684   0.0010803), wk =   0.0625000
        k(   24) = (  -0.1831178   0.5333854  -0.1732008), wk =   0.0625000
        k(   25) = (  -0.7052942   0.0065345   0.3496425), wk =   0.0625000
        k(   26) = (  -0.5312354   0.1821514   0.1753614), wk =   0.0625000
        k(   27) = (   0.3561151  -0.3598663  -0.3499541), wk =   0.0312500
        k(   28) = (   0.5301739  -0.1842493  -0.5242352), wk =   0.0625000
        k(   29) = (   0.0079975  -0.7111002  -0.0013919), wk =   0.0312500
        k(   30) = (   0.5352342  -0.5377015  -0.1760573), wk =   0.0625000
        k(   31) = (   0.7092929  -0.3620846  -0.3503385), wk =   0.0625000
        k(   32) = (   0.1871166  -0.8889355   0.1725049), wk =   0.0625000
        k(   33) = (   0.3611754  -0.7133185  -0.0017762), wk =   0.0625000
        k(   34) = (  -0.0021231  -0.0041958  -0.6977477), wk =   0.0312500
        k(   35) = (   0.1719357   0.1714212  -0.8720288), wk =   0.0625000
        k(   36) = (  -0.3502407  -0.3554297  -0.3491855), wk =   0.0312500

                       cryst. coord.
        k(    1) = (   0.0000000   0.0000000   0.0000000), wk =   0.0312500
        k(    2) = (   0.0000000   0.0000000   0.2500000), wk =   0.0625000
        k(    3) = (   0.0000000   0.0000000  -0.5000000), wk =   0.0312500
        k(    4) = (   0.0000000   0.2500000   0.0000000), wk =   0.0625000
        k(    5) = (   0.0000000   0.2500000   0.2500000), wk =   0.0625000
        k(    6) = (   0.0000000   0.2500000  -0.5000000), wk =   0.0625000
        k(    7) = (   0.0000000   0.2500000  -0.2500000), wk =   0.0625000
        k(    8) = (  -0.0000000  -0.5000000  -0.0000000), wk =   0.0312500
        k(    9) = (   0.0000000  -0.5000000   0.2500000), wk =   0.0625000
        k(   10) = (  -0.0000000  -0.5000000  -0.5000000), wk =   0.0312500
        k(   11) = (   0.2500000   0.0000000  -0.0000000), wk =   0.0625000
        k(   12) = (   0.2500000   0.0000000   0.2500000), wk =   0.0625000
        k(   13) = (   0.2500000   0.0000000  -0.5000000), wk =   0.0625000
        k(   14) = (   0.2500000   0.0000000  -0.2500000), wk =   0.0625000
        k(   15) = (   0.2500000   0.2500000   0.0000000), wk =   0.0625000
        k(   16) = (   0.2500000   0.2500000   0.2500000), wk =   0.0625000
        k(   17) = (   0.2500000   0.2500000  -0.5000000), wk =   0.0625000
        k(   18) = (   0.2500000   0.2500000  -0.2500000), wk =   0.0625000
        k(   19) = (   0.2500000  -0.5000000   0.0000000), wk =   0.0625000
        k(   20) = (   0.2500000  -0.5000000   0.2500000), wk =   0.0625000
        k(   21) = (   0.2500000  -0.5000000  -0.5000000), wk =   0.0625000
        k(   22) = (   0.2500000  -0.5000000  -0.2500000), wk =   0.0625000
        k(   23) = (   0.2500000  -0.2500000  -0.0000000), wk =   0.0625000
        k(   24) = (   0.2500000  -0.2500000   0.2500000), wk =   0.0625000
        k(   25) = (   0.2500000  -0.2500000  -0.5000000), wk =   0.0625000
        k(   26) = (   0.2500000  -0.2500000  -0.2500000), wk =   0.0625000
        k(   27) = (  -0.5000000  -0.0000000   0.0000000), wk =   0.0312500
        k(   28) = (  -0.5000000  -0.0000000   0.2500000), wk =   0.0625000
        k(   29) = (  -0.5000000  -0.0000000  -0.5000000), wk =   0.0312500
        k(   30) = (  -0.5000000   0.2500000  -0.0000000), wk =   0.0625000
        k(   31) = (  -0.5000000   0.2500000   0.2500000), wk =   0.0625000
        k(   32) = (  -0.5000000   0.2500000  -0.5000000), wk =   0.0625000
        k(   33) = (  -0.5000000   0.2500000  -0.2500000), wk =   0.0625000
        k(   34) = (  -0.5000000  -0.5000000  -0.0000000), wk =   0.0312500
        k(   35) = (  -0.5000000  -0.5000000   0.2500000), wk =   0.0625000
        k(   36) = (  -0.5000000  -0.5000000  -0.5000000), wk =   0.0312500

     Dense  grid:   118241 G-vectors     FFT dimensions: (  72,  72,  72)

     Smooth grid:    69259 G-vectors     FFT dimensions: (  60,  60,  60)

     Largest allocated arrays     est. size (Mb)     dimensions
        Kohn-Sham Wavefunctions         2.27 Mb     (    1109,  134)
        NL pseudopotentials             4.87 Mb     (    1109,  288)
        Each V/rho on FFT grid          0.71 Mb     (   46656)
        Each G-vector array             0.11 Mb     (   14780)
        G-vector shells                 0.11 Mb     (   14377)
     Largest temporary arrays     est. size (Mb)     dimensions
        Auxiliary wavefunctions         9.07 Mb     (    1109,  536)
        Each subspace H/S matrix        4.38 Mb     (     536,  536)
        Each <psi_i|beta_j> matrix      0.59 Mb     (     288,  134)
        Arrays for rho mixing           5.70 Mb     (   46656,    8)

     Check: negative/imaginary core charge=   -0.000002    0.000000

     Initial potential from superposition of free atoms

     starting charge  223.98707, renormalised to  224.00000
     Starting wfc are  144 randomized atomic wfcs

     total cpu time spent up to now is       45.3 secs

     per-process dynamical memory:   103.9 Mb

     Self-consistent Calculation

     iteration #  1     ecut=    35.00 Ry     beta=0.30
     Davidson diagonalization with overlap
     ethr =  1.00E-02,  avg # of iterations =  3.7

     Threshold (ethr) on eigenvalues was too large:
     Diagonalizing with lowered threshold

     Davidson diagonalization with overlap
     ethr =  1.12E-04,  avg # of iterations =  5.7

     total cpu time spent up to now is      382.8 secs

     total energy              =   -3410.76008101 Ry
     Harris-Foulkes estimate   =   -3410.78871534 Ry
     estimated scf accuracy    <       0.26503345 Ry

     iteration #  2     ecut=    35.00 Ry     beta=0.30
     Davidson diagonalization with overlap
     ethr =  1.18E-04,  avg # of iterations =  1.0

     total cpu time spent up to now is      487.1 secs

     total energy              =   -3410.70687241 Ry
     Harris-Foulkes estimate   =   -3410.76110298 Ry
     estimated scf accuracy    <       0.16231051 Ry

     iteration #  3     ecut=    35.00 Ry     beta=0.30
     Davidson diagonalization with overlap
     ethr =  7.25E-05,  avg # of iterations =  2.0

     total cpu time spent up to now is      618.9 secs

     total energy              =   -3410.71676257 Ry
     Harris-Foulkes estimate   =   -3410.71724833 Ry
     estimated scf accuracy    <       0.00301810 Ry

     iteration #  4     ecut=    35.00 Ry     beta=0.30
     Davidson diagonalization with overlap
     ethr =  1.35E-06,  avg # of iterations =  5.6

     total cpu time spent up to now is      881.5 secs

     total energy              =   -3410.71728379 Ry
     Harris-Foulkes estimate   =   -3410.71733882 Ry
     estimated scf accuracy    <       0.00046551 Ry

     iteration #  5     ecut=    35.00 Ry     beta=0.30
     Davidson diagonalization with overlap
     ethr =  2.08E-07,  avg # of iterations =  2.0

     total cpu time spent up to now is     1012.8 secs

     total energy              =   -3410.71729373 Ry
     Harris-Foulkes estimate   =   -3410.71732273 Ry
     estimated scf accuracy    <       0.00007308 Ry

     iteration #  6     ecut=    35.00 Ry     beta=0.30
     Davidson diagonalization with overlap
     ethr =  3.26E-08,  avg # of iterations =  2.0

     total cpu time spent up to now is     1140.5 secs

     total energy              =   -3410.71729889 Ry
     Harris-Foulkes estimate   =   -3410.71729769 Ry
     estimated scf accuracy    <       0.00000319 Ry

     iteration #  7     ecut=    35.00 Ry     beta=0.30
     Davidson diagonalization with overlap
     ethr =  1.42E-09,  avg # of iterations =  2.0

     total cpu time spent up to now is     1278.9 secs

     total energy              =   -3410.71729997 Ry
     Harris-Foulkes estimate   =   -3410.71729927 Ry
     estimated scf accuracy    <       0.00000124 Ry

     iteration #  8     ecut=    35.00 Ry     beta=0.30
     Davidson diagonalization with overlap
     ethr =  5.53E-10,  avg # of iterations =  2.0

     total cpu time spent up to now is     1408.5 secs

     total energy              =   -3410.71730036 Ry
     Harris-Foulkes estimate   =   -3410.71730004 Ry
     estimated scf accuracy    <       0.00000021 Ry

     iteration #  9     ecut=    35.00 Ry     beta=0.30
     Davidson diagonalization with overlap
     ethr =  9.15E-11,  avg # of iterations =  2.0

     total cpu time spent up to now is     1536.8 secs

     total energy              =   -3410.71730055 Ry
     Harris-Foulkes estimate   =   -3410.71730038 Ry
     estimated scf accuracy    <       0.00000003 Ry

     iteration # 10     ecut=    35.00 Ry     beta=0.30
     Davidson diagonalization with overlap
     ethr =  1.39E-11,  avg # of iterations =  2.0

     total cpu time spent up to now is     1664.6 secs

     total energy              =   -3410.71730064 Ry
     Harris-Foulkes estimate   =   -3410.71730056 Ry
     estimated scf accuracy    <          3.2E-09 Ry

     iteration # 11     ecut=    35.00 Ry     beta=0.30
     Davidson diagonalization with overlap
     ethr =  1.43E-12,  avg # of iterations =  2.0

     total cpu time spent up to now is     1816.9 secs

     End of self-consistent calculation

          k = 0.0000 0.0000 0.0000 (  8653 PWs)   bands (ev):

   -17.1042 -17.0685 -17.0259 -16.9957 -16.9620 -16.9567 -16.9492 -16.9257
   -16.9037 -16.8929 -16.8751 -16.8634 -16.8499 -16.8419 -16.8319 -16.8244
   -16.8130 -16.7996 -16.7836 -16.7730 -16.7662 -16.7476 -16.7357 -16.7304
   -16.7222 -16.7190 -16.6956 -16.6943 -16.6799 -16.6714 -16.6648 -16.6595
   -16.6496 -16.6441 -16.6337 -16.6322 -16.6217 -16.6111 -16.6086 -16.6028
   -16.5997 -16.5867 -16.5745 -16.5701 -16.5652 -16.5586 -16.5513 -16.5487
   -16.5423 -16.5259 -16.5200 -16.5169 -16.5097 -16.4999 -16.4917 -16.4808
   -16.4659 -16.4601 -16.4523 -16.4444 -16.4334 -16.4316 -16.4275 -16.4196
   -16.4017 -16.3988 -16.3898 -16.3784 -16.3768 -16.3605 -16.3565 -16.3512
   -16.3497 -16.3257 -16.3060 -16.2525 -16.2495 -16.2417 -16.2316 -16.1996
    -4.7310  -3.0860  -2.9315  -2.4061  -2.2301  -1.5830  -1.2223  -0.8987
    -0.3968  -0.3815  -0.3635   0.2290   0.4249   0.8044   1.4065   4.8226
     4.9571   4.9831   5.1620   5.1751   5.3267   6.0718   6.1246   6.4494
     6.7142   6.8589   6.9802   7.2428   7.4285   7.7749   7.8495   7.9116
     8.0590   8.1189   8.2742   8.3127   8.4035   8.5821   8.7583   8.8546
     8.9368   9.1478   9.3517  10.0072  10.6752  10.9551  11.1207  11.2912
    11.5390  11.7167  12.0267  12.4905  12.6815  12.8987

     occupation numbers 
     1.0000   1.0000   1.0000   1.0000   1.0000   1.0000   1.0000   1.0000
     1.0000   1.0000   1.0000   1.0000   1.0000   1.0000   1.0000   1.0000
     1.0000   1.0000   1.0000   1.0000   1.0000   1.0000   1.0000   1.0000
     1.0000   1.0000   1.0000   1.0000   1.0000   1.0000   1.0000   1.0000
     1.0000   1.0000   1.0000   1.0000   1.0000   1.0000   1.0000   1.0000
     1.0000   1.0000   1.0000   1.0000   1.0000   1.0000   1.0000   1.0000
     1.0000   1.0000   1.0000   1.0000   1.0000   1.0000   1.0000   1.0000
     1.0000   1.0000   1.0000   1.0000   1.0000   1.0000   1.0000   1.0000
     1.0000   1.0000   1.0000   1.0000   1.0000   1.0000   1.0000   1.0000
     1.0000   1.0000   1.0000   1.0000   1.0000   1.0000   1.0000   1.0000
     1.0000   1.0000   1.0000   1.0000   1.0000   1.0000   1.0000   1.0000
     1.0000   1.0000   1.0000   1.0000   1.0000   1.0000   1.0000   1.0000
     1.0000   1.0000   1.0000   1.0000   1.0000   1.0000   1.0000   1.0000
     1.0000   1.0000   1.0000   1.0000   1.0000   0.9994   0.9969   0.9895
     0.9009   0.8085   0.4192   0.3188   0.1357   0.0097   0.0002   0.0000
     0.0000   0.0000   0.0000   0.0000   0.0000   0.0000   0.0000   0.0000
     0.0000   0.0000   0.0000   0.0000   0.0000   0.0000

          k = 0.1741 0.1756-0.1743 (  8672 PWs)   bands (ev):

   -17.1044 -17.0698 -17.0263 -16.9968 -16.9630 -16.9582 -16.9496 -16.9264
   -16.9029 -16.8941 -16.8726 -16.8615 -16.8481 -16.8419 -16.8310 -16.8249
   -16.8127 -16.7951 -16.7813 -16.7729 -16.7646 -16.7479 -16.7369 -16.7333
   -16.7248 -16.7182 -16.6986 -16.6935 -16.6810 -16.6719 -16.6651 -16.6600
   -16.6534 -16.6464 -16.6342 -16.6311 -16.6212 -16.6147 -16.6081 -16.6025
   -16.5986 -16.5851 -16.5744 -16.5704 -16.5645 -16.5602 -16.5548 -16.5505
   -16.5358 -16.5283 -16.5190 -16.5174 -16.5074 -16.5003 -16.4898 -16.4804
   -16.4674 -16.4617 -16.4526 -16.4448 -16.4341 -16.4329 -16.4271 -16.4180
   -16.4031 -16.3981 -16.3910 -16.3820 -16.3747 -16.3607 -16.3572 -16.3511
   -16.3490 -16.3245 -16.3061 -16.2524 -16.2496 -16.2416 -16.2320 -16.1997
    -4.5661  -3.4467  -2.8757  -2.4038  -2.1378  -1.9137  -1.5313  -1.1529
    -0.3763  -0.0290   0.2674   0.3451   0.6899   0.9309   2.0872   4.5026
     4.6647   4.8584   5.0389   5.1384   5.3382   5.5497   5.7766   5.8933
     6.0612   6.2390   6.2951   6.4853   6.8642   6.9969   7.6676   7.9548
     8.0290   8.4320   8.5381   8.8317   8.9340   9.2599   9.3714   9.6006
     9.7843   9.9143  10.2335  10.9032  11.0092  11.2714  11.3214  11.4515
    11.6678  11.9087  12.1170  13.0604  13.2720  13.4239

     occupation numbers 
     1.0000   1.0000   1.0000   1.0000   1.0000   1.0000   1.0000   1.0000
     1.0000   1.0000   1.0000   1.0000   1.0000   1.0000   1.0000   1.0000
     1.0000   1.0000   1.0000   1.0000   1.0000   1.0000   1.0000   1.0000
     1.0000   1.0000   1.0000   1.0000   1.0000   1.0000   1.0000   1.0000
     1.0000   1.0000   1.0000   1.0000   1.0000   1.0000   1.0000   1.0000
     1.0000   1.0000   1.0000   1.0000   1.0000   1.0000   1.0000   1.0000
     1.0000   1.0000   1.0000   1.0000   1.0000   1.0000   1.0000   1.0000
     1.0000   1.0000   1.0000   1.0000   1.0000   1.0000   1.0000   1.0000
     1.0000   1.0000   1.0000   1.0000   1.0000   1.0000   1.0000   1.0000
     1.0000   1.0000   1.0000   1.0000   1.0000   1.0000   1.0000   1.0000
     1.0000   1.0000   1.0000   1.0000   1.0000   1.0000   1.0000   1.0000
     1.0000   1.0000   1.0000   1.0000   1.0000   1.0000   1.0000   1.0000
     1.0000   1.0000   1.0000   1.0000   1.0000   1.0000   1.0000   1.0000
     1.0000   1.0000   1.0000   1.0000   1.0000   1.0000   1.0000   0.9777
     0.9325   0.0972   0.0211   0.0000   0.0000   0.0000   0.0000   0.0000
     0.0000   0.0000   0.0000   0.0000   0.0000   0.0000   0.0000   0.0000
     0.0000   0.0000   0.0000   0.0000   0.0000   0.0000

          k =-0.3481-0.3512 0.3486 (  8636 PWs)   bands (ev):

   -17.1045 -17.0710 -17.0266 -16.9978 -16.9640 -16.9595 -16.9500 -16.9269
   -16.9023 -16.8947 -16.8716 -16.8589 -16.8456 -16.8420 -16.8303 -16.8242
   -16.8120 -16.7911 -16.7788 -16.7726 -16.7597 -16.7474 -16.7455 -16.7342
   -16.7256 -16.7176 -16.7007 -16.6934 -16.6821 -16.6721 -16.6668 -16.6610
   -16.6549 -16.6481 -16.6344 -16.6311 -16.6197 -16.6170 -16.6088 -16.6009
   -16.5971 -16.5862 -16.5742 -16.5688 -16.5650 -16.5606 -16.5566 -16.5515
   -16.5323 -16.5294 -16.5185 -16.5178 -16.5057 -16.5003 -16.4875 -16.4798
   -16.4699 -16.4618 -16.4537 -16.4449 -16.4357 -16.4331 -16.4270 -16.4156
   -16.4044 -16.3978 -16.3927 -16.3839 -16.3738 -16.3607 -16.3576 -16.3510
   -16.3483 -16.3234 -16.3061 -16.2522 -16.2495 -16.2415 -16.2322 -16.1998
    -4.1700  -4.0082  -2.7949  -2.4093  -2.1777  -1.9006  -1.7666  -1.5315
    -0.1354   0.2702   0.4328   0.6163   0.9876   1.0794   3.3531   3.8523
     4.3668   4.6782   4.7012   4.8880   5.1282   5.2922   5.4253   5.5104
     5.5887   5.6610   5.8004   5.8379   6.9249   7.1120   7.4143   7.8048
     8.2651   8.3157   8.8640   8.9493   9.0792   9.3028   9.5498   9.6071
    11.2431  11.3781  11.4990  11.6233  11.7146  11.8083  12.0129  12.0499
    12.1715  12.5269  12.8034  13.3384  13.5534  13.8476

     occupation numbers 
     1.0000   1.0000   1.0000   1.0000   1.0000   1.0000   1.0000   1.0000
     1.0000   1.0000   1.0000   1.0000   1.0000   1.0000   1.0000   1.0000
     1.0000   1.0000   1.0000   1.0000   1.0000   1.0000   1.0000   1.0000
     1.0000   1.0000   1.0000   1.0000   1.0000   1.0000   1.0000   1.0000
     1.0000   1.0000   1.0000   1.0000   1.0000   1.0000   1.0000   1.0000
     1.0000   1.0000   1.0000   1.0000   1.0000   1.0000   1.0000   1.0000
     1.0000   1.0000   1.0000   1.0000   1.0000   1.0000   1.0000   1.0000
     1.0000   1.0000   1.0000   1.0000   1.0000   1.0000   1.0000   1.0000
     1.0000   1.0000   1.0000   1.0000   1.0000   1.0000   1.0000   1.0000
     1.0000   1.0000   1.0000   1.0000   1.0000   1.0000   1.0000   1.0000
     1.0000   1.0000   1.0000   1.0000   1.0000   1.0000   1.0000   1.0000
     1.0000   1.0000   1.0000   1.0000   1.0000   1.0000   1.0000   1.0000
     1.0000   1.0000   1.0000   1.0000   1.0000   1.0000   1.0000   1.0000
     1.0000   1.0000   1.0000   1.0000   1.0000   1.0000   1.0000   0.9989
     0.4440   0.3115   0.0000   0.0000   0.0000   0.0000   0.0000   0.0000
     0.0000   0.0000   0.0000   0.0000   0.0000   0.0000   0.0000   0.0000
     0.0000   0.0000   0.0000   0.0000   0.0000   0.0000

          k = 0.1791-0.1778 0.1739 (  8656 PWs)   bands (ev):

   -17.1048 -17.0688 -17.0264 -16.9969 -16.9624 -16.9607 -16.9520 -16.9247
   -16.9032 -16.8924 -16.8716 -16.8622 -16.8489 -16.8467 -16.8300 -16.8203
   -16.8136 -16.7967 -16.7812 -16.7755 -16.7647 -16.7448 -16.7354 -16.7325
   -16.7230 -16.7140 -16.6988 -16.6907 -16.6766 -16.6744 -16.6649 -16.6564
   -16.6514 -16.6482 -16.6349 -16.6332 -16.6210 -16.6144 -16.6087 -16.6026
   -16.6003 -16.5824 -16.5780 -16.5684 -16.5630 -16.5587 -16.5566 -16.5479
   -16.5379 -16.5290 -16.5190 -16.5164 -16.5090 -16.5015 -16.4887 -16.4829
   -16.4657 -16.4616 -16.4536 -16.4468 -16.4385 -16.4341 -16.4286 -16.4227
   -16.4059 -16.4014 -16.3880 -16.3793 -16.3709 -16.3610 -16.3534 -16.3501
   -16.3485 -16.3235 -16.3060 -16.2524 -16.2494 -16.2408 -16.2314 -16.1993
    -4.5497  -3.3037  -2.9691  -2.5033  -2.1645  -2.0099  -1.6661  -1.2803
    -0.2017   0.1533   0.3466   0.5236   0.8248   1.3981   1.6506   4.2989
     4.5055   4.5887   5.0432   5.1778   5.2320   5.3536   5.4312   5.5261
     5.8054   6.3280   6.4182   6.5734   6.9195   7.3578   7.7729   8.2027
     8.3657   8.5412   8.8301   8.9634   9.2285   9.2846   9.3363   9.5420
     9.7335   9.9932  10.2502  10.5585  11.1570  11.2614  11.4467  11.6153
    11.8906  12.0165  12.3631  12.6063  12.8107  13.0397

     occupation numbers 
     1.0000   1.0000   1.0000   1.0000   1.0000   1.0000   1.0000   1.0000
     1.0000   1.0000   1.0000   1.0000   1.0000   1.0000   1.0000   1.0000
     1.0000   1.0000   1.0000   1.0000   1.0000   1.0000   1.0000   1.0000
     1.0000   1.0000   1.0000   1.0000   1.0000   1.0000   1.0000   1.0000
     1.0000   1.0000   1.0000   1.0000   1.0000   1.0000   1.0000   1.0000
     1.0000   1.0000   1.0000   1.0000   1.0000   1.0000   1.0000   1.0000
     1.0000   1.0000   1.0000   1.0000   1.0000   1.0000   1.0000   1.0000
     1.0000   1.0000   1.0000   1.0000   1.0000   1.0000   1.0000   1.0000
     1.0000   1.0000   1.0000   1.0000   1.0000   1.0000   1.0000   1.0000
     1.0000   1.0000   1.0000   1.0000   1.0000   1.0000   1.0000   1.0000
     1.0000   1.0000   1.0000   1.0000   1.0000   1.0000   1.0000   1.0000
     1.0000   1.0000   1.0000   1.0000   1.0000   1.0000   1.0000   1.0000
     1.0000   1.0000   1.0000   1.0000   1.0000   1.0000   1.0000   1.0000
     1.0000   1.0000   1.0000   1.0000   1.0000   1.0000   0.9995   0.6148
     0.2009   0.0200   0.0000   0.0000   0.0000   0.0000   0.0000   0.0000
     0.0000   0.0000   0.0000   0.0000   0.0000   0.0000   0.0000   0.0000
     0.0000   0.0000   0.0000   0.0000   0.0000   0.0000

          k = 0.3532-0.0022-0.0004 (  8664 PWs)   bands (ev):

   -17.1049 -17.0696 -17.0259 -16.9974 -16.9649 -16.9598 -16.9503 -16.9256
   -16.9039 -16.8925 -16.8738 -16.8644 -16.8479 -16.8443 -16.8294 -16.8207
   -16.8127 -16.7963 -16.7820 -16.7722 -16.7655 -16.7449 -16.7327 -16.7296
   -16.7201 -16.7156 -16.7008 -16.6894 -16.6785 -16.6741 -16.6647 -16.6591
   -16.6510 -16.6479 -16.6373 -16.6338 -16.6237 -16.6153 -16.6084 -16.6024
   -16.6002 -16.5821 -16.5763 -16.5708 -16.5636 -16.5583 -16.5526 -16.5490
   -16.5391 -16.5290 -16.5197 -16.5181 -16.5105 -16.5020 -16.4894 -16.4825
   -16.4678 -16.4613 -16.4535 -16.4470 -16.4376 -16.4319 -16.4296 -16.4227
   -16.4033 -16.4008 -16.3918 -16.3752 -16.3712 -16.3595 -16.3546 -16.3499
   -16.3489 -16.3244 -16.3062 -16.2524 -16.2494 -16.2409 -16.2317 -16.1994
    -4.4943  -3.2349  -3.0075  -2.6072  -2.4154  -2.2748  -1.3407  -0.8199
    -0.4812  -0.1936   0.4552   0.7827   1.1102   1.4111   1.8356   4.2724
     4.5021   4.5675   4.6827   4.9907   5.1415   5.2907   5.3537   5.4994
     5.7612   5.8539   6.3934   6.7913   6.8845   7.1714   7.3805   7.6464
     8.4480   8.9791   9.2098   9.2624   9.3570   9.4629   9.6559   9.8363
    10.0077  10.0971  10.2661  10.6227  11.3109  11.4561  11.5923  11.7172
    12.0126  12.0800  12.2673  12.6022  12.7380  13.1962

     occupation numbers 
     1.0000   1.0000   1.0000   1.0000   1.0000   1.0000   1.0000   1.0000
     1.0000   1.0000   1.0000   1.0000   1.0000   1.0000   1.0000   1.0000
     1.0000   1.0000   1.0000   1.0000   1.0000   1.0000   1.0000   1.0000
     1.0000   1.0000   1.0000   1.0000   1.0000   1.0000   1.0000   1.0000
     1.0000   1.0000   1.0000   1.0000   1.0000   1.0000   1.0000   1.0000
     1.0000   1.0000   1.0000   1.0000   1.0000   1.0000   1.0000   1.0000
     1.0000   1.0000   1.0000   1.0000   1.0000   1.0000   1.0000   1.0000
     1.0000   1.0000   1.0000   1.0000   1.0000   1.0000   1.0000   1.0000
     1.0000   1.0000   1.0000   1.0000   1.0000   1.0000   1.0000   1.0000
     1.0000   1.0000   1.0000   1.0000   1.0000   1.0000   1.0000   1.0000
     1.0000   1.0000   1.0000   1.0000   1.0000   1.0000   1.0000   1.0000
     1.0000   1.0000   1.0000   1.0000   1.0000   1.0000   1.0000   1.0000
     1.0000   1.0000   1.0000   1.0000   1.0000   1.0000   1.0000   1.0000
     1.0000   1.0000   1.0000   1.0000   1.0000   1.0000   1.0000   1.0000
     0.0795   0.0000   0.0000   0.0000   0.0000   0.0000   0.0000   0.0000
     0.0000   0.0000   0.0000   0.0000   0.0000   0.0000   0.0000   0.0000
     0.0000   0.0000   0.0000   0.0000   0.0000   0.0000

          k =-0.1690-0.5291 0.5225 (  8655 PWs)   bands (ev):

   -17.1050 -17.0708 -17.0262 -16.9983 -16.9658 -16.9603 -16.9515 -16.9259
   -16.9036 -16.8929 -16.8728 -16.8616 -16.8475 -16.8423 -16.8280 -16.8211
   -16.8122 -16.7913 -16.7808 -16.7709 -16.7635 -16.7453 -16.7356 -16.7296
   -16.7243 -16.7151 -16.7019 -16.6904 -16.6800 -16.6731 -16.6666 -16.6600
   -16.6545 -16.6487 -16.6390 -16.6336 -16.6215 -16.6150 -16.6090 -16.6005
   -16.6001 -16.5817 -16.5777 -16.5704 -16.5634 -16.5601 -16.5551 -16.5483
   -16.5359 -16.5295 -16.5206 -16.5176 -16.5076 -16.5023 -16.4873 -16.4817
   -16.4690 -16.4632 -16.4538 -16.4466 -16.4391 -16.4339 -16.4279 -16.4211
   -16.4057 -16.3993 -16.3936 -16.3760 -16.3707 -16.3595 -16.3553 -16.3496
   -16.3482 -16.3232 -16.3062 -16.2523 -16.2494 -16.2408 -16.2319 -16.1994
    -4.1354  -3.7280  -3.1976  -2.6663  -2.3615  -2.0564  -1.6020  -1.1710
    -0.1647   0.1247   0.5483   0.8608   1.3105   1.9681   2.9528   3.7759
     4.1372   4.2557   4.5075   4.6291   4.8563   4.9338   5.0144   5.4281
     5.6080   5.7147   5.9933   6.2121   6.4462   6.5492   6.8377   7.3043
     8.9242   9.1927   9.4128   9.6671   9.8860  10.0974  10.2956  10.6415
    10.7208  10.8345  11.2065  11.3006  11.7754  11.8982  11.9559  12.1956
    12.4406  12.6795  12.7800  13.0749  13.2004  13.3836

     occupation numbers 
     1.0000   1.0000   1.0000   1.0000   1.0000   1.0000   1.0000   1.0000
     1.0000   1.0000   1.0000   1.0000   1.0000   1.0000   1.0000   1.0000
     1.0000   1.0000   1.0000   1.0000   1.0000   1.0000   1.0000   1.0000
     1.0000   1.0000   1.0000   1.0000   1.0000   1.0000   1.0000   1.0000
     1.0000   1.0000   1.0000   1.0000   1.0000   1.0000   1.0000   1.0000
     1.0000   1.0000   1.0000   1.0000   1.0000   1.0000   1.0000   1.0000
     1.0000   1.0000   1.0000   1.0000   1.0000   1.0000   1.0000   1.0000
     1.0000   1.0000   1.0000   1.0000   1.0000   1.0000   1.0000   1.0000
     1.0000   1.0000   1.0000   1.0000   1.0000   1.0000   1.0000   1.0000
     1.0000   1.0000   1.0000   1.0000   1.0000   1.0000   1.0000   1.0000
     1.0000   1.0000   1.0000   1.0000   1.0000   1.0000   1.0000   1.0000
     1.0000   1.0000   1.0000   1.0000   1.0000   1.0000   1.0000   1.0000
     1.0000   1.0000   1.0000   1.0000   1.0000   1.0000   1.0000   1.0000
     1.0000   1.0000   1.0000   1.0000   1.0000   1.0000   1.0000   1.0000
     0.0000   0.0000   0.0000   0.0000   0.0000   0.0000   0.0000   0.0000
     0.0000   0.0000   0.0000   0.0000   0.0000   0.0000   0.0000   0.0000
     0.0000   0.0000   0.0000   0.0000   0.0000   0.0000

          k = 0.0051-0.3535 0.3482 (  8649 PWs)   bands (ev):

   -17.1049 -17.0700 -17.0267 -16.9979 -16.9636 -16.9611 -16.9530 -16.9250
   -16.9031 -16.8927 -16.8712 -16.8587 -16.8478 -16.8457 -16.8290 -16.8205
   -16.8127 -16.7920 -16.7811 -16.7729 -16.7617 -16.7460 -16.7403 -16.7327
   -16.7254 -16.7140 -16.7011 -16.6906 -16.6779 -16.6728 -16.6670 -16.6583
   -16.6544 -16.6490 -16.6363 -16.6336 -16.6184 -16.6161 -16.6082 -16.6018
   -16.5990 -16.5825 -16.5787 -16.5680 -16.5629 -16.5613 -16.5577 -16.5479
   -16.5329 -16.5317 -16.5193 -16.5165 -16.5062 -16.5019 -16.4859 -16.4822
   -16.4690 -16.4618 -16.4542 -16.4462 -16.4405 -16.4349 -16.4275 -16.4216
   -16.4081 -16.4003 -16.3902 -16.3792 -16.3710 -16.3609 -16.3542 -16.3497
   -16.3480 -16.3224 -16.3060 -16.2523 -16.2495 -16.2407 -16.2316 -16.1994
    -4.2853  -3.5417  -3.3043  -2.4419  -2.2302  -1.9259  -1.7076  -1.5012
     0.0481   0.1390   0.3647   0.7970   1.1134   1.8604   2.5437   3.7910
     4.3701   4.4560   4.7252   4.8082   4.8174   5.1457   5.3970   5.5432
     5.5854   5.7908   5.9037   6.1502   6.4584   6.6440   6.7987   7.6854
     8.7727   9.3036   9.4220   9.5668   9.6749   9.9260  10.1138  10.3362
    10.4881  10.6486  10.8974  11.0046  11.2988  11.3670  11.6758  11.8203
    12.2158  12.5882  12.9285  13.2257  13.5416  13.7242

     occupation numbers 
     1.0000   1.0000   1.0000   1.0000   1.0000   1.0000   1.0000   1.0000
     1.0000   1.0000   1.0000   1.0000   1.0000   1.0000   1.0000   1.0000
     1.0000   1.0000   1.0000   1.0000   1.0000   1.0000   1.0000   1.0000
     1.0000   1.0000   1.0000   1.0000   1.0000   1.0000   1.0000   1.0000
     1.0000   1.0000   1.0000   1.0000   1.0000   1.0000   1.0000   1.0000
     1.0000   1.0000   1.0000   1.0000   1.0000   1.0000   1.0000   1.0000
     1.0000   1.0000   1.0000   1.0000   1.0000   1.0000   1.0000   1.0000
     1.0000   1.0000   1.0000   1.0000   1.0000   1.0000   1.0000   1.0000
     1.0000   1.0000   1.0000   1.0000   1.0000   1.0000   1.0000   1.0000
     1.0000   1.0000   1.0000   1.0000   1.0000   1.0000   1.0000   1.0000
     1.0000   1.0000   1.0000   1.0000   1.0000   1.0000   1.0000   1.0000
     1.0000   1.0000   1.0000   1.0000   1.0000   1.0000   1.0000   1.0000
     1.0000   1.0000   1.0000   1.0000   1.0000   1.0000   1.0000   1.0000
     1.0000   1.0000   1.0000   1.0000   1.0000   1.0000   1.0000   0.9999
     0.0001   0.0000   0.0000   0.0000   0.0000   0.0000   0.0000   0.0000
     0.0000   0.0000   0.0000   0.0000   0.0000   0.0000   0.0000   0.0000
     0.0000   0.0000   0.0000   0.0000   0.0000   0.0000

          k =-0.3582 0.3557-0.3478 (  8674 PWs)   bands (ev):

   -17.1054 -17.0690 -17.0270 -16.9979 -16.9657 -16.9609 -16.9549 -16.9246
   -16.9034 -16.8902 -16.8704 -16.8586 -16.8499 -16.8494 -16.8274 -16.8169
   -16.8137 -16.7923 -16.7863 -16.7706 -16.7632 -16.7444 -16.7366 -16.7306
   -16.7235 -16.7085 -16.7067 -16.6854 -16.6792 -16.6688 -16.6618 -16.6589
   -16.6538 -16.6483 -16.6372 -16.6337 -16.6228 -16.6164 -16.6082 -16.6043
   -16.5991 -16.5828 -16.5752 -16.5690 -16.5659 -16.5578 -16.5550 -16.5478
   -16.5343 -16.5318 -16.5189 -16.5149 -16.5088 -16.5032 -16.4861 -16.4846
   -16.4673 -16.4603 -16.4559 -16.4493 -16.4431 -16.4392 -16.4281 -16.4235
   -16.4104 -16.4015 -16.3886 -16.3811 -16.3641 -16.3614 -16.3510 -16.3498
   -16.3468 -16.3214 -16.3059 -16.2524 -16.2493 -16.2399 -16.2309 -16.1990
    -4.0997  -3.9428  -2.8172  -2.4663  -2.3818  -2.0381  -1.8413  -1.7666
     0.2320   0.3869   0.7309   0.9249   1.0808   1.8538   3.1264   3.3949
     4.0127   4.1485   4.2508   4.3107   4.5348   4.6688   5.5664   5.6145
     5.7624   5.9496   5.9970   6.0719   6.8255   7.1982   7.7604   8.0835
     8.5165   8.5782   9.0505   9.2040   9.3284   9.5254   9.5870   9.8493
    10.9008  11.5170  11.6502  11.9126  11.9383  12.0724  12.3760  12.5337
    12.6640  12.6846  13.0883  13.2203  13.2858  13.3491

     occupation numbers 
     1.0000   1.0000   1.0000   1.0000   1.0000   1.0000   1.0000   1.0000
     1.0000   1.0000   1.0000   1.0000   1.0000   1.0000   1.0000   1.0000
     1.0000   1.0000   1.0000   1.0000   1.0000   1.0000   1.0000   1.0000
     1.0000   1.0000   1.0000   1.0000   1.0000   1.0000   1.0000   1.0000
     1.0000   1.0000   1.0000   1.0000   1.0000   1.0000   1.0000   1.0000
     1.0000   1.0000   1.0000   1.0000   1.0000   1.0000   1.0000   1.0000
     1.0000   1.0000   1.0000   1.0000   1.0000   1.0000   1.0000   1.0000
     1.0000   1.0000   1.0000   1.0000   1.0000   1.0000   1.0000   1.0000
     1.0000   1.0000   1.0000   1.0000   1.0000   1.0000   1.0000   1.0000
     1.0000   1.0000   1.0000   1.0000   1.0000   1.0000   1.0000   1.0000
     1.0000   1.0000   1.0000   1.0000   1.0000   1.0000   1.0000   1.0000
     1.0000   1.0000   1.0000   1.0000   1.0000   1.0000   1.0000   1.0000
     1.0000   1.0000   1.0000   1.0000   1.0000   1.0000   1.0000   1.0000
     1.0000   1.0000   1.0000   1.0000   1.0000   1.0000   0.9996   0.8681
     0.0299   0.0104   0.0000   0.0000   0.0000   0.0000   0.0000   0.0000
     0.0000   0.0000   0.0000   0.0000   0.0000   0.0000   0.0000   0.0000
     0.0000   0.0000   0.0000   0.0000   0.0000   0.0000

          k =-0.1842 0.5313-0.5221 (  8650 PWs)   bands (ev):

   -17.1054 -17.0698 -17.0264 -16.9984 -16.9667 -16.9616 -16.9530 -16.9253
   -16.9039 -16.8906 -16.8718 -16.8626 -16.8496 -16.8447 -16.8263 -16.8177
   -16.8141 -16.7924 -16.7847 -16.7690 -16.7630 -16.7435 -16.7347 -16.7275
   -16.7220 -16.7086 -16.7073 -16.6848 -16.6804 -16.6696 -16.6651 -16.6597
   -16.6546 -16.6482 -16.6364 -16.6354 -16.6246 -16.6166 -16.6104 -16.6027
   -16.5972 -16.5834 -16.5750 -16.5717 -16.5642 -16.5577 -16.5537 -16.5473
   -16.5376 -16.5304 -16.5197 -16.5165 -16.5099 -16.5029 -16.4872 -16.4850
   -16.4674 -16.4622 -16.4558 -16.4494 -16.4417 -16.4378 -16.4280 -16.4232
   -16.4083 -16.4011 -16.3915 -16.3780 -16.3639 -16.3604 -16.3520 -16.3495
   -16.3469 -16.3222 -16.3062 -16.2523 -16.2493 -16.2400 -16.2312 -16.1991
    -4.0864  -3.6915  -3.2047  -2.7628  -2.3685  -2.1690  -1.7058  -1.2259
    -0.1076   0.2726   0.7852   1.1441   1.3486   2.4429   2.7176   3.6128
     3.7345   3.9913   4.1344   4.4122   4.6272   4.8178   5.1016   5.2140
     5.6205   5.9299   6.0675   6.2963   6.5097   6.6576   7.2113   7.3905
     8.9626   9.3227   9.5398   9.7655  10.0306  10.0783  10.1997  10.4124
    10.6353  11.0188  11.6405  11.7367  11.8592  12.0694  12.2189  12.3852
    12.6263  12.6906  12.9141  12.9501  13.1621  13.3131

     occupation numbers 
     1.0000   1.0000   1.0000   1.0000   1.0000   1.0000   1.0000   1.0000
     1.0000   1.0000   1.0000   1.0000   1.0000   1.0000   1.0000   1.0000
     1.0000   1.0000   1.0000   1.0000   1.0000   1.0000   1.0000   1.0000
     1.0000   1.0000   1.0000   1.0000   1.0000   1.0000   1.0000   1.0000
     1.0000   1.0000   1.0000   1.0000   1.0000   1.0000   1.0000   1.0000
     1.0000   1.0000   1.0000   1.0000   1.0000   1.0000   1.0000   1.0000
     1.0000   1.0000   1.0000   1.0000   1.0000   1.0000   1.0000   1.0000
     1.0000   1.0000   1.0000   1.0000   1.0000   1.0000   1.0000   1.0000
     1.0000   1.0000   1.0000   1.0000   1.0000   1.0000   1.0000   1.0000
     1.0000   1.0000   1.0000   1.0000   1.0000   1.0000   1.0000   1.0000
     1.0000   1.0000   1.0000   1.0000   1.0000   1.0000   1.0000   1.0000
     1.0000   1.0000   1.0000   1.0000   1.0000   1.0000   1.0000   1.0000
     1.0000   1.0000   1.0000   1.0000   1.0000   1.0000   1.0000   1.0000
     1.0000   1.0000   1.0000   1.0000   1.0000   1.0000   1.0000   1.0000
     0.0000   0.0000   0.0000   0.0000   0.0000   0.0000   0.0000   0.0000
     0.0000   0.0000   0.0000   0.0000   0.0000   0.0000   0.0000   0.0000
     0.0000   0.0000   0.0000   0.0000   0.0000   0.0000

          k =-0.7064 0.0044 0.0008 (  8652 PWs)   bands (ev):

   -17.1055 -17.0706 -17.0259 -16.9989 -16.9679 -16.9615 -16.9514 -16.9260
   -16.9043 -16.8916 -16.8730 -16.8651 -16.8494 -16.8413 -16.8248 -16.8187
   -16.8147 -16.7927 -16.7828 -16.7678 -16.7630 -16.7418 -16.7346 -16.7237
   -16.7200 -16.7107 -16.7064 -16.6838 -16.6820 -16.6730 -16.6649 -16.6607
   -16.6548 -16.6491 -16.6389 -16.6367 -16.6249 -16.6163 -16.6106 -16.6026
   -16.5965 -16.5830 -16.5758 -16.5728 -16.5632 -16.5586 -16.5510 -16.5473
   -16.5401 -16.5292 -16.5214 -16.5182 -16.5106 -16.5030 -16.4876 -16.4847
   -16.4691 -16.4647 -16.4556 -16.4478 -16.4416 -16.4338 -16.4302 -16.4233
   -16.4055 -16.4007 -16.3943 -16.3753 -16.3635 -16.3597 -16.3528 -16.3495
   -16.3470 -16.3231 -16.3063 -16.2523 -16.2493 -16.2402 -16.2315 -16.1992
    -3.9090  -3.7250  -3.1813  -2.9916  -2.6196  -2.3617  -1.3278  -0.7334
    -0.4744  -0.0671   0.9659   1.5619   1.8831   1.9799   3.2702   3.3688
     3.8083   4.0243   4.1581   4.2127   4.2864   4.5744   4.6366   4.6899
     5.8900   5.9396   6.1948   6.3410   6.4913   6.8101   7.0794   7.2413
     8.7661   9.0163   9.5374   9.7624   9.9493  10.1015  10.5522  10.6747
    11.6969  11.9694  12.1140  12.1734  12.3649  12.4620  12.5108  12.6181
    12.7524  12.8100  12.8635  13.0302  13.1440  13.2642

     occupation numbers 
     1.0000   1.0000   1.0000   1.0000   1.0000   1.0000   1.0000   1.0000
     1.0000   1.0000   1.0000   1.0000   1.0000   1.0000   1.0000   1.0000
     1.0000   1.0000   1.0000   1.0000   1.0000   1.0000   1.0000   1.0000
     1.0000   1.0000   1.0000   1.0000   1.0000   1.0000   1.0000   1.0000
     1.0000   1.0000   1.0000   1.0000   1.0000   1.0000   1.0000   1.0000
     1.0000   1.0000   1.0000   1.0000   1.0000   1.0000   1.0000   1.0000
     1.0000   1.0000   1.0000   1.0000   1.0000   1.0000   1.0000   1.0000
     1.0000   1.0000   1.0000   1.0000   1.0000   1.0000   1.0000   1.0000
     1.0000   1.0000   1.0000   1.0000   1.0000   1.0000   1.0000   1.0000
     1.0000   1.0000   1.0000   1.0000   1.0000   1.0000   1.0000   1.0000
     1.0000   1.0000   1.0000   1.0000   1.0000   1.0000   1.0000   1.0000
     1.0000   1.0000   1.0000   1.0000   1.0000   1.0000   1.0000   1.0000
     1.0000   1.0000   1.0000   1.0000   1.0000   1.0000   1.0000   1.0000
     1.0000   1.0000   1.0000   1.0000   1.0000   1.0000   1.0000   1.0000
     0.0002   0.0000   0.0000   0.0000   0.0000   0.0000   0.0000   0.0000
     0.0000   0.0000   0.0000   0.0000   0.0000   0.0000   0.0000   0.0000
     0.0000   0.0000   0.0000   0.0000   0.0000   0.0000

          k =-0.1781 0.1799 0.1750 (  8660 PWs)   bands (ev):

   -17.1046 -17.0686 -17.0262 -16.9961 -16.9631 -16.9583 -16.9494 -16.9264
   -16.9043 -16.8932 -16.8755 -16.8649 -16.8495 -16.8432 -16.8337 -16.8247
   -16.8144 -16.7992 -16.7819 -16.7780 -16.7610 -16.7434 -16.7335 -16.7276
   -16.7209 -16.7136 -16.6954 -16.6902 -16.6774 -16.6691 -16.6623 -16.6571
   -16.6481 -16.6429 -16.6347 -16.6297 -16.6193 -16.6110 -16.6081 -16.6042
   -16.6022 -16.5867 -16.5759 -16.5721 -16.5668 -16.5642 -16.5536 -16.5490
   -16.5422 -16.5288 -16.5236 -16.5202 -16.5124 -16.5023 -16.4968 -16.4834
   -16.4667 -16.4609 -16.4523 -16.4445 -16.4337 -16.4303 -16.4283 -16.4196
   -16.3993 -16.3970 -16.3897 -16.3781 -16.3758 -16.3599 -16.3563 -16.3512
   -16.3488 -16.3240 -16.3058 -16.2521 -16.2490 -16.2408 -16.2315 -16.1992
    -4.5601  -3.2007  -2.9238  -2.6273  -2.2677  -1.9174  -1.7325  -1.3818
    -0.0120   0.1249   0.4159   0.5220   1.0012   1.2953   1.5934   4.3456
     4.4708   4.5450   4.9919   5.0722   5.1809   5.3107   5.3770   5.6481
     5.7455   6.1638   6.5388   6.7151   6.9121   7.2938   7.8496   8.1240
     8.3846   8.5436   8.7656   9.0662   9.1877   9.3208   9.4355   9.6143
     9.9308   9.9930  10.1198  10.6676  11.0109  11.3416  11.5278  11.7406
    11.8904  11.9884  12.2221  12.6104  12.6839  12.8357

     occupation numbers 
     1.0000   1.0000   1.0000   1.0000   1.0000   1.0000   1.0000   1.0000
     1.0000   1.0000   1.0000   1.0000   1.0000   1.0000   1.0000   1.0000
     1.0000   1.0000   1.0000   1.0000   1.0000   1.0000   1.0000   1.0000
     1.0000   1.0000   1.0000   1.0000   1.0000   1.0000   1.0000   1.0000
     1.0000   1.0000   1.0000   1.0000   1.0000   1.0000   1.0000   1.0000
     1.0000   1.0000   1.0000   1.0000   1.0000   1.0000   1.0000   1.0000
     1.0000   1.0000   1.0000   1.0000   1.0000   1.0000   1.0000   1.0000
     1.0000   1.0000   1.0000   1.0000   1.0000   1.0000   1.0000   1.0000
     1.0000   1.0000   1.0000   1.0000   1.0000   1.0000   1.0000   1.0000
     1.0000   1.0000   1.0000   1.0000   1.0000   1.0000   1.0000   1.0000
     1.0000   1.0000   1.0000   1.0000   1.0000   1.0000   1.0000   1.0000
     1.0000   1.0000   1.0000   1.0000   1.0000   1.0000   1.0000   1.0000
     1.0000   1.0000   1.0000   1.0000   1.0000   1.0000   1.0000   1.0000
     1.0000   1.0000   1.0000   1.0000   1.0000   1.0000   0.9969   0.7986
     0.1663   0.0192   0.0002   0.0000   0.0000   0.0000   0.0000   0.0000
     0.0000   0.0000   0.0000   0.0000   0.0000   0.0000   0.0000   0.0000
     0.0000   0.0000   0.0000   0.0000   0.0000   0.0000

          k =-0.0040 0.3556 0.0007 (  8656 PWs)   bands (ev):

   -17.1047 -17.0698 -17.0260 -16.9968 -16.9635 -16.9596 -16.9498 -16.9266
   -16.9037 -16.8950 -16.8717 -16.8610 -16.8485 -16.8446 -16.8322 -16.8259
   -16.8138 -16.7958 -16.7810 -16.7767 -16.7588 -16.7435 -16.7366 -16.7298
   -16.7240 -16.7144 -16.6984 -16.6891 -16.6774 -16.6704 -16.6638 -16.6575
   -16.6510 -16.6461 -16.6358 -16.6287 -16.6202 -16.6144 -16.6085 -16.6014
   -16.5999 -16.5867 -16.5742 -16.5703 -16.5674 -16.5637 -16.5585 -16.5498
   -16.5368 -16.5281 -16.5223 -16.5186 -16.5112 -16.5019 -16.4940 -16.4818
   -16.4696 -16.4607 -16.4525 -16.4450 -16.4347 -16.4320 -16.4275 -16.4181
   -16.4028 -16.3958 -16.3899 -16.3818 -16.3740 -16.3599 -16.3565 -16.3509
   -16.3488 -16.3233 -16.3058 -16.2522 -16.2490 -16.2408 -16.2317 -16.1993
    -4.4977  -3.1881  -3.0265  -2.5800  -2.5435  -2.1509  -1.3978  -0.8898
    -0.4381  -0.2994   0.6594   0.7988   1.1378   1.3247   1.8370   4.3972
     4.4991   4.5504   4.7017   4.9757   5.2044   5.2582   5.3683   5.4353
     5.7052   5.9695   6.2466   6.5772   6.8826   7.1163   7.5244   7.6459
     8.4257   9.0463   9.1424   9.1947   9.3392   9.5312   9.6419   9.8893
     9.9970  10.1064  10.4170  10.5890  11.2198  11.3486  11.5555  11.7498
    11.9932  12.2168  12.3636  12.5745  12.8133  13.0403

     occupation numbers 
     1.0000   1.0000   1.0000   1.0000   1.0000   1.0000   1.0000   1.0000
     1.0000   1.0000   1.0000   1.0000   1.0000   1.0000   1.0000   1.0000
     1.0000   1.0000   1.0000   1.0000   1.0000   1.0000   1.0000   1.0000
     1.0000   1.0000   1.0000   1.0000   1.0000   1.0000   1.0000   1.0000
     1.0000   1.0000   1.0000   1.0000   1.0000   1.0000   1.0000   1.0000
     1.0000   1.0000   1.0000   1.0000   1.0000   1.0000   1.0000   1.0000
     1.0000   1.0000   1.0000   1.0000   1.0000   1.0000   1.0000   1.0000
     1.0000   1.0000   1.0000   1.0000   1.0000   1.0000   1.0000   1.0000
     1.0000   1.0000   1.0000   1.0000   1.0000   1.0000   1.0000   1.0000
     1.0000   1.0000   1.0000   1.0000   1.0000   1.0000   1.0000   1.0000
     1.0000   1.0000   1.0000   1.0000   1.0000   1.0000   1.0000   1.0000
     1.0000   1.0000   1.0000   1.0000   1.0000   1.0000   1.0000   1.0000
     1.0000   1.0000   1.0000   1.0000   1.0000   1.0000   1.0000   1.0000
     1.0000   1.0000   1.0000   1.0000   1.0000   1.0000   1.0000   1.0000
     0.1050   0.0000   0.0000   0.0000   0.0000   0.0000   0.0000   0.0000
     0.0000   0.0000   0.0000   0.0000   0.0000   0.0000   0.0000   0.0000
     0.0000   0.0000   0.0000   0.0000   0.0000   0.0000

          k =-0.5262-0.1713 0.5235 (  8654 PWs)   bands (ev):

   -17.1048 -17.0709 -17.0263 -16.9977 -16.9642 -16.9608 -16.9503 -16.9272
   -16.9031 -16.8955 -16.8708 -16.8582 -16.8467 -16.8443 -16.8313 -16.8258
   -16.8136 -16.7912 -16.7814 -16.7704 -16.7567 -16.7470 -16.7410 -16.7309
   -16.7251 -16.7138 -16.7007 -16.6896 -16.6788 -16.6710 -16.6646 -16.6592
   -16.6517 -16.6469 -16.6363 -16.6304 -16.6176 -16.6160 -16.6095 -16.6009
   -16.5969 -16.5872 -16.5749 -16.5706 -16.5689 -16.5624 -16.5602 -16.5514
   -16.5321 -16.5299 -16.5221 -16.5177 -16.5091 -16.5024 -16.4920 -16.4815
   -16.4720 -16.4602 -16.4535 -16.4456 -16.4358 -16.4322 -16.4274 -16.4156
   -16.4049 -16.3950 -16.3927 -16.3823 -16.3732 -16.3600 -16.3568 -16.3509
   -16.3481 -16.3223 -16.3057 -16.2520 -16.2490 -16.2406 -16.2320 -16.1993
    -4.1443  -3.7427  -2.9846  -2.8706  -2.4482  -1.8997  -1.6105  -1.2679
    -0.0623   0.0124   0.4725   0.9656   1.4444   1.8994   2.9466   3.7981
     4.0634   4.3437   4.5716   4.6560   4.7813   5.0406   5.1723   5.2716
     5.5032   5.7838   5.9137   6.2470   6.3428   6.4357   6.6447   7.5077
     8.9272   9.1282   9.4567   9.6924   9.9748  10.1379  10.3857  10.4497
    10.6572  10.8765  11.0934  11.2581  11.7473  11.9727  12.1046  12.1540
    12.5139  12.7366  12.7809  13.0001  13.1683  13.4344

     occupation numbers 
     1.0000   1.0000   1.0000   1.0000   1.0000   1.0000   1.0000   1.0000
     1.0000   1.0000   1.0000   1.0000   1.0000   1.0000   1.0000   1.0000
     1.0000   1.0000   1.0000   1.0000   1.0000   1.0000   1.0000   1.0000
     1.0000   1.0000   1.0000   1.0000   1.0000   1.0000   1.0000   1.0000
     1.0000   1.0000   1.0000   1.0000   1.0000   1.0000   1.0000   1.0000
     1.0000   1.0000   1.0000   1.0000   1.0000   1.0000   1.0000   1.0000
     1.0000   1.0000   1.0000   1.0000   1.0000   1.0000   1.0000   1.0000
     1.0000   1.0000   1.0000   1.0000   1.0000   1.0000   1.0000   1.0000
     1.0000   1.0000   1.0000   1.0000   1.0000   1.0000   1.0000   1.0000
     1.0000   1.0000   1.0000   1.0000   1.0000   1.0000   1.0000   1.0000
     1.0000   1.0000   1.0000   1.0000   1.0000   1.0000   1.0000   1.0000
     1.0000   1.0000   1.0000   1.0000   1.0000   1.0000   1.0000   1.0000
     1.0000   1.0000   1.0000   1.0000   1.0000   1.0000   1.0000   1.0000
     1.0000   1.0000   1.0000   1.0000   1.0000   1.0000   1.0000   1.0000
     0.0000   0.0000   0.0000   0.0000   0.0000   0.0000   0.0000   0.0000
     0.0000   0.0000   0.0000   0.0000   0.0000   0.0000   0.0000   0.0000
     0.0000   0.0000   0.0000   0.0000   0.0000   0.0000

          k =-0.3521 0.0043 0.3493 (  8649 PWs)   bands (ev):

   -17.1048 -17.0698 -17.0265 -16.9971 -16.9638 -16.9598 -16.9498 -16.9271
   -16.9036 -16.8942 -16.8734 -16.8625 -16.8477 -16.8432 -16.8322 -16.8255
   -16.8142 -16.7947 -16.7819 -16.7719 -16.7627 -16.7440 -16.7344 -16.7302
   -16.7234 -16.7125 -16.6981 -16.6902 -16.6789 -16.6690 -16.6638 -16.6571
   -16.6506 -16.6442 -16.6358 -16.6304 -16.6176 -16.6135 -16.6082 -16.6035
   -16.6006 -16.5847 -16.5767 -16.5727 -16.5686 -16.5633 -16.5561 -16.5518
   -16.5359 -16.5302 -16.5239 -16.5189 -16.5102 -16.5028 -16.4957 -16.4829
   -16.4688 -16.4613 -16.4522 -16.4452 -16.4340 -16.4316 -16.4281 -16.4181
   -16.4012 -16.3955 -16.3923 -16.3801 -16.3739 -16.3598 -16.3568 -16.3510
   -16.3482 -16.3230 -16.3057 -16.2520 -16.2490 -16.2407 -16.2318 -16.1993
    -4.3086  -3.5429  -3.0604  -2.7305  -2.2117  -2.0082  -1.7866  -1.3478
     0.0373   0.1850   0.4020   0.7556   1.3858   1.7349   2.5201   3.8756
     4.2433   4.4286   4.5732   4.7097   4.8966   5.1380   5.2853   5.5261
     5.7251   5.8478   5.9627   6.1167   6.4044   6.4922   6.8505   7.8209
     8.7395   9.2531   9.3785   9.6545   9.7818   9.9768  10.1426  10.3809
    10.5125  10.6281  10.8468  11.1949  11.3240  11.6317  11.6920  11.8317
    11.9925  12.5008  12.8173  13.2522  13.4624  13.6110

     occupation numbers 
     1.0000   1.0000   1.0000   1.0000   1.0000   1.0000   1.0000   1.0000
     1.0000   1.0000   1.0000   1.0000   1.0000   1.0000   1.0000   1.0000
     1.0000   1.0000   1.0000   1.0000   1.0000   1.0000   1.0000   1.0000
     1.0000   1.0000   1.0000   1.0000   1.0000   1.0000   1.0000   1.0000
     1.0000   1.0000   1.0000   1.0000   1.0000   1.0000   1.0000   1.0000
     1.0000   1.0000   1.0000   1.0000   1.0000   1.0000   1.0000   1.0000
     1.0000   1.0000   1.0000   1.0000   1.0000   1.0000   1.0000   1.0000
     1.0000   1.0000   1.0000   1.0000   1.0000   1.0000   1.0000   1.0000
     1.0000   1.0000   1.0000   1.0000   1.0000   1.0000   1.0000   1.0000
     1.0000   1.0000   1.0000   1.0000   1.0000   1.0000   1.0000   1.0000
     1.0000   1.0000   1.0000   1.0000   1.0000   1.0000   1.0000   1.0000
     1.0000   1.0000   1.0000   1.0000   1.0000   1.0000   1.0000   1.0000
     1.0000   1.0000   1.0000   1.0000   1.0000   1.0000   1.0000   1.0000
     1.0000   1.0000   1.0000   1.0000   1.0000   1.0000   1.0000   0.9983
     0.0003   0.0000   0.0000   0.0000   0.0000   0.0000   0.0000   0.0000
     0.0000   0.0000   0.0000   0.0000   0.0000   0.0000   0.0000   0.0000
     0.0000   0.0000   0.0000   0.0000   0.0000   0.0000

          k = 0.0011 0.0021 0.3489 (  8654 PWs)   bands (ev):

   -17.1047 -17.0690 -17.0269 -16.9970 -16.9628 -16.9610 -16.9524 -16.9256
   -16.9030 -16.8923 -16.8725 -16.8629 -16.8492 -16.8436 -16.8298 -16.8211
   -16.8145 -16.7964 -16.7804 -16.7726 -16.7653 -16.7442 -16.7357 -16.7303
   -16.7222 -16.7180 -16.6989 -16.6893 -16.6790 -16.6740 -16.6657 -16.6545
   -16.6527 -16.6485 -16.6385 -16.6317 -16.6233 -16.6145 -16.6079 -16.6027
   -16.5988 -16.5835 -16.5798 -16.5691 -16.5632 -16.5618 -16.5536 -16.5464
   -16.5388 -16.5292 -16.5218 -16.5169 -16.5084 -16.4996 -16.4917 -16.4804
   -16.4667 -16.4634 -16.4533 -16.4460 -16.4391 -16.4336 -16.4295 -16.4217
   -16.4050 -16.3960 -16.3894 -16.3770 -16.3712 -16.3616 -16.3536 -16.3507
   -16.3494 -16.3248 -16.3069 -16.2523 -16.2492 -16.2415 -16.2314 -16.1998
    -4.5024  -3.1481  -3.0866  -2.7079  -2.4184  -2.1398  -1.2670  -0.8420
    -0.5077  -0.2757   0.5276   0.8369   1.0208   1.3310   1.8445   4.3047
     4.4897   4.5391   4.7427   4.9776   5.0621   5.2151   5.4173   5.4753
     5.6551   6.0248   6.5218   6.7044   6.8526   7.2090   7.3839   7.8082
     8.5600   8.9239   9.2295   9.3289   9.4059   9.5181   9.5975   9.8065
     9.9734  10.1448  10.2360  10.5376  11.2035  11.3608  11.6108  11.7340
    11.9071  12.0877  12.4125  12.5924  12.8028  13.1522

     occupation numbers 
     1.0000   1.0000   1.0000   1.0000   1.0000   1.0000   1.0000   1.0000
     1.0000   1.0000   1.0000   1.0000   1.0000   1.0000   1.0000   1.0000
     1.0000   1.0000   1.0000   1.0000   1.0000   1.0000   1.0000   1.0000
     1.0000   1.0000   1.0000   1.0000   1.0000   1.0000   1.0000   1.0000
     1.0000   1.0000   1.0000   1.0000   1.0000   1.0000   1.0000   1.0000
     1.0000   1.0000   1.0000   1.0000   1.0000   1.0000   1.0000   1.0000
     1.0000   1.0000   1.0000   1.0000   1.0000   1.0000   1.0000   1.0000
     1.0000   1.0000   1.0000   1.0000   1.0000   1.0000   1.0000   1.0000
     1.0000   1.0000   1.0000   1.0000   1.0000   1.0000   1.0000   1.0000
     1.0000   1.0000   1.0000   1.0000   1.0000   1.0000   1.0000   1.0000
     1.0000   1.0000   1.0000   1.0000   1.0000   1.0000   1.0000   1.0000
     1.0000   1.0000   1.0000   1.0000   1.0000   1.0000   1.0000   1.0000
     1.0000   1.0000   1.0000   1.0000   1.0000   1.0000   1.0000   1.0000
     1.0000   1.0000   1.0000   1.0000   1.0000   1.0000   1.0000   0.9988
     0.0145   0.0000   0.0000   0.0000   0.0000   0.0000   0.0000   0.0000
     0.0000   0.0000   0.0000   0.0000   0.0000   0.0000   0.0000   0.0000
     0.0000   0.0000   0.0000   0.0000   0.0000   0.0000

          k = 0.1751 0.1777 0.1746 (  8670 PWs)   bands (ev):

   -17.1047 -17.0696 -17.0257 -16.9970 -16.9647 -16.9598 -16.9505 -16.9257
   -16.9038 -16.8932 -16.8729 -16.8633 -16.8488 -16.8431 -16.8295 -16.8216
   -16.8133 -16.7971 -16.7804 -16.7747 -16.7612 -16.7448 -16.7326 -16.7286
   -16.7210 -16.7181 -16.7012 -16.6883 -16.6794 -16.6753 -16.6642 -16.6573
   -16.6524 -16.6497 -16.6398 -16.6343 -16.6262 -16.6170 -16.6087 -16.6022
   -16.5962 -16.5838 -16.5771 -16.5678 -16.5650 -16.5580 -16.5513 -16.5478
   -16.5395 -16.5277 -16.5209 -16.5166 -16.5112 -16.4998 -16.4915 -16.4793
   -16.4676 -16.4641 -16.4528 -16.4455 -16.4380 -16.4324 -16.4304 -16.4221
   -16.4014 -16.3974 -16.3913 -16.3739 -16.3716 -16.3599 -16.3548 -16.3507
   -16.3500 -16.3261 -16.3070 -16.2524 -16.2491 -16.2416 -16.2316 -16.1998
    -4.5513  -3.3002  -2.9670  -2.5696  -2.2204  -1.9107  -1.6730  -1.1485
    -0.1595   0.1425   0.3236   0.4874   0.6890   1.4519   1.5905   4.2669
     4.4095   4.5561   4.9617   5.1438   5.2121   5.3059   5.4930   5.5477
     6.1668   6.4189   6.5077   6.6332   6.9510   7.3549   7.6191   8.3072
     8.3528   8.7141   8.8543   8.9477   9.0789   9.2483   9.4173   9.4838
     9.6794   9.9208  10.2114  10.5989  11.0391  11.2756  11.3806  11.6528
    11.6956  11.9024  12.5344  12.6025  12.7861  13.1668

     occupation numbers 
     1.0000   1.0000   1.0000   1.0000   1.0000   1.0000   1.0000   1.0000
     1.0000   1.0000   1.0000   1.0000   1.0000   1.0000   1.0000   1.0000
     1.0000   1.0000   1.0000   1.0000   1.0000   1.0000   1.0000   1.0000
     1.0000   1.0000   1.0000   1.0000   1.0000   1.0000   1.0000   1.0000
     1.0000   1.0000   1.0000   1.0000   1.0000   1.0000   1.0000   1.0000
     1.0000   1.0000   1.0000   1.0000   1.0000   1.0000   1.0000   1.0000
     1.0000   1.0000   1.0000   1.0000   1.0000   1.0000   1.0000   1.0000
     1.0000   1.0000   1.0000   1.0000   1.0000   1.0000   1.0000   1.0000
     1.0000   1.0000   1.0000   1.0000   1.0000   1.0000   1.0000   1.0000
     1.0000   1.0000   1.0000   1.0000   1.0000   1.0000   1.0000   1.0000
     1.0000   1.0000   1.0000   1.0000   1.0000   1.0000   1.0000   1.0000
     1.0000   1.0000   1.0000   1.0000   1.0000   1.0000   1.0000   1.0000
     1.0000   1.0000   1.0000   1.0000   1.0000   1.0000   1.0000   1.0000
     1.0000   1.0000   1.0000   1.0000   1.0000   1.0000   1.0000   0.3326
     0.2271   0.0006   0.0000   0.0000   0.0000   0.0000   0.0000   0.0000
     0.0000   0.0000   0.0000   0.0000   0.0000   0.0000   0.0000   0.0000
     0.0000   0.0000   0.0000   0.0000   0.0000   0.0000

          k =-0.3471-0.3491 0.6974 (  8639 PWs)   bands (ev):

   -17.1048 -17.0708 -17.0260 -16.9980 -16.9657 -16.9599 -16.9517 -16.9262
   -16.9034 -16.8937 -16.8716 -16.8603 -16.8482 -16.8417 -16.8279 -16.8222
   -16.8124 -16.7917 -16.7786 -16.7749 -16.7585 -16.7448 -16.7364 -16.7299
   -16.7227 -16.7175 -16.7020 -16.6893 -16.6808 -16.6761 -16.6659 -16.6593
   -16.6537 -16.6508 -16.6412 -16.6341 -16.6239 -16.6169 -16.6064 -16.6031
   -16.5957 -16.5855 -16.5752 -16.5698 -16.5641 -16.5570 -16.5546 -16.5495
   -16.5340 -16.5297 -16.5213 -16.5165 -16.5075 -16.5005 -16.4894 -16.4783
   -16.4705 -16.4636 -16.4530 -16.4453 -16.4400 -16.4339 -16.4295 -16.4205
   -16.4040 -16.3956 -16.3922 -16.3756 -16.3706 -16.3600 -16.3557 -16.3504
   -16.3490 -16.3247 -16.3070 -16.2521 -16.2490 -16.2415 -16.2318 -16.1997
    -4.2809  -3.5700  -3.3025  -2.4487  -2.1707  -1.9968  -1.7598  -1.3284
     0.0073   0.2838   0.3633   0.5604   1.1454   1.8597   2.4985   3.7282
     4.1631   4.4330   4.6019   4.7705   5.1346   5.2116   5.3488   5.5832
     5.7090   5.8156   6.0574   6.2194   6.5013   6.6712   6.7124   7.5961
     8.9748   9.2991   9.4216   9.6353   9.7765   9.8731   9.9709  10.3421
    10.4687  10.6360  10.7481  10.9768  11.2512  11.3216  11.5486  11.7722
    12.1369  12.6745  12.8932  13.0918  13.4695  13.7214

     occupation numbers 
     1.0000   1.0000   1.0000   1.0000   1.0000   1.0000   1.0000   1.0000
     1.0000   1.0000   1.0000   1.0000   1.0000   1.0000   1.0000   1.0000
     1.0000   1.0000   1.0000   1.0000   1.0000   1.0000   1.0000   1.0000
     1.0000   1.0000   1.0000   1.0000   1.0000   1.0000   1.0000   1.0000
     1.0000   1.0000   1.0000   1.0000   1.0000   1.0000   1.0000   1.0000
     1.0000   1.0000   1.0000   1.0000   1.0000   1.0000   1.0000   1.0000
     1.0000   1.0000   1.0000   1.0000   1.0000   1.0000   1.0000   1.0000
     1.0000   1.0000   1.0000   1.0000   1.0000   1.0000   1.0000   1.0000
     1.0000   1.0000   1.0000   1.0000   1.0000   1.0000   1.0000   1.0000
     1.0000   1.0000   1.0000   1.0000   1.0000   1.0000   1.0000   1.0000
     1.0000   1.0000   1.0000   1.0000   1.0000   1.0000   1.0000   1.0000
     1.0000   1.0000   1.0000   1.0000   1.0000   1.0000   1.0000   1.0000
     1.0000   1.0000   1.0000   1.0000   1.0000   1.0000   1.0000   1.0000
     1.0000   1.0000   1.0000   1.0000   1.0000   1.0000   1.0000   1.0000
     0.0000   0.0000   0.0000   0.0000   0.0000   0.0000   0.0000   0.0000
     0.0000   0.0000   0.0000   0.0000   0.0000   0.0000   0.0000   0.0000
     0.0000   0.0000   0.0000   0.0000   0.0000   0.0000

          k =-0.1730-0.1735 0.5232 (  8630 PWs)   bands (ev):

   -17.1048 -17.0702 -17.0271 -16.9980 -16.9643 -16.9608 -16.9535 -16.9261
   -16.9028 -16.8928 -16.8718 -16.8593 -16.8474 -16.8435 -16.8286 -16.8214
   -16.8132 -16.7917 -16.7781 -16.7733 -16.7617 -16.7445 -16.7408 -16.7311
   -16.7236 -16.7179 -16.7001 -16.6895 -16.6797 -16.6751 -16.6674 -16.6574
   -16.6545 -16.6484 -16.6395 -16.6329 -16.6203 -16.6155 -16.6059 -16.6023
   -16.5984 -16.5867 -16.5773 -16.5704 -16.5634 -16.5605 -16.5559 -16.5486
   -16.5337 -16.5307 -16.5226 -16.5159 -16.5061 -16.5002 -16.4891 -16.4796
   -16.4712 -16.4614 -16.4537 -16.4455 -16.4416 -16.4342 -16.4290 -16.4202
   -16.4074 -16.3947 -16.3907 -16.3780 -16.3709 -16.3616 -16.3546 -16.3502
   -16.3486 -16.3236 -16.3069 -16.2521 -16.2492 -16.2414 -16.2316 -16.1998
    -4.1533  -3.7017  -3.2363  -2.6858  -2.3069  -1.9920  -1.6375  -1.1420
    -0.2113   0.0670   0.6881   0.7636   1.3175   1.8991   2.9345   3.7806
     4.2052   4.3190   4.4856   4.6132   4.7638   4.8937   4.9549   5.4090
     5.5723   5.8216   6.0306   6.1100   6.3970   6.8099   6.9781   7.2691
     9.1013   9.3997   9.4476   9.5688   9.8183  10.0603  10.3127  10.4182
    10.5925  10.8345  11.1070  11.4426  11.6234  11.9096  12.0036  12.1597
    12.4666  12.7430  12.7931  13.0520  13.2190  13.4383

     occupation numbers 
     1.0000   1.0000   1.0000   1.0000   1.0000   1.0000   1.0000   1.0000
     1.0000   1.0000   1.0000   1.0000   1.0000   1.0000   1.0000   1.0000
     1.0000   1.0000   1.0000   1.0000   1.0000   1.0000   1.0000   1.0000
     1.0000   1.0000   1.0000   1.0000   1.0000   1.0000   1.0000   1.0000
     1.0000   1.0000   1.0000   1.0000   1.0000   1.0000   1.0000   1.0000
     1.0000   1.0000   1.0000   1.0000   1.0000   1.0000   1.0000   1.0000
     1.0000   1.0000   1.0000   1.0000   1.0000   1.0000   1.0000   1.0000
     1.0000   1.0000   1.0000   1.0000   1.0000   1.0000   1.0000   1.0000
     1.0000   1.0000   1.0000   1.0000   1.0000   1.0000   1.0000   1.0000
     1.0000   1.0000   1.0000   1.0000   1.0000   1.0000   1.0000   1.0000
     1.0000   1.0000   1.0000   1.0000   1.0000   1.0000   1.0000   1.0000
     1.0000   1.0000   1.0000   1.0000   1.0000   1.0000   1.0000   1.0000
     1.0000   1.0000   1.0000   1.0000   1.0000   1.0000   1.0000   1.0000
     1.0000   1.0000   1.0000   1.0000   1.0000   1.0000   1.0000   1.0000
     0.0000   0.0000   0.0000   0.0000   0.0000   0.0000   0.0000   0.0000
     0.0000   0.0000   0.0000   0.0000   0.0000   0.0000   0.0000   0.0000
     0.0000   0.0000   0.0000   0.0000   0.0000   0.0000

          k =-0.5363 0.5356-0.1728 (  8653 PWs)   bands (ev):

   -17.1052 -17.0692 -17.0274 -16.9981 -16.9659 -16.9608 -16.9553 -16.9257
   -16.9032 -16.8903 -16.8714 -16.8596 -16.8495 -16.8466 -16.8272 -16.8182
   -16.8139 -16.7920 -16.7821 -16.7728 -16.7630 -16.7429 -16.7372 -16.7299
   -16.7209 -16.7147 -16.7029 -16.6842 -16.6793 -16.6719 -16.6642 -16.6597
   -16.6535 -16.6466 -16.6407 -16.6314 -16.6246 -16.6142 -16.6099 -16.6030
   -16.5990 -16.5822 -16.5801 -16.5706 -16.5642 -16.5597 -16.5544 -16.5461
   -16.5342 -16.5321 -16.5217 -16.5153 -16.5089 -16.5014 -16.4878 -16.4822
   -16.4697 -16.4586 -16.4567 -16.4495 -16.4435 -16.4386 -16.4288 -16.4227
   -16.4097 -16.3964 -16.3896 -16.3792 -16.3646 -16.3620 -16.3514 -16.3498
   -16.3477 -16.3228 -16.3068 -16.2522 -16.2490 -16.2406 -16.2310 -16.1994
    -4.1116  -3.6793  -3.0786  -2.8223  -2.6836  -1.8370  -1.6172  -1.2659
    -0.1289   0.1336   0.4895   1.4198   1.7334   2.1736   2.4394   3.5703
     3.7720   3.9884   4.1368   4.5761   4.8235   4.9536   5.1313   5.3865
     5.4906   5.7647   5.8786   6.1740   6.3402   6.5129   7.2421   7.8810
     9.0708   9.3937   9.5662   9.9846  10.0756  10.2241  10.4091  10.5620
    10.7856  10.9122  11.0615  11.3316  11.7190  11.9854  12.1449  12.2122
    12.5228  12.6790  12.7407  12.9167  13.0185  13.2241

     occupation numbers 
     1.0000   1.0000   1.0000   1.0000   1.0000   1.0000   1.0000   1.0000
     1.0000   1.0000   1.0000   1.0000   1.0000   1.0000   1.0000   1.0000
     1.0000   1.0000   1.0000   1.0000   1.0000   1.0000   1.0000   1.0000
     1.0000   1.0000   1.0000   1.0000   1.0000   1.0000   1.0000   1.0000
     1.0000   1.0000   1.0000   1.0000   1.0000   1.0000   1.0000   1.0000
     1.0000   1.0000   1.0000   1.0000   1.0000   1.0000   1.0000   1.0000
     1.0000   1.0000   1.0000   1.0000   1.0000   1.0000   1.0000   1.0000
     1.0000   1.0000   1.0000   1.0000   1.0000   1.0000   1.0000   1.0000
     1.0000   1.0000   1.0000   1.0000   1.0000   1.0000   1.0000   1.0000
     1.0000   1.0000   1.0000   1.0000   1.0000   1.0000   1.0000   1.0000
     1.0000   1.0000   1.0000   1.0000   1.0000   1.0000   1.0000   1.0000
     1.0000   1.0000   1.0000   1.0000   1.0000   1.0000   1.0000   1.0000
     1.0000   1.0000   1.0000   1.0000   1.0000   1.0000   1.0000   1.0000
     1.0000   1.0000   1.0000   1.0000   1.0000   1.0000   1.0000   0.9941
     0.0000   0.0000   0.0000   0.0000   0.0000   0.0000   0.0000   0.0000
     0.0000   0.0000   0.0000   0.0000   0.0000   0.0000   0.0000   0.0000
     0.0000   0.0000   0.0000   0.0000   0.0000   0.0000

          k =-0.3622 0.7112-0.3471 (  8649 PWs)   bands (ev):

   -17.1052 -17.0698 -17.0262 -16.9981 -16.9665 -16.9615 -16.9533 -16.9256
   -16.9038 -16.8915 -16.8706 -16.8613 -16.8493 -16.8458 -16.8258 -16.8190
   -16.8144 -16.7934 -16.7812 -16.7712 -16.7614 -16.7435 -16.7369 -16.7272
   -16.7187 -16.7144 -16.7040 -16.6829 -16.6812 -16.6731 -16.6648 -16.6608
   -16.6520 -16.6504 -16.6400 -16.6354 -16.6278 -16.6163 -16.6120 -16.5993
   -16.5967 -16.5817 -16.5796 -16.5702 -16.5638 -16.5570 -16.5529 -16.5462
   -16.5372 -16.5292 -16.5190 -16.5162 -16.5117 -16.5013 -16.4889 -16.4812
   -16.4676 -16.4642 -16.4561 -16.4480 -16.4421 -16.4372 -16.4295 -16.4222
   -16.4069 -16.3980 -16.3913 -16.3764 -16.3638 -16.3614 -16.3523 -16.3502
   -16.3476 -16.3239 -16.3070 -16.2523 -16.2490 -16.2408 -16.2311 -16.1994
    -4.2530  -3.5664  -3.0921  -2.7653  -2.3327  -2.1153  -1.7243  -1.1024
    -0.2634   0.1083   0.8758   0.9696   1.6057   1.8662   2.1438   3.5995
     3.8685   4.1447   4.4906   4.8207   4.8850   5.0164   5.1569   5.5531
     5.6754   5.7882   6.0483   6.1745   6.6208   6.7037   6.8786   8.2570
     8.9849   9.3609   9.5226   9.6608   9.7758  10.1202  10.1868  10.2893
    10.5013  10.6753  10.9872  11.1671  11.3297  11.4561  11.7308  11.9672
    12.1563  12.6088  12.8354  12.9625  13.2267  13.3821

     occupation numbers 
     1.0000   1.0000   1.0000   1.0000   1.0000   1.0000   1.0000   1.0000
     1.0000   1.0000   1.0000   1.0000   1.0000   1.0000   1.0000   1.0000
     1.0000   1.0000   1.0000   1.0000   1.0000   1.0000   1.0000   1.0000
     1.0000   1.0000   1.0000   1.0000   1.0000   1.0000   1.0000   1.0000
     1.0000   1.0000   1.0000   1.0000   1.0000   1.0000   1.0000   1.0000
     1.0000   1.0000   1.0000   1.0000   1.0000   1.0000   1.0000   1.0000
     1.0000   1.0000   1.0000   1.0000   1.0000   1.0000   1.0000   1.0000
     1.0000   1.0000   1.0000   1.0000   1.0000   1.0000   1.0000   1.0000
     1.0000   1.0000   1.0000   1.0000   1.0000   1.0000   1.0000   1.0000
     1.0000   1.0000   1.0000   1.0000   1.0000   1.0000   1.0000   1.0000
     1.0000   1.0000   1.0000   1.0000   1.0000   1.0000   1.0000   1.0000
     1.0000   1.0000   1.0000   1.0000   1.0000   1.0000   1.0000   1.0000
     1.0000   1.0000   1.0000   1.0000   1.0000   1.0000   1.0000   1.0000
     1.0000   1.0000   1.0000   1.0000   1.0000   1.0000   1.0000   0.4661
     0.0000   0.0000   0.0000   0.0000   0.0000   0.0000   0.0000   0.0000
     0.0000   0.0000   0.0000   0.0000   0.0000   0.0000   0.0000   0.0000
     0.0000   0.0000   0.0000   0.0000   0.0000   0.0000

          k =-0.8844 0.1844 0.1757 (  8651 PWs)   bands (ev):

   -17.1053 -17.0706 -17.0256 -16.9986 -16.9678 -16.9614 -16.9515 -16.9263
   -16.9041 -16.8925 -16.8720 -16.8640 -16.8495 -16.8412 -16.8248 -16.8201
   -16.8146 -16.7936 -16.7795 -16.7721 -16.7591 -16.7415 -16.7354 -16.7245
   -16.7177 -16.7124 -16.7060 -16.6824 -16.6807 -16.6753 -16.6673 -16.6602
   -16.6553 -16.6513 -16.6409 -16.6363 -16.6278 -16.6167 -16.6111 -16.6006
   -16.5959 -16.5807 -16.5793 -16.5707 -16.5648 -16.5576 -16.5489 -16.5474
   -16.5390 -16.5286 -16.5204 -16.5184 -16.5104 -16.5015 -16.4914 -16.4808
   -16.4693 -16.4653 -16.4556 -16.4462 -16.4413 -16.4345 -16.4312 -16.4232
   -16.4027 -16.3990 -16.3929 -16.3742 -16.3637 -16.3603 -16.3533 -16.3499
   -16.3476 -16.3248 -16.3071 -16.2522 -16.2489 -16.2408 -16.2314 -16.1995
    -4.0946  -3.6977  -3.0748  -2.8341  -2.6796  -1.8497  -1.7268  -1.0855
    -0.2142   0.2293   0.5155   1.3563   1.7214   2.1425   2.4295   3.4798
     3.6995   3.9009   4.2009   4.6687   4.8935   4.9663   5.2175   5.4107
     5.5974   5.6525   5.9117   6.2543   6.3512   6.5295   7.1028   7.7798
     9.2118   9.4986   9.5483   9.7799  10.1543  10.2382  10.3545  10.5633
    10.6482  10.9369  11.0728  11.3971  11.5761  11.8773  12.1805  12.2904
    12.3917  12.6959  12.7954  12.8751  13.0228  13.2714

     occupation numbers 
     1.0000   1.0000   1.0000   1.0000   1.0000   1.0000   1.0000   1.0000
     1.0000   1.0000   1.0000   1.0000   1.0000   1.0000   1.0000   1.0000
     1.0000   1.0000   1.0000   1.0000   1.0000   1.0000   1.0000   1.0000
     1.0000   1.0000   1.0000   1.0000   1.0000   1.0000   1.0000   1.0000
     1.0000   1.0000   1.0000   1.0000   1.0000   1.0000   1.0000   1.0000
     1.0000   1.0000   1.0000   1.0000   1.0000   1.0000   1.0000   1.0000
     1.0000   1.0000   1.0000   1.0000   1.0000   1.0000   1.0000   1.0000
     1.0000   1.0000   1.0000   1.0000   1.0000   1.0000   1.0000   1.0000
     1.0000   1.0000   1.0000   1.0000   1.0000   1.0000   1.0000   1.0000
     1.0000   1.0000   1.0000   1.0000   1.0000   1.0000   1.0000   1.0000
     1.0000   1.0000   1.0000   1.0000   1.0000   1.0000   1.0000   1.0000
     1.0000   1.0000   1.0000   1.0000   1.0000   1.0000   1.0000   1.0000
     1.0000   1.0000   1.0000   1.0000   1.0000   1.0000   1.0000   1.0000
     1.0000   1.0000   1.0000   1.0000   1.0000   1.0000   1.0000   0.9994
     0.0000   0.0000   0.0000   0.0000   0.0000   0.0000   0.0000   0.0000
     0.0000   0.0000   0.0000   0.0000   0.0000   0.0000   0.0000   0.0000
     0.0000   0.0000   0.0000   0.0000   0.0000   0.0000

          k =-0.7104 0.3600 0.0015 (  8658 PWs)   bands (ev):

   -17.1053 -17.0699 -17.0267 -16.9985 -16.9670 -16.9614 -16.9533 -16.9263
   -16.9037 -16.8907 -16.8727 -16.8628 -16.8487 -16.8428 -16.8265 -16.8190
   -16.8139 -16.7923 -16.7806 -16.7734 -16.7602 -16.7419 -16.7343 -16.7276
   -16.7198 -16.7134 -16.7047 -16.6838 -16.6796 -16.6706 -16.6693 -16.6603
   -16.6543 -16.6481 -16.6404 -16.6335 -16.6250 -16.6147 -16.6102 -16.6032
   -16.5973 -16.5816 -16.5797 -16.5714 -16.5652 -16.5583 -16.5535 -16.5458
   -16.5374 -16.5302 -16.5225 -16.5174 -16.5080 -16.5017 -16.4913 -16.4817
   -16.4697 -16.4612 -16.4557 -16.4484 -16.4416 -16.4382 -16.4287 -16.4233
   -16.4068 -16.3959 -16.3914 -16.3770 -16.3645 -16.3609 -16.3524 -16.3494
   -16.3477 -16.3235 -16.3070 -16.2520 -16.2490 -16.2407 -16.2312 -16.1995
    -3.8576  -3.6598  -3.4916  -3.0992  -2.1915  -2.0084  -1.6926  -1.2358
    -0.0763   0.2575   0.7080   0.9412   2.4074   2.4830   2.8203   3.0682
     3.6868   3.7783   4.0210   4.2062   4.9034   4.9767   5.1800   5.2232
     5.4742   5.6210   5.7143   5.9253   6.4255   6.5933   6.7968   7.2615
     9.8852  10.0052  10.0530  10.2302  10.3010  10.4947  10.6159  10.7227
    10.8716  10.9299  11.0798  11.2344  12.0981  12.2102  12.3398  12.4213
    12.5351  12.6297  12.7568  12.8930  12.9901  13.0879

     occupation numbers 
     1.0000   1.0000   1.0000   1.0000   1.0000   1.0000   1.0000   1.0000
     1.0000   1.0000   1.0000   1.0000   1.0000   1.0000   1.0000   1.0000
     1.0000   1.0000   1.0000   1.0000   1.0000   1.0000   1.0000   1.0000
     1.0000   1.0000   1.0000   1.0000   1.0000   1.0000   1.0000   1.0000
     1.0000   1.0000   1.0000   1.0000   1.0000   1.0000   1.0000   1.0000
     1.0000   1.0000   1.0000   1.0000   1.0000   1.0000   1.0000   1.0000
     1.0000   1.0000   1.0000   1.0000   1.0000   1.0000   1.0000   1.0000
     1.0000   1.0000   1.0000   1.0000   1.0000   1.0000   1.0000   1.0000
     1.0000   1.0000   1.0000   1.0000   1.0000   1.0000   1.0000   1.0000
     1.0000   1.0000   1.0000   1.0000   1.0000   1.0000   1.0000   1.0000
     1.0000   1.0000   1.0000   1.0000   1.0000   1.0000   1.0000   1.0000
     1.0000   1.0000   1.0000   1.0000   1.0000   1.0000   1.0000   1.0000
     1.0000   1.0000   1.0000   1.0000   1.0000   1.0000   1.0000   1.0000
     1.0000   1.0000   1.0000   1.0000   1.0000   1.0000   1.0000   1.0000
     0.0000   0.0000   0.0000   0.0000   0.0000   0.0000   0.0000   0.0000
     0.0000   0.0000   0.0000   0.0000   0.0000   0.0000   0.0000   0.0000
     0.0000   0.0000   0.0000   0.0000   0.0000   0.0000

          k =-0.3572 0.3578 0.0011 (  8672 PWs)   bands (ev):

   -17.1052 -17.0689 -17.0268 -16.9974 -16.9641 -16.9612 -16.9523 -16.9259
   -16.9037 -16.8926 -16.8723 -16.8637 -16.8486 -16.8470 -16.8318 -16.8212
   -16.8143 -16.7965 -16.7822 -16.7764 -16.7603 -16.7411 -16.7340 -16.7271
   -16.7230 -16.7070 -16.7029 -16.6862 -16.6740 -16.6688 -16.6632 -16.6554
   -16.6507 -16.6427 -16.6366 -16.6300 -16.6202 -16.6153 -16.6098 -16.6036
   -16.6008 -16.5836 -16.5784 -16.5713 -16.5683 -16.5626 -16.5544 -16.5508
   -16.5377 -16.5314 -16.5239 -16.5178 -16.5131 -16.5043 -16.4937 -16.4851
   -16.4676 -16.4607 -16.4532 -16.4469 -16.4390 -16.4332 -16.4278 -16.4242
   -16.4047 -16.3970 -16.3878 -16.3805 -16.3701 -16.3611 -16.3527 -16.3493
   -16.3477 -16.3221 -16.3058 -16.2520 -16.2488 -16.2400 -16.2311 -16.1991
    -4.2750  -3.4538  -3.1510  -2.6212  -2.4562  -2.1557  -1.9080  -0.9322
    -0.5352   0.2217   1.0080   1.2581   1.4861   1.9498   2.1218   3.7139
     4.0600   4.1934   4.2494   4.5470   4.7154   5.0536   5.1834   5.4896
     5.5752   5.6989   5.9182   6.2924   6.5227   6.6648   7.1357   8.4621
     8.9290   9.2996   9.5191   9.7032   9.9049   9.9659  10.1548  10.1865
    10.4351  10.5902  10.9152  11.1559  11.2729  11.5718  11.8337  12.0495
    12.3621  12.6687  12.9142  13.1486  13.3703  13.5001

     occupation numbers 
     1.0000   1.0000   1.0000   1.0000   1.0000   1.0000   1.0000   1.0000
     1.0000   1.0000   1.0000   1.0000   1.0000   1.0000   1.0000   1.0000
     1.0000   1.0000   1.0000   1.0000   1.0000   1.0000   1.0000   1.0000
     1.0000   1.0000   1.0000   1.0000   1.0000   1.0000   1.0000   1.0000
     1.0000   1.0000   1.0000   1.0000   1.0000   1.0000   1.0000   1.0000
     1.0000   1.0000   1.0000   1.0000   1.0000   1.0000   1.0000   1.0000
     1.0000   1.0000   1.0000   1.0000   1.0000   1.0000   1.0000   1.0000
     1.0000   1.0000   1.0000   1.0000   1.0000   1.0000   1.0000   1.0000
     1.0000   1.0000   1.0000   1.0000   1.0000   1.0000   1.0000   1.0000
     1.0000   1.0000   1.0000   1.0000   1.0000   1.0000   1.0000   1.0000
     1.0000   1.0000   1.0000   1.0000   1.0000   1.0000   1.0000   1.0000
     1.0000   1.0000   1.0000   1.0000   1.0000   1.0000   1.0000   1.0000
     1.0000   1.0000   1.0000   1.0000   1.0000   1.0000   1.0000   1.0000
     1.0000   1.0000   1.0000   1.0000   1.0000   1.0000   1.0000   0.0661
     0.0000   0.0000   0.0000   0.0000   0.0000   0.0000   0.0000   0.0000
     0.0000   0.0000   0.0000   0.0000   0.0000   0.0000   0.0000   0.0000
     0.0000   0.0000   0.0000   0.0000   0.0000   0.0000

          k =-0.1831 0.5334-0.1732 (  8652 PWs)   bands (ev):

   -17.1052 -17.0699 -17.0264 -16.9979 -16.9643 -16.9620 -16.9532 -16.9257
   -16.9037 -16.8937 -16.8701 -16.8581 -16.8490 -16.8478 -16.8303 -16.8219
   -16.8137 -16.7920 -16.7845 -16.7698 -16.7589 -16.7444 -16.7393 -16.7272
   -16.7245 -16.7076 -16.7062 -16.6856 -16.6744 -16.6696 -16.6639 -16.6558
   -16.6527 -16.6464 -16.6377 -16.6319 -16.6196 -16.6165 -16.6094 -16.6020
   -16.5977 -16.5844 -16.5777 -16.5716 -16.5685 -16.5623 -16.5559 -16.5504
   -16.5338 -16.5315 -16.5211 -16.5171 -16.5122 -16.5035 -16.4905 -16.4834
   -16.4706 -16.4605 -16.4542 -16.4464 -16.4408 -16.4336 -16.4280 -16.4220
   -16.4072 -16.3972 -16.3903 -16.3794 -16.3699 -16.3612 -16.3530 -16.3493
   -16.3474 -16.3214 -16.3056 -16.2521 -16.2489 -16.2399 -16.2312 -16.1990
    -4.1169  -3.6213  -3.1712  -2.8713  -2.4274  -2.0275  -1.7479  -1.1973
    -0.2708   0.2567   0.7654   1.1925   1.7830   2.2097   2.5002   3.7562
     3.8351   3.9345   4.2179   4.4506   4.8156   4.9229   5.0420   5.1738
     5.5747   5.6890   5.8572   6.0461   6.3595   6.8873   7.1540   7.6616
     9.1342   9.3248   9.6991   9.8084   9.9360  10.0680  10.2826  10.5158
    10.6040  10.8066  11.1456  11.3782  11.6184  12.1169  12.2668  12.5203
    12.6813  12.8418  12.9978  13.1977  13.2439  13.4534

     occupation numbers 
[...]
   -16.5954 -16.5849 -16.5760 -16.5739 -16.5633 -16.5571 -16.5531 -16.5449
   -16.5359 -16.5314 -16.5216 -16.5180 -16.5086 -16.4997 -16.4919 -16.4789
   -16.4706 -16.4632 -16.4548 -16.4480 -16.4424 -16.4374 -16.4301 -16.4218
   -16.4071 -16.3941 -16.3875 -16.3765 -16.3643 -16.3619 -16.3528 -16.3503
   -16.3486 -16.3251 -16.3078 -16.2521 -16.2487 -16.2414 -16.2311 -16.1999
    -4.1079  -3.6659  -3.2548  -2.7310  -2.4379  -2.0964  -1.6626  -1.1074
    -0.1631   0.2431   0.7571   1.1032   1.3604   2.3301   2.6231   3.4904
     3.6646   3.9903   4.1875   4.3877   4.7074   4.9669   4.9921   5.3615
     5.6867   5.8575   6.1842   6.3151   6.6248   6.8005   7.1550   7.3690
     9.1485   9.4262   9.7093   9.7568   9.9086  10.0895  10.2192  10.5299
    10.5939  11.0300  11.3700  11.5856  11.7796  11.9808  12.1701  12.4300
    12.5183  12.6525  12.6682  12.9751  13.0500  13.2375

     occupation numbers 
     1.0000   1.0000   1.0000   1.0000   1.0000   1.0000   1.0000   1.0000
     1.0000   1.0000   1.0000   1.0000   1.0000   1.0000   1.0000   1.0000
     1.0000   1.0000   1.0000   1.0000   1.0000   1.0000   1.0000   1.0000
     1.0000   1.0000   1.0000   1.0000   1.0000   1.0000   1.0000   1.0000
     1.0000   1.0000   1.0000   1.0000   1.0000   1.0000   1.0000   1.0000
     1.0000   1.0000   1.0000   1.0000   1.0000   1.0000   1.0000   1.0000
     1.0000   1.0000   1.0000   1.0000   1.0000   1.0000   1.0000   1.0000
     1.0000   1.0000   1.0000   1.0000   1.0000   1.0000   1.0000   1.0000
     1.0000   1.0000   1.0000   1.0000   1.0000   1.0000   1.0000   1.0000
     1.0000   1.0000   1.0000   1.0000   1.0000   1.0000   1.0000   1.0000
     1.0000   1.0000   1.0000   1.0000   1.0000   1.0000   1.0000   1.0000
     1.0000   1.0000   1.0000   1.0000   1.0000   1.0000   1.0000   1.0000
     1.0000   1.0000   1.0000   1.0000   1.0000   1.0000   1.0000   1.0000
     1.0000   1.0000   1.0000   1.0000   1.0000   1.0000   1.0000   1.0000
     0.0000   0.0000   0.0000   0.0000   0.0000   0.0000   0.0000   0.0000
     0.0000   0.0000   0.0000   0.0000   0.0000   0.0000   0.0000   0.0000
     0.0000   0.0000   0.0000   0.0000   0.0000   0.0000

          k =-0.3502-0.3554-0.3492 (  8652 PWs)   bands (ev):

   -17.1051 -17.0707 -17.0255 -16.9983 -16.9676 -16.9612 -16.9517 -16.9266
   -16.9040 -16.8932 -16.8708 -16.8627 -16.8496 -16.8411 -16.8249 -16.8207
   -16.8150 -16.7948 -16.7768 -16.7734 -16.7566 -16.7418 -16.7356 -16.7248
   -16.7187 -16.7118 -16.7061 -16.6820 -16.6806 -16.6754 -16.6704 -16.6607
   -16.6538 -16.6518 -16.6448 -16.6366 -16.6283 -16.6191 -16.6118 -16.6001
   -16.5931 -16.5840 -16.5747 -16.5721 -16.5647 -16.5554 -16.5496 -16.5468
   -16.5363 -16.5304 -16.5197 -16.5184 -16.5097 -16.4996 -16.4940 -16.4776
   -16.4692 -16.4673 -16.4546 -16.4448 -16.4423 -16.4349 -16.4318 -16.4229
   -16.4024 -16.3978 -16.3875 -16.3743 -16.3638 -16.3609 -16.3539 -16.3504
   -16.3485 -16.3265 -16.3080 -16.2521 -16.2487 -16.2415 -16.2313 -16.1999
    -4.1070  -3.9406  -2.8403  -2.5425  -2.3752  -2.0619  -1.9024  -1.4372
     0.2144   0.4085   0.7522   0.8270   1.0638   1.7068   3.0981   3.1465
     3.8263   4.0411   4.1876   4.3746   4.6373   5.1128   5.5786   5.7009
     5.8024   5.9825   6.0596   6.2259   6.9393   7.2117   7.5563   8.0801
     8.5646   8.8149   9.0909   9.1816   9.3530   9.4924   9.7430   9.7617
    10.9849  11.2630  11.5192  11.7853  11.9452  12.0012  12.2753  12.3582
    12.5824  12.6272  12.7199  12.9715  13.0951  13.4769

     occupation numbers 
     1.0000   1.0000   1.0000   1.0000   1.0000   1.0000   1.0000   1.0000
     1.0000   1.0000   1.0000   1.0000   1.0000   1.0000   1.0000   1.0000
     1.0000   1.0000   1.0000   1.0000   1.0000   1.0000   1.0000   1.0000
     1.0000   1.0000   1.0000   1.0000   1.0000   1.0000   1.0000   1.0000
     1.0000   1.0000   1.0000   1.0000   1.0000   1.0000   1.0000   1.0000
     1.0000   1.0000   1.0000   1.0000   1.0000   1.0000   1.0000   1.0000
     1.0000   1.0000   1.0000   1.0000   1.0000   1.0000   1.0000   1.0000
     1.0000   1.0000   1.0000   1.0000   1.0000   1.0000   1.0000   1.0000
     1.0000   1.0000   1.0000   1.0000   1.0000   1.0000   1.0000   1.0000
     1.0000   1.0000   1.0000   1.0000   1.0000   1.0000   1.0000   1.0000
     1.0000   1.0000   1.0000   1.0000   1.0000   1.0000   1.0000   1.0000
     1.0000   1.0000   1.0000   1.0000   1.0000   1.0000   1.0000   1.0000
     1.0000   1.0000   1.0000   1.0000   1.0000   1.0000   1.0000   1.0000
     1.0000   1.0000   1.0000   1.0000   1.0000   1.0000   1.0000   0.8731
     0.0133   0.0000   0.0000   0.0000   0.0000   0.0000   0.0000   0.0000
     0.0000   0.0000   0.0000   0.0000   0.0000   0.0000   0.0000   0.0000
     0.0000   0.0000   0.0000   0.0000   0.0000   0.0000

     the Fermi energy is     8.2448 ev

!    total energy              =   -3410.71730073 Ry
     Harris-Foulkes estimate   =   -3410.71730065 Ry
     estimated scf accuracy    <          3.0E-10 Ry

     The total energy is the sum of the following terms:

     one-electron contribution =   -2255.98129343 Ry
     hartree contribution      =    1331.39540308 Ry
     xc contribution           =    -922.08243444 Ry
     ewald contribution        =   -1564.04547912 Ry
     smearing contrib. (-TS)   =      -0.00349681 Ry

     convergence has been achieved in  11 iterations

     Forces acting on atoms (Ry/au):

     atom    1 type  1   force =  -0.59090970E-01 -0.34106480E-01  0.34117195E-01
     atom    2 type  1   force =   0.31439131E-01  0.79964603E-01  0.31324471E-01
     atom    3 type  1   force =  -0.75797771E-01  0.66348859E-01  0.70955352E-01
     atom    4 type  1   force =   0.83783065E-01 -0.95956482E-01 -0.17159801E+00
     atom    5 type  1   force =  -0.25151753E-01  0.65896932E-02  0.64425128E-01
     atom    6 type  1   force =   0.16194381E-01  0.15317326E-01 -0.68732420E-01
     atom    7 type  1   force =   0.60126594E-01 -0.33074542E-01  0.72267787E-01
     atom    8 type  1   force =   0.28860400E-01 -0.76284420E-01 -0.92771807E-01
     atom    9 type  1   force =   0.54722844E-02 -0.10290317E+00 -0.15120072E-01
     atom   10 type  1   force =   0.85916525E-01  0.28786307E-01 -0.63518125E-02
     atom   11 type  1   force =  -0.12392766E+00  0.59285196E-01  0.11455687E+00
     atom   12 type  1   force =   0.73557737E-01 -0.92579026E-02 -0.28545135E-01
     atom   13 type  1   force =  -0.42591507E-01 -0.18972335E-01  0.44583637E-02
     atom   14 type  1   force =  -0.28490305E-01  0.19414799E-03 -0.28634620E-02
     atom   15 type  1   force =  -0.67311634E-01  0.48650812E-02 -0.59967835E-01
     atom   16 type  1   force =   0.37011488E-01  0.10920412E+00  0.53845387E-01
     The non-local contrib.  to forces
     atom    1 type  1   force =   0.17134123E-01  0.95786104E-02  0.17952775E-01
     atom    2 type  1   force =   0.22015444E-01  0.69075073E-02 -0.61777521E-02
     atom    3 type  1   force =   0.73960420E-01  0.49104654E-01 -0.12573100E-01
     atom    4 type  1   force =  -0.31493841E-01  0.10628886E-01  0.21388735E-01
     atom    5 type  1   force =  -0.99927426E-02 -0.15077316E-01  0.20616550E-01
     atom    6 type  1   force =   0.40647217E-02 -0.73433016E-01  0.40235234E-01
     atom    7 type  1   force =   0.15664559E-01 -0.79201054E-01 -0.76262780E-01
     atom    8 type  1   force =  -0.58336563E-01  0.24618418E-01  0.33169519E-01
     atom    9 type  1   force =   0.13949066E-01 -0.15216038E-01 -0.13304127E-01
     atom   10 type  1   force =  -0.38558409E-01 -0.21814530E-01  0.15951356E-01
     atom   11 type  1   force =   0.35679193E-02  0.58890227E-01 -0.85408731E-02
     atom   12 type  1   force =  -0.17232664E-01 -0.53821188E-01 -0.99471716E-02
     atom   13 type  1   force =   0.51338551E-01  0.78726319E-01 -0.50292777E-01
     atom   14 type  1   force =  -0.16268699E-01 -0.11048573E-01  0.17488554E-02
     atom   15 type  1   force =  -0.76928598E-01  0.56680824E-02  0.67001571E-02
     atom   16 type  1   force =   0.30177325E-01 -0.10951019E-01 -0.39170334E-01
     The ionic contribution  to forces
     atom    1 type  1   force =  -0.23482242E+01 -0.13584718E+01  0.59553188E+00
     atom    2 type  1   force =  -0.10927057E+01  0.27811465E+01  0.32295605E+01
     atom    3 type  1   force =  -0.28325188E+01  0.11286163E+01  0.19593337E+01
     atom    4 type  1   force =   0.26718958E+01 -0.30606467E+01 -0.75347993E+01
     atom    5 type  1   force =  -0.19632263E+01 -0.33377375E-01  0.18538675E+01
     atom    6 type  1   force =  -0.88427411E+00  0.15046935E+01 -0.26435064E+01
     atom    7 type  1   force =   0.53323443E+01  0.88030329E-01  0.30077635E+01
     atom    8 type  1   force =   0.18427354E+01 -0.34049317E+01 -0.59425533E+01
     atom    9 type  1   force =   0.78687623E+00 -0.47518129E+01 -0.33987599E+00
     atom   10 type  1   force =   0.46384331E+01 -0.97266277E+00  0.42454869E+00
     atom   11 type  1   force =  -0.31506810E+01  0.25715739E+01  0.59855774E+01
     atom   12 type  1   force =   0.39025033E+01 -0.68273237E+00 -0.14768075E+01
     atom   13 type  1   force =  -0.30025962E+01  0.41832723E+00  0.24796648E+01
     atom   14 type  1   force =  -0.18376015E+01 -0.17607528E+01 -0.24240142E+01
     atom   15 type  1   force =  -0.25194724E+01  0.98912281E+00 -0.37853320E+01
     atom   16 type  1   force =   0.45651212E+00  0.65438777E+01  0.46110408E+01
     The local contribution  to forces
     atom    1 type  1   force =   0.22663782E+01  0.13117167E+01 -0.57788303E+00
     atom    2 type  1   force =   0.11022010E+01 -0.27014663E+01 -0.31877203E+01
     atom    3 type  1   force =   0.26790955E+01 -0.11068199E+01 -0.18696941E+01
     atom    4 type  1   force =  -0.25529534E+01  0.29481457E+01  0.73248164E+01
     atom    5 type  1   force =   0.19473652E+01  0.54755503E-01 -0.18060409E+01
     atom    6 type  1   force =   0.89519642E+00 -0.14161487E+01  0.25302727E+01
     atom    7 type  1   force =  -0.52809606E+01 -0.45823087E-01 -0.28552793E+01
     atom    8 type  1   force =  -0.17529558E+01  0.33001123E+01  0.58095912E+01
     atom    9 type  1   force =  -0.79530920E+00  0.46560096E+01  0.33616569E+00
     atom   10 type  1   force =  -0.45054791E+01  0.10232702E+01 -0.44693406E+00
     atom   11 type  1   force =   0.30139691E+01 -0.25639121E+01 -0.58507727E+01
     atom   12 type  1   force =  -0.38032385E+01  0.72322608E+00  0.14551746E+01
     atom   13 type  1   force =   0.29052461E+01 -0.51450434E+00 -0.24220520E+01
     atom   14 type  1   force =   0.18237108E+01  0.17710620E+01  0.24153208E+01
     atom   15 type  1   force =   0.25203976E+01 -0.98843162E+00  0.37141260E+01
     atom   16 type  1   force =  -0.44641549E+00 -0.64155853E+01 -0.45125549E+01
     The core correction contribution to forces
     atom    1 type  1   force =   0.56192101E-02  0.30628022E-02 -0.14878227E-02
     atom    2 type  1   force =  -0.79841618E-04 -0.66246628E-02 -0.43306008E-02
     atom    3 type  1   force =   0.36675904E-02 -0.45445117E-02 -0.61198701E-02
     atom    4 type  1   force =  -0.36626919E-02  0.59195363E-02  0.17006214E-01
     atom    5 type  1   force =   0.70529467E-03  0.27884104E-03 -0.40175291E-02
     atom    6 type  1   force =   0.12110724E-02  0.21103140E-03  0.42660583E-02
     atom    7 type  1   force =  -0.69134945E-02  0.39224541E-02 -0.39633689E-02
     atom    8 type  1   force =  -0.25962997E-02  0.39162916E-02  0.70271485E-02
     atom    9 type  1   force =  -0.48172541E-04  0.81233805E-02  0.18938083E-02
     atom   10 type  1   force =  -0.84768014E-02 -0.72196355E-05  0.76488090E-04
     atom   11 type  1   force =   0.92157962E-02 -0.72681569E-02 -0.11715387E-01
     atom   12 type  1   force =  -0.84676973E-02  0.40610290E-02  0.30329468E-02
     atom   13 type  1   force =   0.34126330E-02 -0.15172502E-02 -0.28520012E-02
     atom   14 type  1   force =   0.16786366E-02  0.93256780E-03  0.40778406E-02
     atom   15 type  1   force =   0.86966318E-02 -0.14941745E-02  0.45413776E-02
     atom   16 type  1   force =  -0.32713636E-02 -0.81379220E-02 -0.54643777E-02
     The Hubbard contrib.    to forces
     atom    1 type  1   force =   0.00000000E+00  0.00000000E+00  0.00000000E+00
     atom    2 type  1   force =   0.00000000E+00  0.00000000E+00  0.00000000E+00
     atom    3 type  1   force =   0.00000000E+00  0.00000000E+00  0.00000000E+00
     atom    4 type  1   force =   0.00000000E+00  0.00000000E+00  0.00000000E+00
     atom    5 type  1   force =   0.00000000E+00  0.00000000E+00  0.00000000E+00
     atom    6 type  1   force =   0.00000000E+00  0.00000000E+00  0.00000000E+00
     atom    7 type  1   force =   0.00000000E+00  0.00000000E+00  0.00000000E+00
     atom    8 type  1   force =   0.00000000E+00  0.00000000E+00  0.00000000E+00
     atom    9 type  1   force =   0.00000000E+00  0.00000000E+00  0.00000000E+00
     atom   10 type  1   force =   0.00000000E+00  0.00000000E+00  0.00000000E+00
     atom   11 type  1   force =   0.00000000E+00  0.00000000E+00  0.00000000E+00
     atom   12 type  1   force =   0.00000000E+00  0.00000000E+00  0.00000000E+00
     atom   13 type  1   force =   0.00000000E+00  0.00000000E+00  0.00000000E+00
     atom   14 type  1   force =   0.00000000E+00  0.00000000E+00  0.00000000E+00
     atom   15 type  1   force =   0.00000000E+00  0.00000000E+00  0.00000000E+00
     atom   16 type  1   force =   0.00000000E+00  0.00000000E+00  0.00000000E+00
     The SCF correction term to forces
     atom    1 type  1   force =   0.11360046E-05  0.74058217E-05  0.24324631E-05
     atom    2 type  1   force =   0.77582732E-05  0.17810375E-05 -0.83327042E-05
     atom    3 type  1   force =  -0.29385071E-05 -0.75015488E-05  0.78138670E-05
     atom    4 type  1   force =  -0.32668708E-05 -0.37205059E-05 -0.10993749E-04
     atom    5 type  1   force =  -0.36919225E-05  0.10251208E-04 -0.14762222E-05
     atom    6 type  1   force =  -0.42169485E-05 -0.53632943E-05 -0.10051236E-05
     atom    7 type  1   force =  -0.86579084E-05 -0.29735533E-05  0.87411795E-05
     atom    8 type  1   force =   0.13211816E-04  0.51249377E-06 -0.72760965E-05
     atom    9 type  1   force =   0.38691803E-05 -0.70632598E-05 -0.42088483E-06
     atom   10 type  1   force =  -0.27433637E-05  0.82462262E-06  0.47479844E-05
     atom   11 type  1   force =   0.28748649E-07  0.14574769E-05  0.74762669E-05
     atom   12 type  1   force =  -0.71594272E-05  0.87561705E-05  0.10462913E-05
     atom   13 type  1   force =   0.68929007E-05 -0.40830659E-05 -0.10632508E-04
     atom   14 type  1   force =  -0.99914745E-05  0.12119765E-05  0.22757371E-05
     atom   15 type  1   force =  -0.53526922E-05  0.19300053E-06 -0.43409914E-05
     atom   16 type  1   force =   0.83975195E-05  0.84600160E-06 -0.67448442E-05

     Total force =     0.441635     Total SCF correction =     0.000042


     entering subroutine stress ...

          total   stress  (Ry/bohr**3)                   (kbar)     P=   27.64
   0.0001841174  -0.0002379030   0.0000574132         27.08    -35.00      8.45
  -0.0002379030   0.0002071054   0.0002882629        -35.00     30.47     42.40
   0.0000574132   0.0002882629   0.0001724390          8.45     42.40     25.37

     kinetic stress (kbar)   9962.07     18.60    -17.24
                               18.60   9967.35    -22.74
                              -17.24    -22.74   9953.89

     local   stress (kbar)   1389.57   5310.06  -3085.33
                             5310.06   2022.76  -5140.65
                            -3085.33  -5140.65    668.85

     nonloc. stress (kbar)   2943.91    -28.84     13.32
                              -28.84   2941.15     25.90
                               13.32     25.90   2947.65

     hartree stress (kbar)  26371.39  -2099.40   1231.53
                            -2099.40  26109.16   2004.29
                             1231.53   2004.29  26654.90

     exc-cor stress (kbar)  19393.08     -1.35      0.69
                               -1.35  19392.93      1.34
                                0.69      1.34  19393.30

     corecor stress (kbar) -29021.75      1.66     -0.70
                                1.66 -29021.64     -1.67
                               -0.70     -1.67 -29021.96

     ewald   stress (kbar) -31011.19  -3235.72   1866.17
                            -3235.72 -31381.24   3175.93
                             1866.17   3175.93 -30571.26

     hubbard stress (kbar)      0.00      0.00      0.00
                                0.00      0.00      0.00
                                0.00      0.00      0.00

     london  stress (kbar)      0.00      0.00      0.00
                                0.00      0.00      0.00
                                0.00      0.00      0.00

     XDM     stress (kbar)      0.00      0.00      0.00
                                0.00      0.00      0.00
                                0.00      0.00      0.00

     dft-nl  stress (kbar)      0.00      0.00      0.00
                                0.00      0.00      0.00
                                0.00      0.00      0.00



     Writing output data file Ge_diamond.scf.in.super.222.largdist.011.save

     init_run     :     47.39s CPU     45.23s WALL (       1 calls)
     electrons    :   1633.46s CPU   1771.62s WALL (       1 calls)
     forces       :     16.22s CPU     14.87s WALL (       1 calls)
     stress       :    104.66s CPU    106.82s WALL (       1 calls)

     Called by init_run:
     wfcinit      :     44.50s CPU     42.31s WALL (       1 calls)
     potinit      :      0.64s CPU      0.65s WALL (       1 calls)

     Called by electrons:
     c_bands      :   1423.97s CPU   1557.73s WALL (      12 calls)
     sum_band     :    196.42s CPU    200.59s WALL (      12 calls)
     v_of_rho     :      1.42s CPU      1.44s WALL (      12 calls)
     v_h          :      0.09s CPU      0.10s WALL (      12 calls)
     v_xc         :      1.61s CPU      1.63s WALL (      14 calls)
     newd         :     10.03s CPU     10.20s WALL (      12 calls)
     mix_rho      :      2.32s CPU      2.38s WALL (      12 calls)

     Called by c_bands:
     init_us_2    :      5.10s CPU      5.39s WALL (     972 calls)
     cegterg      :   1395.20s CPU   1527.15s WALL (     432 calls)

     Called by sum_band:
     sum_band:bec :      1.32s CPU      1.38s WALL (     432 calls)
     addusdens    :     10.03s CPU     10.43s WALL (      12 calls)

     Called by *egterg:
     h_psi        :    746.34s CPU    756.91s WALL (    1619 calls)
     s_psi        :     65.24s CPU     54.61s WALL (    1619 calls)
     g_psi        :      1.79s CPU      1.80s WALL (    1151 calls)
     cdiaghg      :    324.56s CPU    456.82s WALL (    1547 calls)
     cegterg:over :    132.05s CPU    125.42s WALL (    1151 calls)
     cegterg:upda :     44.84s CPU     41.89s WALL (    1151 calls)
     cegterg:last :     26.42s CPU     21.84s WALL (     432 calls)

     Called by h_psi:
     h_psi:vloc   :    583.56s CPU    607.74s WALL (    1619 calls)
     h_psi:vnl    :    160.29s CPU    146.45s WALL (    1619 calls)
     add_vuspsi   :     64.51s CPU     55.87s WALL (    1619 calls)

     General routines
     calbec       :    157.38s CPU    149.02s WALL (    2123 calls)
     fft          :      2.61s CPU      2.61s WALL (     217 calls)
     ffts         :      1.24s CPU      1.29s WALL (     366 calls)
     fftw         :    643.38s CPU    670.56s WALL (  332910 calls)
     interpolate  :      0.33s CPU      0.35s WALL (      24 calls)

     Parallel routines
     fft_scatter  :    371.05s CPU    387.15s WALL (  333493 calls)

     PWSCF        : 30m 8.25s CPU    32m28.09s WALL


   This run was terminated on:  11:42:20  27Sep2017            

=------------------------------------------------------------------------------=
   JOB DONE.
=------------------------------------------------------------------------------=
