
     Program PWSCF v.5.1 starts on 14Feb2017 at 10:43:41 

     This program is part of the open-source Quantum ESPRESSO suite
     for quantum simulation of materials; please cite
         "P. Giannozzi et al., J. Phys.:Condens. Matter 21 395502 (2009);
          URL http://www.quantum-espresso.org", 
     in publications or presentations arising from this work. More details at
     http://www.quantum-espresso.org/quote

     Parallel version (MPI), running on     8 processors
     R & G space division:  proc/nbgrp/npool/nimage =       8
     Reading input from /tmp/Ge_diamond.scf.in.super.222.02.30663/Ge_diamond.scf.in.super.222.02.t
Warning: card &IONS ignored
Warning: card   ION_DYNAMICS='BFGS', ignored
Warning: card / ignored
Warning: card &CELL ignored
Warning: card  CELL_DYNAMICS = 'BFGS' ignored
Warning: card / ignored
     Message from routine read_cards :
     DEPRECATED: no units specified in CELL_PARAMETERS card

     Current dimensions of program PWSCF are:
     Max number of different atomic species (ntypx) = 10
     Max number of k-points (npk) =  40000
     Max angular momentum in pseudopotentials (lmaxx) =  3

     Subspace diagonalization in iterative solution of the eigenvalue problem:
     a serial algorithm will be used


     Parallelization info
     --------------------
     sticks:   dense  smooth     PW     G-vecs:    dense   smooth      PW
     Min         397     277     76                14695     8616    1260
     Max         399     278     77                14696     8641    1261
     Sum        3181    2221    613               117565    69041   10081



     bravais-lattice index     =            0
     lattice parameter (alat)  =    15.161884076  a.u.
     unit-cell volume          =    2464.5891 (a.u.)^3
     number of atoms/cell      =           16
     number of atomic types    =            1
     number of electrons       =       224.00
     number of Kohn-Sham states=          134
     kinetic-energy cutoff     =      35.0000  Ry
     charge density cutoff     =     200.0000  Ry
     convergence threshold     =      1.0E-09
     mixing beta               =       0.3000
     number of iterations used =            8  local-TF  mixing
     Exchange-correlation      = SLA  PW   PSX  PSC ( 1  4 10  8 0)
     A smooth kinetic-energy cutoff is imposed at      34.5000 Ry
     height of the smooth step-function =             800.0000 Ry
     width of the smooth step-function  =               1.0000 Ry


     celldm(1)=  15.161884  celldm(2)=   0.000000  celldm(3)=   0.000000
     celldm(4)=   0.000000  celldm(5)=   0.000000  celldm(6)=   0.000000

     crystal axes: (cart. coord. in units of alat)
               a(1) = (   0.000000000000   0.707106781187   0.707106781187 )  
               a(2) = (   0.707106781187   0.000000000000   0.707106781187 )  
               a(3) = (   0.707106781187   0.707106781187   0.000000000000 )  

     reciprocal axes: (cart. coord. in units 2 pi/alat)
               b(1) = ( -0.707107  0.707107  0.707107 )  
               b(2) = (  0.707107 -0.707107  0.707107 )  
               b(3) = (  0.707107  0.707107 -0.707107 )  


     PseudoPot. # 1 for Ge read from file:
     /users/kfg/psuedo/gbrv_1.5/ge.pbesol.UPF
     MD5 check sum: 7bed0412183f5e553a4d27ec7023354d
     Pseudo is Ultrasoft + core correction, Zval = 14.0
     Generated by new atomic code, or converted to UPF format
     Using radial grid of  873 points,  6 beta functions with: 
                l(1) =   0
                l(2) =   0
                l(3) =   1
                l(4) =   1
                l(5) =   2
                l(6) =   2
     Q(r) pseudized with  8 coefficients,  rinner =    1.400   1.400   1.400
                                                       1.400   1.400

     atomic species   valence    mass     pseudopotential
        Ge            14.00    72.64000     Ge( 1.00)

     No symmetry found


                                    s                        frac. trans.

      isym =  1     identity                                     

 cryst.   s( 1) = (     1          0          0      )
                  (     0          1          0      )
                  (     0          0          1      )

 cart.    s( 1) = (  1.0000000  0.0000000  0.0000000 )
                  (  0.0000000  1.0000000  0.0000000 )
                  (  0.0000000  0.0000000  1.0000000 )


     point group C_1 (1)    
     there are  1 classes
     the character table:

       E    
A      1.00

     the symmetry operations in each class:
     E        1

   Cartesian axes

     site n.     atom                  positions (alat units)
         1           Ge  tau(   1) = (    0.00614444129   -0.00625453314    0.00307369606  )
         2           Ge  tau(   2) = (    0.16813854388    0.17483211331    0.17446140453  )
         3           Ge  tau(   3) = (    0.35891843356    0.35380440767   -0.00756933245  )
         4           Ge  tau(   4) = (    0.54111711247    0.53976854058    0.18822826642  )
         5           Ge  tau(   5) = (    0.35135228190   -0.01082850422    0.35082664880  )
         6           Ge  tau(   6) = (    0.52155024962    0.18831942966    0.52735935056  )
         7           Ge  tau(   7) = (    0.69552904997    0.35533773871    0.36550913359  )
         8           Ge  tau(   8) = (    0.88076984695    0.52750007684    0.52353883438  )
         9           Ge  tau(   9) = (   -0.01122343352    0.35728265501    0.34274828400  )
        10           Ge  tau(  10) = (    0.18330923572    0.52597139582    0.54276504589  )
        11           Ge  tau(  11) = (    0.35388578707    0.69831720469    0.36272321666  )
        12           Ge  tau(  12) = (    0.52429379450    0.87145355766    0.52763837483  )
        13           Ge  tau(  13) = (    0.34094038353    0.34863270355    0.71303042516  )
        14           Ge  tau(  14) = (    0.53976591845    0.53650561692    0.87607723851  )
        15           Ge  tau(  15) = (    0.69553822882    0.71499768079    0.72005517010  )
        16           Ge  tau(  16) = (    0.88385406857    0.89413126243    0.88535667431  )

   Crystallographic axes

     site n.     atom                  positions (cryst. coord.)
         1           Ge  tau(   1) = (   -0.00659396757    0.01094083022   -0.00225127802  )
         2           Ge  tau(   2) = (    0.12809591053    0.11862977386    0.11915403525  )
         3           Ge  tau(   3) = (   -0.00896848870   -0.00173616392    0.50932348045  )
         4           Ge  tau(   4) = (    0.13214389927    0.13405106792    0.63120409137  )
         5           Ge  tau(   5) = (   -0.00802858749    0.50417239227   -0.00728523004  )
         6           Ge  tau(   6) = (    0.13726960041    0.60852914540    0.12905429107  )
         7           Ge  tau(   7) = (    0.01790240386    0.49900557004    0.48462104545  )
         8           Ge  tau(   8) = (    0.12039840997    0.61999731003    0.62559935286  )
         9           Ge  tau(   9) = (    0.50293278997   -0.01821351826    0.00234118635  )
        10           Ge  tau(  10) = (    0.62609158160    0.14149410748    0.11774429979  )
        11           Ge  tau(  11) = (    0.50003383724    0.01293425515    0.48753582446  )
        12           Ge  tau(  12) = (    0.61857569555    0.12761765017    0.61384574468  )
        13           Ge  tau(  13) = (    0.50962794047    0.49874935718   -0.01658684283  )
        14           Ge  tau(  14) = (    0.61717477487    0.62178553751    0.14155874486  )
        15           Ge  tau(  15) = (    0.52291580406    0.49539598316    0.48824361319  )
        16           Ge  tau(  16) = (    0.63330878165    0.61877463470    0.63118377623  )

     number of k points=    36  gaussian smearing, width (Ry)=  0.0150
                       cart. coord. in units 2pi/alat
        k(    1) = (   0.0000000   0.0000000   0.0000000), wk =   0.0312500
        k(    2) = (   0.1767767   0.1767767  -0.1767767), wk =   0.0625000
        k(    3) = (  -0.3535534  -0.3535534   0.3535534), wk =   0.0312500
        k(    4) = (   0.3535534   0.0000000   0.0000000), wk =   0.0625000
        k(    5) = (  -0.1767767  -0.5303301   0.5303301), wk =   0.0625000
        k(    6) = (   0.0000000  -0.3535534   0.3535534), wk =   0.0625000
        k(    7) = (  -0.7071068   0.0000000   0.0000000), wk =   0.0312500
        k(    8) = (  -0.7071068   0.3535534   0.0000000), wk =   0.0625000
        k(    9) = (  -0.1767767  -0.1767767  -0.1767767), wk =   0.0625000
        k(   10) = (  -0.1767767   0.1767767   0.1767767), wk =   0.0625000
        k(   11) = (   0.1767767  -0.1767767   0.1767767), wk =   0.0625000
        k(   12) = (   0.3535534   0.3535534   0.3535534), wk =   0.0312500
        k(   13) = (   0.3535534  -0.3535534  -0.3535534), wk =   0.0312500
        k(   14) = (  -0.3535534   0.3535534  -0.3535534), wk =   0.0312500
        k(   15) = (   0.0000000   0.3535534   0.0000000), wk =   0.0625000
        k(   16) = (   0.0000000   0.0000000   0.3535534), wk =   0.0625000
        k(   17) = (   0.1767767   0.5303301   0.5303301), wk =   0.0625000
        k(   18) = (   0.1767767  -0.5303301  -0.5303301), wk =   0.0625000
        k(   19) = (  -0.1767767   0.5303301  -0.5303301), wk =   0.0625000
        k(   20) = (  -0.5303301  -0.1767767  -0.5303301), wk =   0.0625000
        k(   21) = (   0.5303301   0.1767767  -0.5303301), wk =   0.0625000
        k(   22) = (  -0.5303301   0.1767767   0.5303301), wk =   0.0625000
        k(   23) = (   0.5303301  -0.1767767   0.5303301), wk =   0.0625000
        k(   24) = (   0.5303301   0.5303301  -0.1767767), wk =   0.0625000
        k(   25) = (  -0.5303301   0.5303301   0.1767767), wk =   0.0625000
        k(   26) = (   0.5303301  -0.5303301   0.1767767), wk =   0.0625000
        k(   27) = (  -0.5303301  -0.5303301  -0.1767767), wk =   0.0625000
        k(   28) = (   0.0000000   0.3535534   0.3535534), wk =   0.0625000
        k(   29) = (  -0.3535534   0.0000000  -0.3535534), wk =   0.0625000
        k(   30) = (   0.3535534   0.0000000  -0.3535534), wk =   0.0625000
        k(   31) = (   0.3535534   0.3535534   0.0000000), wk =   0.0625000
        k(   32) = (  -0.3535534   0.3535534   0.0000000), wk =   0.0625000
        k(   33) = (   0.0000000  -0.7071068   0.0000000), wk =   0.0312500
        k(   34) = (   0.0000000   0.0000000  -0.7071068), wk =   0.0312500
        k(   35) = (   0.3535534  -0.7071068   0.0000000), wk =   0.0625000
        k(   36) = (   0.7071068  -0.0000000   0.3535534), wk =   0.0625000

                       cryst. coord.
        k(    1) = (   0.0000000   0.0000000   0.0000000), wk =   0.0312500
        k(    2) = (   0.0000000   0.0000000   0.2500000), wk =   0.0625000
        k(    3) = (   0.0000000   0.0000000  -0.5000000), wk =   0.0312500
        k(    4) = (   0.0000000   0.2500000   0.2500000), wk =   0.0625000
        k(    5) = (   0.0000000   0.2500000  -0.5000000), wk =   0.0625000
        k(    6) = (   0.0000000   0.2500000  -0.2500000), wk =   0.0625000
        k(    7) = (   0.0000000  -0.5000000  -0.5000000), wk =   0.0312500
        k(    8) = (   0.2500000  -0.5000000  -0.2500000), wk =   0.0625000
        k(    9) = (  -0.2500000  -0.2500000  -0.2500000), wk =   0.0625000
        k(   10) = (   0.2500000   0.0000000   0.0000000), wk =   0.0625000
        k(   11) = (   0.0000000   0.2500000   0.0000000), wk =   0.0625000
        k(   12) = (   0.5000000   0.5000000   0.5000000), wk =   0.0312500
        k(   13) = (  -0.5000000   0.0000000   0.0000000), wk =   0.0312500
        k(   14) = (   0.0000000  -0.5000000   0.0000000), wk =   0.0312500
        k(   15) = (   0.2500000   0.0000000   0.2500000), wk =   0.0625000
        k(   16) = (   0.2500000   0.2500000   0.0000000), wk =   0.0625000
        k(   17) = (   0.7500000   0.5000000   0.5000000), wk =   0.0625000
        k(   18) = (  -0.7500000  -0.2500000  -0.2500000), wk =   0.0625000
        k(   19) = (   0.0000000  -0.5000000   0.2500000), wk =   0.0625000
        k(   20) = (  -0.5000000  -0.7500000  -0.5000000), wk =   0.0625000
        k(   21) = (  -0.2500000   0.0000000   0.5000000), wk =   0.0625000
        k(   22) = (   0.5000000   0.0000000  -0.2500000), wk =   0.0625000
        k(   23) = (   0.2500000   0.7500000   0.2500000), wk =   0.0625000
        k(   24) = (   0.2500000   0.2500000   0.7500000), wk =   0.0625000
        k(   25) = (   0.5000000  -0.2500000   0.0000000), wk =   0.0625000
        k(   26) = (  -0.2500000   0.5000000   0.0000000), wk =   0.0625000
        k(   27) = (  -0.5000000  -0.5000000  -0.7500000), wk =   0.0625000
        k(   28) = (   0.5000000   0.2500000   0.2500000), wk =   0.0625000
        k(   29) = (  -0.2500000  -0.5000000  -0.2500000), wk =   0.0625000
        k(   30) = (  -0.2500000   0.0000000   0.2500000), wk =   0.0625000
        k(   31) = (   0.2500000   0.2500000   0.5000000), wk =   0.0625000
        k(   32) = (   0.2500000  -0.2500000   0.0000000), wk =   0.0625000
        k(   33) = (  -0.5000000   0.0000000  -0.5000000), wk =   0.0312500
        k(   34) = (  -0.5000000  -0.5000000   0.0000000), wk =   0.0312500
        k(   35) = (  -0.5000000   0.2500000  -0.2500000), wk =   0.0625000
        k(   36) = (   0.2500000   0.7500000   0.5000000), wk =   0.0625000

     Dense  grid:   117565 G-vectors     FFT dimensions: (  72,  72,  72)

     Smooth grid:    69041 G-vectors     FFT dimensions: (  60,  60,  60)

     Largest allocated arrays     est. size (Mb)     dimensions
        Kohn-Sham Wavefunctions         2.25 Mb     (    1100,  134)
        NL pseudopotentials             4.83 Mb     (    1100,  288)
        Each V/rho on FFT grid          0.71 Mb     (   46656)
        Each G-vector array             0.11 Mb     (   14696)
        G-vector shells                 0.01 Mb     (     776)
     Largest temporary arrays     est. size (Mb)     dimensions
        Auxiliary wavefunctions         9.00 Mb     (    1100,  536)
        Each subspace H/S matrix        4.38 Mb     (     536,  536)
        Each <psi_i|beta_j> matrix      0.59 Mb     (     288,  134)
        Arrays for rho mixing           5.70 Mb     (   46656,    8)

     Check: negative/imaginary core charge=   -0.000002    0.000000

     Initial potential from superposition of free atoms

     starting charge  223.98707, renormalised to  224.00000
     Starting wfc are  144 randomized atomic wfcs

     total cpu time spent up to now is       28.4 secs

     per-process dynamical memory:   102.9 Mb

     Self-consistent Calculation

     iteration #  1     ecut=    35.00 Ry     beta=0.30
     Davidson diagonalization with overlap
     ethr =  1.00E-02,  avg # of iterations =  3.8

     Threshold (ethr) on eigenvalues was too large:
     Diagonalizing with lowered threshold

     Davidson diagonalization with overlap
     ethr =  1.13E-04,  avg # of iterations =  5.8

     total cpu time spent up to now is      287.6 secs

     total energy              =   -3410.94687430 Ry
     Harris-Foulkes estimate   =   -3410.97474890 Ry
     estimated scf accuracy    <       0.27008184 Ry

     iteration #  2     ecut=    35.00 Ry     beta=0.30
     Davidson diagonalization with overlap
     ethr =  1.21E-04,  avg # of iterations =  1.0

     total cpu time spent up to now is      364.9 secs

     total energy              =   -3410.89520567 Ry
     Harris-Foulkes estimate   =   -3410.94782655 Ry
     estimated scf accuracy    <       0.16587929 Ry

     iteration #  3     ecut=    35.00 Ry     beta=0.30
     Davidson diagonalization with overlap
     ethr =  7.41E-05,  avg # of iterations =  2.0

     total cpu time spent up to now is      451.9 secs

     total energy              =   -3410.90415904 Ry
     Harris-Foulkes estimate   =   -3410.90467221 Ry
     estimated scf accuracy    <       0.00331761 Ry

     iteration #  4     ecut=    35.00 Ry     beta=0.30
     Davidson diagonalization with overlap
     ethr =  1.48E-06,  avg # of iterations =  5.2

     total cpu time spent up to now is      643.6 secs

     total energy              =   -3410.90475032 Ry
     Harris-Foulkes estimate   =   -3410.90480431 Ry
     estimated scf accuracy    <       0.00041330 Ry

     iteration #  5     ecut=    35.00 Ry     beta=0.30
     Davidson diagonalization with overlap
     ethr =  1.85E-07,  avg # of iterations =  2.0

     total cpu time spent up to now is      737.9 secs

     total energy              =   -3410.90474920 Ry
     Harris-Foulkes estimate   =   -3410.90478359 Ry
     estimated scf accuracy    <       0.00008530 Ry

     iteration #  6     ecut=    35.00 Ry     beta=0.30
     Davidson diagonalization with overlap
     ethr =  3.81E-08,  avg # of iterations =  2.0

     total cpu time spent up to now is      825.8 secs

     total energy              =   -3410.90475632 Ry
     Harris-Foulkes estimate   =   -3410.90475358 Ry
     estimated scf accuracy    <       0.00000498 Ry

     iteration #  7     ecut=    35.00 Ry     beta=0.30
     Davidson diagonalization with overlap
     ethr =  2.22E-09,  avg # of iterations =  2.0

     total cpu time spent up to now is      920.0 secs

     total energy              =   -3410.90475696 Ry
     Harris-Foulkes estimate   =   -3410.90475684 Ry
     estimated scf accuracy    <       0.00000314 Ry

     iteration #  8     ecut=    35.00 Ry     beta=0.30
     Davidson diagonalization with overlap
     ethr =  1.40E-09,  avg # of iterations =  2.0

     total cpu time spent up to now is     1010.5 secs

     total energy              =   -3410.90475750 Ry
     Harris-Foulkes estimate   =   -3410.90475717 Ry
     estimated scf accuracy    <       0.00000030 Ry

     iteration #  9     ecut=    35.00 Ry     beta=0.30
     Davidson diagonalization with overlap
     ethr =  1.35E-10,  avg # of iterations =  2.0

     total cpu time spent up to now is     1097.0 secs

     total energy              =   -3410.90475766 Ry
     Harris-Foulkes estimate   =   -3410.90475752 Ry
     estimated scf accuracy    <       0.00000014 Ry

     iteration # 10     ecut=    35.00 Ry     beta=0.30
     Davidson diagonalization with overlap
     ethr =  6.15E-11,  avg # of iterations =  2.0

     total cpu time spent up to now is     1188.3 secs

     total energy              =   -3410.90475775 Ry
     Harris-Foulkes estimate   =   -3410.90475769 Ry
     estimated scf accuracy    <       0.00000003 Ry

     iteration # 11     ecut=    35.00 Ry     beta=0.30
     Davidson diagonalization with overlap
     ethr =  1.21E-11,  avg # of iterations =  2.0

     total cpu time spent up to now is     1295.3 secs

     End of self-consistent calculation

          k = 0.0000 0.0000 0.0000 (  8609 PWs)   bands (ev):

   -16.8932 -16.8527 -16.8420 -16.7975 -16.7610 -16.7591 -16.7513 -16.7457
   -16.7312 -16.7284 -16.7157 -16.7110 -16.6970 -16.6909 -16.6811 -16.6612
   -16.6559 -16.6535 -16.6388 -16.6363 -16.6318 -16.6143 -16.6123 -16.6080
   -16.6009 -16.5842 -16.5758 -16.5709 -16.5545 -16.5518 -16.5486 -16.5342
   -16.5291 -16.5204 -16.5148 -16.5095 -16.5052 -16.4945 -16.4911 -16.4874
   -16.4826 -16.4817 -16.4755 -16.4641 -16.4563 -16.4493 -16.4393 -16.4359
   -16.4286 -16.4277 -16.4248 -16.4166 -16.4048 -16.4025 -16.3956 -16.3922
   -16.3889 -16.3839 -16.3737 -16.3716 -16.3621 -16.3551 -16.3527 -16.3433
   -16.3368 -16.3295 -16.3280 -16.3209 -16.2988 -16.2775 -16.2756 -16.2321
   -16.2263 -16.1996 -16.1963 -16.1898 -16.1802 -16.1711 -16.1660 -16.1408
    -4.5901  -2.6925  -2.5275  -2.5138  -2.3605  -1.0405  -0.8853  -0.7363
    -0.6091  -0.4992  -0.3447   0.5229   0.6874   0.7533   0.8351   4.9948
     5.0583   5.0847   5.1660   5.2056   5.2529   6.4621   6.6221   6.6605
     6.7648   6.9043   6.9810   7.0058   7.0962   8.0027   8.0631   8.2210
     8.2316   8.2575   8.3536   8.4088   8.5132   8.6993   8.7752   8.8344
     8.9478   9.0379   9.1276  10.5561  10.6724  10.8770  11.6438  11.6852
    11.8253  11.8882  12.0588  12.1217  12.1723  12.3001

     occupation numbers 
     1.0000   1.0000   1.0000   1.0000   1.0000   1.0000   1.0000   1.0000
     1.0000   1.0000   1.0000   1.0000   1.0000   1.0000   1.0000   1.0000
     1.0000   1.0000   1.0000   1.0000   1.0000   1.0000   1.0000   1.0000
     1.0000   1.0000   1.0000   1.0000   1.0000   1.0000   1.0000   1.0000
     1.0000   1.0000   1.0000   1.0000   1.0000   1.0000   1.0000   1.0000
     1.0000   1.0000   1.0000   1.0000   1.0000   1.0000   1.0000   1.0000
     1.0000   1.0000   1.0000   1.0000   1.0000   1.0000   1.0000   1.0000
     1.0000   1.0000   1.0000   1.0000   1.0000   1.0000   1.0000   1.0000
     1.0000   1.0000   1.0000   1.0000   1.0000   1.0000   1.0000   1.0000
     1.0000   1.0000   1.0000   1.0000   1.0000   1.0000   1.0000   1.0000
     1.0000   1.0000   1.0000   1.0000   1.0000   1.0000   1.0000   1.0000
     1.0000   1.0000   1.0000   1.0000   1.0000   1.0000   1.0000   1.0000
     1.0000   1.0000   1.0000   1.0000   1.0000   1.0000   1.0000   1.0000
     1.0000   1.0000   1.0000   1.0000   1.0000   0.9290   0.8532   0.4824
     0.4533   0.3832   0.1678   0.0892   0.0193   0.0004   0.0001   0.0000
     0.0000   0.0000   0.0000   0.0000   0.0000   0.0000   0.0000   0.0000
     0.0000   0.0000   0.0000   0.0000   0.0000   0.0000

          k = 0.1768 0.1768-0.1768 (  8627 PWs)   bands (ev):

   -16.8956 -16.8571 -16.8429 -16.7973 -16.7693 -16.7592 -16.7541 -16.7446
   -16.7310 -16.7233 -16.7165 -16.7028 -16.6968 -16.6863 -16.6795 -16.6622
   -16.6569 -16.6483 -16.6413 -16.6381 -16.6254 -16.6163 -16.6122 -16.6015
   -16.5946 -16.5842 -16.5731 -16.5675 -16.5559 -16.5508 -16.5456 -16.5383
   -16.5320 -16.5235 -16.5193 -16.5139 -16.5062 -16.5020 -16.4957 -16.4868
   -16.4825 -16.4742 -16.4699 -16.4586 -16.4540 -16.4518 -16.4456 -16.4402
   -16.4346 -16.4334 -16.4248 -16.4178 -16.4085 -16.4054 -16.3978 -16.3949
   -16.3881 -16.3835 -16.3781 -16.3745 -16.3683 -16.3541 -16.3458 -16.3395
   -16.3340 -16.3283 -16.3212 -16.3159 -16.2957 -16.2829 -16.2697 -16.2357
   -16.2317 -16.2016 -16.1993 -16.1887 -16.1813 -16.1660 -16.1632 -16.1398
    -4.3996  -3.0149  -2.6283  -2.4598  -2.3536  -1.6883  -1.4353  -1.2456
    -0.0065   0.2467   0.4672   0.7855   0.9280   1.0257   1.4245   4.3967
     4.5345   4.6086   5.2191   5.2317   5.2862   5.3728   5.5074   5.5726
     5.9911   6.5336   6.5614   6.6318   7.0261   7.0678   8.0057   8.0653
     8.5219   8.9114   9.0188   9.1210   9.2184   9.4537   9.5206   9.6157
     9.9191  10.0058  10.1594  11.1026  11.1526  11.5450  11.7383  11.8430
    11.8824  12.0267  12.1086  12.4560  12.5486  12.6279

     occupation numbers 
     1.0000   1.0000   1.0000   1.0000   1.0000   1.0000   1.0000   1.0000
     1.0000   1.0000   1.0000   1.0000   1.0000   1.0000   1.0000   1.0000
     1.0000   1.0000   1.0000   1.0000   1.0000   1.0000   1.0000   1.0000
     1.0000   1.0000   1.0000   1.0000   1.0000   1.0000   1.0000   1.0000
     1.0000   1.0000   1.0000   1.0000   1.0000   1.0000   1.0000   1.0000
     1.0000   1.0000   1.0000   1.0000   1.0000   1.0000   1.0000   1.0000
     1.0000   1.0000   1.0000   1.0000   1.0000   1.0000   1.0000   1.0000
     1.0000   1.0000   1.0000   1.0000   1.0000   1.0000   1.0000   1.0000
     1.0000   1.0000   1.0000   1.0000   1.0000   1.0000   1.0000   1.0000
     1.0000   1.0000   1.0000   1.0000   1.0000   1.0000   1.0000   1.0000
     1.0000   1.0000   1.0000   1.0000   1.0000   1.0000   1.0000   1.0000
     1.0000   1.0000   1.0000   1.0000   1.0000   1.0000   1.0000   1.0000
     1.0000   1.0000   1.0000   1.0000   1.0000   1.0000   1.0000   1.0000
     1.0000   1.0000   1.0000   1.0000   1.0000   1.0000   0.9262   0.8496
     0.0166   0.0000   0.0000   0.0000   0.0000   0.0000   0.0000   0.0000
     0.0000   0.0000   0.0000   0.0000   0.0000   0.0000   0.0000   0.0000
     0.0000   0.0000   0.0000   0.0000   0.0000   0.0000

          k =-0.3536-0.3536 0.3536 (  8646 PWs)   bands (ev):

   -16.8975 -16.8606 -16.8442 -16.7971 -16.7730 -16.7635 -16.7542 -16.7434
   -16.7318 -16.7214 -16.7154 -16.7000 -16.6956 -16.6768 -16.6748 -16.6637
   -16.6582 -16.6477 -16.6363 -16.6344 -16.6279 -16.6202 -16.6110 -16.5960
   -16.5844 -16.5783 -16.5731 -16.5690 -16.5609 -16.5521 -16.5463 -16.5335
   -16.5310 -16.5276 -16.5242 -16.5185 -16.5095 -16.5043 -16.5012 -16.4835
   -16.4753 -16.4723 -16.4653 -16.4587 -16.4544 -16.4526 -16.4479 -16.4454
   -16.4420 -16.4352 -16.4287 -16.4195 -16.4138 -16.4076 -16.4029 -16.3927
   -16.3859 -16.3844 -16.3797 -16.3766 -16.3710 -16.3567 -16.3396 -16.3338
   -16.3300 -16.3249 -16.3198 -16.3120 -16.2927 -16.2876 -16.2621 -16.2404
   -16.2384 -16.2031 -16.2011 -16.1879 -16.1814 -16.1627 -16.1603 -16.1387
    -3.8745  -3.8106  -2.5258  -2.3502  -2.2127  -1.9829  -1.8144  -1.6629
     0.5316   0.6767   0.8206   1.0851   1.1918   1.2608   3.1857   3.2747
     3.9937   4.1959   4.2501   4.4272   4.5859   4.8371   5.7471   5.8256
     5.8915   5.8943   5.9918   6.0456   7.2994   7.3309   7.5399   7.5925
     8.8920   8.9105   9.3001   9.4227   9.5710   9.6659   9.7709   9.8627
    11.7078  11.7405  11.9378  11.9664  12.0372  12.2095  12.3182  12.3957
    12.5498  12.5959  12.9468  13.2098  13.3068  13.4591

     occupation numbers 
     1.0000   1.0000   1.0000   1.0000   1.0000   1.0000   1.0000   1.0000
     1.0000   1.0000   1.0000   1.0000   1.0000   1.0000   1.0000   1.0000
     1.0000   1.0000   1.0000   1.0000   1.0000   1.0000   1.0000   1.0000
     1.0000   1.0000   1.0000   1.0000   1.0000   1.0000   1.0000   1.0000
     1.0000   1.0000   1.0000   1.0000   1.0000   1.0000   1.0000   1.0000
     1.0000   1.0000   1.0000   1.0000   1.0000   1.0000   1.0000   1.0000
     1.0000   1.0000   1.0000   1.0000   1.0000   1.0000   1.0000   1.0000
     1.0000   1.0000   1.0000   1.0000   1.0000   1.0000   1.0000   1.0000
     1.0000   1.0000   1.0000   1.0000   1.0000   1.0000   1.0000   1.0000
     1.0000   1.0000   1.0000   1.0000   1.0000   1.0000   1.0000   1.0000
     1.0000   1.0000   1.0000   1.0000   1.0000   1.0000   1.0000   1.0000
     1.0000   1.0000   1.0000   1.0000   1.0000   1.0000   1.0000   1.0000
     1.0000   1.0000   1.0000   1.0000   1.0000   1.0000   1.0000   1.0000
     1.0000   1.0000   1.0000   1.0000   1.0000   1.0000   1.0000   1.0000
     0.0000   0.0000   0.0000   0.0000   0.0000   0.0000   0.0000   0.0000
     0.0000   0.0000   0.0000   0.0000   0.0000   0.0000   0.0000   0.0000
     0.0000   0.0000   0.0000   0.0000   0.0000   0.0000

          k = 0.3536 0.0000 0.0000 (  8620 PWs)   bands (ev):

   -16.8948 -16.8569 -16.8429 -16.7977 -16.7705 -16.7564 -16.7528 -16.7437
   -16.7337 -16.7256 -16.7173 -16.7097 -16.6965 -16.6885 -16.6772 -16.6637
   -16.6563 -16.6458 -16.6403 -16.6329 -16.6213 -16.6167 -16.6068 -16.6024
   -16.5994 -16.5858 -16.5749 -16.5674 -16.5587 -16.5517 -16.5449 -16.5372
   -16.5298 -16.5239 -16.5199 -16.5109 -16.5067 -16.4999 -16.4960 -16.4911
   -16.4837 -16.4795 -16.4714 -16.4664 -16.4554 -16.4517 -16.4417 -16.4337
   -16.4290 -16.4256 -16.4224 -16.4152 -16.4067 -16.4031 -16.3999 -16.3924
   -16.3889 -16.3867 -16.3756 -16.3745 -16.3668 -16.3528 -16.3509 -16.3456
   -16.3391 -16.3348 -16.3212 -16.3192 -16.2959 -16.2785 -16.2743 -16.2352
   -16.2255 -16.2002 -16.1963 -16.1882 -16.1792 -16.1697 -16.1640 -16.1404
    -4.3455  -2.8060  -2.7335  -2.6079  -2.4848  -2.1767  -0.7766  -0.7063
    -0.5807  -0.4325   0.7679   1.0666   1.1468   1.2871   1.5134   4.5312
     4.5994   4.6660   4.7389   5.2214   5.2850   5.3180   5.4534   5.5399
     5.6190   5.9160   6.5983   6.7320   6.8663   6.9377   7.4000   7.4942
     8.6429   9.3542   9.4479   9.4736   9.5556   9.7330   9.8946   9.9537
    10.0835  10.1913  10.3282  10.4652  11.6248  11.7049  11.8194  12.0219
    12.0585  12.1200  12.3095  12.4189  12.4755  12.6240

     occupation numbers 
     1.0000   1.0000   1.0000   1.0000   1.0000   1.0000   1.0000   1.0000
     1.0000   1.0000   1.0000   1.0000   1.0000   1.0000   1.0000   1.0000
     1.0000   1.0000   1.0000   1.0000   1.0000   1.0000   1.0000   1.0000
     1.0000   1.0000   1.0000   1.0000   1.0000   1.0000   1.0000   1.0000
     1.0000   1.0000   1.0000   1.0000   1.0000   1.0000   1.0000   1.0000
     1.0000   1.0000   1.0000   1.0000   1.0000   1.0000   1.0000   1.0000
     1.0000   1.0000   1.0000   1.0000   1.0000   1.0000   1.0000   1.0000
     1.0000   1.0000   1.0000   1.0000   1.0000   1.0000   1.0000   1.0000
     1.0000   1.0000   1.0000   1.0000   1.0000   1.0000   1.0000   1.0000
     1.0000   1.0000   1.0000   1.0000   1.0000   1.0000   1.0000   1.0000
     1.0000   1.0000   1.0000   1.0000   1.0000   1.0000   1.0000   1.0000
     1.0000   1.0000   1.0000   1.0000   1.0000   1.0000   1.0000   1.0000
     1.0000   1.0000   1.0000   1.0000   1.0000   1.0000   1.0000   1.0000
     1.0000   1.0000   1.0000   1.0000   1.0000   1.0000   1.0000   1.0000
     0.0015   0.0000   0.0000   0.0000   0.0000   0.0000   0.0000   0.0000
     0.0000   0.0000   0.0000   0.0000   0.0000   0.0000   0.0000   0.0000
     0.0000   0.0000   0.0000   0.0000   0.0000   0.0000

          k =-0.1768-0.5303 0.5303 (  8605 PWs)   bands (ev):

   -16.8969 -16.8605 -16.8440 -16.7974 -16.7741 -16.7620 -16.7524 -16.7432
   -16.7338 -16.7232 -16.7156 -16.7049 -16.6969 -16.6800 -16.6745 -16.6651
   -16.6535 -16.6462 -16.6386 -16.6306 -16.6234 -16.6150 -16.6073 -16.6009
   -16.5879 -16.5780 -16.5746 -16.5661 -16.5622 -16.5529 -16.5476 -16.5352
   -16.5332 -16.5251 -16.5227 -16.5180 -16.5109 -16.5032 -16.4991 -16.4854
   -16.4837 -16.4740 -16.4716 -16.4603 -16.4586 -16.4493 -16.4439 -16.4390
   -16.4357 -16.4298 -16.4230 -16.4185 -16.4123 -16.4039 -16.4004 -16.3945
   -16.3894 -16.3855 -16.3787 -16.3772 -16.3714 -16.3563 -16.3443 -16.3370
   -16.3345 -16.3327 -16.3201 -16.3144 -16.2919 -16.2830 -16.2693 -16.2389
   -16.2306 -16.2016 -16.1992 -16.1873 -16.1802 -16.1646 -16.1616 -16.1393
    -3.9134  -3.4490  -2.9802  -2.7276  -2.3388  -1.9617  -1.4213  -1.2573
     0.1453   0.2363   0.6626   1.3907   1.6543   2.2106   2.5473   3.6599
     3.8716   3.9975   4.1984   4.6464   4.7026   5.0850   5.1747   5.2858
     5.7109   5.9434   6.0383   6.1967   6.2919   6.8348   6.9177   7.4369
     9.4092   9.7479   9.8377  10.0310  10.2993  10.3787  10.5905  10.6800
    10.7688  10.9096  11.5537  11.6664  11.9385  12.1543  12.2409  12.4095
    12.7090  12.7731  12.9111  13.0002  13.1472  13.2156

     occupation numbers 
     1.0000   1.0000   1.0000   1.0000   1.0000   1.0000   1.0000   1.0000
     1.0000   1.0000   1.0000   1.0000   1.0000   1.0000   1.0000   1.0000
     1.0000   1.0000   1.0000   1.0000   1.0000   1.0000   1.0000   1.0000
     1.0000   1.0000   1.0000   1.0000   1.0000   1.0000   1.0000   1.0000
     1.0000   1.0000   1.0000   1.0000   1.0000   1.0000   1.0000   1.0000
     1.0000   1.0000   1.0000   1.0000   1.0000   1.0000   1.0000   1.0000
     1.0000   1.0000   1.0000   1.0000   1.0000   1.0000   1.0000   1.0000
     1.0000   1.0000   1.0000   1.0000   1.0000   1.0000   1.0000   1.0000
     1.0000   1.0000   1.0000   1.0000   1.0000   1.0000   1.0000   1.0000
     1.0000   1.0000   1.0000   1.0000   1.0000   1.0000   1.0000   1.0000
     1.0000   1.0000   1.0000   1.0000   1.0000   1.0000   1.0000   1.0000
     1.0000   1.0000   1.0000   1.0000   1.0000   1.0000   1.0000   1.0000
     1.0000   1.0000   1.0000   1.0000   1.0000   1.0000   1.0000   1.0000
     1.0000   1.0000   1.0000   1.0000   1.0000   1.0000   1.0000   1.0000
     0.0000   0.0000   0.0000   0.0000   0.0000   0.0000   0.0000   0.0000
     0.0000   0.0000   0.0000   0.0000   0.0000   0.0000   0.0000   0.0000
     0.0000   0.0000   0.0000   0.0000   0.0000   0.0000

          k = 0.0000-0.3536 0.3536 (  8602 PWs)   bands (ev):

   -16.8966 -16.8575 -16.8442 -16.7977 -16.7708 -16.7634 -16.7546 -16.7467
   -16.7325 -16.7269 -16.7134 -16.7017 -16.6964 -16.6861 -16.6772 -16.6615
   -16.6538 -16.6452 -16.6371 -16.6290 -16.6235 -16.6149 -16.6077 -16.5968
   -16.5893 -16.5869 -16.5724 -16.5659 -16.5594 -16.5536 -16.5443 -16.5430
   -16.5328 -16.5293 -16.5208 -16.5146 -16.5097 -16.5019 -16.4973 -16.4884
   -16.4769 -16.4759 -16.4668 -16.4631 -16.4570 -16.4506 -16.4446 -16.4427
   -16.4403 -16.4322 -16.4242 -16.4160 -16.4123 -16.4078 -16.3984 -16.3952
   -16.3866 -16.3845 -16.3786 -16.3730 -16.3666 -16.3568 -16.3420 -16.3374
   -16.3329 -16.3279 -16.3224 -16.3151 -16.2958 -16.2860 -16.2653 -16.2385
   -16.2344 -16.2011 -16.1995 -16.1878 -16.1806 -16.1648 -16.1611 -16.1390
    -4.0998  -3.2115  -3.1251  -2.4686  -2.1077  -1.9453  -1.8210  -1.0397
    -0.2149   0.5896   0.6778   1.0722   1.3028   1.9741   2.1975   3.7706
     4.1450   4.3066   4.5685   4.7897   4.8464   5.1645   5.2563   5.6305
     5.8604   5.9449   6.0473   6.1719   6.5034   6.5899   6.7437   8.0268
     9.3211   9.6182   9.7332   9.7973   9.9661  10.1359  10.3468  10.4230
    10.6556  10.8283  11.1635  11.3994  11.4469  11.5579  11.7209  11.8512
    12.1531  12.7587  12.8935  13.0661  13.4310  13.5156

     occupation numbers 
     1.0000   1.0000   1.0000   1.0000   1.0000   1.0000   1.0000   1.0000
     1.0000   1.0000   1.0000   1.0000   1.0000   1.0000   1.0000   1.0000
     1.0000   1.0000   1.0000   1.0000   1.0000   1.0000   1.0000   1.0000
     1.0000   1.0000   1.0000   1.0000   1.0000   1.0000   1.0000   1.0000
     1.0000   1.0000   1.0000   1.0000   1.0000   1.0000   1.0000   1.0000
     1.0000   1.0000   1.0000   1.0000   1.0000   1.0000   1.0000   1.0000
     1.0000   1.0000   1.0000   1.0000   1.0000   1.0000   1.0000   1.0000
     1.0000   1.0000   1.0000   1.0000   1.0000   1.0000   1.0000   1.0000
     1.0000   1.0000   1.0000   1.0000   1.0000   1.0000   1.0000   1.0000
     1.0000   1.0000   1.0000   1.0000   1.0000   1.0000   1.0000   1.0000
     1.0000   1.0000   1.0000   1.0000   1.0000   1.0000   1.0000   1.0000
     1.0000   1.0000   1.0000   1.0000   1.0000   1.0000   1.0000   1.0000
     1.0000   1.0000   1.0000   1.0000   1.0000   1.0000   1.0000   1.0000
     1.0000   1.0000   1.0000   1.0000   1.0000   1.0000   1.0000   0.9034
     0.0000   0.0000   0.0000   0.0000   0.0000   0.0000   0.0000   0.0000
     0.0000   0.0000   0.0000   0.0000   0.0000   0.0000   0.0000   0.0000
     0.0000   0.0000   0.0000   0.0000   0.0000   0.0000

          k =-0.7071 0.0000 0.0000 (  8616 PWs)   bands (ev):

   -16.8962 -16.8605 -16.8440 -16.7977 -16.7751 -16.7590 -16.7519 -16.7431
   -16.7351 -16.7242 -16.7192 -16.7098 -16.6976 -16.6795 -16.6717 -16.6686
   -16.6531 -16.6432 -16.6379 -16.6278 -16.6218 -16.6086 -16.6039 -16.6013
   -16.5940 -16.5829 -16.5769 -16.5653 -16.5589 -16.5526 -16.5479 -16.5417
   -16.5314 -16.5257 -16.5181 -16.5160 -16.5118 -16.5012 -16.4966 -16.4909
   -16.4861 -16.4773 -16.4745 -16.4673 -16.4629 -16.4507 -16.4371 -16.4326
   -16.4279 -16.4273 -16.4182 -16.4153 -16.4051 -16.4042 -16.3995 -16.3965
   -16.3939 -16.3869 -16.3797 -16.3742 -16.3735 -16.3529 -16.3500 -16.3431
   -16.3417 -16.3365 -16.3212 -16.3165 -16.2921 -16.2788 -16.2740 -16.2386
   -16.2247 -16.2004 -16.1964 -16.1867 -16.1786 -16.1685 -16.1620 -16.1400
    -3.6871  -3.5776  -2.8915  -2.6717  -2.6292  -2.5072  -0.7378  -0.6098
    -0.5600  -0.3755   1.5267   1.5588   1.6763   1.9680   3.4628   3.4889
     4.0760   4.1680   4.2078   4.3116   4.3644   4.4860   4.5524   4.5805
     5.9783   6.1125   6.2118   6.3504   6.5587   6.8360   6.8599   6.9598
     9.0672   9.1075   9.8815  10.0826  10.1240  10.1684  10.8048  10.9592
    12.1585  12.2820  12.3378  12.3909  12.6155  12.6361  12.7356  12.8595
    12.9148  12.9897  13.1042  13.1397  13.1763  13.2558

     occupation numbers 
     1.0000   1.0000   1.0000   1.0000   1.0000   1.0000   1.0000   1.0000
     1.0000   1.0000   1.0000   1.0000   1.0000   1.0000   1.0000   1.0000
     1.0000   1.0000   1.0000   1.0000   1.0000   1.0000   1.0000   1.0000
     1.0000   1.0000   1.0000   1.0000   1.0000   1.0000   1.0000   1.0000
     1.0000   1.0000   1.0000   1.0000   1.0000   1.0000   1.0000   1.0000
     1.0000   1.0000   1.0000   1.0000   1.0000   1.0000   1.0000   1.0000
     1.0000   1.0000   1.0000   1.0000   1.0000   1.0000   1.0000   1.0000
     1.0000   1.0000   1.0000   1.0000   1.0000   1.0000   1.0000   1.0000
     1.0000   1.0000   1.0000   1.0000   1.0000   1.0000   1.0000   1.0000
     1.0000   1.0000   1.0000   1.0000   1.0000   1.0000   1.0000   1.0000
     1.0000   1.0000   1.0000   1.0000   1.0000   1.0000   1.0000   1.0000
     1.0000   1.0000   1.0000   1.0000   1.0000   1.0000   1.0000   1.0000
     1.0000   1.0000   1.0000   1.0000   1.0000   1.0000   1.0000   1.0000
     1.0000   1.0000   1.0000   1.0000   1.0000   1.0000   1.0000   1.0000
     0.0000   0.0000   0.0000   0.0000   0.0000   0.0000   0.0000   0.0000
     0.0000   0.0000   0.0000   0.0000   0.0000   0.0000   0.0000   0.0000
     0.0000   0.0000   0.0000   0.0000   0.0000   0.0000

          k =-0.7071 0.3536 0.0000 (  8652 PWs)   bands (ev):

   -16.8964 -16.8575 -16.8445 -16.8007 -16.7738 -16.7634 -16.7505 -16.7434
   -16.7341 -16.7274 -16.7190 -16.7043 -16.6970 -16.6846 -16.6778 -16.6628
   -16.6525 -16.6438 -16.6347 -16.6251 -16.6193 -16.6120 -16.6045 -16.6012
   -16.5891 -16.5779 -16.5762 -16.5690 -16.5607 -16.5515 -16.5484 -16.5402
   -16.5341 -16.5306 -16.5218 -16.5173 -16.5104 -16.4993 -16.4928 -16.4873
   -16.4835 -16.4774 -16.4729 -16.4621 -16.4558 -16.4518 -16.4421 -16.4380
   -16.4343 -16.4316 -16.4265 -16.4164 -16.4122 -16.4081 -16.3993 -16.3922
   -16.3899 -16.3850 -16.3784 -16.3721 -16.3693 -16.3572 -16.3466 -16.3394
   -16.3355 -16.3327 -16.3223 -16.3169 -16.2942 -16.2813 -16.2711 -16.2361
   -16.2302 -16.2001 -16.1981 -16.1874 -16.1797 -16.1647 -16.1628 -16.1396
    -3.6027  -3.4652  -3.2754  -3.1039  -1.9376  -1.8066  -1.5892  -1.4625
     0.3584   0.4965   0.5926   0.7340   2.6100   2.7131   2.9373   3.0811
     3.7647   3.8737   3.9868   4.1485   5.1141   5.1626   5.2377   5.4112
     5.4734   5.5987   5.6807   5.7599   6.4908   6.5942   6.7459   6.8179
    10.2185  10.2580  10.3906  10.5083  10.6361  10.6928  10.8208  10.8517
    10.9498  11.0425  11.0763  11.1915  12.3989  12.4893  12.6199  12.6723
    12.7295  12.7618  12.9191  12.9716  13.0279  13.1195

     occupation numbers 
     1.0000   1.0000   1.0000   1.0000   1.0000   1.0000   1.0000   1.0000
     1.0000   1.0000   1.0000   1.0000   1.0000   1.0000   1.0000   1.0000
     1.0000   1.0000   1.0000   1.0000   1.0000   1.0000   1.0000   1.0000
     1.0000   1.0000   1.0000   1.0000   1.0000   1.0000   1.0000   1.0000
     1.0000   1.0000   1.0000   1.0000   1.0000   1.0000   1.0000   1.0000
     1.0000   1.0000   1.0000   1.0000   1.0000   1.0000   1.0000   1.0000
     1.0000   1.0000   1.0000   1.0000   1.0000   1.0000   1.0000   1.0000
     1.0000   1.0000   1.0000   1.0000   1.0000   1.0000   1.0000   1.0000
     1.0000   1.0000   1.0000   1.0000   1.0000   1.0000   1.0000   1.0000
     1.0000   1.0000   1.0000   1.0000   1.0000   1.0000   1.0000   1.0000
     1.0000   1.0000   1.0000   1.0000   1.0000   1.0000   1.0000   1.0000
     1.0000   1.0000   1.0000   1.0000   1.0000   1.0000   1.0000   1.0000
     1.0000   1.0000   1.0000   1.0000   1.0000   1.0000   1.0000   1.0000
     1.0000   1.0000   1.0000   1.0000   1.0000   1.0000   1.0000   1.0000
     0.0000   0.0000   0.0000   0.0000   0.0000   0.0000   0.0000   0.0000
     0.0000   0.0000   0.0000   0.0000   0.0000   0.0000   0.0000   0.0000
     0.0000   0.0000   0.0000   0.0000   0.0000   0.0000

          k =-0.1768-0.1768-0.1768 (  8627 PWs)   bands (ev):

   -16.8943 -16.8566 -16.8417 -16.7956 -16.7657 -16.7597 -16.7512 -16.7455
   -16.7336 -16.7256 -16.7168 -16.7109 -16.6968 -16.6864 -16.6762 -16.6639
   -16.6554 -16.6494 -16.6468 -16.6371 -16.6210 -16.6137 -16.6121 -16.6084
   -16.6015 -16.5870 -16.5751 -16.5692 -16.5577 -16.5499 -16.5467 -16.5327
   -16.5304 -16.5216 -16.5151 -16.5111 -16.5040 -16.4974 -16.4911 -16.4847
   -16.4841 -16.4826 -16.4726 -16.4632 -16.4549 -16.4461 -16.4424 -16.4366
   -16.4286 -16.4276 -16.4238 -16.4161 -16.4091 -16.4027 -16.3985 -16.3946
   -16.3895 -16.3849 -16.3748 -16.3722 -16.3653 -16.3577 -16.3541 -16.3450
   -16.3381 -16.3295 -16.3261 -16.3203 -16.2973 -16.2777 -16.2744 -16.2342
   -16.2249 -16.2000 -16.1956 -16.1880 -16.1800 -16.1709 -16.1644 -16.1406
    -4.4127  -3.0997  -2.4956  -2.4465  -2.2901  -1.5613  -1.4385  -1.4157
     0.0427   0.2181   0.2576   0.7281   0.8300   0.9000   1.6926   4.5976
     4.6901   4.7483   5.1664   5.2235   5.3852   5.5268   5.6213   5.7564
     5.9636   6.2848   6.4052   6.6217   6.7790   7.0884   7.8344   8.0338
     8.2972   8.8403   8.8522   8.9905   9.1964   9.4604   9.5292   9.7270
     9.9827  10.1225  10.2035  11.0456  11.1928  11.4179  11.6740  11.7359
    11.8103  11.8871  12.1397  12.6577  12.8378  12.8777

     occupation numbers 
     1.0000   1.0000   1.0000   1.0000   1.0000   1.0000   1.0000   1.0000
     1.0000   1.0000   1.0000   1.0000   1.0000   1.0000   1.0000   1.0000
     1.0000   1.0000   1.0000   1.0000   1.0000   1.0000   1.0000   1.0000
     1.0000   1.0000   1.0000   1.0000   1.0000   1.0000   1.0000   1.0000
     1.0000   1.0000   1.0000   1.0000   1.0000   1.0000   1.0000   1.0000
     1.0000   1.0000   1.0000   1.0000   1.0000   1.0000   1.0000   1.0000
     1.0000   1.0000   1.0000   1.0000   1.0000   1.0000   1.0000   1.0000
     1.0000   1.0000   1.0000   1.0000   1.0000   1.0000   1.0000   1.0000
     1.0000   1.0000   1.0000   1.0000   1.0000   1.0000   1.0000   1.0000
     1.0000   1.0000   1.0000   1.0000   1.0000   1.0000   1.0000   1.0000
     1.0000   1.0000   1.0000   1.0000   1.0000   1.0000   1.0000   1.0000
     1.0000   1.0000   1.0000   1.0000   1.0000   1.0000   1.0000   1.0000
     1.0000   1.0000   1.0000   1.0000   1.0000   1.0000   1.0000   1.0000
     1.0000   1.0000   1.0000   1.0000   1.0000   1.0000   0.9958   0.8949
     0.2837   0.0000   0.0000   0.0000   0.0000   0.0000   0.0000   0.0000
     0.0000   0.0000   0.0000   0.0000   0.0000   0.0000   0.0000   0.0000
     0.0000   0.0000   0.0000   0.0000   0.0000   0.0000

          k =-0.1768 0.1768 0.1768 (  8627 PWs)   bands (ev):

   -16.8940 -16.8530 -16.8432 -16.8006 -16.7666 -16.7568 -16.7522 -16.7440
   -16.7318 -16.7286 -16.7195 -16.7095 -16.6970 -16.6913 -16.6812 -16.6632
   -16.6572 -16.6498 -16.6367 -16.6305 -16.6244 -16.6155 -16.6098 -16.6038
   -16.5964 -16.5837 -16.5758 -16.5699 -16.5566 -16.5514 -16.5478 -16.5356
   -16.5301 -16.5219 -16.5151 -16.5087 -16.5046 -16.5021 -16.4922 -16.4892
   -16.4843 -16.4790 -16.4728 -16.4668 -16.4551 -16.4475 -16.4412 -16.4367
   -16.4321 -16.4266 -16.4241 -16.4165 -16.4082 -16.4030 -16.4021 -16.3941
   -16.3882 -16.3853 -16.3750 -16.3713 -16.3604 -16.3554 -16.3519 -16.3444
   -16.3374 -16.3344 -16.3243 -16.3208 -16.2976 -16.2774 -16.2753 -16.2329
   -16.2256 -16.1995 -16.1957 -16.1895 -16.1792 -16.1700 -16.1651 -16.1407
    -4.4091  -3.0792  -2.5769  -2.3947  -2.3127  -1.6526  -1.4269  -1.2876
    -0.0083   0.1338   0.3600   0.7191   0.8012   1.0408   1.6366   4.5484
     4.6302   4.7767   5.1923   5.2739   5.3324   5.4334   5.6033   5.6631
     5.9704   6.3448   6.4567   6.5622   6.8803   7.1335   7.8160   8.0913
     8.2917   8.8384   8.9750   8.9974   9.1700   9.4715   9.5297   9.6719
     9.9384  10.0777  10.2847  11.0856  11.2150  11.4632  11.6181  11.7232
    11.8390  11.9381  12.1065  12.6644  12.7453  12.8569

     occupation numbers 
     1.0000   1.0000   1.0000   1.0000   1.0000   1.0000   1.0000   1.0000
     1.0000   1.0000   1.0000   1.0000   1.0000   1.0000   1.0000   1.0000
     1.0000   1.0000   1.0000   1.0000   1.0000   1.0000   1.0000   1.0000
     1.0000   1.0000   1.0000   1.0000   1.0000   1.0000   1.0000   1.0000
     1.0000   1.0000   1.0000   1.0000   1.0000   1.0000   1.0000   1.0000
     1.0000   1.0000   1.0000   1.0000   1.0000   1.0000   1.0000   1.0000
     1.0000   1.0000   1.0000   1.0000   1.0000   1.0000   1.0000   1.0000
     1.0000   1.0000   1.0000   1.0000   1.0000   1.0000   1.0000   1.0000
     1.0000   1.0000   1.0000   1.0000   1.0000   1.0000   1.0000   1.0000
     1.0000   1.0000   1.0000   1.0000   1.0000   1.0000   1.0000   1.0000
     1.0000   1.0000   1.0000   1.0000   1.0000   1.0000   1.0000   1.0000
     1.0000   1.0000   1.0000   1.0000   1.0000   1.0000   1.0000   1.0000
     1.0000   1.0000   1.0000   1.0000   1.0000   1.0000   1.0000   1.0000
     1.0000   1.0000   1.0000   1.0000   1.0000   1.0000   0.9971   0.8036
     0.2965   0.0000   0.0000   0.0000   0.0000   0.0000   0.0000   0.0000
     0.0000   0.0000   0.0000   0.0000   0.0000   0.0000   0.0000   0.0000
     0.0000   0.0000   0.0000   0.0000   0.0000   0.0000

          k = 0.1768-0.1768 0.1768 (  8627 PWs)   bands (ev):

   -16.8945 -16.8533 -16.8434 -16.7980 -16.7632 -16.7604 -16.7569 -16.7471
   -16.7347 -16.7290 -16.7137 -16.7068 -16.6964 -16.6894 -16.6814 -16.6636
   -16.6538 -16.6456 -16.6366 -16.6318 -16.6246 -16.6162 -16.6100 -16.6025
   -16.5963 -16.5865 -16.5770 -16.5655 -16.5575 -16.5536 -16.5499 -16.5370
   -16.5291 -16.5245 -16.5188 -16.5119 -16.5051 -16.4979 -16.4924 -16.4890
   -16.4836 -16.4795 -16.4737 -16.4644 -16.4583 -16.4484 -16.4413 -16.4362
   -16.4349 -16.4279 -16.4240 -16.4163 -16.4090 -16.4008 -16.3972 -16.3927
   -16.3877 -16.3849 -16.3779 -16.3718 -16.3604 -16.3525 -16.3503 -16.3426
   -16.3366 -16.3309 -16.3251 -16.3201 -16.3000 -16.2805 -16.2727 -16.2319
   -16.2305 -16.1989 -16.1979 -16.1891 -16.1803 -16.1683 -16.1645 -16.1401
    -4.4095  -3.0615  -2.5916  -2.4453  -2.2862  -1.5936  -1.4352  -1.3189
    -0.0269   0.1646   0.3464   0.6903   0.8873   1.0058   1.6199   4.4964
     4.6781   4.7097   5.2073   5.2326   5.3583   5.4589   5.6057   5.7044
     6.0093   6.3752   6.3960   6.6265   6.7890   7.1157   7.8758   8.0881
     8.3460   8.8306   8.9195   9.0634   9.1540   9.4331   9.4863   9.6808
     9.9942  10.0803  10.2649  10.9668  11.2428  11.4640  11.5223  11.7575
    11.9086  11.9617  12.2046  12.5819  12.7625  12.8452

     occupation numbers 
     1.0000   1.0000   1.0000   1.0000   1.0000   1.0000   1.0000   1.0000
     1.0000   1.0000   1.0000   1.0000   1.0000   1.0000   1.0000   1.0000
     1.0000   1.0000   1.0000   1.0000   1.0000   1.0000   1.0000   1.0000
     1.0000   1.0000   1.0000   1.0000   1.0000   1.0000   1.0000   1.0000
     1.0000   1.0000   1.0000   1.0000   1.0000   1.0000   1.0000   1.0000
     1.0000   1.0000   1.0000   1.0000   1.0000   1.0000   1.0000   1.0000
     1.0000   1.0000   1.0000   1.0000   1.0000   1.0000   1.0000   1.0000
     1.0000   1.0000   1.0000   1.0000   1.0000   1.0000   1.0000   1.0000
     1.0000   1.0000   1.0000   1.0000   1.0000   1.0000   1.0000   1.0000
     1.0000   1.0000   1.0000   1.0000   1.0000   1.0000   1.0000   1.0000
     1.0000   1.0000   1.0000   1.0000   1.0000   1.0000   1.0000   1.0000
     1.0000   1.0000   1.0000   1.0000   1.0000   1.0000   1.0000   1.0000
     1.0000   1.0000   1.0000   1.0000   1.0000   1.0000   1.0000   1.0000
     1.0000   1.0000   1.0000   1.0000   1.0000   1.0000   0.9906   0.8097
     0.1813   0.0000   0.0000   0.0000   0.0000   0.0000   0.0000   0.0000
     0.0000   0.0000   0.0000   0.0000   0.0000   0.0000   0.0000   0.0000
     0.0000   0.0000   0.0000   0.0000   0.0000   0.0000

          k = 0.3536 0.3536 0.3536 (  8646 PWs)   bands (ev):

   -16.8952 -16.8600 -16.8418 -16.7940 -16.7681 -16.7607 -16.7519 -16.7452
   -16.7352 -16.7250 -16.7175 -16.7103 -16.6965 -16.6749 -16.6724 -16.6691
   -16.6574 -16.6507 -16.6444 -16.6367 -16.6145 -16.6130 -16.6117 -16.6085
   -16.5979 -16.5930 -16.5781 -16.5673 -16.5568 -16.5511 -16.5412 -16.5366
   -16.5291 -16.5227 -16.5157 -16.5126 -16.5024 -16.4950 -16.4922 -16.4880
   -16.4866 -16.4765 -16.4691 -16.4643 -16.4544 -16.4457 -16.4418 -16.4360
   -16.4288 -16.4265 -16.4228 -16.4156 -16.4104 -16.4072 -16.4039 -16.3942
   -16.3905 -16.3851 -16.3775 -16.3727 -16.3699 -16.3562 -16.3557 -16.3475
   -16.3376 -16.3293 -16.3253 -16.3208 -16.2951 -16.2776 -16.2734 -16.2361
   -16.2236 -16.1999 -16.1944 -16.1864 -16.1797 -16.1708 -16.1628 -16.1404
    -4.0236  -3.7086  -2.3573  -2.3149  -2.0704  -2.0226  -1.8301  -1.7635
     0.3751   0.6335   0.7283   0.9337   1.0465   1.0660   3.3900   3.7319
     4.4061   4.4835   4.5116   4.5995   4.6907   4.8002   5.4905   5.5426
     5.7844   5.8668   5.9293   6.0815   6.9327   7.3469   7.5066   7.6318
     8.5272   8.8311   9.1858   9.2509   9.4221   9.6157   9.6535   9.7995
    11.4255  11.7797  11.8798  12.0152  12.0678  12.0942  12.1786  12.2280
    12.6122  12.6696  13.3755  13.4173  13.5538  13.6101

     occupation numbers 
     1.0000   1.0000   1.0000   1.0000   1.0000   1.0000   1.0000   1.0000
     1.0000   1.0000   1.0000   1.0000   1.0000   1.0000   1.0000   1.0000
     1.0000   1.0000   1.0000   1.0000   1.0000   1.0000   1.0000   1.0000
     1.0000   1.0000   1.0000   1.0000   1.0000   1.0000   1.0000   1.0000
     1.0000   1.0000   1.0000   1.0000   1.0000   1.0000   1.0000   1.0000
     1.0000   1.0000   1.0000   1.0000   1.0000   1.0000   1.0000   1.0000
     1.0000   1.0000   1.0000   1.0000   1.0000   1.0000   1.0000   1.0000
     1.0000   1.0000   1.0000   1.0000   1.0000   1.0000   1.0000   1.0000
     1.0000   1.0000   1.0000   1.0000   1.0000   1.0000   1.0000   1.0000
     1.0000   1.0000   1.0000   1.0000   1.0000   1.0000   1.0000   1.0000
     1.0000   1.0000   1.0000   1.0000   1.0000   1.0000   1.0000   1.0000
     1.0000   1.0000   1.0000   1.0000   1.0000   1.0000   1.0000   1.0000
     1.0000   1.0000   1.0000   1.0000   1.0000   1.0000   1.0000   1.0000
     1.0000   1.0000   1.0000   1.0000   1.0000   1.0000   1.0000   1.0000
     0.0151   0.0000   0.0000   0.0000   0.0000   0.0000   0.0000   0.0000
     0.0000   0.0000   0.0000   0.0000   0.0000   0.0000   0.0000   0.0000
     0.0000   0.0000   0.0000   0.0000   0.0000   0.0000

          k = 0.3536-0.3536-0.3536 (  8646 PWs)   bands (ev):

   -16.8947 -16.8533 -16.8444 -16.8032 -16.7690 -16.7580 -16.7523 -16.7435
   -16.7327 -16.7272 -16.7218 -16.7102 -16.6973 -16.6900 -16.6813 -16.6637
   -16.6570 -16.6478 -16.6333 -16.6273 -16.6165 -16.6121 -16.6065 -16.6023
   -16.5946 -16.5793 -16.5759 -16.5689 -16.5614 -16.5465 -16.5453 -16.5408
   -16.5321 -16.5223 -16.5177 -16.5130 -16.5053 -16.5009 -16.4971 -16.4895
   -16.4834 -16.4772 -16.4697 -16.4657 -16.4548 -16.4501 -16.4410 -16.4365
   -16.4335 -16.4303 -16.4254 -16.4137 -16.4104 -16.4070 -16.4025 -16.3952
   -16.3899 -16.3870 -16.3744 -16.3724 -16.3602 -16.3561 -16.3504 -16.3440
   -16.3409 -16.3339 -16.3244 -16.3202 -16.2960 -16.2765 -16.2756 -16.2339
   -16.2244 -16.1993 -16.1946 -16.1889 -16.1783 -16.1692 -16.1639 -16.1406
    -3.9965  -3.7225  -2.4600  -2.3075  -2.1370  -1.9241  -1.8322  -1.7191
     0.4356   0.5539   0.7379   0.7930   1.0951   1.3130   3.4697   3.5384
     4.2812   4.3918   4.4835   4.6103   4.6830   4.7483   5.4900   5.6699
     5.7355   5.8334   5.9287   6.1487   7.0328   7.3952   7.4432   7.6756
     8.5152   8.9081   9.2190   9.3807   9.4571   9.5044   9.6399   9.8435
    11.5445  11.7038  11.9167  11.9799  12.0409  12.1177  12.2866  12.3623
    12.5915  12.6857  13.2674  13.4170  13.5381  13.5615

     occupation numbers 
     1.0000   1.0000   1.0000   1.0000   1.0000   1.0000   1.0000   1.0000
     1.0000   1.0000   1.0000   1.0000   1.0000   1.0000   1.0000   1.0000
     1.0000   1.0000   1.0000   1.0000   1.0000   1.0000   1.0000   1.0000
     1.0000   1.0000   1.0000   1.0000   1.0000   1.0000   1.0000   1.0000
     1.0000   1.0000   1.0000   1.0000   1.0000   1.0000   1.0000   1.0000
     1.0000   1.0000   1.0000   1.0000   1.0000   1.0000   1.0000   1.0000
     1.0000   1.0000   1.0000   1.0000   1.0000   1.0000   1.0000   1.0000
     1.0000   1.0000   1.0000   1.0000   1.0000   1.0000   1.0000   1.0000
     1.0000   1.0000   1.0000   1.0000   1.0000   1.0000   1.0000   1.0000
     1.0000   1.0000   1.0000   1.0000   1.0000   1.0000   1.0000   1.0000
     1.0000   1.0000   1.0000   1.0000   1.0000   1.0000   1.0000   1.0000
     1.0000   1.0000   1.0000   1.0000   1.0000   1.0000   1.0000   1.0000
     1.0000   1.0000   1.0000   1.0000   1.0000   1.0000   1.0000   1.0000
     1.0000   1.0000   1.0000   1.0000   1.0000   1.0000   1.0000   0.9999
     0.0186   0.0000   0.0000   0.0000   0.0000   0.0000   0.0000   0.0000
     0.0000   0.0000   0.0000   0.0000   0.0000   0.0000   0.0000   0.0000
     0.0000   0.0000   0.0000   0.0000   0.0000   0.0000

          k =-0.3536 0.3536-0.3536 (  8646 PWs)   bands (ev):

   -16.8956 -16.8539 -16.8445 -16.7985 -16.7650 -16.7630 -16.7595 -16.7480
   -16.7383 -16.7287 -16.7136 -16.7052 -16.6944 -16.6862 -16.6813 -16.6654
   -16.6517 -16.6417 -16.6356 -16.6235 -16.6153 -16.6113 -16.6078 -16.5989
   -16.5915 -16.5855 -16.5818 -16.5692 -16.5565 -16.5561 -16.5510 -16.5399
   -16.5329 -16.5252 -16.5187 -16.5143 -16.5093 -16.5006 -16.4955 -16.4890
   -16.4788 -16.4758 -16.4737 -16.4650 -16.4603 -16.4508 -16.4479 -16.4410
   -16.4336 -16.4268 -16.4196 -16.4179 -16.4096 -16.4020 -16.3986 -16.3900
   -16.3877 -16.3872 -16.3807 -16.3704 -16.3618 -16.3534 -16.3445 -16.3411
   -16.3368 -16.3315 -16.3241 -16.3187 -16.3009 -16.2835 -16.2688 -16.2371
   -16.2299 -16.1995 -16.1970 -16.1883 -16.1800 -16.1674 -16.1620 -16.1395
    -4.0057  -3.7035  -2.4657  -2.3693  -2.0614  -2.0017  -1.8427  -1.6329
     0.2463   0.6612   0.8331   0.9270   0.9815   1.2937   3.3329   3.6120
     4.2143   4.3818   4.4614   4.6290   4.6448   4.8468   5.6091   5.6265
     5.7644   5.8485   5.9106   6.1541   6.8971   7.3542   7.6025   7.6593
     8.5934   8.8836   9.1834   9.2961   9.5211   9.5774   9.6847   9.7800
    11.3282  11.6055  11.8757  12.0097  12.2003  12.2260  12.3696  12.4133
    12.4501  12.6537  13.2396  13.2576  13.4506  13.5757

     occupation numbers 
     1.0000   1.0000   1.0000   1.0000   1.0000   1.0000   1.0000   1.0000
     1.0000   1.0000   1.0000   1.0000   1.0000   1.0000   1.0000   1.0000
     1.0000   1.0000   1.0000   1.0000   1.0000   1.0000   1.0000   1.0000
     1.0000   1.0000   1.0000   1.0000   1.0000   1.0000   1.0000   1.0000
     1.0000   1.0000   1.0000   1.0000   1.0000   1.0000   1.0000   1.0000
     1.0000   1.0000   1.0000   1.0000   1.0000   1.0000   1.0000   1.0000
     1.0000   1.0000   1.0000   1.0000   1.0000   1.0000   1.0000   1.0000
     1.0000   1.0000   1.0000   1.0000   1.0000   1.0000   1.0000   1.0000
     1.0000   1.0000   1.0000   1.0000   1.0000   1.0000   1.0000   1.0000
     1.0000   1.0000   1.0000   1.0000   1.0000   1.0000   1.0000   1.0000
     1.0000   1.0000   1.0000   1.0000   1.0000   1.0000   1.0000   1.0000
     1.0000   1.0000   1.0000   1.0000   1.0000   1.0000   1.0000   1.0000
     1.0000   1.0000   1.0000   1.0000   1.0000   1.0000   1.0000   1.0000
     1.0000   1.0000   1.0000   1.0000   1.0000   1.0000   1.0000   0.9999
     0.0043   0.0000   0.0000   0.0000   0.0000   0.0000   0.0000   0.0000
     0.0000   0.0000   0.0000   0.0000   0.0000   0.0000   0.0000   0.0000
     0.0000   0.0000   0.0000   0.0000   0.0000   0.0000

          k = 0.0000 0.3536 0.0000 (  8620 PWs)   bands (ev):

   -16.8952 -16.8569 -16.8426 -16.7954 -16.7654 -16.7599 -16.7559 -16.7490
   -16.7317 -16.7270 -16.7129 -16.7067 -16.6964 -16.6861 -16.6791 -16.6630
   -16.6555 -16.6474 -16.6451 -16.6357 -16.6255 -16.6162 -16.6112 -16.6035
   -16.5960 -16.5854 -16.5740 -16.5665 -16.5552 -16.5528 -16.5477 -16.5367
   -16.5321 -16.5212 -16.5142 -16.5119 -16.5041 -16.4957 -16.4944 -16.4888
   -16.4831 -16.4764 -16.4706 -16.4634 -16.4542 -16.4493 -16.4439 -16.4380
   -16.4334 -16.4289 -16.4241 -16.4192 -16.4093 -16.4055 -16.4002 -16.3967
   -16.3908 -16.3832 -16.3759 -16.3730 -16.3656 -16.3578 -16.3496 -16.3409
   -16.3347 -16.3292 -16.3246 -16.3180 -16.2972 -16.2815 -16.2704 -16.2344
   -16.2302 -16.2001 -16.1977 -16.1879 -16.1803 -16.1680 -16.1631 -16.1399
    -4.3455  -2.8641  -2.7026  -2.5941  -2.4764  -2.1259  -0.9356  -0.7766
    -0.4920  -0.3396   0.8794   0.9726   1.1197   1.3126   1.4963   4.4917
     4.6038   4.6829   4.8016   5.2019   5.2559   5.3483   5.4214   5.5125
     5.6669   5.8873   6.5713   6.7886   6.8566   6.9244   7.4355   7.5283
     8.6218   9.3403   9.3785   9.4789   9.5614   9.6763   9.8586  10.0019
    10.1094  10.1793  10.3511  10.4650  11.6039  11.7131  11.8071  11.9527
    12.1297  12.1561  12.2955  12.4113  12.5198  12.6707

     occupation numbers 
     1.0000   1.0000   1.0000   1.0000   1.0000   1.0000   1.0000   1.0000
     1.0000   1.0000   1.0000   1.0000   1.0000   1.0000   1.0000   1.0000
     1.0000   1.0000   1.0000   1.0000   1.0000   1.0000   1.0000   1.0000
     1.0000   1.0000   1.0000   1.0000   1.0000   1.0000   1.0000   1.0000
     1.0000   1.0000   1.0000   1.0000   1.0000   1.0000   1.0000   1.0000
     1.0000   1.0000   1.0000   1.0000   1.0000   1.0000   1.0000   1.0000
     1.0000   1.0000   1.0000   1.0000   1.0000   1.0000   1.0000   1.0000
     1.0000   1.0000   1.0000   1.0000   1.0000   1.0000   1.0000   1.0000
     1.0000   1.0000   1.0000   1.0000   1.0000   1.0000   1.0000   1.0000
     1.0000   1.0000   1.0000   1.0000   1.0000   1.0000   1.0000   1.0000
     1.0000   1.0000   1.0000   1.0000   1.0000   1.0000   1.0000   1.0000
     1.0000   1.0000   1.0000   1.0000   1.0000   1.0000   1.0000   1.0000
     1.0000   1.0000   1.0000   1.0000   1.0000   1.0000   1.0000   1.0000
     1.0000   1.0000   1.0000   1.0000   1.0000   1.0000   1.0000   1.0000
     0.0024   0.0000   0.0000   0.0000   0.0000   0.0000   0.0000   0.0000
     0.0000   0.0000   0.0000   0.0000   0.0000   0.0000   0.0000   0.0000
     0.0000   0.0000   0.0000   0.0000   0.0000   0.0000

          k = 0.0000 0.0000 0.3536 (  8620 PWs)   bands (ev):

   -16.8950 -16.8535 -16.8438 -16.8009 -16.7683 -16.7604 -16.7528 -16.7440
   -16.7329 -16.7296 -16.7178 -16.7039 -16.6975 -16.6877 -16.6800 -16.6636
   -16.6542 -16.6486 -16.6377 -16.6280 -16.6217 -16.6162 -16.6132 -16.6026
   -16.5904 -16.5861 -16.5751 -16.5679 -16.5577 -16.5510 -16.5497 -16.5372
   -16.5300 -16.5265 -16.5198 -16.5104 -16.5073 -16.4992 -16.4956 -16.4855
   -16.4825 -16.4777 -16.4714 -16.4592 -16.4556 -16.4506 -16.4443 -16.4398
   -16.4344 -16.4308 -16.4272 -16.4178 -16.4117 -16.4051 -16.3993 -16.3933
   -16.3880 -16.3824 -16.3771 -16.3728 -16.3642 -16.3545 -16.3457 -16.3414
   -16.3346 -16.3292 -16.3245 -16.3188 -16.2980 -16.2812 -16.2718 -16.2329
   -16.2312 -16.1997 -16.1981 -16.1888 -16.1808 -16.1662 -16.1644 -16.1400
    -4.3457  -2.8355  -2.6848  -2.6203  -2.4799  -2.1878  -0.8276  -0.6900
    -0.5379  -0.4457   0.8161   1.0649   1.1426   1.2450   1.5161   4.5227
     4.5583   4.7130   4.7532   5.1912   5.2712   5.3850   5.4389   5.5010
     5.6206   5.9186   6.6733   6.7665   6.8050   6.9065   7.4130   7.4856
     8.6357   9.3244   9.4155   9.4862   9.5982   9.7389   9.8575   9.9916
    10.0483  10.2014  10.3830  10.4412  11.6643  11.7500  11.8838  11.9031
    12.0054  12.1056  12.2984  12.4834  12.5064  12.5718

     occupation numbers 
     1.0000   1.0000   1.0000   1.0000   1.0000   1.0000   1.0000   1.0000
     1.0000   1.0000   1.0000   1.0000   1.0000   1.0000   1.0000   1.0000
     1.0000   1.0000   1.0000   1.0000   1.0000   1.0000   1.0000   1.0000
     1.0000   1.0000   1.0000   1.0000   1.0000   1.0000   1.0000   1.0000
     1.0000   1.0000   1.0000   1.0000   1.0000   1.0000   1.0000   1.0000
     1.0000   1.0000   1.0000   1.0000   1.0000   1.0000   1.0000   1.0000
     1.0000   1.0000   1.0000   1.0000   1.0000   1.0000   1.0000   1.0000
     1.0000   1.0000   1.0000   1.0000   1.0000   1.0000   1.0000   1.0000
     1.0000   1.0000   1.0000   1.0000   1.0000   1.0000   1.0000   1.0000
     1.0000   1.0000   1.0000   1.0000   1.0000   1.0000   1.0000   1.0000
     1.0000   1.0000   1.0000   1.0000   1.0000   1.0000   1.0000   1.0000
     1.0000   1.0000   1.0000   1.0000   1.0000   1.0000   1.0000   1.0000
     1.0000   1.0000   1.0000   1.0000   1.0000   1.0000   1.0000   1.0000
     1.0000   1.0000   1.0000   1.0000   1.0000   1.0000   1.0000   1.0000
     0.0018   0.0000   0.0000   0.0000   0.0000   0.0000   0.0000   0.0000
     0.0000   0.0000   0.0000   0.0000   0.0000   0.0000   0.0000   0.0000
     0.0000   0.0000   0.0000   0.0000   0.0000   0.0000

          k = 0.1768 0.5303 0.5303 (  8605 PWs)   bands (ev):

   -16.8957 -16.8602 -16.8429 -16.7960 -16.7723 -16.7594 -16.7513 -16.7444
   -16.7349 -16.7255 -16.7178 -16.7098 -16.6969 -16.6775 -16.6724 -16.6688
   -16.6532 -16.6495 -16.6430 -16.6290 -16.6186 -16.6140 -16.6059 -16.6027
   -16.5950 -16.5913 -16.5773 -16.5670 -16.5583 -16.5508 -16.5421 -16.5388
   -16.5315 -16.5230 -16.5177 -16.5144 -16.5062 -16.4998 -16.4970 -16.4873
   -16.4826 -16.4813 -16.4690 -16.4655 -16.4584 -16.4504 -16.4390 -16.4344
   -16.4288 -16.4268 -16.4220 -16.4132 -16.4096 -16.4044 -16.4011 -16.3966
   -16.3893 -16.3876 -16.3792 -16.3740 -16.3708 -16.3552 -16.3495 -16.3474
   -16.3388 -16.3342 -16.3222 -16.3193 -16.2934 -16.2782 -16.2736 -16.2371
   -16.2242 -16.2001 -16.1955 -16.1867 -16.1789 -16.1696 -16.1624 -16.1401
    -3.9609  -3.4527  -2.9305  -2.5581  -2.4558  -1.9731  -1.3739  -1.2472
     0.0048   0.2231   0.7252   1.2285   1.3703   2.1800   2.8162   3.9232
     4.0701   4.1360   4.2485   4.6788   4.7417   5.0201   5.1576   5.4356
     5.6529   5.7398   6.0685   6.1969   6.2705   6.7129   6.8356   7.3232
     9.2370   9.5386   9.6626  10.0993  10.2185  10.4055  10.4767  10.7174
    10.8996  10.9139  11.4119  11.5938  11.8741  12.1414  12.2037  12.4204
    12.7704  12.9237  12.9972  13.0740  13.2022  13.2777

     occupation numbers 
     1.0000   1.0000   1.0000   1.0000   1.0000   1.0000   1.0000   1.0000
     1.0000   1.0000   1.0000   1.0000   1.0000   1.0000   1.0000   1.0000
     1.0000   1.0000   1.0000   1.0000   1.0000   1.0000   1.0000   1.0000
     1.0000   1.0000   1.0000   1.0000   1.0000   1.0000   1.0000   1.0000
     1.0000   1.0000   1.0000   1.0000   1.0000   1.0000   1.0000   1.0000
     1.0000   1.0000   1.0000   1.0000   1.0000   1.0000   1.0000   1.0000
     1.0000   1.0000   1.0000   1.0000   1.0000   1.0000   1.0000   1.0000
     1.0000   1.0000   1.0000   1.0000   1.0000   1.0000   1.0000   1.0000
     1.0000   1.0000   1.0000   1.0000   1.0000   1.0000   1.0000   1.0000
     1.0000   1.0000   1.0000   1.0000   1.0000   1.0000   1.0000   1.0000
     1.0000   1.0000   1.0000   1.0000   1.0000   1.0000   1.0000   1.0000
     1.0000   1.0000   1.0000   1.0000   1.0000   1.0000   1.0000   1.0000
     1.0000   1.0000   1.0000   1.0000   1.0000   1.0000   1.0000   1.0000
     1.0000   1.0000   1.0000   1.0000   1.0000   1.0000   1.0000   1.0000
     0.0000   0.0000   0.0000   0.0000   0.0000   0.0000   0.0000   0.0000
     0.0000   0.0000   0.0000   0.0000   0.0000   0.0000   0.0000   0.0000
     0.0000   0.0000   0.0000   0.0000   0.0000   0.0000

          k = 0.1768-0.5303-0.5303 (  8605 PWs)   bands (ev):

   -16.8954 -16.8571 -16.8441 -16.8003 -16.7728 -16.7586 -16.7517 -16.7430
   -16.7341 -16.7237 -16.7211 -16.7106 -16.6972 -16.6864 -16.6774 -16.6636
   -16.6567 -16.6445 -16.6372 -16.6268 -16.6183 -16.6094 -16.6057 -16.6025
   -16.5944 -16.5797 -16.5770 -16.5682 -16.5588 -16.5498 -16.5472 -16.5387
   -16.5318 -16.5258 -16.5207 -16.5139 -16.5069 -16.5009 -16.4982 -16.4883
   -16.4812 -16.4780 -16.4726 -16.4689 -16.4593 -16.4508 -16.4392 -16.4334
   -16.4311 -16.4291 -16.4218 -16.4142 -16.4110 -16.4027 -16.4002 -16.3941
   -16.3916 -16.3882 -16.3765 -16.3730 -16.3681 -16.3536 -16.3507 -16.3438
   -16.3409 -16.3351 -16.3225 -16.3186 -16.2941 -16.2776 -16.2746 -16.2361
   -16.2247 -16.1998 -16.1957 -16.1876 -16.1784 -16.1688 -16.1630 -16.1402
    -3.9461  -3.4615  -2.9466  -2.5600  -2.4682  -1.9570  -1.3751  -1.2529
     0.0270   0.2089   0.7765   1.1839   1.4082   2.2087   2.8361   3.8708
     4.0250   4.1147   4.2145   4.6302   4.7077   4.9960   5.1799   5.3978
     5.6396   5.8143   6.1433   6.2406   6.2946   6.6592   6.8459   7.3488
     9.2217   9.6023   9.6740  10.0788  10.2564  10.3468  10.4330  10.6458
    10.9436  11.0002  11.5038  11.7485  11.9720  12.1168  12.2176  12.3980
    12.7274  12.8509  12.9816  13.0534  13.1919  13.2796

     occupation numbers 
     1.0000   1.0000   1.0000   1.0000   1.0000   1.0000   1.0000   1.0000
     1.0000   1.0000   1.0000   1.0000   1.0000   1.0000   1.0000   1.0000
     1.0000   1.0000   1.0000   1.0000   1.0000   1.0000   1.0000   1.0000
     1.0000   1.0000   1.0000   1.0000   1.0000   1.0000   1.0000   1.0000
     1.0000   1.0000   1.0000   1.0000   1.0000   1.0000   1.0000   1.0000
     1.0000   1.0000   1.0000   1.0000   1.0000   1.0000   1.0000   1.0000
     1.0000   1.0000   1.0000   1.0000   1.0000   1.0000   1.0000   1.0000
     1.0000   1.0000   1.0000   1.0000   1.0000   1.0000   1.0000   1.0000
     1.0000   1.0000   1.0000   1.0000   1.0000   1.0000   1.0000   1.0000
     1.0000   1.0000   1.0000   1.0000   1.0000   1.0000   1.0000   1.0000
     1.0000   1.0000   1.0000   1.0000   1.0000   1.0000   1.0000   1.0000
     1.0000   1.0000   1.0000   1.0000   1.0000   1.0000   1.0000   1.0000
     1.0000   1.0000   1.0000   1.0000   1.0000   1.0000   1.0000   1.0000
     1.0000   1.0000   1.0000   1.0000   1.0000   1.0000   1.0000   1.0000
     0.0000   0.0000   0.0000   0.0000   0.0000   0.0000   0.0000   0.0000
     0.0000   0.0000   0.0000   0.0000   0.0000   0.0000   0.0000   0.0000
     0.0000   0.0000   0.0000   0.0000   0.0000   0.0000

          k =-0.1768 0.5303-0.5303 (  8605 PWs)   bands (ev):

   -16.8959 -16.8573 -16.8440 -16.7981 -16.7719 -16.7616 -16.7536 -16.7461
   -16.7343 -16.7288 -16.7143 -16.7062 -16.6961 -16.6874 -16.6787 -16.6620
   -16.6528 -16.6453 -16.6351 -16.6230 -16.6191 -16.6132 -16.6051 -16.5979
   -16.5943 -16.5845 -16.5775 -16.5636 -16.5584 -16.5567 -16.5474 -16.5398
   -16.5357 -16.5281 -16.5224 -16.5128 -16.5076 -16.5013 -16.4965 -16.4872
   -16.4847 -16.4783 -16.4752 -16.4663 -16.4588 -16.4467 -16.4417 -16.4368
   -16.4325 -16.4272 -16.4182 -16.4171 -16.4090 -16.4060 -16.3996 -16.3934
   -16.3904 -16.3854 -16.3792 -16.3714 -16.3664 -16.3545 -16.3473 -16.3423
   -16.3397 -16.3337 -16.3228 -16.3175 -16.2959 -16.2810 -16.2717 -16.2345
   -16.2301 -16.1991 -16.1979 -16.1877 -16.1790 -16.1664 -16.1631 -16.1397
    -3.9590  -3.3899  -3.0033  -2.7181  -2.3360  -1.8613  -1.4421  -1.2650
     0.1130   0.2478   0.4531   1.3667   1.5966   2.1554   2.6283   3.9168
     4.0021   4.1272   4.2676   4.6616   4.7987   5.0583   5.1310   5.3727
     5.5670   5.8825   5.9846   6.0712   6.2869   6.7156   6.9108   7.4879
     9.4262   9.6584   9.7909  10.0184  10.1780  10.3503  10.5201  10.5318
    10.7501  10.9212  11.3772  11.4978  11.7405  12.1785  12.3450  12.5035
    12.7198  12.8850  13.0651  13.1170  13.2693  13.3061

     occupation numbers 
     1.0000   1.0000   1.0000   1.0000   1.0000   1.0000   1.0000   1.0000
     1.0000   1.0000   1.0000   1.0000   1.0000   1.0000   1.0000   1.0000
     1.0000   1.0000   1.0000   1.0000   1.0000   1.0000   1.0000   1.0000
     1.0000   1.0000   1.0000   1.0000   1.0000   1.0000   1.0000   1.0000
     1.0000   1.0000   1.0000   1.0000   1.0000   1.0000   1.0000   1.0000
     1.0000   1.0000   1.0000   1.0000   1.0000   1.0000   1.0000   1.0000
     1.0000   1.0000   1.0000   1.0000   1.0000   1.0000   1.0000   1.0000
     1.0000   1.0000   1.0000   1.0000   1.0000   1.0000   1.0000   1.0000
     1.0000   1.0000   1.0000   1.0000   1.0000   1.0000   1.0000   1.0000
     1.0000   1.0000   1.0000   1.0000   1.0000   1.0000   1.0000   1.0000
     1.0000   1.0000   1.0000   1.0000   1.0000   1.0000   1.0000   1.0000
     1.0000   1.0000   1.0000   1.0000   1.0000   1.0000   1.0000   1.0000
     1.0000   1.0000   1.0000   1.0000   1.0000   1.0000   1.0000   1.0000
     1.0000   1.0000   1.0000   1.0000   1.0000   1.0000   1.0000   1.0000
     0.0000   0.0000   0.0000   0.0000   0.0000   0.0000   0.0000   0.0000
     0.0000   0.0000   0.0000   0.0000   0.0000   0.0000   0.0000   0.0000
     0.0000   0.0000   0.0000   0.0000   0.0000   0.0000

          k =-0.5303-0.1768-0.5303 (  8605 PWs)   bands (ev):

   -16.8960 -16.8601 -16.8425 -16.7937 -16.7685 -16.7608 -16.7563 -16.7480
   -16.7337 -16.7268 -16.7139 -16.7060 -16.6960 -16.6776 -16.6734 -16.6666
   -16.6572 -16.6484 -16.6434 -16.6374 -16.6201 -16.6133 -16.6097 -16.6016
   -16.5979 -16.5885 -16.5741 -16.5674 -16.5580 -16.5503 -16.5426 -16.5422
   -16.5288 -16.5232 -16.5174 -16.5106 -16.5015 -16.4966 -16.4935 -16.4881
   -16.4834 -16.4767 -16.4679 -16.4618 -16.4562 -16.4484 -16.4442 -16.4363
   -16.4299 -16.4270 -16.4228 -16.4204 -16.4160 -16.4104 -16.4040 -16.3954
   -16.3926 -16.3840 -16.3761 -16.3732 -16.3698 -16.3608 -16.3483 -16.3410
   -16.3359 -16.3298 -16.3242 -16.3182 -16.2948 -16.2813 -16.2695 -16.2365
   -16.2288 -16.2001 -16.1968 -16.1864 -16.1798 -16.1676 -16.1618 -16.1396
    -3.9633  -3.4496  -2.9292  -2.5873  -2.4482  -1.8827  -1.4323  -1.2836
    -0.0120   0.2850   0.6974   1.1912   1.4495   2.1253   2.8325   3.9125
     4.1128   4.1814   4.2324   4.6032   4.7512   4.9842   5.2099   5.4066
     5.5913   5.7731   6.1233   6.1893   6.3150   6.6452   6.8361   7.3894
     9.2003   9.6066   9.6580  10.0356  10.1350  10.3457  10.5939  10.7083
    10.8306  10.8860  11.3188  11.7313  11.9617  12.0986  12.2467  12.4268
    12.7799  12.8869  13.0235  13.0887  13.1953  13.2982

     occupation numbers 
     1.0000   1.0000   1.0000   1.0000   1.0000   1.0000   1.0000   1.0000
     1.0000   1.0000   1.0000   1.0000   1.0000   1.0000   1.0000   1.0000
     1.0000   1.0000   1.0000   1.0000   1.0000   1.0000   1.0000   1.0000
     1.0000   1.0000   1.0000   1.0000   1.0000   1.0000   1.0000   1.0000
     1.0000   1.0000   1.0000   1.0000   1.0000   1.0000   1.0000   1.0000
     1.0000   1.0000   1.0000   1.0000   1.0000   1.0000   1.0000   1.0000
     1.0000   1.0000   1.0000   1.0000   1.0000   1.0000   1.0000   1.0000
     1.0000   1.0000   1.0000   1.0000   1.0000   1.0000   1.0000   1.0000
     1.0000   1.0000   1.0000   1.0000   1.0000   1.0000   1.0000   1.0000
     1.0000   1.0000   1.0000   1.0000   1.0000   1.0000   1.0000   1.0000
     1.0000   1.0000   1.0000   1.0000   1.0000   1.0000   1.0000   1.0000
     1.0000   1.0000   1.0000   1.0000   1.0000   1.0000   1.0000   1.0000
     1.0000   1.0000   1.0000   1.0000   1.0000   1.0000   1.0000   1.0000
     1.0000   1.0000   1.0000   1.0000   1.0000   1.0000   1.0000   1.0000
     0.0000   0.0000   0.0000   0.0000   0.0000   0.0000   0.0000   0.0000
     0.0000   0.0000   0.0000   0.0000   0.0000   0.0000   0.0000   0.0000
     0.0000   0.0000   0.0000   0.0000   0.0000   0.0000

          k = 0.5303 0.1768-0.5303 (  8605 PWs)   bands (ev):

   -16.8973 -16.8605 -16.8437 -16.7953 -16.7715 -16.7632 -16.7548 -16.7476
   -16.7322 -16.7247 -16.7134 -16.7011 -16.6964 -16.6783 -16.6730 -16.6615
   -16.6580 -16.6486 -16.6426 -16.6334 -16.6276 -16.6152 -16.6100 -16.5948
   -16.5932 -16.5826 -16.5690 -16.5659 -16.5621 -16.5521 -16.5419 -16.5376
   -16.5350 -16.5282 -16.5199 -16.5112 -16.5077 -16.5024 -16.4975 -16.4869
   -16.4796 -16.4690 -16.4657 -16.4621 -16.4541 -16.4498 -16.4461 -16.4417
   -16.4390 -16.4346 -16.4272 -16.4213 -16.4144 -16.4094 -16.4038 -16.3961
   -16.3896 -16.3839 -16.3777 -16.3748 -16.3696 -16.3596 -16.3407 -16.3359
   -16.3314 -16.3285 -16.3213 -16.3137 -16.2933 -16.2869 -16.2629 -16.2401
   -16.2356 -16.2018 -16.1997 -16.1870 -16.1805 -16.1642 -16.1603 -16.1388
    -3.9151  -3.4464  -3.0028  -2.7158  -2.2797  -1.9826  -1.5039  -1.2107
     0.0562   0.3725   0.6745   1.2253   1.7729   2.2278   2.5321   3.6830
     3.8504   4.0058   4.2351   4.5490   4.7082   5.1074   5.2143   5.2528
     5.6852   5.9107   6.0242   6.2741   6.3087   6.8536   6.9106   7.4527
     9.3714   9.6611   9.8558  10.0833  10.3249  10.3913  10.4989  10.6849
    10.7203  10.9582  11.5657  11.6966  11.9476  12.0871  12.2111  12.4667
    12.6470  12.7792  12.9633  13.0376  13.1291  13.2526

     occupation numbers 
     1.0000   1.0000   1.0000   1.0000   1.0000   1.0000   1.0000   1.0000
     1.0000   1.0000   1.0000   1.0000   1.0000   1.0000   1.0000   1.0000
     1.0000   1.0000   1.0000   1.0000   1.0000   1.0000   1.0000   1.0000
     1.0000   1.0000   1.0000   1.0000   1.0000   1.0000   1.0000   1.0000
     1.0000   1.0000   1.0000   1.0000   1.0000   1.0000   1.0000   1.0000
     1.0000   1.0000   1.0000   1.0000   1.0000   1.0000   1.0000   1.0000
     1.0000   1.0000   1.0000   1.0000   1.0000   1.0000   1.0000   1.0000
     1.0000   1.0000   1.0000   1.0000   1.0000   1.0000   1.0000   1.0000
     1.0000   1.0000   1.0000   1.0000   1.0000   1.0000   1.0000   1.0000
     1.0000   1.0000   1.0000   1.0000   1.0000   1.0000   1.0000   1.0000
     1.0000   1.0000   1.0000   1.0000   1.0000   1.0000   1.0000   1.0000
     1.0000   1.0000   1.0000   1.0000   1.0000   1.0000   1.0000   1.0000
     1.0000   1.0000   1.0000   1.0000   1.0000   1.0000   1.0000   1.0000
     1.0000   1.0000   1.0000   1.0000   1.0000   1.0000   1.0000   1.0000
     0.0000   0.0000   0.0000   0.0000   0.0000   0.0000   0.0000   0.0000
     0.0000   0.0000   0.0000   0.0000   0.0000   0.0000   0.0000   0.0000
     0.0000   0.0000   0.0000   0.0000   0.0000   0.0000

          k =-0.5303 0.1768 0.5303 (  8605 PWs)   bands (ev):

   -16.8957 -16.8571 -16.8436 -16.7983 -16.7693 -16.7613 -16.7542 -16.7472
   -16.7329 -16.7261 -16.7156 -16.7073 -16.6971 -16.6845 -16.6798 -16.6625
   -16.6558 -16.6485 -16.6416 -16.6268 -16.6196 -16.6134 -16.6095 -16.6023
   -16.5932 -16.5816 -16.5731 -16.5653 -16.5556 -16.5533 -16.5478 -16.5397
   -16.5314 -16.5238 -16.5176 -16.5137 -16.5054 -16.4990 -16.4950 -16.4882
   -16.4798 -16.4760 -16.4709 -16.4632 -16.4535 -16.4506 -16.4427 -16.4392
   -16.4315 -16.4295 -16.4242 -16.4204 -16.4154 -16.4096 -16.4039 -16.3947
   -16.3884 -16.3870 -16.3754 -16.3717 -16.3691 -16.3585 -16.3474 -16.3410
   -16.3344 -16.3330 -16.3237 -16.3172 -16.2954 -16.2808 -16.2705 -16.2344
   -16.2302 -16.1995 -16.1974 -16.1875 -16.1790 -16.1667 -16.1626 -16.1397
    -3.9573  -3.4095  -2.9927  -2.7131  -2.2901  -1.8934  -1.4264  -1.3024
     0.0929   0.1754   0.6209   1.2157   1.6921   2.1062   2.6699   3.9501
     4.0497   4.1291   4.2341   4.6152   4.7787   5.0940   5.1727   5.3571
     5.5784   5.7998   5.9467   6.0647   6.3187   6.7547   6.9084   7.5170
     9.3619   9.6003   9.7747  10.0033  10.1544  10.4295  10.5533  10.5948
    10.7556  10.8603  11.2839  11.5892  11.8078  12.1143  12.3113  12.5805
    12.7037  12.9361  12.9919  13.1369  13.2086  13.3473

     occupation numbers 
     1.0000   1.0000   1.0000   1.0000   1.0000   1.0000   1.0000   1.0000
     1.0000   1.0000   1.0000   1.0000   1.0000   1.0000   1.0000   1.0000
     1.0000   1.0000   1.0000   1.0000   1.0000   1.0000   1.0000   1.0000
     1.0000   1.0000   1.0000   1.0000   1.0000   1.0000   1.0000   1.0000
     1.0000   1.0000   1.0000   1.0000   1.0000   1.0000   1.0000   1.0000
     1.0000   1.0000   1.0000   1.0000   1.0000   1.0000   1.0000   1.0000
     1.0000   1.0000   1.0000   1.0000   1.0000   1.0000   1.0000   1.0000
     1.0000   1.0000   1.0000   1.0000   1.0000   1.0000   1.0000   1.0000
     1.0000   1.0000   1.0000   1.0000   1.0000   1.0000   1.0000   1.0000
     1.0000   1.0000   1.0000   1.0000   1.0000   1.0000   1.0000   1.0000
     1.0000   1.0000   1.0000   1.0000   1.0000   1.0000   1.0000   1.0000
     1.0000   1.0000   1.0000   1.0000   1.0000   1.0000   1.0000   1.0000
     1.0000   1.0000   1.0000   1.0000   1.0000   1.0000   1.0000   1.0000
     1.0000   1.0000   1.0000   1.0000   1.0000   1.0000   1.0000   1.0000
     0.0000   0.0000   0.0000   0.0000   0.0000   0.0000   0.0000   0.0000
     0.0000   0.0000   0.0000   0.0000   0.0000   0.0000   0.0000   0.0000
     0.0000   0.0000   0.0000   0.0000   0.0000   0.0000

          k = 0.5303-0.1768 0.5303 (  8605 PWs)   bands (ev):

   -16.8963 -16.8573 -16.8438 -16.7959 -16.7679 -16.7613 -16.7592 -16.7494
   -16.7351 -16.7281 -16.7120 -16.7044 -16.6954 -16.6854 -16.6766 -16.6642
   -16.6524 -16.6458 -16.6399 -16.6291 -16.6182 -16.6145 -16.6083 -16.5998
   -16.5911 -16.5870 -16.5752 -16.5655 -16.5594 -16.5528 -16.5474 -16.5424
   -16.5317 -16.5257 -16.5174 -16.5123 -16.5069 -16.4981 -16.4955 -16.4868
   -16.4810 -16.4756 -16.4701 -16.4625 -16.4584 -16.4532 -16.4453 -16.4407
   -16.4354 -16.4250 -16.4224 -16.4186 -16.4143 -16.4071 -16.4013 -16.3953
   -16.3893 -16.3857 -16.3783 -16.3716 -16.3656 -16.3602 -16.3424 -16.3389
   -16.3345 -16.3311 -16.3237 -16.3171 -16.2975 -16.2848 -16.2661 -16.2381
   -16.2318 -16.1999 -16.1979 -16.1869 -16.1800 -16.1665 -16.1612 -16.1392
    -3.9521  -3.4439  -2.9575  -2.6006  -2.4320  -1.9431  -1.4002  -1.2250
    -0.0433   0.2401   0.7461   1.2286   1.5050   2.1379   2.8095   3.8874
     3.9277   4.1366   4.2454   4.6300   4.7335   5.0517   5.1987   5.3644
     5.6641   5.7301   6.0615   6.2315   6.3329   6.7423   6.8963   7.3500
     9.2177   9.5865   9.7043  10.0455  10.1601  10.3551  10.4795  10.7811
    10.8296  10.9844  11.3646  11.8529  11.9010  12.1046  12.2209  12.4261
    12.7918  12.8814  12.9139  13.0564  13.1489  13.2164

     occupation numbers 
     1.0000   1.0000   1.0000   1.0000   1.0000   1.0000   1.0000   1.0000
     1.0000   1.0000   1.0000   1.0000   1.0000   1.0000   1.0000   1.0000
     1.0000   1.0000   1.0000   1.0000   1.0000   1.0000   1.0000   1.0000
     1.0000   1.0000   1.0000   1.0000   1.0000   1.0000   1.0000   1.0000
     1.0000   1.0000   1.0000   1.0000   1.0000   1.0000   1.0000   1.0000
     1.0000   1.0000   1.0000   1.0000   1.0000   1.0000   1.0000   1.0000
     1.0000   1.0000   1.0000   1.0000   1.0000   1.0000   1.0000   1.0000
     1.0000   1.0000   1.0000   1.0000   1.0000   1.0000   1.0000   1.0000
     1.0000   1.0000   1.0000   1.0000   1.0000   1.0000   1.0000   1.0000
     1.0000   1.0000   1.0000   1.0000   1.0000   1.0000   1.0000   1.0000
     1.0000   1.0000   1.0000   1.0000   1.0000   1.0000   1.0000   1.0000
     1.0000   1.0000   1.0000   1.0000   1.0000   1.0000   1.0000   1.0000
     1.0000   1.0000   1.0000   1.0000   1.0000   1.0000   1.0000   1.0000
     1.0000   1.0000   1.0000   1.0000   1.0000   1.0000   1.0000   1.0000
     0.0000   0.0000   0.0000   0.0000   0.0000   0.0000   0.0000   0.0000
     0.0000   0.0000   0.0000   0.0000   0.0000   0.0000   0.0000   0.0000
     0.0000   0.0000   0.0000   0.0000   0.0000   0.0000

          k = 0.5303 0.5303-0.1768 (  8605 PWs)   bands (ev):

   -16.8971 -16.8577 -16.8446 -16.8005 -16.7727 -16.7645 -16.7528 -16.7432
   -16.7327 -16.7256 -16.7176 -16.7007 -16.6965 -16.6834 -16.6748 -16.6650
   -16.6546 -16.6424 -16.6344 -16.6275 -16.6230 -16.6193 -16.6096 -16.5973
   -16.5865 -16.5801 -16.5715 -16.5655 -16.5620 -16.5532 -16.5472 -16.5394
   -16.5313 -16.5297 -16.5249 -16.5185 -16.5103 -16.5018 -16.4957 -16.4842
   -16.4761 -16.4726 -16.4668 -16.4594 -16.4563 -16.4511 -16.4473 -16.4458
   -16.4392 -16.4370 -16.4295 -16.4183 -16.4157 -16.4100 -16.3972 -16.3962
   -16.3863 -16.3816 -16.3781 -16.3755 -16.3701 -16.3577 -16.3416 -16.3339
   -16.3320 -16.3259 -16.3214 -16.3138 -16.2944 -16.2868 -16.2643 -16.2389
   -16.2361 -16.2015 -16.2002 -16.1877 -16.1807 -16.1632 -16.1610 -16.1389
    -3.9097  -3.4659  -2.9975  -2.5769  -2.4663  -1.9846  -1.3382  -1.3181
     0.1912   0.2047   0.6911   1.4436   1.5106   2.2259   2.6087   3.6893
     3.8650   3.9813   4.1680   4.5905   4.7046   5.0972   5.1664   5.2764
     5.7536   5.9173   6.1408   6.2304   6.2625   6.8446   6.8920   7.3956
     9.3738   9.7195   9.8546  10.0337  10.2329  10.3501  10.4815  10.7072
    10.9053  11.0019  11.5809  11.7524  11.9663  12.1441  12.2827  12.3335
    12.6993  12.8112  12.8984  12.9585  13.0731  13.2442

     occupation numbers 
[...]
   -16.4792 -16.4744 -16.4657 -16.4616 -16.4567 -16.4526 -16.4453 -16.4397
   -16.4353 -16.4328 -16.4276 -16.4204 -16.4183 -16.4123 -16.4000 -16.3967
   -16.3899 -16.3810 -16.3764 -16.3745 -16.3703 -16.3595 -16.3429 -16.3353
   -16.3332 -16.3293 -16.3229 -16.3150 -16.2961 -16.2854 -16.2653 -16.2380
   -16.2339 -16.2003 -16.1987 -16.1869 -16.1802 -16.1646 -16.1611 -16.1391
    -3.6336  -3.4322  -3.2330  -3.1495  -1.9122  -1.8153  -1.6423  -1.4128
     0.1994   0.5950   0.6462   0.7423   2.6250   2.7010   2.8609   3.1319
     3.8042   3.8329   4.0387   4.1106   5.1097   5.2310   5.2803   5.3680
     5.4318   5.5007   5.7149   5.7761   6.3776   6.6767   6.7710   6.8857
    10.1119  10.2558  10.3714  10.5124  10.5837  10.7299  10.8067  10.8889
    10.9181  10.9938  11.1692  11.1918  12.3557  12.4690  12.5563  12.6596
    12.7900  12.8733  12.9353  13.0040  13.0707  13.1272

     occupation numbers 
     1.0000   1.0000   1.0000   1.0000   1.0000   1.0000   1.0000   1.0000
     1.0000   1.0000   1.0000   1.0000   1.0000   1.0000   1.0000   1.0000
     1.0000   1.0000   1.0000   1.0000   1.0000   1.0000   1.0000   1.0000
     1.0000   1.0000   1.0000   1.0000   1.0000   1.0000   1.0000   1.0000
     1.0000   1.0000   1.0000   1.0000   1.0000   1.0000   1.0000   1.0000
     1.0000   1.0000   1.0000   1.0000   1.0000   1.0000   1.0000   1.0000
     1.0000   1.0000   1.0000   1.0000   1.0000   1.0000   1.0000   1.0000
     1.0000   1.0000   1.0000   1.0000   1.0000   1.0000   1.0000   1.0000
     1.0000   1.0000   1.0000   1.0000   1.0000   1.0000   1.0000   1.0000
     1.0000   1.0000   1.0000   1.0000   1.0000   1.0000   1.0000   1.0000
     1.0000   1.0000   1.0000   1.0000   1.0000   1.0000   1.0000   1.0000
     1.0000   1.0000   1.0000   1.0000   1.0000   1.0000   1.0000   1.0000
     1.0000   1.0000   1.0000   1.0000   1.0000   1.0000   1.0000   1.0000
     1.0000   1.0000   1.0000   1.0000   1.0000   1.0000   1.0000   1.0000
     0.0000   0.0000   0.0000   0.0000   0.0000   0.0000   0.0000   0.0000
     0.0000   0.0000   0.0000   0.0000   0.0000   0.0000   0.0000   0.0000
     0.0000   0.0000   0.0000   0.0000   0.0000   0.0000

          k = 0.7071-0.0000 0.3536 (  8652 PWs)   bands (ev):

   -16.8966 -16.8604 -16.8436 -16.7957 -16.7720 -16.7613 -16.7547 -16.7469
   -16.7340 -16.7258 -16.7120 -16.7088 -16.6965 -16.6795 -16.6744 -16.6650
   -16.6533 -16.6498 -16.6427 -16.6251 -16.6205 -16.6136 -16.6075 -16.5992
   -16.5953 -16.5827 -16.5721 -16.5678 -16.5569 -16.5522 -16.5488 -16.5402
   -16.5312 -16.5246 -16.5224 -16.5115 -16.5067 -16.4995 -16.4981 -16.4873
   -16.4823 -16.4760 -16.4714 -16.4654 -16.4579 -16.4454 -16.4434 -16.4359
   -16.4320 -16.4296 -16.4208 -16.4197 -16.4149 -16.4056 -16.4015 -16.3969
   -16.3907 -16.3875 -16.3789 -16.3731 -16.3703 -16.3574 -16.3464 -16.3397
   -16.3366 -16.3338 -16.3228 -16.3167 -16.2931 -16.2817 -16.2697 -16.2371
   -16.2296 -16.2000 -16.1980 -16.1867 -16.1790 -16.1664 -16.1616 -16.1395
    -3.6269  -3.4362  -3.2641  -3.1191  -1.9612  -1.7501  -1.6567  -1.4122
     0.2411   0.4847   0.6296   0.8179   2.5839   2.7444   2.8612   3.1521
     3.7829   3.8568   4.0030   4.1334   5.0825   5.1794   5.3095   5.3992
     5.4635   5.5530   5.6400   5.7816   6.3777   6.6434   6.7632   6.9211
    10.1672  10.2734  10.3716  10.4477  10.6315  10.6908  10.7607  10.8712
    10.9072  11.0451  11.1553  11.2136  12.4148  12.4630  12.5393  12.6128
    12.7136  12.8727  12.9401  13.0058  13.0935  13.1802

     occupation numbers 
     1.0000   1.0000   1.0000   1.0000   1.0000   1.0000   1.0000   1.0000
     1.0000   1.0000   1.0000   1.0000   1.0000   1.0000   1.0000   1.0000
     1.0000   1.0000   1.0000   1.0000   1.0000   1.0000   1.0000   1.0000
     1.0000   1.0000   1.0000   1.0000   1.0000   1.0000   1.0000   1.0000
     1.0000   1.0000   1.0000   1.0000   1.0000   1.0000   1.0000   1.0000
     1.0000   1.0000   1.0000   1.0000   1.0000   1.0000   1.0000   1.0000
     1.0000   1.0000   1.0000   1.0000   1.0000   1.0000   1.0000   1.0000
     1.0000   1.0000   1.0000   1.0000   1.0000   1.0000   1.0000   1.0000
     1.0000   1.0000   1.0000   1.0000   1.0000   1.0000   1.0000   1.0000
     1.0000   1.0000   1.0000   1.0000   1.0000   1.0000   1.0000   1.0000
     1.0000   1.0000   1.0000   1.0000   1.0000   1.0000   1.0000   1.0000
     1.0000   1.0000   1.0000   1.0000   1.0000   1.0000   1.0000   1.0000
     1.0000   1.0000   1.0000   1.0000   1.0000   1.0000   1.0000   1.0000
     1.0000   1.0000   1.0000   1.0000   1.0000   1.0000   1.0000   1.0000
     0.0000   0.0000   0.0000   0.0000   0.0000   0.0000   0.0000   0.0000
     0.0000   0.0000   0.0000   0.0000   0.0000   0.0000   0.0000   0.0000
     0.0000   0.0000   0.0000   0.0000   0.0000   0.0000

     the Fermi energy is     8.2146 ev

!    total energy              =   -3410.90475785 Ry
     Harris-Foulkes estimate   =   -3410.90475776 Ry
     estimated scf accuracy    <          8.6E-10 Ry

     The total energy is the sum of the following terms:

     one-electron contribution =   -2243.59888388 Ry
     hartree contribution      =    1326.06867447 Ry
     xc contribution           =    -922.10028803 Ry
     ewald contribution        =   -1571.27181175 Ry
     smearing contrib. (-TS)   =      -0.00244865 Ry

     convergence has been achieved in  11 iterations

     Forces acting on atoms (Ry/au):

     atom    1 type  1   force =  -0.29431795E-01  0.33499094E-01 -0.23304965E-01
     atom    2 type  1   force =   0.41203721E-01  0.17616907E-01  0.35821542E-02
     atom    3 type  1   force =  -0.11388006E-01  0.48289118E-02  0.32609167E-01
     atom    4 type  1   force =  -0.33435217E-01 -0.29296806E-01 -0.34882270E-01
     atom    5 type  1   force =   0.47139101E-03  0.38729799E-01 -0.89769219E-02
     atom    6 type  1   force =  -0.12311698E-01 -0.71068051E-01  0.30614346E-01
     atom    7 type  1   force =   0.36151903E-01  0.27750230E-02 -0.34939555E-01
     atom    8 type  1   force =  -0.32432973E-02  0.15606148E-01  0.49193792E-01
     atom    9 type  1   force =   0.33140326E-01 -0.25637934E-01  0.49341536E-01
     atom   10 type  1   force =  -0.44601471E-01 -0.58950410E-02 -0.47449837E-01
     atom   11 type  1   force =  -0.27785168E-01  0.12509184E-01 -0.30600035E-01
     atom   12 type  1   force =   0.19849100E-01  0.47309733E-01  0.25517092E-02
     atom   13 type  1   force =   0.65751313E-01  0.24669463E-01 -0.54752999E-02
     atom   14 type  1   force =  -0.71624692E-01 -0.35661626E-01  0.21787801E-01
     atom   15 type  1   force =   0.70183116E-01  0.16369626E-01 -0.61353590E-01
     atom   16 type  1   force =  -0.32929525E-01 -0.46354430E-01  0.57301969E-01
     The non-local contrib.  to forces
     atom    1 type  1   force =  -0.38370575E-01 -0.49974329E-01 -0.23130652E-01
     atom    2 type  1   force =  -0.86935716E-02 -0.50270199E-03  0.23034125E-01
     atom    3 type  1   force =   0.30748613E-02  0.13319861E-01  0.51461372E-02
     atom    4 type  1   force =  -0.28682520E-01  0.14489934E-02  0.24120746E-02
     atom    5 type  1   force =   0.23245561E-01 -0.89417479E-03  0.26286821E-01
     atom    6 type  1   force =   0.24885415E-01  0.37508752E-01  0.47217476E-02
     atom    7 type  1   force =   0.38912044E-02 -0.40942356E-01 -0.59909604E-02
     atom    8 type  1   force =  -0.95805565E-02  0.18480329E-01 -0.20069689E-01
     atom    9 type  1   force =  -0.95756733E-02  0.19971667E-01  0.37575812E-02
     atom   10 type  1   force =   0.85084154E-02  0.22558987E-01 -0.10688291E-01
     atom   11 type  1   force =  -0.28724610E-01  0.23000161E-02 -0.15460468E-01
     atom   12 type  1   force =   0.48742381E-01 -0.19244575E-02  0.25351262E-02
     atom   13 type  1   force =  -0.31808877E-02 -0.15101867E-01  0.18111149E-01
     atom   14 type  1   force =  -0.23352408E-02 -0.10364347E-01 -0.87471334E-02
     atom   15 type  1   force =  -0.12411280E-01 -0.19036845E-01  0.22817326E-01
     atom   16 type  1   force =   0.23976125E-01 -0.41117784E-02 -0.36288966E-01
     The ionic contribution  to forces
     atom    1 type  1   force =  -0.31861840E+01  0.12455441E+01 -0.36625883E+01
     atom    2 type  1   force =   0.20856138E+01  0.27847248E+01  0.11760606E+01
     atom    3 type  1   force =   0.48418124E+00  0.24058420E+01  0.22587729E+01
     atom    4 type  1   force =  -0.30112896E+01 -0.67285582E+00 -0.33067311E+01
     atom    5 type  1   force =   0.88763598E+00  0.15336113E+01  0.14713513E+01
     atom    6 type  1   force =  -0.93652582E+00 -0.41404658E+01  0.12635065E+01
     atom    7 type  1   force =   0.80357167E+00 -0.23568692E+01 -0.66053290E+00
     atom    8 type  1   force =   0.82077359E+00  0.18664781E+01  0.36257535E+01
     atom    9 type  1   force =   0.14295369E+01  0.18528469E+00  0.27967944E+01
     atom   10 type  1   force =  -0.31389375E+01 -0.10872484E+01 -0.35437545E+01
     atom   11 type  1   force =  -0.38931257E+01 -0.13886218E-01 -0.34760127E+01
     atom   12 type  1   force =   0.19571165E+01  0.27954672E+01 -0.54966585E+00
     atom   13 type  1   force =   0.19949394E+01 -0.16288079E+01  0.66732127E+00
     atom   14 type  1   force =  -0.87067501E+00 -0.13934749E+01  0.78646188E+00
     atom   15 type  1   force =   0.47410534E+01  0.13981370E+01 -0.10970673E+01
     atom   16 type  1   force =  -0.16768485E+00 -0.29214811E+01  0.22503302E+01
     The local contribution  to forces
     atom    1 type  1   force =   0.31907378E+01 -0.11609654E+01  0.36574628E+01
     atom    2 type  1   force =  -0.20323593E+01 -0.27643558E+01 -0.11937736E+01
     atom    3 type  1   force =  -0.49794411E+00 -0.24123337E+01 -0.22279219E+01
     atom    4 type  1   force =   0.30032750E+01  0.64063328E+00  0.32664695E+01
     atom    5 type  1   force =  -0.90883850E+00 -0.14918498E+01 -0.15065962E+01
     atom    6 type  1   force =   0.89841572E+00  0.40271300E+01 -0.12346462E+01
     atom    7 type  1   force =  -0.76873031E+00  0.23980966E+01  0.62898650E+00
     atom    8 type  1   force =  -0.81606423E+00 -0.18665888E+01 -0.35524967E+01
     atom    9 type  1   force =  -0.13852506E+01 -0.23131776E+00 -0.27461585E+01
     atom   10 type  1   force =   0.30825317E+01  0.10580164E+01  0.35024201E+01
     atom   11 type  1   force =   0.38886827E+01  0.24425137E-01  0.34568061E+01
     atom   12 type  1   force =  -0.19819833E+01 -0.27432402E+01  0.54886821E+00
     atom   13 type  1   force =  -0.19205426E+01  0.16694304E+01 -0.68925535E+00
     atom   14 type  1   force =   0.79584210E+00  0.13646767E+01 -0.75637254E+00
     atom   15 type  1   force =  -0.46521461E+01 -0.13607913E+01  0.10093781E+01
     atom   16 type  1   force =   0.10951915E+00  0.28756323E+01 -0.21521064E+01
     The core correction contribution to forces
     atom    1 type  1   force =   0.43749294E-02 -0.10924359E-02  0.49481418E-02
     atom    2 type  1   force =  -0.33349467E-02 -0.22260327E-02 -0.17417183E-02
     atom    3 type  1   force =  -0.71007708E-03 -0.19955660E-02 -0.33875880E-02
     atom    4 type  1   force =   0.32424313E-02  0.14603293E-02  0.29286979E-02
     atom    5 type  1   force =  -0.15850496E-02 -0.21321288E-02 -0.14607962E-04
     atom    6 type  1   force =   0.91603337E-03  0.47249358E-02 -0.29688950E-02
     atom    7 type  1   force =  -0.25823200E-02  0.24931932E-02  0.26162982E-02
     atom    8 type  1   force =   0.16563521E-02 -0.27604830E-02 -0.39710219E-02
     atom    9 type  1   force =  -0.15635102E-02  0.41650852E-03 -0.50513353E-02
     atom   10 type  1   force =   0.32658211E-02  0.77696486E-03  0.45535585E-02
     atom   11 type  1   force =   0.53696333E-02 -0.33655566E-03  0.40544375E-02
     atom   12 type  1   force =  -0.40143837E-02 -0.29508071E-02  0.82742346E-03
     atom   13 type  1   force =  -0.54576086E-02 -0.85781724E-03 -0.16469842E-02
     atom   14 type  1   force =   0.55498100E-02  0.35041869E-02  0.46706724E-03
     atom   15 type  1   force =  -0.62952495E-02 -0.19499955E-02  0.34944141E-02
     atom   16 type  1   force =   0.12556486E-02  0.35885742E-02 -0.46204378E-02
     The Hubbard contrib.    to forces
     atom    1 type  1   force =   0.00000000E+00  0.00000000E+00  0.00000000E+00
     atom    2 type  1   force =   0.00000000E+00  0.00000000E+00  0.00000000E+00
     atom    3 type  1   force =   0.00000000E+00  0.00000000E+00  0.00000000E+00
     atom    4 type  1   force =   0.00000000E+00  0.00000000E+00  0.00000000E+00
     atom    5 type  1   force =   0.00000000E+00  0.00000000E+00  0.00000000E+00
     atom    6 type  1   force =   0.00000000E+00  0.00000000E+00  0.00000000E+00
     atom    7 type  1   force =   0.00000000E+00  0.00000000E+00  0.00000000E+00
     atom    8 type  1   force =   0.00000000E+00  0.00000000E+00  0.00000000E+00
     atom    9 type  1   force =   0.00000000E+00  0.00000000E+00  0.00000000E+00
     atom   10 type  1   force =   0.00000000E+00  0.00000000E+00  0.00000000E+00
     atom   11 type  1   force =   0.00000000E+00  0.00000000E+00  0.00000000E+00
     atom   12 type  1   force =   0.00000000E+00  0.00000000E+00  0.00000000E+00
     atom   13 type  1   force =   0.00000000E+00  0.00000000E+00  0.00000000E+00
     atom   14 type  1   force =   0.00000000E+00  0.00000000E+00  0.00000000E+00
     atom   15 type  1   force =   0.00000000E+00  0.00000000E+00  0.00000000E+00
     atom   16 type  1   force =   0.00000000E+00  0.00000000E+00  0.00000000E+00
     The SCF correction term to forces
     atom    1 type  1   force =   0.10288021E-04 -0.11306458E-04  0.41497218E-05
     atom    2 type  1   force =  -0.22049016E-04 -0.21893757E-04  0.39170308E-05
     atom    3 type  1   force =   0.10268476E-04 -0.21933230E-05  0.74473771E-06
     atom    4 type  1   force =   0.19657608E-04  0.17928019E-04  0.39601412E-04
     atom    5 type  1   force =   0.13587537E-04 -0.39384888E-05 -0.31754242E-05
     atom    6 type  1   force =  -0.28568156E-05  0.35631800E-04  0.23259262E-05
     atom    7 type  1   force =   0.18542266E-05 -0.17133308E-05 -0.17396112E-04
     atom    8 type  1   force =  -0.28272333E-04 -0.14929272E-05 -0.21211401E-04
     atom    9 type  1   force =  -0.66007201E-05  0.84838031E-05  0.48526648E-06
     atom   10 type  1   force =   0.30297049E-04  0.25073628E-05  0.20456157E-04
     atom   11 type  1   force =   0.13017689E-04  0.83284890E-05  0.13636589E-04
     atom   12 type  1   force =  -0.11882869E-04 -0.40417298E-04 -0.12109764E-04
     atom   13 type  1   force =  -0.67752698E-05  0.81437516E-05 -0.42989372E-05
     atom   14 type  1   force =  -0.61704056E-05 -0.17511680E-05 -0.20386013E-04
     atom   15 type  1   force =  -0.17510896E-04  0.12337726E-04  0.24942711E-04
     atom   16 type  1   force =   0.45873987E-05  0.19079297E-04 -0.11373336E-04

     Total force =     0.249347     Total SCF correction =     0.000113


     entering subroutine stress ...

          total   stress  (Ry/bohr**3)                   (kbar)     P=   10.58
   0.0000640659   0.0000621944  -0.0000657458          9.42      9.15     -9.67
   0.0000621944   0.0000827704  -0.0001025290          9.15     12.18    -15.08
  -0.0000657458  -0.0001025290   0.0000688615         -9.67    -15.08     10.13

     kinetic stress (kbar)  10000.97     -6.17     10.32
                               -6.17  10000.76     11.08
                               10.32     11.08  10000.72

     local   stress (kbar)   1733.19   -997.32   1940.39
                             -997.32   1417.95   2103.32
                             1940.39   2103.32   1687.64

     nonloc. stress (kbar)   2943.43      4.89     -8.13
                                4.89   2945.09     -9.70
                               -8.13     -9.70   2943.80

     hartree stress (kbar)  26335.19    380.58   -774.80
                              380.58  26462.29   -824.31
                             -774.80   -824.31  26352.19

     exc-cor stress (kbar)  19473.82      0.28     -0.45
                                0.28  19473.89     -0.53
                               -0.45     -0.53  19473.83

     corecor stress (kbar) -29142.56     -0.34      0.49
                               -0.34 -29142.66      0.62
                                0.49      0.62 -29142.59

     ewald   stress (kbar) -31334.62    627.23  -1177.49
                              627.23 -31145.13  -1295.57
                            -1177.49  -1295.57 -31305.47

     hubbard stress (kbar)      0.00      0.00      0.00
                                0.00      0.00      0.00
                                0.00      0.00      0.00

     london  stress (kbar)      0.00      0.00      0.00
                                0.00      0.00      0.00
                                0.00      0.00      0.00

     XDM     stress (kbar)      0.00      0.00      0.00
                                0.00      0.00      0.00
                                0.00      0.00      0.00

     dft-nl  stress (kbar)      0.00      0.00      0.00
                                0.00      0.00      0.00
                                0.00      0.00      0.00



     Writing output data file Ge_diamond.scf.in.super.222.022.save

     init_run     :     32.68s CPU     28.32s WALL (       1 calls)
     electrons    :   1493.22s CPU   1266.90s WALL (       1 calls)
     forces       :     14.94s CPU     10.64s WALL (       1 calls)
     stress       :     71.96s CPU     71.09s WALL (       1 calls)

     Called by init_run:
     wfcinit      :     31.64s CPU     27.25s WALL (       1 calls)
     potinit      :      0.12s CPU      0.12s WALL (       1 calls)

     Called by electrons:
     c_bands      :   1336.90s CPU   1121.99s WALL (      12 calls)
     sum_band     :    146.12s CPU    134.66s WALL (      12 calls)
     v_of_rho     :      1.17s CPU      1.17s WALL (      12 calls)
     v_h          :      0.08s CPU      0.07s WALL (      12 calls)
     v_xc         :      1.28s CPU      1.28s WALL (      14 calls)
     newd         :      7.89s CPU      7.91s WALL (      12 calls)
     mix_rho      :      1.68s CPU      1.69s WALL (      12 calls)

     Called by c_bands:
     init_us_2    :      5.48s CPU      5.57s WALL (     972 calls)
     cegterg      :   1313.39s CPU   1098.06s WALL (     432 calls)

     Called by sum_band:
     sum_band:bec :      1.79s CPU      1.85s WALL (     432 calls)
     addusdens    :      8.41s CPU      8.44s WALL (      12 calls)

     Called by *egterg:
     h_psi        :    560.21s CPU    505.21s WALL (    1610 calls)
     s_psi        :     72.97s CPU     43.56s WALL (    1610 calls)
     g_psi        :      2.74s CPU      2.73s WALL (    1142 calls)
     cdiaghg      :    432.70s CPU    368.19s WALL (    1538 calls)
     cegterg:over :    111.53s CPU     75.16s WALL (    1142 calls)
     cegterg:upda :     55.24s CPU     33.34s WALL (    1142 calls)
     cegterg:last :     29.75s CPU     16.46s WALL (     432 calls)

     Called by h_psi:
     h_psi:vloc   :    397.54s CPU    400.89s WALL (    1610 calls)
     h_psi:vnl    :    160.06s CPU    101.66s WALL (    1610 calls)
     add_vuspsi   :     74.30s CPU     44.74s WALL (    1610 calls)

     General routines
     calbec       :    150.22s CPU    106.93s WALL (    2114 calls)
     fft          :      1.68s CPU      1.69s WALL (     217 calls)
     ffts         :      0.88s CPU      0.92s WALL (     362 calls)
     fftw         :    430.47s CPU    434.14s WALL (  332084 calls)
     interpolate  :      0.24s CPU      0.25s WALL (      24 calls)

     Parallel routines
     fft_scatter  :    170.23s CPU    171.51s WALL (  332663 calls)

     PWSCF        : 26m57.19s CPU    23m 3.09s WALL


   This run was terminated on:  11: 6:44  14Feb2017            

=------------------------------------------------------------------------------=
   JOB DONE.
=------------------------------------------------------------------------------=
