
     Program PWSCF v.5.1 starts on 27Sep2017 at 11:10:53 

     This program is part of the open-source Quantum ESPRESSO suite
     for quantum simulation of materials; please cite
         "P. Giannozzi et al., J. Phys.:Condens. Matter 21 395502 (2009);
          URL http://www.quantum-espresso.org", 
     in publications or presentations arising from this work. More details at
     http://www.quantum-espresso.org/quote

     Parallel version (MPI), running on     8 processors
     R & G space division:  proc/nbgrp/npool/nimage =       8
     Reading input from /tmp/Ge_diamond.scf.in.super.222.largdist.02.27344/Ge_diamond.scf.in.super.222.largdist.02.t
Warning: card &IONS ignored
Warning: card   ION_DYNAMICS='BFGS', ignored
Warning: card / ignored
Warning: card &CELL ignored
Warning: card  CELL_DYNAMICS = 'BFGS' ignored
Warning: card / ignored
     Message from routine read_cards :
     DEPRECATED: no units specified in CELL_PARAMETERS card

     Current dimensions of program PWSCF are:
     Max number of different atomic species (ntypx) = 10
     Max number of k-points (npk) =  40000
     Max angular momentum in pseudopotentials (lmaxx) =  3
 kfg - two_fermi_energies  F

     Subspace diagonalization in iterative solution of the eigenvalue problem:
     a serial algorithm will be used


     Parallelization info
     --------------------
     sticks:   dense  smooth     PW     G-vecs:    dense   smooth      PW
     Min         392     277     78                14616     8561    1290
     Max         393     278     79                14618     8583    1291
     Sum        3139    2217    631               116935    68613   10325



     bravais-lattice index     =            0
     lattice parameter (alat)  =    15.112120629  a.u.
     unit-cell volume          =    2450.7544 (a.u.)^3
     number of atoms/cell      =           16
     number of atomic types    =            1
     number of electrons       =       224.00
     number of Kohn-Sham states=          134
     kinetic-energy cutoff     =      35.0000  Ry
     charge density cutoff     =     200.0000  Ry
     convergence threshold     =      1.0E-09
     mixing beta               =       0.3000
     number of iterations used =            8  local-TF  mixing
     Exchange-correlation      = SLA  PW   PSX  PSC ( 1  4 10  8 0)
     A smooth kinetic-energy cutoff is imposed at      34.5000 Ry
     height of the smooth step-function =             800.0000 Ry
     width of the smooth step-function  =               1.0000 Ry


     celldm(1)=  15.112121  celldm(2)=   0.000000  celldm(3)=   0.000000
     celldm(4)=   0.000000  celldm(5)=   0.000000  celldm(6)=   0.000000

     crystal axes: (cart. coord. in units of alat)
               a(1) = (  -0.002489095499   0.703506961258   0.710684008449 )  
               a(2) = (   0.707987971056  -0.004749205577   0.703693895294 )  
               a(3) = (   0.714649766410   0.703056113607   0.002155422252 )  

     reciprocal axes: (cart. coord. in units 2 pi/alat)
               b(1) = ( -0.696721  0.706047  0.705738 )  
               b(2) = (  0.701492 -0.715238  0.710472 )  
               b(3) = (  0.701907  0.711030 -0.701391 )  


     PseudoPot. # 1 for Ge read from file:
     /users/kfg/psuedo/gbrv_1.5/ge.pbesol.UPF
     MD5 check sum: 7bed0412183f5e553a4d27ec7023354d
     Pseudo is Ultrasoft + core correction, Zval = 14.0
     Generated by new atomic code, or converted to UPF format
     Using radial grid of  873 points,  6 beta functions with: 
                l(1) =   0
                l(2) =   0
                l(3) =   1
                l(4) =   1
                l(5) =   2
                l(6) =   2
     Q(r) pseudized with  8 coefficients,  rinner =    1.400   1.400   1.400
                                                       1.400   1.400

     atomic species   valence    mass     pseudopotential
        Ge            14.00    72.64000     Ge( 1.00)

     No symmetry found


                                    s                        frac. trans.

      isym =  1     identity                                     

 cryst.   s( 1) = (     1          0          0      )
                  (     0          1          0      )
                  (     0          0          1      )

 cart.    s( 1) = (  1.0000000 -0.0000000 -0.0000000 )
                  (  0.0000000  1.0000000  0.0000000 )
                  ( -0.0000000 -0.0000000  1.0000000 )


     point group C_1 (1)    
     there are  1 classes
     the character table:

       E    
A      1.00

     the symmetry operations in each class:
     E        1

   Cartesian axes

     site n.     atom                  positions (alat units)
         1           Ge  tau(   1) = (   -0.02509439045    0.00592664348    0.00444989842  )
         2           Ge  tau(   2) = (    0.19726644169    0.18784805025    0.19963980807  )
         3           Ge  tau(   3) = (    0.35083493030    0.34153332997   -0.00443541195  )
         4           Ge  tau(   4) = (    0.54785761036    0.54254967047    0.19316458631  )
         5           Ge  tau(   5) = (    0.36581871969    0.02285212036    0.33760713203  )
         6           Ge  tau(   6) = (    0.55546923155    0.17071933708    0.53136035878  )
         7           Ge  tau(   7) = (    0.72627804707    0.34812363396    0.37588762811  )
         8           Ge  tau(   8) = (    0.88104572170    0.52910124779    0.52054292257  )
         9           Ge  tau(   9) = (    0.01389909942    0.35723825778    0.37305286234  )
        10           Ge  tau(  10) = (    0.15114662520    0.50620492355    0.54106265413  )
        11           Ge  tau(  11) = (    0.34218133766    0.70786279198    0.35232721288  )
        12           Ge  tau(  12) = (    0.51299245982    0.89677204757    0.53858212676  )
        13           Ge  tau(  13) = (    0.34801272477    0.33984300915    0.73102452828  )
        14           Ge  tau(  14) = (    0.55412406248    0.50174371327    0.90705181872  )
        15           Ge  tau(  15) = (    0.68626429662    0.70515292280    0.68984428147  )
        16           Ge  tau(  16) = (    0.87181786581    0.90222872224    0.90941179778  )

   Crystallographic axes

     site n.     atom                  positions (cryst. coord.)
         1           Ge  tau(   1) = (    0.02480875310   -0.01868095771   -0.01652102372  )
         2           Ge  tau(   2) = (    0.13608321046    0.14586331603    0.13200269147  )
         3           Ge  tau(   3) = (   -0.00642587866   -0.00132096111    0.49220496078  )
         4           Ge  tau(   4) = (    0.13768502659    0.13350366254    0.63483031226  )
         5           Ge  tau(   5) = (   -0.00047687375    0.48013484517    0.03622451033  )
         6           Ge  tau(   6) = (    0.10852978480    0.64506921971    0.13858274242  )
         7           Ge  tau(   7) = (    0.00505636007    0.52754486994    0.49366168899  )
         8           Ge  tau(   8) = (    0.12709385706    0.60944465129    0.62951477697  )
         9           Ge  tau(   9) = (    0.50582083371    0.01928330378    0.00210703024  )
        10           Ge  tau(  10) = (    0.63394591856    0.12838101688    0.08652120855  )
        11           Ge  tau(  11) = (    0.51003007674   -0.01593434010    0.49637205386  )
        12           Ge  tau(  12) = (    0.65584830787    0.10110215930    0.61994817194  )
        13           Ge  tau(  13) = (    0.51338907246    0.52043216788   -0.02682309057  )
        14           Ge  tau(  14) = (    0.60832555338    0.67428261078    0.10950016221  )
        15           Ge  tau(  15) = (    0.50658544638    0.46717196366    0.49922790471  )
        16           Ge  tau(  16) = (    0.67140823491    0.61237683230    0.61559333632  )

     number of k points=    36  gaussian smearing, width (Ry)=  0.0150
                       cart. coord. in units 2pi/alat
        k(    1) = (   0.0000000   0.0000000   0.0000000), wk =   0.0312500
        k(    2) = (   0.1754767   0.1777576  -0.1753478), wk =   0.0625000
        k(    3) = (  -0.3509535  -0.3555151   0.3506957), wk =   0.0312500
        k(    4) = (   0.1753731  -0.1788096   0.1776181), wk =   0.0625000
        k(    5) = (   0.3508498  -0.0010520   0.0022702), wk =   0.0625000
        k(    6) = (  -0.1755804  -0.5343247   0.5283138), wk =   0.0625000
        k(    7) = (  -0.0001036  -0.3565672   0.3529659), wk =   0.0625000
        k(    8) = (  -0.3507462   0.3576192  -0.3552361), wk =   0.0312500
        k(    9) = (  -0.1752695   0.5353768  -0.5305840), wk =   0.0625000
        k(   10) = (  -0.7016997   0.0021041  -0.0045405), wk =   0.0312500
        k(   11) = (  -0.1741804   0.1765118   0.1764345), wk =   0.0625000
        k(   12) = (   0.0012964   0.3542693   0.0010867), wk =   0.0625000
        k(   13) = (  -0.5251338  -0.1790034   0.5271302), wk =   0.0625000
        k(   14) = (  -0.3496571  -0.0012458   0.3517824), wk =   0.0625000
        k(   15) = (   0.0011927  -0.0022978   0.3540526), wk =   0.0625000
        k(   16) = (   0.1766695   0.1754597   0.1787048), wk =   0.0625000
        k(   17) = (  -0.3497607  -0.3578130   0.7047483), wk =   0.0625000
        k(   18) = (  -0.1742840  -0.1800554   0.5294004), wk =   0.0625000
        k(   19) = (  -0.5249266   0.5341310  -0.1788016), wk =   0.0625000
        k(   20) = (  -0.3494498   0.7118885  -0.3541495), wk =   0.0625000
        k(   21) = (  -0.8758800   0.1786158   0.1718941), wk =   0.0625000
        k(   22) = (  -0.7004033   0.3563734  -0.0034538), wk =   0.0625000
        k(   23) = (  -0.3495535   0.3553214  -0.0011835), wk =   0.0625000
        k(   24) = (  -0.1740767   0.5330789  -0.1765314), wk =   0.0625000
        k(   25) = (  -0.7005069  -0.0001938   0.3495121), wk =   0.0625000
        k(   26) = (  -0.5250302   0.1775638   0.1741643), wk =   0.0625000
        k(   27) = (   0.3483607  -0.3530235  -0.3528691), wk =   0.0312500
        k(   28) = (   0.5238375  -0.1752660  -0.5282169), wk =   0.0625000
        k(   29) = (  -0.0025927  -0.7085387  -0.0021734), wk =   0.0312500
        k(   30) = (   0.5237338  -0.5318331  -0.1752510), wk =   0.0625000
        k(   31) = (   0.6992106  -0.3540756  -0.3505988), wk =   0.0625000
        k(   32) = (   0.1727804  -0.8873483   0.1754447), wk =   0.0625000
        k(   33) = (   0.3482571  -0.7095907   0.0000969), wk =   0.0625000
        k(   34) = (  -0.0023855   0.0045957  -0.7081052), wk =   0.0312500
        k(   35) = (   0.1730913   0.1823533  -0.8834530), wk =   0.0625000
        k(   36) = (  -0.3533389  -0.3509194  -0.3574095), wk =   0.0312500

                       cryst. coord.
        k(    1) = (   0.0000000   0.0000000   0.0000000), wk =   0.0312500
        k(    2) = (   0.0000000   0.0000000   0.2500000), wk =   0.0625000
        k(    3) = (  -0.0000000  -0.0000000  -0.5000000), wk =   0.0312500
        k(    4) = (  -0.0000000   0.2500000  -0.0000000), wk =   0.0625000
        k(    5) = (  -0.0000000   0.2500000   0.2500000), wk =   0.0625000
        k(    6) = (   0.0000000   0.2500000  -0.5000000), wk =   0.0625000
        k(    7) = (   0.0000000   0.2500000  -0.2500000), wk =   0.0625000
        k(    8) = (   0.0000000  -0.5000000   0.0000000), wk =   0.0312500
        k(    9) = (   0.0000000  -0.5000000   0.2500000), wk =   0.0625000
        k(   10) = (   0.0000000  -0.5000000  -0.5000000), wk =   0.0312500
        k(   11) = (   0.2500000   0.0000000   0.0000000), wk =   0.0625000
        k(   12) = (   0.2500000   0.0000000   0.2500000), wk =   0.0625000
        k(   13) = (   0.2500000   0.0000000  -0.5000000), wk =   0.0625000
        k(   14) = (   0.2500000   0.0000000  -0.2500000), wk =   0.0625000
        k(   15) = (   0.2500000   0.2500000  -0.0000000), wk =   0.0625000
        k(   16) = (   0.2500000   0.2500000   0.2500000), wk =   0.0625000
        k(   17) = (   0.2500000   0.2500000  -0.5000000), wk =   0.0625000
        k(   18) = (   0.2500000   0.2500000  -0.2500000), wk =   0.0625000
        k(   19) = (   0.2500000  -0.5000000   0.0000000), wk =   0.0625000
        k(   20) = (   0.2500000  -0.5000000   0.2500000), wk =   0.0625000
        k(   21) = (   0.2500000  -0.5000000  -0.5000000), wk =   0.0625000
        k(   22) = (   0.2500000  -0.5000000  -0.2500000), wk =   0.0625000
        k(   23) = (   0.2500000  -0.2500000   0.0000000), wk =   0.0625000
        k(   24) = (   0.2500000  -0.2500000   0.2500000), wk =   0.0625000
        k(   25) = (   0.2500000  -0.2500000  -0.5000000), wk =   0.0625000
        k(   26) = (   0.2500000  -0.2500000  -0.2500000), wk =   0.0625000
        k(   27) = (  -0.5000000  -0.0000000  -0.0000000), wk =   0.0312500
        k(   28) = (  -0.5000000  -0.0000000   0.2500000), wk =   0.0625000
        k(   29) = (  -0.5000000  -0.0000000  -0.5000000), wk =   0.0312500
        k(   30) = (  -0.5000000   0.2500000  -0.0000000), wk =   0.0625000
        k(   31) = (  -0.5000000   0.2500000   0.2500000), wk =   0.0625000
        k(   32) = (  -0.5000000   0.2500000  -0.5000000), wk =   0.0625000
        k(   33) = (  -0.5000000   0.2500000  -0.2500000), wk =   0.0625000
        k(   34) = (  -0.5000000  -0.5000000   0.0000000), wk =   0.0312500
        k(   35) = (  -0.5000000  -0.5000000   0.2500000), wk =   0.0625000
        k(   36) = (  -0.5000000  -0.5000000  -0.5000000), wk =   0.0312500

     Dense  grid:   116935 G-vectors     FFT dimensions: (  72,  72,  72)

     Smooth grid:    68613 G-vectors     FFT dimensions: (  60,  60,  60)

     Largest allocated arrays     est. size (Mb)     dimensions
        Kohn-Sham Wavefunctions         2.25 Mb     (    1098,  134)
        NL pseudopotentials             4.83 Mb     (    1098,  288)
        Each V/rho on FFT grid          0.71 Mb     (   46656)
        Each G-vector array             0.11 Mb     (   14617)
        G-vector shells                 0.11 Mb     (   14227)
     Largest temporary arrays     est. size (Mb)     dimensions
        Auxiliary wavefunctions         8.98 Mb     (    1098,  536)
        Each subspace H/S matrix        4.38 Mb     (     536,  536)
        Each <psi_i|beta_j> matrix      0.59 Mb     (     288,  134)
        Arrays for rho mixing           5.70 Mb     (   46656,    8)

     Check: negative/imaginary core charge=   -0.000002    0.000000

     Initial potential from superposition of free atoms

     starting charge  223.98707, renormalised to  224.00000
     Starting wfc are  144 randomized atomic wfcs

     total cpu time spent up to now is       31.3 secs

     per-process dynamical memory:   105.4 Mb

     Self-consistent Calculation

     iteration #  1     ecut=    35.00 Ry     beta=0.30
     Davidson diagonalization with overlap
     ethr =  1.00E-02,  avg # of iterations =  3.8

     Threshold (ethr) on eigenvalues was too large:
     Diagonalizing with lowered threshold

     Davidson diagonalization with overlap
     ethr =  1.17E-04,  avg # of iterations =  5.7

     total cpu time spent up to now is      377.7 secs

     total energy              =   -3410.70012478 Ry
     Harris-Foulkes estimate   =   -3410.73025173 Ry
     estimated scf accuracy    <       0.27491200 Ry

     iteration #  2     ecut=    35.00 Ry     beta=0.30
     Davidson diagonalization with overlap
     ethr =  1.23E-04,  avg # of iterations =  1.0

     total cpu time spent up to now is      491.3 secs

     total energy              =   -3410.64440311 Ry
     Harris-Foulkes estimate   =   -3410.70119413 Ry
     estimated scf accuracy    <       0.16799478 Ry

     iteration #  3     ecut=    35.00 Ry     beta=0.30
     Davidson diagonalization with overlap
     ethr =  7.50E-05,  avg # of iterations =  2.0

     total cpu time spent up to now is      619.2 secs

     total energy              =   -3410.65489605 Ry
     Harris-Foulkes estimate   =   -3410.65536688 Ry
     estimated scf accuracy    <       0.00299810 Ry

     iteration #  4     ecut=    35.00 Ry     beta=0.30
     Davidson diagonalization with overlap
     ethr =  1.34E-06,  avg # of iterations =  5.6

     total cpu time spent up to now is      873.9 secs

     total energy              =   -3410.65542522 Ry
     Harris-Foulkes estimate   =   -3410.65548071 Ry
     estimated scf accuracy    <       0.00051869 Ry

     iteration #  5     ecut=    35.00 Ry     beta=0.30
     Davidson diagonalization with overlap
     ethr =  2.32E-07,  avg # of iterations =  2.0

     total cpu time spent up to now is     1006.3 secs

     total energy              =   -3410.65543679 Ry
     Harris-Foulkes estimate   =   -3410.65546575 Ry
     estimated scf accuracy    <       0.00007699 Ry

     iteration #  6     ecut=    35.00 Ry     beta=0.30
     Davidson diagonalization with overlap
     ethr =  3.44E-08,  avg # of iterations =  2.0

     total cpu time spent up to now is     1137.6 secs

     total energy              =   -3410.65544134 Ry
     Harris-Foulkes estimate   =   -3410.65544088 Ry
     estimated scf accuracy    <       0.00000334 Ry

     iteration #  7     ecut=    35.00 Ry     beta=0.30
     Davidson diagonalization with overlap
     ethr =  1.49E-09,  avg # of iterations =  2.0

     total cpu time spent up to now is     1273.0 secs

     total energy              =   -3410.65544222 Ry
     Harris-Foulkes estimate   =   -3410.65544166 Ry
     estimated scf accuracy    <       0.00000118 Ry

     iteration #  8     ecut=    35.00 Ry     beta=0.30
     Davidson diagonalization with overlap
     ethr =  5.29E-10,  avg # of iterations =  2.0

     total cpu time spent up to now is     1403.3 secs

     total energy              =   -3410.65544263 Ry
     Harris-Foulkes estimate   =   -3410.65544231 Ry
     estimated scf accuracy    <       0.00000014 Ry

     iteration #  9     ecut=    35.00 Ry     beta=0.30
     Davidson diagonalization with overlap
     ethr =  6.46E-11,  avg # of iterations =  2.0

     total cpu time spent up to now is     1539.1 secs

     total energy              =   -3410.65544282 Ry
     Harris-Foulkes estimate   =   -3410.65544265 Ry
     estimated scf accuracy    <       0.00000002 Ry

     iteration # 10     ecut=    35.00 Ry     beta=0.30
     Davidson diagonalization with overlap
     ethr =  9.01E-12,  avg # of iterations =  2.0

     total cpu time spent up to now is     1668.8 secs

     total energy              =   -3410.65544291 Ry
     Harris-Foulkes estimate   =   -3410.65544282 Ry
     estimated scf accuracy    <          2.8E-09 Ry

     iteration # 11     ecut=    35.00 Ry     beta=0.30
     Davidson diagonalization with overlap
     ethr =  1.23E-12,  avg # of iterations =  2.0

     total cpu time spent up to now is     1846.0 secs

     End of self-consistent calculation

          k = 0.0000 0.0000 0.0000 (  8573 PWs)   bands (ev):

   -17.1535 -17.0140 -17.0015 -16.9708 -16.9494 -16.9355 -16.9251 -16.8932
   -16.8878 -16.8729 -16.8334 -16.8115 -16.7786 -16.7707 -16.7535 -16.7501
   -16.7245 -16.6897 -16.6671 -16.6503 -16.6340 -16.6293 -16.6106 -16.5809
   -16.5709 -16.5596 -16.5569 -16.5423 -16.5368 -16.5227 -16.5150 -16.5067
   -16.5039 -16.4989 -16.4946 -16.4807 -16.4714 -16.4693 -16.4636 -16.4576
   -16.4533 -16.4473 -16.4419 -16.4362 -16.4331 -16.4235 -16.4208 -16.4171
   -16.4080 -16.4061 -16.3953 -16.3907 -16.3825 -16.3806 -16.3768 -16.3691
   -16.3647 -16.3603 -16.3573 -16.3426 -16.3360 -16.3226 -16.3209 -16.3087
   -16.3045 -16.2965 -16.2935 -16.2842 -16.2759 -16.2627 -16.2606 -16.2531
   -16.2424 -16.2361 -16.2276 -16.2214 -16.2160 -16.2096 -16.1952 -16.1806
    -4.7446  -3.3225  -2.6452  -2.5778  -2.1680  -1.3859  -1.3021  -0.8154
    -0.4738  -0.3875   0.0623   0.4769   0.6471   0.8360   1.3501   4.8329
     4.9093   4.9832   5.1110   5.3569   5.4914   6.2340   6.3461   6.4215
     6.5347   6.9935   7.1540   7.3081   7.5557   8.0340   8.0675   8.1509
     8.2477   8.3725   8.4133   8.5134   8.5595   8.6909   8.7133   8.8076
     9.1128   9.1570   9.5641  10.4886  10.8425  11.0230  11.3089  11.4769
    11.8569  12.0707  12.2079  12.4426  12.4778  12.8829

     occupation numbers 
     1.0000   1.0000   1.0000   1.0000   1.0000   1.0000   1.0000   1.0000
     1.0000   1.0000   1.0000   1.0000   1.0000   1.0000   1.0000   1.0000
     1.0000   1.0000   1.0000   1.0000   1.0000   1.0000   1.0000   1.0000
     1.0000   1.0000   1.0000   1.0000   1.0000   1.0000   1.0000   1.0000
     1.0000   1.0000   1.0000   1.0000   1.0000   1.0000   1.0000   1.0000
     1.0000   1.0000   1.0000   1.0000   1.0000   1.0000   1.0000   1.0000
     1.0000   1.0000   1.0000   1.0000   1.0000   1.0000   1.0000   1.0000
     1.0000   1.0000   1.0000   1.0000   1.0000   1.0000   1.0000   1.0000
     1.0000   1.0000   1.0000   1.0000   1.0000   1.0000   1.0000   1.0000
     1.0000   1.0000   1.0000   1.0000   1.0000   1.0000   1.0000   1.0000
     1.0000   1.0000   1.0000   1.0000   1.0000   1.0000   1.0000   1.0000
     1.0000   1.0000   1.0000   1.0000   1.0000   1.0000   1.0000   1.0000
     1.0000   1.0000   1.0000   1.0000   1.0000   1.0000   1.0000   1.0000
     1.0000   1.0000   1.0000   1.0000   1.0000   0.9687   0.9484   0.8535
     0.6483   0.3140   0.2216   0.0720   0.0375   0.0036   0.0022   0.0002
     0.0000   0.0000   0.0000   0.0000   0.0000   0.0000   0.0000   0.0000
     0.0000   0.0000   0.0000   0.0000   0.0000   0.0000

          k = 0.1755 0.1778-0.1753 (  8574 PWs)   bands (ev):

   -17.1535 -17.0140 -17.0018 -16.9715 -16.9497 -16.9364 -16.9257 -16.8948
   -16.8886 -16.8736 -16.8341 -16.8125 -16.7758 -16.7696 -16.7522 -16.7468
   -16.7249 -16.6895 -16.6658 -16.6470 -16.6355 -16.6244 -16.6108 -16.5817
   -16.5722 -16.5583 -16.5540 -16.5414 -16.5382 -16.5244 -16.5135 -16.5104
   -16.5040 -16.5002 -16.4953 -16.4803 -16.4740 -16.4703 -16.4622 -16.4599
   -16.4506 -16.4456 -16.4432 -16.4366 -16.4333 -16.4248 -16.4216 -16.4154
   -16.4115 -16.4058 -16.3998 -16.3918 -16.3840 -16.3827 -16.3790 -16.3667
   -16.3659 -16.3599 -16.3532 -16.3428 -16.3354 -16.3239 -16.3195 -16.3080
   -16.3039 -16.2959 -16.2931 -16.2854 -16.2803 -16.2624 -16.2590 -16.2508
   -16.2423 -16.2364 -16.2263 -16.2208 -16.2163 -16.2091 -16.1948 -16.1803
    -4.5718  -3.4822  -2.8812  -2.5465  -2.1861  -1.7944  -1.4379  -1.1151
    -0.2813   0.0675   0.4353   0.7370   0.9842   1.2743   1.8434   4.3200
     4.4334   4.7383   5.1023   5.1874   5.3697   5.5311   5.7216   5.8537
     6.1147   6.3398   6.4090   6.8575   7.0530   7.2047   8.0188   8.2106
     8.3442   8.6457   8.8246   9.0686   9.2802   9.3718   9.4876   9.6357
     9.9913  10.2088  10.4030  10.9053  11.1824  11.3052  11.6014  11.8042
    11.9723  12.1504  12.5130  12.8632  13.0147  13.1825

     occupation numbers 
     1.0000   1.0000   1.0000   1.0000   1.0000   1.0000   1.0000   1.0000
     1.0000   1.0000   1.0000   1.0000   1.0000   1.0000   1.0000   1.0000
     1.0000   1.0000   1.0000   1.0000   1.0000   1.0000   1.0000   1.0000
     1.0000   1.0000   1.0000   1.0000   1.0000   1.0000   1.0000   1.0000
     1.0000   1.0000   1.0000   1.0000   1.0000   1.0000   1.0000   1.0000
     1.0000   1.0000   1.0000   1.0000   1.0000   1.0000   1.0000   1.0000
     1.0000   1.0000   1.0000   1.0000   1.0000   1.0000   1.0000   1.0000
     1.0000   1.0000   1.0000   1.0000   1.0000   1.0000   1.0000   1.0000
     1.0000   1.0000   1.0000   1.0000   1.0000   1.0000   1.0000   1.0000
     1.0000   1.0000   1.0000   1.0000   1.0000   1.0000   1.0000   1.0000
     1.0000   1.0000   1.0000   1.0000   1.0000   1.0000   1.0000   1.0000
     1.0000   1.0000   1.0000   1.0000   1.0000   1.0000   1.0000   1.0000
     1.0000   1.0000   1.0000   1.0000   1.0000   1.0000   1.0000   1.0000
     1.0000   1.0000   1.0000   1.0000   1.0000   1.0000   0.9754   0.7382
     0.3865   0.0087   0.0001   0.0000   0.0000   0.0000   0.0000   0.0000
     0.0000   0.0000   0.0000   0.0000   0.0000   0.0000   0.0000   0.0000
     0.0000   0.0000   0.0000   0.0000   0.0000   0.0000

          k =-0.3510-0.3555 0.3507 (  8586 PWs)   bands (ev):

   -17.1537 -17.0140 -17.0020 -16.9720 -16.9499 -16.9372 -16.9262 -16.8966
   -16.8893 -16.8740 -16.8347 -16.8127 -16.7723 -16.7686 -16.7525 -16.7424
   -16.7251 -16.6895 -16.6644 -16.6428 -16.6362 -16.6204 -16.6104 -16.5835
   -16.5726 -16.5562 -16.5495 -16.5416 -16.5398 -16.5273 -16.5165 -16.5118
   -16.5036 -16.5015 -16.4946 -16.4805 -16.4761 -16.4672 -16.4650 -16.4603
   -16.4503 -16.4441 -16.4421 -16.4377 -16.4321 -16.4259 -16.4245 -16.4139
   -16.4119 -16.4075 -16.4032 -16.3919 -16.3870 -16.3844 -16.3802 -16.3674
   -16.3646 -16.3593 -16.3483 -16.3434 -16.3364 -16.3241 -16.3186 -16.3069
   -16.3030 -16.2948 -16.2931 -16.2873 -16.2835 -16.2628 -16.2577 -16.2473
   -16.2429 -16.2363 -16.2250 -16.2205 -16.2163 -16.2085 -16.1943 -16.1800
    -4.1433  -4.0158  -2.7976  -2.7392  -2.1475  -1.8652  -1.6472  -1.4723
     0.0914   0.3871   0.5595   1.0912   1.3656   1.5557   3.2120   3.5437
     4.1250   4.2402   4.4106   4.7053   4.9165   4.9859   5.5230   5.7193
     5.7735   5.9135   6.1150   6.4137   7.0558   7.1403   7.8935   7.9824
     8.5621   8.8885   9.0108   9.1044   9.2751   9.5508   9.9472  10.1232
    10.9898  11.3562  11.7060  11.9645  12.1566  12.3251  12.4328  12.4519
    12.7144  12.8700  12.9303  13.1716  13.4140  13.5749

     occupation numbers 
     1.0000   1.0000   1.0000   1.0000   1.0000   1.0000   1.0000   1.0000
     1.0000   1.0000   1.0000   1.0000   1.0000   1.0000   1.0000   1.0000
     1.0000   1.0000   1.0000   1.0000   1.0000   1.0000   1.0000   1.0000
     1.0000   1.0000   1.0000   1.0000   1.0000   1.0000   1.0000   1.0000
     1.0000   1.0000   1.0000   1.0000   1.0000   1.0000   1.0000   1.0000
     1.0000   1.0000   1.0000   1.0000   1.0000   1.0000   1.0000   1.0000
     1.0000   1.0000   1.0000   1.0000   1.0000   1.0000   1.0000   1.0000
     1.0000   1.0000   1.0000   1.0000   1.0000   1.0000   1.0000   1.0000
     1.0000   1.0000   1.0000   1.0000   1.0000   1.0000   1.0000   1.0000
     1.0000   1.0000   1.0000   1.0000   1.0000   1.0000   1.0000   1.0000
     1.0000   1.0000   1.0000   1.0000   1.0000   1.0000   1.0000   1.0000
     1.0000   1.0000   1.0000   1.0000   1.0000   1.0000   1.0000   1.0000
     1.0000   1.0000   1.0000   1.0000   1.0000   1.0000   1.0000   1.0000
     1.0000   1.0000   1.0000   1.0000   1.0000   1.0000   0.9977   0.9868
     0.0361   0.0000   0.0000   0.0000   0.0000   0.0000   0.0000   0.0000
     0.0000   0.0000   0.0000   0.0000   0.0000   0.0000   0.0000   0.0000
     0.0000   0.0000   0.0000   0.0000   0.0000   0.0000

          k = 0.1754-0.1788 0.1776 (  8568 PWs)   bands (ev):

   -17.1536 -17.0149 -17.0015 -16.9710 -16.9498 -16.9358 -16.9258 -16.8950
   -16.8883 -16.8724 -16.8334 -16.8130 -16.7790 -16.7697 -16.7509 -16.7465
   -16.7242 -16.6874 -16.6657 -16.6502 -16.6362 -16.6243 -16.6114 -16.5803
   -16.5716 -16.5586 -16.5538 -16.5444 -16.5399 -16.5207 -16.5144 -16.5067
   -16.5029 -16.4990 -16.4942 -16.4809 -16.4759 -16.4675 -16.4601 -16.4544
   -16.4511 -16.4472 -16.4413 -16.4348 -16.4320 -16.4250 -16.4200 -16.4180
   -16.4105 -16.4092 -16.3990 -16.3926 -16.3877 -16.3825 -16.3798 -16.3701
   -16.3648 -16.3593 -16.3553 -16.3417 -16.3367 -16.3293 -16.3207 -16.3081
   -16.3007 -16.2974 -16.2941 -16.2868 -16.2737 -16.2635 -16.2585 -16.2539
   -16.2421 -16.2360 -16.2269 -16.2219 -16.2148 -16.2051 -16.1941 -16.1799
    -4.5671  -3.4805  -2.7380  -2.5508  -2.3193  -1.8963  -1.5679  -1.1772
    -0.1095   0.2758   0.5929   0.7595   1.0731   1.1622   1.7329   4.3129
     4.4376   4.7070   5.0506   5.1292   5.3129   5.3942   5.6343   5.7199
     5.8845   6.2140   6.4389   6.8973   7.2184   7.5069   8.0090   8.2635
     8.4434   8.7325   8.8584   9.0508   9.3430   9.4610   9.5752   9.7344
     9.9665  10.1127  10.3869  11.0208  11.3119  11.5812  11.7054  11.8265
    11.9587  12.0656  12.2993  12.5856  12.8121  13.0225

     occupation numbers 
     1.0000   1.0000   1.0000   1.0000   1.0000   1.0000   1.0000   1.0000
     1.0000   1.0000   1.0000   1.0000   1.0000   1.0000   1.0000   1.0000
     1.0000   1.0000   1.0000   1.0000   1.0000   1.0000   1.0000   1.0000
     1.0000   1.0000   1.0000   1.0000   1.0000   1.0000   1.0000   1.0000
     1.0000   1.0000   1.0000   1.0000   1.0000   1.0000   1.0000   1.0000
     1.0000   1.0000   1.0000   1.0000   1.0000   1.0000   1.0000   1.0000
     1.0000   1.0000   1.0000   1.0000   1.0000   1.0000   1.0000   1.0000
     1.0000   1.0000   1.0000   1.0000   1.0000   1.0000   1.0000   1.0000
     1.0000   1.0000   1.0000   1.0000   1.0000   1.0000   1.0000   1.0000
     1.0000   1.0000   1.0000   1.0000   1.0000   1.0000   1.0000   1.0000
     1.0000   1.0000   1.0000   1.0000   1.0000   1.0000   1.0000   1.0000
     1.0000   1.0000   1.0000   1.0000   1.0000   1.0000   1.0000   1.0000
     1.0000   1.0000   1.0000   1.0000   1.0000   1.0000   1.0000   1.0000
     1.0000   1.0000   1.0000   1.0000   1.0000   1.0000   0.9791   0.6067
     0.1646   0.0014   0.0001   0.0000   0.0000   0.0000   0.0000   0.0000
     0.0000   0.0000   0.0000   0.0000   0.0000   0.0000   0.0000   0.0000
     0.0000   0.0000   0.0000   0.0000   0.0000   0.0000

          k = 0.3508-0.0011 0.0023 (  8562 PWs)   bands (ev):

   -17.1537 -17.0147 -17.0019 -16.9717 -16.9498 -16.9366 -16.9259 -16.8932
   -16.8891 -16.8729 -16.8342 -16.8120 -16.7761 -16.7691 -16.7527 -16.7489
   -16.7249 -16.6882 -16.6642 -16.6477 -16.6325 -16.6272 -16.6126 -16.5814
   -16.5724 -16.5599 -16.5569 -16.5427 -16.5377 -16.5194 -16.5167 -16.5073
   -16.5034 -16.4969 -16.4963 -16.4787 -16.4728 -16.4669 -16.4613 -16.4584
   -16.4510 -16.4487 -16.4406 -16.4371 -16.4315 -16.4270 -16.4191 -16.4178
   -16.4091 -16.4082 -16.3981 -16.3937 -16.3842 -16.3827 -16.3786 -16.3705
   -16.3667 -16.3600 -16.3559 -16.3463 -16.3382 -16.3276 -16.3212 -16.3069
   -16.3017 -16.2971 -16.2926 -16.2866 -16.2781 -16.2608 -16.2592 -16.2524
   -16.2410 -16.2349 -16.2266 -16.2231 -16.2144 -16.2060 -16.1945 -16.1802
    -4.5165  -3.4379  -2.8440  -2.6600  -2.4141  -2.1762  -0.9562  -0.7079
    -0.6059  -0.2880   0.7328   1.0546   1.1696   1.5014   1.7444   4.3359
     4.5533   4.6058   4.6967   4.9906   5.1342   5.3654   5.5551   5.7022
     5.8610   5.9458   6.5634   6.8486   7.0643   7.3594   7.5606   7.6814
     8.6221   9.1498   9.3149   9.4785   9.5721   9.6752   9.8076   9.8841
    10.1087  10.2106  10.5668  10.8066  11.3927  11.5397  11.8230  11.9146
    12.1110  12.3077  12.5256  12.6334  12.7785  13.0873

     occupation numbers 
     1.0000   1.0000   1.0000   1.0000   1.0000   1.0000   1.0000   1.0000
     1.0000   1.0000   1.0000   1.0000   1.0000   1.0000   1.0000   1.0000
     1.0000   1.0000   1.0000   1.0000   1.0000   1.0000   1.0000   1.0000
     1.0000   1.0000   1.0000   1.0000   1.0000   1.0000   1.0000   1.0000
     1.0000   1.0000   1.0000   1.0000   1.0000   1.0000   1.0000   1.0000
     1.0000   1.0000   1.0000   1.0000   1.0000   1.0000   1.0000   1.0000
     1.0000   1.0000   1.0000   1.0000   1.0000   1.0000   1.0000   1.0000
     1.0000   1.0000   1.0000   1.0000   1.0000   1.0000   1.0000   1.0000
     1.0000   1.0000   1.0000   1.0000   1.0000   1.0000   1.0000   1.0000
     1.0000   1.0000   1.0000   1.0000   1.0000   1.0000   1.0000   1.0000
     1.0000   1.0000   1.0000   1.0000   1.0000   1.0000   1.0000   1.0000
     1.0000   1.0000   1.0000   1.0000   1.0000   1.0000   1.0000   1.0000
     1.0000   1.0000   1.0000   1.0000   1.0000   1.0000   1.0000   1.0000
     1.0000   1.0000   1.0000   1.0000   1.0000   1.0000   1.0000   1.0000
     0.0134   0.0000   0.0000   0.0000   0.0000   0.0000   0.0000   0.0000
     0.0000   0.0000   0.0000   0.0000   0.0000   0.0000   0.0000   0.0000
     0.0000   0.0000   0.0000   0.0000   0.0000   0.0000

          k =-0.1756-0.5343 0.5283 (  8569 PWs)   bands (ev):

   -17.1537 -17.0147 -17.0021 -16.9722 -16.9500 -16.9374 -16.9264 -16.8950
   -16.8897 -16.8735 -16.8349 -16.8129 -16.7727 -16.7677 -16.7521 -16.7457
   -16.7246 -16.6883 -16.6631 -16.6436 -16.6334 -16.6230 -16.6123 -16.5835
   -16.5725 -16.5585 -16.5529 -16.5420 -16.5392 -16.5226 -16.5161 -16.5107
   -16.5061 -16.4990 -16.4931 -16.4797 -16.4723 -16.4664 -16.4636 -16.4558
   -16.4510 -16.4471 -16.4429 -16.4375 -16.4304 -16.4288 -16.4193 -16.4150
   -16.4130 -16.4077 -16.4050 -16.3932 -16.3881 -16.3833 -16.3781 -16.3697
   -16.3672 -16.3603 -16.3518 -16.3467 -16.3382 -16.3277 -16.3199 -16.3060
   -16.3019 -16.2941 -16.2918 -16.2887 -16.2832 -16.2620 -16.2571 -16.2489
   -16.2416 -16.2347 -16.2253 -16.2230 -16.2142 -16.2055 -16.1939 -16.1798
    -4.1528  -3.7538  -3.1631  -2.8553  -2.4236  -1.8523  -1.3222  -1.2212
    -0.0584   0.2445   0.4419   1.4616   1.6737   2.2230   2.6608   3.6253
     3.9633   4.1363   4.3487   4.7186   4.8759   4.9482   5.0861   5.5194
     5.6702   6.0265   6.1147   6.3260   6.4450   6.6819   7.1595   7.7200
     9.3042   9.5562   9.8001   9.9598  10.0234  10.2375  10.5086  10.7159
    10.8193  11.1783  11.3695  11.4506  11.6111  12.0534  12.2255  12.4879
    12.7201  12.8217  12.9533  13.1500  13.1639  13.3232

     occupation numbers 
     1.0000   1.0000   1.0000   1.0000   1.0000   1.0000   1.0000   1.0000
     1.0000   1.0000   1.0000   1.0000   1.0000   1.0000   1.0000   1.0000
     1.0000   1.0000   1.0000   1.0000   1.0000   1.0000   1.0000   1.0000
     1.0000   1.0000   1.0000   1.0000   1.0000   1.0000   1.0000   1.0000
     1.0000   1.0000   1.0000   1.0000   1.0000   1.0000   1.0000   1.0000
     1.0000   1.0000   1.0000   1.0000   1.0000   1.0000   1.0000   1.0000
     1.0000   1.0000   1.0000   1.0000   1.0000   1.0000   1.0000   1.0000
     1.0000   1.0000   1.0000   1.0000   1.0000   1.0000   1.0000   1.0000
     1.0000   1.0000   1.0000   1.0000   1.0000   1.0000   1.0000   1.0000
     1.0000   1.0000   1.0000   1.0000   1.0000   1.0000   1.0000   1.0000
     1.0000   1.0000   1.0000   1.0000   1.0000   1.0000   1.0000   1.0000
     1.0000   1.0000   1.0000   1.0000   1.0000   1.0000   1.0000   1.0000
     1.0000   1.0000   1.0000   1.0000   1.0000   1.0000   1.0000   1.0000
     1.0000   1.0000   1.0000   1.0000   1.0000   1.0000   1.0000   1.0000
     0.0000   0.0000   0.0000   0.0000   0.0000   0.0000   0.0000   0.0000
     0.0000   0.0000   0.0000   0.0000   0.0000   0.0000   0.0000   0.0000
     0.0000   0.0000   0.0000   0.0000   0.0000   0.0000

          k =-0.0001-0.3566 0.3530 (  8575 PWs)   bands (ev):

   -17.1536 -17.0148 -17.0018 -16.9716 -16.9501 -16.9366 -16.9263 -16.8969
   -16.8890 -16.8731 -16.8341 -16.8134 -16.7762 -16.7684 -16.7513 -16.7422
   -16.7239 -16.6873 -16.6647 -16.6468 -16.6369 -16.6200 -16.6109 -16.5815
   -16.5721 -16.5565 -16.5497 -16.5458 -16.5421 -16.5245 -16.5137 -16.5098
   -16.5045 -16.5003 -16.4893 -16.4830 -16.4774 -16.4667 -16.4610 -16.4550
   -16.4496 -16.4457 -16.4406 -16.4365 -16.4327 -16.4270 -16.4196 -16.4161
   -16.4148 -16.4087 -16.4048 -16.3936 -16.3898 -16.3841 -16.3784 -16.3691
   -16.3653 -16.3600 -16.3520 -16.3439 -16.3331 -16.3305 -16.3201 -16.3070
   -16.3004 -16.2953 -16.2941 -16.2889 -16.2791 -16.2624 -16.2569 -16.2517
   -16.2419 -16.2359 -16.2256 -16.2218 -16.2147 -16.2046 -16.1936 -16.1796
    -4.2880  -3.6557  -3.1613  -2.6636  -2.1622  -2.0344  -1.7170  -1.0434
    -0.2119   0.3835   0.6818   1.2360   1.4651   2.0399   2.3541   3.6848
     4.1538   4.3237   4.5350   4.6961   4.9694   5.0802   5.3941   5.5578
     5.7430   5.9038   6.0055   6.4490   6.5508   6.8969   7.1070   8.1881
     9.2273   9.4927   9.6832   9.8018   9.8687  10.0391  10.2169  10.4023
    10.5772  10.8463  10.9978  11.3010  11.4996  11.7955  11.8968  12.2445
    12.4119  12.6443  12.9940  13.1829  13.3774  13.5902

     occupation numbers 
     1.0000   1.0000   1.0000   1.0000   1.0000   1.0000   1.0000   1.0000
     1.0000   1.0000   1.0000   1.0000   1.0000   1.0000   1.0000   1.0000
     1.0000   1.0000   1.0000   1.0000   1.0000   1.0000   1.0000   1.0000
     1.0000   1.0000   1.0000   1.0000   1.0000   1.0000   1.0000   1.0000
     1.0000   1.0000   1.0000   1.0000   1.0000   1.0000   1.0000   1.0000
     1.0000   1.0000   1.0000   1.0000   1.0000   1.0000   1.0000   1.0000
     1.0000   1.0000   1.0000   1.0000   1.0000   1.0000   1.0000   1.0000
     1.0000   1.0000   1.0000   1.0000   1.0000   1.0000   1.0000   1.0000
     1.0000   1.0000   1.0000   1.0000   1.0000   1.0000   1.0000   1.0000
     1.0000   1.0000   1.0000   1.0000   1.0000   1.0000   1.0000   1.0000
     1.0000   1.0000   1.0000   1.0000   1.0000   1.0000   1.0000   1.0000
     1.0000   1.0000   1.0000   1.0000   1.0000   1.0000   1.0000   1.0000
     1.0000   1.0000   1.0000   1.0000   1.0000   1.0000   1.0000   1.0000
     1.0000   1.0000   1.0000   1.0000   1.0000   1.0000   1.0000   0.7862
     0.0000   0.0000   0.0000   0.0000   0.0000   0.0000   0.0000   0.0000
     0.0000   0.0000   0.0000   0.0000   0.0000   0.0000   0.0000   0.0000
     0.0000   0.0000   0.0000   0.0000   0.0000   0.0000

          k =-0.3507 0.3576-0.3552 (  8586 PWs)   bands (ev):

   -17.1538 -17.0156 -17.0017 -16.9712 -16.9504 -16.9361 -16.9264 -16.8970
   -16.8888 -16.8719 -16.8335 -16.8139 -16.7795 -16.7689 -16.7498 -16.7421
   -16.7235 -16.6853 -16.6641 -16.6504 -16.6377 -16.6194 -16.6119 -16.5799
   -16.5723 -16.5565 -16.5494 -16.5484 -16.5435 -16.5222 -16.5146 -16.5081
   -16.5025 -16.4963 -16.4862 -16.4838 -16.4806 -16.4668 -16.4575 -16.4543
   -16.4457 -16.4447 -16.4403 -16.4356 -16.4317 -16.4257 -16.4213 -16.4175
   -16.4138 -16.4090 -16.4065 -16.3958 -16.3934 -16.3855 -16.3760 -16.3715
   -16.3645 -16.3602 -16.3529 -16.3467 -16.3373 -16.3304 -16.3218 -16.3078
   -16.3001 -16.2961 -16.2942 -16.2891 -16.2718 -16.2634 -16.2577 -16.2543
   -16.2427 -16.2356 -16.2263 -16.2221 -16.2132 -16.2013 -16.1931 -16.1793
    -4.1407  -3.9822  -2.7422  -2.6387  -2.2298  -2.0607  -1.8290  -1.5896
     0.4492   0.6314   0.9019   0.9459   1.4806   1.5530   3.1436   3.4071
     4.0451   4.0759   4.3169   4.5216   4.7028   4.7682   5.4666   5.7020
     5.7546   5.8941   6.1171   6.2660   7.3415   7.5675   7.6732   7.8684
     8.7196   8.7806   9.2866   9.4562   9.5259   9.6029   9.6868  10.2352
    11.5990  11.7607  11.8490  11.9404  12.0236  12.1228  12.4477  12.4584
    12.7400  12.7640  13.0350  13.2153  13.2569  13.6426

     occupation numbers 
     1.0000   1.0000   1.0000   1.0000   1.0000   1.0000   1.0000   1.0000
     1.0000   1.0000   1.0000   1.0000   1.0000   1.0000   1.0000   1.0000
     1.0000   1.0000   1.0000   1.0000   1.0000   1.0000   1.0000   1.0000
     1.0000   1.0000   1.0000   1.0000   1.0000   1.0000   1.0000   1.0000
     1.0000   1.0000   1.0000   1.0000   1.0000   1.0000   1.0000   1.0000
     1.0000   1.0000   1.0000   1.0000   1.0000   1.0000   1.0000   1.0000
     1.0000   1.0000   1.0000   1.0000   1.0000   1.0000   1.0000   1.0000
     1.0000   1.0000   1.0000   1.0000   1.0000   1.0000   1.0000   1.0000
     1.0000   1.0000   1.0000   1.0000   1.0000   1.0000   1.0000   1.0000
     1.0000   1.0000   1.0000   1.0000   1.0000   1.0000   1.0000   1.0000
     1.0000   1.0000   1.0000   1.0000   1.0000   1.0000   1.0000   1.0000
     1.0000   1.0000   1.0000   1.0000   1.0000   1.0000   1.0000   1.0000
     1.0000   1.0000   1.0000   1.0000   1.0000   1.0000   1.0000   1.0000
     1.0000   1.0000   1.0000   1.0000   1.0000   1.0000   1.0000   0.9987
     0.0019   0.0005   0.0000   0.0000   0.0000   0.0000   0.0000   0.0000
     0.0000   0.0000   0.0000   0.0000   0.0000   0.0000   0.0000   0.0000
     0.0000   0.0000   0.0000   0.0000   0.0000   0.0000

          k =-0.1753 0.5354-0.5306 (  8576 PWs)   bands (ev):

   -17.1538 -17.0155 -17.0019 -16.9718 -16.9502 -16.9368 -16.9265 -16.8951
   -16.8895 -16.8724 -16.8344 -16.8134 -16.7765 -16.7678 -16.7503 -16.7458
   -16.7237 -16.6862 -16.6628 -16.6477 -16.6342 -16.6224 -16.6129 -16.5812
   -16.5727 -16.5580 -16.5534 -16.5440 -16.5417 -16.5205 -16.5176 -16.5064
   -16.5042 -16.4967 -16.4917 -16.4806 -16.4759 -16.4648 -16.4591 -16.4520
   -16.4490 -16.4463 -16.4436 -16.4356 -16.4311 -16.4270 -16.4210 -16.4163
   -16.4122 -16.4086 -16.4041 -16.3971 -16.3924 -16.3840 -16.3767 -16.3703
   -16.3672 -16.3597 -16.3547 -16.3485 -16.3354 -16.3339 -16.3227 -16.3064
   -16.3000 -16.2954 -16.2926 -16.2898 -16.2766 -16.2606 -16.2571 -16.2535
   -16.2413 -16.2347 -16.2259 -16.2231 -16.2128 -16.2022 -16.1933 -16.1795
    -4.1442  -3.7397  -3.1754  -2.7850  -2.4458  -1.9918  -1.3987  -1.2929
     0.0913   0.2784   0.7500   1.4093   1.6969   2.2581   2.6248   3.6240
     3.9349   4.1375   4.1928   4.4840   4.7269   5.0261   5.0951   5.3343
     5.5355   5.9799   6.1233   6.3899   6.5620   6.9935   7.1907   7.6673
     9.4112   9.6674   9.8097   9.8785  10.0750  10.3488  10.4732  10.6173
    10.7774  11.2073  11.4057  11.7587  11.9566  12.1402  12.3487  12.4780
    12.5824  12.8343  13.0472  13.1244  13.1871  13.3697

     occupation numbers 
     1.0000   1.0000   1.0000   1.0000   1.0000   1.0000   1.0000   1.0000
     1.0000   1.0000   1.0000   1.0000   1.0000   1.0000   1.0000   1.0000
     1.0000   1.0000   1.0000   1.0000   1.0000   1.0000   1.0000   1.0000
     1.0000   1.0000   1.0000   1.0000   1.0000   1.0000   1.0000   1.0000
     1.0000   1.0000   1.0000   1.0000   1.0000   1.0000   1.0000   1.0000
     1.0000   1.0000   1.0000   1.0000   1.0000   1.0000   1.0000   1.0000
     1.0000   1.0000   1.0000   1.0000   1.0000   1.0000   1.0000   1.0000
     1.0000   1.0000   1.0000   1.0000   1.0000   1.0000   1.0000   1.0000
     1.0000   1.0000   1.0000   1.0000   1.0000   1.0000   1.0000   1.0000
     1.0000   1.0000   1.0000   1.0000   1.0000   1.0000   1.0000   1.0000
     1.0000   1.0000   1.0000   1.0000   1.0000   1.0000   1.0000   1.0000
     1.0000   1.0000   1.0000   1.0000   1.0000   1.0000   1.0000   1.0000
     1.0000   1.0000   1.0000   1.0000   1.0000   1.0000   1.0000   1.0000
     1.0000   1.0000   1.0000   1.0000   1.0000   1.0000   1.0000   1.0000
     0.0000   0.0000   0.0000   0.0000   0.0000   0.0000   0.0000   0.0000
     0.0000   0.0000   0.0000   0.0000   0.0000   0.0000   0.0000   0.0000
     0.0000   0.0000   0.0000   0.0000   0.0000   0.0000

          k =-0.7017 0.0021-0.0045 (  8556 PWs)   bands (ev):

   -17.1539 -17.0154 -17.0022 -16.9725 -16.9501 -16.9376 -16.9267 -16.8936
   -16.8901 -16.8729 -16.8352 -16.8124 -16.7733 -16.7677 -16.7512 -16.7494
   -16.7240 -16.6872 -16.6614 -16.6444 -16.6311 -16.6252 -16.6144 -16.5832
   -16.5725 -16.5597 -16.5565 -16.5425 -16.5393 -16.5202 -16.5164 -16.5104
   -16.5024 -16.4986 -16.4923 -16.4781 -16.4721 -16.4629 -16.4610 -16.4539
   -16.4509 -16.4473 -16.4464 -16.4375 -16.4296 -16.4278 -16.4203 -16.4148
   -16.4096 -16.4079 -16.4044 -16.4004 -16.3895 -16.3837 -16.3786 -16.3685
   -16.3675 -16.3589 -16.3580 -16.3500 -16.3385 -16.3327 -16.3234 -16.3055
   -16.2996 -16.2954 -16.2929 -16.2877 -16.2809 -16.2612 -16.2565 -16.2511
   -16.2405 -16.2335 -16.2258 -16.2242 -16.2127 -16.2033 -16.1936 -16.1798
    -4.0340  -3.5740  -3.5043  -2.7413  -2.5864  -2.3171  -0.8822  -0.7023
    -0.5207  -0.2009   1.4617   1.5830   1.7739   1.9495   3.2079   3.5545
     4.0148   4.1441   4.2526   4.3263   4.4793   4.5204   4.5696   4.6818
     5.8394   6.2038   6.4500   6.6422   6.7577   6.8491   6.9759   7.4136
     8.9321   9.2384   9.7273  10.0345  10.1396  10.3278  10.6782  10.8991
    11.8645  12.1302  12.2373  12.2432  12.3578  12.4869  12.5467  12.6960
    12.8094  12.8863  12.9777  13.0605  13.2269  13.3078

     occupation numbers 
     1.0000   1.0000   1.0000   1.0000   1.0000   1.0000   1.0000   1.0000
     1.0000   1.0000   1.0000   1.0000   1.0000   1.0000   1.0000   1.0000
     1.0000   1.0000   1.0000   1.0000   1.0000   1.0000   1.0000   1.0000
     1.0000   1.0000   1.0000   1.0000   1.0000   1.0000   1.0000   1.0000
     1.0000   1.0000   1.0000   1.0000   1.0000   1.0000   1.0000   1.0000
     1.0000   1.0000   1.0000   1.0000   1.0000   1.0000   1.0000   1.0000
     1.0000   1.0000   1.0000   1.0000   1.0000   1.0000   1.0000   1.0000
     1.0000   1.0000   1.0000   1.0000   1.0000   1.0000   1.0000   1.0000
     1.0000   1.0000   1.0000   1.0000   1.0000   1.0000   1.0000   1.0000
     1.0000   1.0000   1.0000   1.0000   1.0000   1.0000   1.0000   1.0000
     1.0000   1.0000   1.0000   1.0000   1.0000   1.0000   1.0000   1.0000
     1.0000   1.0000   1.0000   1.0000   1.0000   1.0000   1.0000   1.0000
     1.0000   1.0000   1.0000   1.0000   1.0000   1.0000   1.0000   1.0000
     1.0000   1.0000   1.0000   1.0000   1.0000   1.0000   1.0000   1.0000
     0.0000   0.0000   0.0000   0.0000   0.0000   0.0000   0.0000   0.0000
     0.0000   0.0000   0.0000   0.0000   0.0000   0.0000   0.0000   0.0000
     0.0000   0.0000   0.0000   0.0000   0.0000   0.0000

          k =-0.1742 0.1765 0.1764 (  8577 PWs)   bands (ev):

   -17.1536 -17.0147 -17.0020 -16.9710 -16.9497 -16.9366 -16.9253 -16.8932
   -16.8889 -16.8727 -16.8338 -16.8118 -16.7759 -16.7699 -16.7537 -16.7496
   -16.7246 -16.6894 -16.6658 -16.6463 -16.6337 -16.6286 -16.6133 -16.5825
   -16.5734 -16.5587 -16.5573 -16.5423 -16.5369 -16.5229 -16.5159 -16.5078
   -16.5016 -16.4965 -16.4938 -16.4766 -16.4719 -16.4668 -16.4617 -16.4587
   -16.4513 -16.4488 -16.4420 -16.4364 -16.4326 -16.4229 -16.4203 -16.4169
   -16.4084 -16.4038 -16.3979 -16.3901 -16.3848 -16.3819 -16.3786 -16.3710
   -16.3679 -16.3606 -16.3589 -16.3455 -16.3391 -16.3248 -16.3182 -16.3083
   -16.3059 -16.3007 -16.2950 -16.2884 -16.2782 -16.2632 -16.2563 -16.2529
   -16.2403 -16.2338 -16.2257 -16.2210 -16.2139 -16.2078 -16.1940 -16.1805
    -4.5738  -3.4862  -2.8468  -2.5304  -2.1957  -1.8912  -1.4363  -1.0519
    -0.3867   0.1896   0.4000   0.8340   1.0370   1.2573   1.7437   4.2502
     4.5485   4.7500   5.0173   5.2100   5.3308   5.4788   5.6329   5.7438
     6.0478   6.3832   6.5214   6.6310   7.1267   7.5621   8.0234   8.2815
     8.4332   8.7716   8.8682   9.0979   9.2538   9.3316   9.5350   9.5917
     9.8071   9.9109  10.4881  11.2274  11.2699  11.4104  11.6043  11.6633
    11.9968  12.2054  12.3077  12.7436  12.9518  13.2174

     occupation numbers 
     1.0000   1.0000   1.0000   1.0000   1.0000   1.0000   1.0000   1.0000
     1.0000   1.0000   1.0000   1.0000   1.0000   1.0000   1.0000   1.0000
     1.0000   1.0000   1.0000   1.0000   1.0000   1.0000   1.0000   1.0000
     1.0000   1.0000   1.0000   1.0000   1.0000   1.0000   1.0000   1.0000
     1.0000   1.0000   1.0000   1.0000   1.0000   1.0000   1.0000   1.0000
     1.0000   1.0000   1.0000   1.0000   1.0000   1.0000   1.0000   1.0000
     1.0000   1.0000   1.0000   1.0000   1.0000   1.0000   1.0000   1.0000
     1.0000   1.0000   1.0000   1.0000   1.0000   1.0000   1.0000   1.0000
     1.0000   1.0000   1.0000   1.0000   1.0000   1.0000   1.0000   1.0000
     1.0000   1.0000   1.0000   1.0000   1.0000   1.0000   1.0000   1.0000
     1.0000   1.0000   1.0000   1.0000   1.0000   1.0000   1.0000   1.0000
     1.0000   1.0000   1.0000   1.0000   1.0000   1.0000   1.0000   1.0000
     1.0000   1.0000   1.0000   1.0000   1.0000   1.0000   1.0000   1.0000
     1.0000   1.0000   1.0000   1.0000   1.0000   1.0000   0.9735   0.5582
     0.1828   0.0006   0.0000   0.0000   0.0000   0.0000   0.0000   0.0000
     0.0000   0.0000   0.0000   0.0000   0.0000   0.0000   0.0000   0.0000
     0.0000   0.0000   0.0000   0.0000   0.0000   0.0000

          k = 0.0013 0.3543 0.0011 (  8556 PWs)   bands (ev):

   -17.1536 -17.0149 -17.0017 -16.9715 -16.9494 -16.9360 -16.9255 -16.8951
   -16.8881 -16.8724 -16.8339 -16.8126 -16.7789 -16.7706 -16.7509 -16.7469
   -16.7240 -16.6876 -16.6664 -16.6492 -16.6357 -16.6251 -16.6114 -16.5804
   -16.5718 -16.5577 -16.5529 -16.5429 -16.5383 -16.5250 -16.5141 -16.5099
   -16.5031 -16.4992 -16.4929 -16.4814 -16.4724 -16.4693 -16.4595 -16.4560
   -16.4519 -16.4458 -16.4422 -16.4352 -16.4319 -16.4231 -16.4199 -16.4169
   -16.4133 -16.4051 -16.3995 -16.3912 -16.3855 -16.3818 -16.3795 -16.3729
   -16.3645 -16.3613 -16.3511 -16.3447 -16.3354 -16.3269 -16.3193 -16.3088
   -16.3041 -16.2990 -16.2959 -16.2895 -16.2841 -16.2651 -16.2553 -16.2503
   -16.2403 -16.2343 -16.2250 -16.2208 -16.2134 -16.2073 -16.1936 -16.1802
    -4.5185  -3.4528  -2.8297  -2.6428  -2.3983  -2.0936  -1.2059  -0.8822
    -0.4760  -0.0655   0.6284   1.0196   1.1523   1.5306   1.8653   4.3675
     4.4723   4.7267   4.7890   5.1079   5.1878   5.3121   5.4593   5.5906
     5.8665   6.1234   6.3799   6.7425   6.9874   7.3115   7.5379   7.7317
     8.6061   9.0272   9.1256   9.4445   9.5464   9.7042   9.7418   9.9602
    10.1480  10.4205  10.5501  10.8135  11.4685  11.6372  11.8015  11.9737
    12.1281  12.2005  12.4046  12.7294  12.7983  13.1315

     occupation numbers 
     1.0000   1.0000   1.0000   1.0000   1.0000   1.0000   1.0000   1.0000
     1.0000   1.0000   1.0000   1.0000   1.0000   1.0000   1.0000   1.0000
     1.0000   1.0000   1.0000   1.0000   1.0000   1.0000   1.0000   1.0000
     1.0000   1.0000   1.0000   1.0000   1.0000   1.0000   1.0000   1.0000
     1.0000   1.0000   1.0000   1.0000   1.0000   1.0000   1.0000   1.0000
     1.0000   1.0000   1.0000   1.0000   1.0000   1.0000   1.0000   1.0000
     1.0000   1.0000   1.0000   1.0000   1.0000   1.0000   1.0000   1.0000
     1.0000   1.0000   1.0000   1.0000   1.0000   1.0000   1.0000   1.0000
     1.0000   1.0000   1.0000   1.0000   1.0000   1.0000   1.0000   1.0000
     1.0000   1.0000   1.0000   1.0000   1.0000   1.0000   1.0000   1.0000
     1.0000   1.0000   1.0000   1.0000   1.0000   1.0000   1.0000   1.0000
     1.0000   1.0000   1.0000   1.0000   1.0000   1.0000   1.0000   1.0000
     1.0000   1.0000   1.0000   1.0000   1.0000   1.0000   1.0000   1.0000
     1.0000   1.0000   1.0000   1.0000   1.0000   1.0000   1.0000   1.0000
     0.0177   0.0000   0.0000   0.0000   0.0000   0.0000   0.0000   0.0000
     0.0000   0.0000   0.0000   0.0000   0.0000   0.0000   0.0000   0.0000
     0.0000   0.0000   0.0000   0.0000   0.0000   0.0000

          k =-0.5251-0.1790 0.5271 (  8562 PWs)   bands (ev):

   -17.1537 -17.0149 -17.0019 -16.9721 -16.9497 -16.9368 -16.9260 -16.8969
   -16.8889 -16.8730 -16.8346 -16.8129 -16.7762 -16.7695 -16.7507 -16.7428
   -16.7242 -16.6875 -16.6651 -16.6459 -16.6364 -16.6206 -16.6106 -16.5819
   -16.5722 -16.5561 -16.5487 -16.5426 -16.5414 -16.5280 -16.5164 -16.5110
   -16.5034 -16.5014 -16.4895 -16.4833 -16.4738 -16.4670 -16.4610 -16.4572
   -16.4511 -16.4436 -16.4423 -16.4350 -16.4321 -16.4251 -16.4236 -16.4155
   -16.4131 -16.4078 -16.4029 -16.3937 -16.3865 -16.3825 -16.3806 -16.3734
   -16.3631 -16.3605 -16.3468 -16.3450 -16.3377 -16.3262 -16.3183 -16.3083
   -16.3026 -16.2977 -16.2953 -16.2916 -16.2868 -16.2663 -16.2549 -16.2470
   -16.2409 -16.2341 -16.2237 -16.2203 -16.2134 -16.2068 -16.1932 -16.1800
    -4.1578  -3.7674  -3.1234  -2.8878  -2.2319  -1.9388  -1.6047  -1.1013
    -0.1473   0.3890   0.6066   1.0652   1.8754   2.2258   2.7554   3.6696
     4.0433   4.1740   4.4003   4.5596   4.8343   5.0810   5.2126   5.3676
     5.4996   5.9214   6.0745   6.3928   6.5752   6.8044   7.0045   7.7037
     9.1001   9.5491   9.7047   9.8753   9.9549  10.3078  10.4193  10.5560
    10.8487  11.0499  11.3963  11.5611  11.8996  12.0932  12.2840  12.6119
    12.7597  12.9367  13.0471  13.1288  13.3848  13.4580

     occupation numbers 
     1.0000   1.0000   1.0000   1.0000   1.0000   1.0000   1.0000   1.0000
     1.0000   1.0000   1.0000   1.0000   1.0000   1.0000   1.0000   1.0000
     1.0000   1.0000   1.0000   1.0000   1.0000   1.0000   1.0000   1.0000
     1.0000   1.0000   1.0000   1.0000   1.0000   1.0000   1.0000   1.0000
     1.0000   1.0000   1.0000   1.0000   1.0000   1.0000   1.0000   1.0000
     1.0000   1.0000   1.0000   1.0000   1.0000   1.0000   1.0000   1.0000
     1.0000   1.0000   1.0000   1.0000   1.0000   1.0000   1.0000   1.0000
     1.0000   1.0000   1.0000   1.0000   1.0000   1.0000   1.0000   1.0000
     1.0000   1.0000   1.0000   1.0000   1.0000   1.0000   1.0000   1.0000
     1.0000   1.0000   1.0000   1.0000   1.0000   1.0000   1.0000   1.0000
     1.0000   1.0000   1.0000   1.0000   1.0000   1.0000   1.0000   1.0000
     1.0000   1.0000   1.0000   1.0000   1.0000   1.0000   1.0000   1.0000
     1.0000   1.0000   1.0000   1.0000   1.0000   1.0000   1.0000   1.0000
     1.0000   1.0000   1.0000   1.0000   1.0000   1.0000   1.0000   1.0000
     0.0000   0.0000   0.0000   0.0000   0.0000   0.0000   0.0000   0.0000
     0.0000   0.0000   0.0000   0.0000   0.0000   0.0000   0.0000   0.0000
     0.0000   0.0000   0.0000   0.0000   0.0000   0.0000

          k =-0.3497-0.0012 0.3518 (  8560 PWs)   bands (ev):

   -17.1536 -17.0147 -17.0022 -16.9715 -16.9499 -16.9373 -16.9258 -16.8949
   -16.8897 -16.8733 -16.8346 -16.8126 -16.7726 -16.7689 -16.7518 -16.7472
   -16.7249 -16.6890 -16.6647 -16.6420 -16.6347 -16.6242 -16.6132 -16.5845
   -16.5739 -16.5575 -16.5537 -16.5419 -16.5388 -16.5239 -16.5151 -16.5109
   -16.5037 -16.4986 -16.4915 -16.4788 -16.4715 -16.4648 -16.4639 -16.4577
   -16.4516 -16.4462 -16.4429 -16.4368 -16.4325 -16.4253 -16.4215 -16.4155
   -16.4103 -16.4045 -16.4018 -16.3920 -16.3863 -16.3831 -16.3788 -16.3727
   -16.3665 -16.3615 -16.3530 -16.3462 -16.3390 -16.3244 -16.3176 -16.3081
   -16.3049 -16.2997 -16.2944 -16.2897 -16.2813 -16.2640 -16.2553 -16.2501
   -16.2404 -16.2337 -16.2245 -16.2202 -16.2140 -16.2072 -16.1936 -16.1802
    -4.2983  -3.6907  -3.0568  -2.7953  -2.2326  -1.7949  -1.5643  -1.2245
    -0.0375   0.1306   0.5973   1.0556   1.5877   2.0491   2.3255   3.6430
     4.1593   4.3965   4.5775   4.8544   4.9497   5.1229   5.5269   5.6897
     5.7947   5.8840   6.0708   6.3631   6.6122   6.7541   7.0269   8.1406
     8.9806   9.4569   9.5921   9.7183   9.9251  10.1423  10.3168  10.4616
    10.5614  10.9348  11.1403  11.2635  11.4237  11.4860  11.9197  12.1322
    12.3622  12.8952  13.0357  13.1278  13.2810  13.5150

     occupation numbers 
     1.0000   1.0000   1.0000   1.0000   1.0000   1.0000   1.0000   1.0000
     1.0000   1.0000   1.0000   1.0000   1.0000   1.0000   1.0000   1.0000
     1.0000   1.0000   1.0000   1.0000   1.0000   1.0000   1.0000   1.0000
     1.0000   1.0000   1.0000   1.0000   1.0000   1.0000   1.0000   1.0000
     1.0000   1.0000   1.0000   1.0000   1.0000   1.0000   1.0000   1.0000
     1.0000   1.0000   1.0000   1.0000   1.0000   1.0000   1.0000   1.0000
     1.0000   1.0000   1.0000   1.0000   1.0000   1.0000   1.0000   1.0000
     1.0000   1.0000   1.0000   1.0000   1.0000   1.0000   1.0000   1.0000
     1.0000   1.0000   1.0000   1.0000   1.0000   1.0000   1.0000   1.0000
     1.0000   1.0000   1.0000   1.0000   1.0000   1.0000   1.0000   1.0000
     1.0000   1.0000   1.0000   1.0000   1.0000   1.0000   1.0000   1.0000
     1.0000   1.0000   1.0000   1.0000   1.0000   1.0000   1.0000   1.0000
     1.0000   1.0000   1.0000   1.0000   1.0000   1.0000   1.0000   1.0000
     1.0000   1.0000   1.0000   1.0000   1.0000   1.0000   1.0000   0.8693
     0.0000   0.0000   0.0000   0.0000   0.0000   0.0000   0.0000   0.0000
     0.0000   0.0000   0.0000   0.0000   0.0000   0.0000   0.0000   0.0000
     0.0000   0.0000   0.0000   0.0000   0.0000   0.0000

          k = 0.0012-0.0023 0.3541 (  8558 PWs)   bands (ev):

   -17.1537 -17.0141 -17.0019 -16.9711 -16.9500 -16.9365 -16.9261 -16.8948
   -16.8887 -16.8735 -16.8337 -16.8130 -16.7764 -16.7683 -16.7523 -16.7470
   -16.7241 -16.6882 -16.6648 -16.6469 -16.6353 -16.6240 -16.6122 -16.5821
   -16.5731 -16.5590 -16.5538 -16.5421 -16.5393 -16.5219 -16.5141 -16.5088
   -16.5030 -16.5008 -16.4951 -16.4822 -16.4756 -16.4669 -16.4598 -16.4564
   -16.4524 -16.4480 -16.4426 -16.4345 -16.4304 -16.4237 -16.4190 -16.4163
   -16.4087 -16.4060 -16.4017 -16.3924 -16.3856 -16.3845 -16.3802 -16.3724
   -16.3670 -16.3608 -16.3564 -16.3425 -16.3357 -16.3277 -16.3188 -16.3074
   -16.3016 -16.2958 -16.2940 -16.2857 -16.2749 -16.2620 -16.2579 -16.2523
   -16.2417 -16.2375 -16.2272 -16.2227 -16.2147 -16.2069 -16.1940 -16.1801
    -4.5136  -3.4339  -2.9091  -2.6837  -2.3510  -2.0136  -1.2472  -0.8859
    -0.4046  -0.1066   0.7427   0.9142   1.1375   1.4862   1.8895   4.3289
     4.4250   4.6605   4.8155   5.0356   5.2107   5.3696   5.4921   5.6013
     5.9090   6.1271   6.5614   6.7341   6.9465   7.3611   7.5456   7.7321
     8.5336   9.0673   9.1427   9.4256   9.5239   9.6535   9.8118   9.9241
    10.0650  10.3184  10.5155  10.7512  11.4356  11.6142  11.6995  12.0115
    12.3197  12.4193  12.4593  12.6915  12.7489  13.1896

     occupation numbers 
     1.0000   1.0000   1.0000   1.0000   1.0000   1.0000   1.0000   1.0000
     1.0000   1.0000   1.0000   1.0000   1.0000   1.0000   1.0000   1.0000
     1.0000   1.0000   1.0000   1.0000   1.0000   1.0000   1.0000   1.0000
     1.0000   1.0000   1.0000   1.0000   1.0000   1.0000   1.0000   1.0000
     1.0000   1.0000   1.0000   1.0000   1.0000   1.0000   1.0000   1.0000
     1.0000   1.0000   1.0000   1.0000   1.0000   1.0000   1.0000   1.0000
     1.0000   1.0000   1.0000   1.0000   1.0000   1.0000   1.0000   1.0000
     1.0000   1.0000   1.0000   1.0000   1.0000   1.0000   1.0000   1.0000
     1.0000   1.0000   1.0000   1.0000   1.0000   1.0000   1.0000   1.0000
     1.0000   1.0000   1.0000   1.0000   1.0000   1.0000   1.0000   1.0000
     1.0000   1.0000   1.0000   1.0000   1.0000   1.0000   1.0000   1.0000
     1.0000   1.0000   1.0000   1.0000   1.0000   1.0000   1.0000   1.0000
     1.0000   1.0000   1.0000   1.0000   1.0000   1.0000   1.0000   1.0000
     1.0000   1.0000   1.0000   1.0000   1.0000   1.0000   1.0000   1.0000
     0.0548   0.0000   0.0000   0.0000   0.0000   0.0000   0.0000   0.0000
     0.0000   0.0000   0.0000   0.0000   0.0000   0.0000   0.0000   0.0000
     0.0000   0.0000   0.0000   0.0000   0.0000   0.0000

          k = 0.1767 0.1755 0.1787 (  8572 PWs)   bands (ev):

   -17.1537 -17.0141 -17.0017 -16.9716 -16.9495 -16.9358 -16.9257 -16.8932
   -16.8878 -16.8730 -16.8337 -16.8119 -16.7795 -16.7695 -16.7528 -16.7495
   -16.7241 -16.6876 -16.6647 -16.6500 -16.6331 -16.6280 -16.6112 -16.5801
   -16.5715 -16.5599 -16.5558 -16.5418 -16.5367 -16.5219 -16.5149 -16.5068
   -16.5049 -16.4997 -16.4968 -16.4807 -16.4760 -16.4670 -16.4606 -16.4565
   -16.4549 -16.4474 -16.4405 -16.4350 -16.4312 -16.4223 -16.4192 -16.4160
   -16.4100 -16.4060 -16.3972 -16.3915 -16.3832 -16.3824 -16.3788 -16.3746
   -16.3672 -16.3585 -16.3565 -16.3432 -16.3364 -16.3280 -16.3212 -16.3067
   -16.3009 -16.2958 -16.2935 -16.2860 -16.2795 -16.2636 -16.2562 -16.2506
   -16.2410 -16.2371 -16.2273 -16.2242 -16.2137 -16.2078 -16.1943 -16.1804
    -4.5764  -3.5406  -2.7024  -2.5145  -2.2104  -1.7993  -1.5558  -1.2970
    -0.0445   0.2346   0.4321   0.6707   0.7892   1.0683   2.0214   4.4263
     4.6648   4.7705   5.1174   5.2541   5.3254   5.5250   5.7011   5.9616
     6.1278   6.2564   6.3567   6.6528   7.0151   7.3658   7.8418   8.1187
     8.2471   8.6275   8.7540   8.8778   9.0782   9.4104   9.5522   9.8092
     9.9387  10.2261  10.5126  10.9995  11.2321  11.3204  11.5458  11.8134
    11.9925  12.1848  12.3110  12.7105  13.0245  13.4697

     occupation numbers 
     1.0000   1.0000   1.0000   1.0000   1.0000   1.0000   1.0000   1.0000
     1.0000   1.0000   1.0000   1.0000   1.0000   1.0000   1.0000   1.0000
     1.0000   1.0000   1.0000   1.0000   1.0000   1.0000   1.0000   1.0000
     1.0000   1.0000   1.0000   1.0000   1.0000   1.0000   1.0000   1.0000
     1.0000   1.0000   1.0000   1.0000   1.0000   1.0000   1.0000   1.0000
     1.0000   1.0000   1.0000   1.0000   1.0000   1.0000   1.0000   1.0000
     1.0000   1.0000   1.0000   1.0000   1.0000   1.0000   1.0000   1.0000
     1.0000   1.0000   1.0000   1.0000   1.0000   1.0000   1.0000   1.0000
     1.0000   1.0000   1.0000   1.0000   1.0000   1.0000   1.0000   1.0000
     1.0000   1.0000   1.0000   1.0000   1.0000   1.0000   1.0000   1.0000
     1.0000   1.0000   1.0000   1.0000   1.0000   1.0000   1.0000   1.0000
     1.0000   1.0000   1.0000   1.0000   1.0000   1.0000   1.0000   1.0000
     1.0000   1.0000   1.0000   1.0000   1.0000   1.0000   1.0000   1.0000
     1.0000   1.0000   1.0000   1.0000   1.0000   1.0000   0.9993   0.8988
     0.6498   0.0122   0.0009   0.0000   0.0000   0.0000   0.0000   0.0000
     0.0000   0.0000   0.0000   0.0000   0.0000   0.0000   0.0000   0.0000
     0.0000   0.0000   0.0000   0.0000   0.0000   0.0000

          k =-0.3498-0.3578 0.7047 (  8568 PWs)   bands (ev):

   -17.1538 -17.0141 -17.0019 -16.9722 -16.9497 -16.9366 -16.9263 -16.8948
   -16.8886 -16.8737 -16.8344 -16.8128 -16.7764 -16.7684 -16.7517 -16.7459
   -16.7243 -16.6873 -16.6634 -16.6470 -16.6339 -16.6230 -16.6113 -16.5817
   -16.5721 -16.5590 -16.5524 -16.5411 -16.5371 -16.5248 -16.5144 -16.5085
   -16.5070 -16.4991 -16.4982 -16.4845 -16.4722 -16.4693 -16.4618 -16.4570
   -16.4523 -16.4457 -16.4408 -16.4351 -16.4316 -16.4246 -16.4180 -16.4142
   -16.4129 -16.4087 -16.4028 -16.3909 -16.3858 -16.3835 -16.3795 -16.3727
   -16.3676 -16.3597 -16.3526 -16.3447 -16.3354 -16.3274 -16.3199 -16.3052
   -16.3017 -16.2954 -16.2916 -16.2883 -16.2819 -16.2647 -16.2556 -16.2474
   -16.2414 -16.2367 -16.2261 -16.2241 -16.2135 -16.2071 -16.1939 -16.1801
    -4.3088  -3.6982  -3.0863  -2.6488  -2.1904  -1.9618  -1.5663  -1.2000
     0.0498   0.1200   0.4866   1.0845   1.2897   2.0727   2.4720   3.7948
     4.3154   4.4976   4.6392   4.8195   5.0634   5.3516   5.4216   5.6275
     5.7337   5.9718   6.0553   6.3241   6.5080   6.6811   6.9014   7.8339
     8.8672   9.3805   9.5669   9.7297   9.8390  10.0000  10.2710  10.6029
    10.6669  10.9203  11.0844  11.2683  11.3299  11.4163  11.7716  11.9753
    12.4327  12.8008  13.0504  13.4125  13.6376  13.7568

     occupation numbers 
     1.0000   1.0000   1.0000   1.0000   1.0000   1.0000   1.0000   1.0000
     1.0000   1.0000   1.0000   1.0000   1.0000   1.0000   1.0000   1.0000
     1.0000   1.0000   1.0000   1.0000   1.0000   1.0000   1.0000   1.0000
     1.0000   1.0000   1.0000   1.0000   1.0000   1.0000   1.0000   1.0000
     1.0000   1.0000   1.0000   1.0000   1.0000   1.0000   1.0000   1.0000
     1.0000   1.0000   1.0000   1.0000   1.0000   1.0000   1.0000   1.0000
     1.0000   1.0000   1.0000   1.0000   1.0000   1.0000   1.0000   1.0000
     1.0000   1.0000   1.0000   1.0000   1.0000   1.0000   1.0000   1.0000
     1.0000   1.0000   1.0000   1.0000   1.0000   1.0000   1.0000   1.0000
     1.0000   1.0000   1.0000   1.0000   1.0000   1.0000   1.0000   1.0000
     1.0000   1.0000   1.0000   1.0000   1.0000   1.0000   1.0000   1.0000
     1.0000   1.0000   1.0000   1.0000   1.0000   1.0000   1.0000   1.0000
     1.0000   1.0000   1.0000   1.0000   1.0000   1.0000   1.0000   1.0000
     1.0000   1.0000   1.0000   1.0000   1.0000   1.0000   1.0000   0.9994
     0.0000   0.0000   0.0000   0.0000   0.0000   0.0000   0.0000   0.0000
     0.0000   0.0000   0.0000   0.0000   0.0000   0.0000   0.0000   0.0000
     0.0000   0.0000   0.0000   0.0000   0.0000   0.0000

          k =-0.1743-0.1801 0.5294 (  8566 PWs)   bands (ev):

   -17.1537 -17.0141 -17.0021 -16.9716 -16.9503 -16.9373 -16.9266 -16.8966
   -16.8895 -16.8741 -16.8345 -16.8134 -16.7726 -16.7676 -16.7528 -16.7425
   -16.7244 -16.6877 -16.6638 -16.6436 -16.6349 -16.6197 -16.6121 -16.5843
   -16.5736 -16.5565 -16.5498 -16.5441 -16.5397 -16.5249 -16.5147 -16.5101
   -16.5051 -16.4996 -16.4949 -16.4867 -16.4729 -16.4662 -16.4613 -16.4581
   -16.4507 -16.4468 -16.4423 -16.4343 -16.4307 -16.4270 -16.4181 -16.4148
   -16.4118 -16.4087 -16.4048 -16.3907 -16.3899 -16.3853 -16.3803 -16.3714
   -16.3689 -16.3601 -16.3534 -16.3453 -16.3326 -16.3270 -16.3185 -16.3061
   -16.3017 -16.2952 -16.2942 -16.2869 -16.2783 -16.2624 -16.2564 -16.2501
   -16.2413 -16.2372 -16.2259 -16.2227 -16.2145 -16.2063 -16.1935 -16.1798
    -4.1445  -3.7749  -3.1096  -2.9188  -2.3422  -1.8606  -1.5211  -1.0880
    -0.0921   0.1651   0.6878   1.2894   1.5738   2.2828   2.8436   3.6298
     3.9277   4.1973   4.2518   4.6810   4.8561   5.0651   5.1674   5.5433
     5.5941   5.9004   6.0634   6.2336   6.7913   6.8641   7.1048   7.4612
     9.0721   9.3251   9.6337   9.8545  10.0944  10.2600  10.5255  10.7395
    10.8866  11.0465  11.2838  11.6589  11.9790  12.1608  12.4016  12.5650
    12.7516  12.8544  13.0095  13.1045  13.2391  13.3515

     occupation numbers 
     1.0000   1.0000   1.0000   1.0000   1.0000   1.0000   1.0000   1.0000
     1.0000   1.0000   1.0000   1.0000   1.0000   1.0000   1.0000   1.0000
     1.0000   1.0000   1.0000   1.0000   1.0000   1.0000   1.0000   1.0000
     1.0000   1.0000   1.0000   1.0000   1.0000   1.0000   1.0000   1.0000
     1.0000   1.0000   1.0000   1.0000   1.0000   1.0000   1.0000   1.0000
     1.0000   1.0000   1.0000   1.0000   1.0000   1.0000   1.0000   1.0000
     1.0000   1.0000   1.0000   1.0000   1.0000   1.0000   1.0000   1.0000
     1.0000   1.0000   1.0000   1.0000   1.0000   1.0000   1.0000   1.0000
     1.0000   1.0000   1.0000   1.0000   1.0000   1.0000   1.0000   1.0000
     1.0000   1.0000   1.0000   1.0000   1.0000   1.0000   1.0000   1.0000
     1.0000   1.0000   1.0000   1.0000   1.0000   1.0000   1.0000   1.0000
     1.0000   1.0000   1.0000   1.0000   1.0000   1.0000   1.0000   1.0000
     1.0000   1.0000   1.0000   1.0000   1.0000   1.0000   1.0000   1.0000
     1.0000   1.0000   1.0000   1.0000   1.0000   1.0000   1.0000   1.0000
     0.0000   0.0000   0.0000   0.0000   0.0000   0.0000   0.0000   0.0000
     0.0000   0.0000   0.0000   0.0000   0.0000   0.0000   0.0000   0.0000
     0.0000   0.0000   0.0000   0.0000   0.0000   0.0000

          k =-0.5249 0.5341-0.1788 (  8574 PWs)   bands (ev):

   -17.1538 -17.0149 -17.0019 -16.9713 -16.9505 -16.9368 -16.9267 -16.8968
   -16.8893 -16.8731 -16.8339 -16.8140 -16.7766 -16.7677 -16.7512 -16.7424
   -16.7236 -16.6856 -16.6637 -16.6474 -16.6360 -16.6191 -16.6129 -16.5820
   -16.5733 -16.5569 -16.5498 -16.5476 -16.5422 -16.5224 -16.5142 -16.5084
   -16.5030 -16.4968 -16.4924 -16.4877 -16.4754 -16.4650 -16.4601 -16.4534
   -16.4486 -16.4462 -16.4405 -16.4337 -16.4311 -16.4252 -16.4202 -16.4151
   -16.4134 -16.4094 -16.4045 -16.3964 -16.3919 -16.3850 -16.3772 -16.3722
   -16.3685 -16.3618 -16.3563 -16.3467 -16.3346 -16.3297 -16.3206 -16.3052
   -16.2999 -16.2960 -16.2938 -16.2895 -16.2724 -16.2623 -16.2571 -16.2529
   -16.2421 -16.2370 -16.2266 -16.2224 -16.2136 -16.2028 -16.1929 -16.1795
    -4.1432  -3.7407  -3.1215  -2.9121  -2.3030  -1.9954  -1.5906  -1.1708
    -0.0048   0.3755   0.8636   1.0594   2.0022   2.2463   2.5993   3.6816
     3.8851   4.0586   4.2458   4.4967   4.8747   4.9245   5.1873   5.3935
     5.5501   5.9207   5.9703   6.3688   6.5234   6.9804   7.2504   7.7292
     9.2984   9.5002   9.7869   9.8982  10.0050  10.2229  10.4361  10.6514
    10.8995  11.0642  11.4426  11.5362  12.0105  12.1783  12.3111  12.6013
    12.7150  12.9072  12.9723  13.1321  13.2593  13.4703

     occupation numbers 
     1.0000   1.0000   1.0000   1.0000   1.0000   1.0000   1.0000   1.0000
     1.0000   1.0000   1.0000   1.0000   1.0000   1.0000   1.0000   1.0000
     1.0000   1.0000   1.0000   1.0000   1.0000   1.0000   1.0000   1.0000
     1.0000   1.0000   1.0000   1.0000   1.0000   1.0000   1.0000   1.0000
     1.0000   1.0000   1.0000   1.0000   1.0000   1.0000   1.0000   1.0000
     1.0000   1.0000   1.0000   1.0000   1.0000   1.0000   1.0000   1.0000
     1.0000   1.0000   1.0000   1.0000   1.0000   1.0000   1.0000   1.0000
     1.0000   1.0000   1.0000   1.0000   1.0000   1.0000   1.0000   1.0000
     1.0000   1.0000   1.0000   1.0000   1.0000   1.0000   1.0000   1.0000
     1.0000   1.0000   1.0000   1.0000   1.0000   1.0000   1.0000   1.0000
     1.0000   1.0000   1.0000   1.0000   1.0000   1.0000   1.0000   1.0000
     1.0000   1.0000   1.0000   1.0000   1.0000   1.0000   1.0000   1.0000
     1.0000   1.0000   1.0000   1.0000   1.0000   1.0000   1.0000   1.0000
     1.0000   1.0000   1.0000   1.0000   1.0000   1.0000   1.0000   1.0000
     0.0000   0.0000   0.0000   0.0000   0.0000   0.0000   0.0000   0.0000
     0.0000   0.0000   0.0000   0.0000   0.0000   0.0000   0.0000   0.0000
     0.0000   0.0000   0.0000   0.0000   0.0000   0.0000

          k =-0.3494 0.7119-0.3541 (  8570 PWs)   bands (ev):

   -17.1538 -17.0149 -17.0016 -16.9718 -16.9499 -16.9360 -16.9264 -16.8950
   -16.8885 -16.8724 -16.8338 -16.8133 -16.7796 -16.7687 -16.7501 -16.7460
   -16.7235 -16.6857 -16.6629 -16.6502 -16.6349 -16.6228 -16.6118 -16.5797
   -16.5717 -16.5593 -16.5524 -16.5442 -16.5404 -16.5215 -16.5158 -16.5053
   -16.5038 -16.4981 -16.4959 -16.4844 -16.4751 -16.4661 -16.4585 -16.4560
   -16.4495 -16.4459 -16.4406 -16.4349 -16.4286 -16.4244 -16.4211 -16.4166
   -16.4109 -16.4076 -16.4031 -16.3947 -16.3893 -16.3836 -16.3786 -16.3734
   -16.3661 -16.3599 -16.3570 -16.3431 -16.3373 -16.3318 -16.3226 -16.3044
   -16.3002 -16.2947 -16.2940 -16.2891 -16.2779 -16.2627 -16.2549 -16.2521
   -16.2408 -16.2362 -16.2269 -16.2238 -16.2129 -16.2036 -16.1933 -16.1797
    -4.2967  -3.7103  -3.0538  -2.5221  -2.2173  -2.0726  -1.8668  -1.0954
    -0.0750   0.5288   0.6347   1.1692   1.2733   1.8434   2.5786   3.8211
     4.1412   4.4745   4.6091   4.7269   5.0019   5.2186   5.3932   5.6201
     5.6626   5.8445   6.1074   6.1391   6.5469   6.8947   6.9835   8.0292
     8.9500   9.3621   9.6241   9.7893   9.9631  10.0832  10.3045  10.5556
    10.7404  10.8737  11.0441  11.2756  11.5296  11.7006  11.8667  11.9369
    12.3341  12.5963  12.9736  13.3500  13.5130  13.7143

     occupation numbers 
     1.0000   1.0000   1.0000   1.0000   1.0000   1.0000   1.0000   1.0000
     1.0000   1.0000   1.0000   1.0000   1.0000   1.0000   1.0000   1.0000
     1.0000   1.0000   1.0000   1.0000   1.0000   1.0000   1.0000   1.0000
     1.0000   1.0000   1.0000   1.0000   1.0000   1.0000   1.0000   1.0000
     1.0000   1.0000   1.0000   1.0000   1.0000   1.0000   1.0000   1.0000
     1.0000   1.0000   1.0000   1.0000   1.0000   1.0000   1.0000   1.0000
     1.0000   1.0000   1.0000   1.0000   1.0000   1.0000   1.0000   1.0000
     1.0000   1.0000   1.0000   1.0000   1.0000   1.0000   1.0000   1.0000
     1.0000   1.0000   1.0000   1.0000   1.0000   1.0000   1.0000   1.0000
     1.0000   1.0000   1.0000   1.0000   1.0000   1.0000   1.0000   1.0000
     1.0000   1.0000   1.0000   1.0000   1.0000   1.0000   1.0000   1.0000
     1.0000   1.0000   1.0000   1.0000   1.0000   1.0000   1.0000   1.0000
     1.0000   1.0000   1.0000   1.0000   1.0000   1.0000   1.0000   1.0000
     1.0000   1.0000   1.0000   1.0000   1.0000   1.0000   1.0000   0.9709
     0.0000   0.0000   0.0000   0.0000   0.0000   0.0000   0.0000   0.0000
     0.0000   0.0000   0.0000   0.0000   0.0000   0.0000   0.0000   0.0000
     0.0000   0.0000   0.0000   0.0000   0.0000   0.0000

          k =-0.8759 0.1786 0.1719 (  8561 PWs)   bands (ev):

   -17.1539 -17.0148 -17.0020 -16.9724 -16.9498 -16.9368 -16.9265 -16.8933
   -16.8890 -16.8729 -16.8345 -16.8122 -16.7769 -16.7679 -16.7513 -16.7493
   -16.7238 -16.6864 -16.6617 -16.6471 -16.6319 -16.6256 -16.6130 -16.5812
   -16.5721 -16.5604 -16.5553 -16.5426 -16.5374 -16.5202 -16.5170 -16.5086
   -16.5045 -16.4992 -16.4938 -16.4816 -16.4723 -16.4666 -16.4593 -16.4572
   -16.4505 -16.4471 -16.4421 -16.4356 -16.4283 -16.4256 -16.4210 -16.4159
   -16.4097 -16.4069 -16.4025 -16.3950 -16.3873 -16.3837 -16.3777 -16.3733
   -16.3678 -16.3607 -16.3566 -16.3465 -16.3375 -16.3327 -16.3229 -16.3042
   -16.2998 -16.2951 -16.2918 -16.2885 -16.2812 -16.2630 -16.2552 -16.2495
   -16.2399 -16.2351 -16.2268 -16.2246 -16.2127 -16.2047 -16.1934 -16.1800
    -4.1564  -3.8082  -3.1121  -2.6913  -2.4198  -2.0329  -1.4520  -1.1213
    -0.1049   0.2542   0.7616   1.2191   1.4668   2.0800   2.9330   3.7694
     4.0372   4.2793   4.3745   4.6969   4.8848   5.0026   5.1244   5.4736
     5.6621   5.7909   6.0982   6.2756   6.4874   6.8868   7.0888   7.5449
     9.1722   9.4676   9.6224   9.8360   9.9696  10.1928  10.5475  10.5888
    10.8825  11.1044  11.3073  11.5303  11.8828  12.0964  12.2313  12.4514
    12.6322  12.8976  13.1083  13.2013  13.4365  13.5769

     occupation numbers 
     1.0000   1.0000   1.0000   1.0000   1.0000   1.0000   1.0000   1.0000
     1.0000   1.0000   1.0000   1.0000   1.0000   1.0000   1.0000   1.0000
     1.0000   1.0000   1.0000   1.0000   1.0000   1.0000   1.0000   1.0000
     1.0000   1.0000   1.0000   1.0000   1.0000   1.0000   1.0000   1.0000
     1.0000   1.0000   1.0000   1.0000   1.0000   1.0000   1.0000   1.0000
     1.0000   1.0000   1.0000   1.0000   1.0000   1.0000   1.0000   1.0000
     1.0000   1.0000   1.0000   1.0000   1.0000   1.0000   1.0000   1.0000
     1.0000   1.0000   1.0000   1.0000   1.0000   1.0000   1.0000   1.0000
     1.0000   1.0000   1.0000   1.0000   1.0000   1.0000   1.0000   1.0000
     1.0000   1.0000   1.0000   1.0000   1.0000   1.0000   1.0000   1.0000
     1.0000   1.0000   1.0000   1.0000   1.0000   1.0000   1.0000   1.0000
     1.0000   1.0000   1.0000   1.0000   1.0000   1.0000   1.0000   1.0000
     1.0000   1.0000   1.0000   1.0000   1.0000   1.0000   1.0000   1.0000
     1.0000   1.0000   1.0000   1.0000   1.0000   1.0000   1.0000   1.0000
     0.0000   0.0000   0.0000   0.0000   0.0000   0.0000   0.0000   0.0000
     0.0000   0.0000   0.0000   0.0000   0.0000   0.0000   0.0000   0.0000
     0.0000   0.0000   0.0000   0.0000   0.0000   0.0000

          k =-0.7004 0.3564-0.0035 (  8566 PWs)   bands (ev):

   -17.1539 -17.0147 -17.0022 -16.9718 -16.9504 -16.9375 -16.9268 -16.8949
   -16.8898 -16.8735 -16.8345 -16.8135 -16.7731 -16.7668 -16.7521 -16.7460
   -16.7238 -16.6867 -16.6622 -16.6439 -16.6326 -16.6222 -16.6142 -16.5845
   -16.5731 -16.5590 -16.5530 -16.5428 -16.5399 -16.5211 -16.5163 -16.5086
   -16.5054 -16.4980 -16.4931 -16.4846 -16.4720 -16.4628 -16.4618 -16.4542
   -16.4502 -16.4467 -16.4435 -16.4358 -16.4276 -16.4270 -16.4212 -16.4146
   -16.4110 -16.4086 -16.4039 -16.3964 -16.3899 -16.3843 -16.3775 -16.3726
   -16.3698 -16.3621 -16.3555 -16.3491 -16.3347 -16.3326 -16.3205 -16.3050
   -16.2999 -16.2953 -16.2928 -16.2888 -16.2761 -16.2597 -16.2576 -16.2518
   -16.2408 -16.2362 -16.2259 -16.2237 -16.2132 -16.2038 -16.1930 -16.1797
    -3.9030  -3.8030  -3.3796  -3.1174  -2.1578  -1.8893  -1.5069  -1.2461
     0.0382   0.4116   0.7270   0.9839   2.5057   2.6738   2.9313   3.0776
     3.8757   3.9359   4.0788   4.1735   4.9389   5.1299   5.1733   5.3003
     5.5581   5.7501   5.9205   6.0517   6.4793   6.6897   7.0539   7.1969
     9.9154  10.0241  10.2104  10.3332  10.5043  10.5927  10.7499  10.8394
    10.9974  11.0523  11.2285  11.4441  12.2241  12.2956  12.4461  12.5690
    12.6672  12.8497  12.9537  13.0939  13.1430  13.3462

     occupation numbers 
     1.0000   1.0000   1.0000   1.0000   1.0000   1.0000   1.0000   1.0000
     1.0000   1.0000   1.0000   1.0000   1.0000   1.0000   1.0000   1.0000
     1.0000   1.0000   1.0000   1.0000   1.0000   1.0000   1.0000   1.0000
     1.0000   1.0000   1.0000   1.0000   1.0000   1.0000   1.0000   1.0000
     1.0000   1.0000   1.0000   1.0000   1.0000   1.0000   1.0000   1.0000
     1.0000   1.0000   1.0000   1.0000   1.0000   1.0000   1.0000   1.0000
     1.0000   1.0000   1.0000   1.0000   1.0000   1.0000   1.0000   1.0000
     1.0000   1.0000   1.0000   1.0000   1.0000   1.0000   1.0000   1.0000
     1.0000   1.0000   1.0000   1.0000   1.0000   1.0000   1.0000   1.0000
     1.0000   1.0000   1.0000   1.0000   1.0000   1.0000   1.0000   1.0000
     1.0000   1.0000   1.0000   1.0000   1.0000   1.0000   1.0000   1.0000
     1.0000   1.0000   1.0000   1.0000   1.0000   1.0000   1.0000   1.0000
     1.0000   1.0000   1.0000   1.0000   1.0000   1.0000   1.0000   1.0000
     1.0000   1.0000   1.0000   1.0000   1.0000   1.0000   1.0000   1.0000
     0.0000   0.0000   0.0000   0.0000   0.0000   0.0000   0.0000   0.0000
     0.0000   0.0000   0.0000   0.0000   0.0000   0.0000   0.0000   0.0000
     0.0000   0.0000   0.0000   0.0000   0.0000   0.0000

          k =-0.3496 0.3553-0.0012 (  8566 PWs)   bands (ev):

   -17.1537 -17.0155 -17.0020 -16.9711 -16.9502 -16.9368 -16.9260 -16.8951
   -16.8894 -16.8721 -16.8339 -16.8132 -16.7763 -16.7689 -16.7508 -16.7465
   -16.7239 -16.6869 -16.6649 -16.6464 -16.6348 -16.6239 -16.6140 -16.5823
   -16.5739 -16.5573 -16.5543 -16.5436 -16.5403 -16.5207 -16.5157 -16.5076
   -16.5034 -16.4987 -16.4899 -16.4796 -16.4723 -16.4650 -16.4609 -16.4535
   -16.4489 -16.4464 -16.4421 -16.4347 -16.4301 -16.4264 -16.4189 -16.4171
   -16.4106 -16.4066 -16.4029 -16.3954 -16.3894 -16.3852 -16.3773 -16.3733
   -16.3669 -16.3618 -16.3548 -16.3481 -16.3361 -16.3318 -16.3187 -16.3095
   -16.3033 -16.2997 -16.2944 -16.2906 -16.2753 -16.2629 -16.2562 -16.2533
   -16.2404 -16.2340 -16.2253 -16.2210 -16.2124 -16.2033 -16.1929 -16.1799
    -4.2945  -3.6747  -3.0118  -2.7673  -2.2282  -2.0817  -1.6620  -1.0016
    -0.2771   0.5248   0.7920   0.9533   1.7366   1.9756   2.2500   3.7307
     4.1359   4.3691   4.4665   4.6198   4.8577   5.0839   5.2794   5.5496
     5.8324   5.9280   6.0295   6.4346   6.6690   6.8568   7.2075   8.2776
     9.0823   9.4347   9.5933   9.7757   9.9838  10.1438  10.2592  10.4518
    10.6630  10.8048  11.2985  11.4157  11.5988  11.7250  11.9027  12.1665
    12.2741  12.6737  13.0299  13.1309  13.3862  13.4511

     occupation numbers 
     1.0000   1.0000   1.0000   1.0000   1.0000   1.0000   1.0000   1.0000
     1.0000   1.0000   1.0000   1.0000   1.0000   1.0000   1.0000   1.0000
     1.0000   1.0000   1.0000   1.0000   1.0000   1.0000   1.0000   1.0000
     1.0000   1.0000   1.0000   1.0000   1.0000   1.0000   1.0000   1.0000
     1.0000   1.0000   1.0000   1.0000   1.0000   1.0000   1.0000   1.0000
     1.0000   1.0000   1.0000   1.0000   1.0000   1.0000   1.0000   1.0000
     1.0000   1.0000   1.0000   1.0000   1.0000   1.0000   1.0000   1.0000
     1.0000   1.0000   1.0000   1.0000   1.0000   1.0000   1.0000   1.0000
     1.0000   1.0000   1.0000   1.0000   1.0000   1.0000   1.0000   1.0000
     1.0000   1.0000   1.0000   1.0000   1.0000   1.0000   1.0000   1.0000
     1.0000   1.0000   1.0000   1.0000   1.0000   1.0000   1.0000   1.0000
     1.0000   1.0000   1.0000   1.0000   1.0000   1.0000   1.0000   1.0000
     1.0000   1.0000   1.0000   1.0000   1.0000   1.0000   1.0000   1.0000
     1.0000   1.0000   1.0000   1.0000   1.0000   1.0000   1.0000   0.5689
     0.0000   0.0000   0.0000   0.0000   0.0000   0.0000   0.0000   0.0000
     0.0000   0.0000   0.0000   0.0000   0.0000   0.0000   0.0000   0.0000
     0.0000   0.0000   0.0000   0.0000   0.0000   0.0000

          k =-0.1741 0.5331-0.1765 (  8574 PWs)   bands (ev):

   -17.1537 -17.0156 -17.0017 -16.9717 -16.9500 -16.9362 -16.9261 -16.8972
   -16.8887 -16.8719 -16.8340 -16.8136 -16.7793 -16.7698 -16.7498 -16.7425
   -16.7232 -16.6856 -16.6652 -16.6492 -16.6372 -16.6202 -16.6117 -16.5801
   -16.5720 -16.5562 -16.5487 -16.5459 -16.5433 -16.5254 -16.5144 -16.5083
   -16.5041 -16.5010 -16.4864 -16.4825 -16.4756 -16.4655 -16.4604 -16.4539
   -16.4483 -16.4442 -16.4386 -16.4350 -16.4309 -16.4266 -16.4197 -16.4185
   -16.4133 -16.4083 -16.4045 -16.3941 -16.3930 -16.3853 -16.3769 -16.3743
   -16.3644 -16.3603 -16.3492 -16.3459 -16.3357 -16.3330 -16.3190 -16.3089
   -16.3023 -16.2986 -16.2957 -16.2918 -16.2815 -16.2646 -16.2545 -16.2510
   -16.2405 -16.2339 -16.2249 -16.2210 -16.2122 -16.2028 -16.1925 -16.1797
    -4.1499  -3.7569  -3.1373  -2.7338  -2.4526  -1.9925  -1.4939  -1.3366
     0.1582   0.3331   0.6953   1.3821   1.5751   2.4361   2.6966   3.7042
     3.8729   4.0803   4.2043   4.5077   4.7810   4.9918   5.1699   5.4287
     5.6464   5.7208   6.0360   6.3851   6.6405   6.9355   7.1951   7.5096
     9.2286   9.2943   9.7411   9.9459  10.1484  10.3594  10.6131  10.7244
    10.9139  11.1772  11.6097  11.9003  11.9684  12.0922  12.3673  12.4847
    12.7185  12.8648  12.9476  13.0320  13.1232  13.3574

     occupation numbers 
[...]
   -16.4516 -16.4462 -16.4415 -16.4336 -16.4266 -16.4234 -16.4206 -16.4130
   -16.4103 -16.4068 -16.4032 -16.3962 -16.3874 -16.3852 -16.3791 -16.3773
   -16.3679 -16.3623 -16.3558 -16.3454 -16.3350 -16.3316 -16.3199 -16.3033
   -16.3012 -16.2952 -16.2929 -16.2875 -16.2774 -16.2625 -16.2560 -16.2496
   -16.2403 -16.2377 -16.2271 -16.2250 -16.2125 -16.2054 -16.1931 -16.1800
    -4.1561  -3.8073  -3.0410  -2.8598  -2.3243  -1.8658  -1.6358  -1.1852
     0.0176   0.2881   0.6817   1.2017   1.3783   2.1581   3.0034   3.8132
     4.1710   4.2683   4.3833   4.6288   4.7823   4.9299   5.1114   5.4550
     5.7079   5.9080   6.1359   6.3310   6.5594   6.8206   6.9828   7.4438
     9.0761   9.3098   9.6417   9.8451  10.0159  10.1474  10.3111  10.4539
    10.8998  11.1119  11.3967  11.6924  12.0011  12.0596  12.2783  12.6076
    12.6845  12.9773  13.0000  13.3154  13.4575  13.6172

     occupation numbers 
     1.0000   1.0000   1.0000   1.0000   1.0000   1.0000   1.0000   1.0000
     1.0000   1.0000   1.0000   1.0000   1.0000   1.0000   1.0000   1.0000
     1.0000   1.0000   1.0000   1.0000   1.0000   1.0000   1.0000   1.0000
     1.0000   1.0000   1.0000   1.0000   1.0000   1.0000   1.0000   1.0000
     1.0000   1.0000   1.0000   1.0000   1.0000   1.0000   1.0000   1.0000
     1.0000   1.0000   1.0000   1.0000   1.0000   1.0000   1.0000   1.0000
     1.0000   1.0000   1.0000   1.0000   1.0000   1.0000   1.0000   1.0000
     1.0000   1.0000   1.0000   1.0000   1.0000   1.0000   1.0000   1.0000
     1.0000   1.0000   1.0000   1.0000   1.0000   1.0000   1.0000   1.0000
     1.0000   1.0000   1.0000   1.0000   1.0000   1.0000   1.0000   1.0000
     1.0000   1.0000   1.0000   1.0000   1.0000   1.0000   1.0000   1.0000
     1.0000   1.0000   1.0000   1.0000   1.0000   1.0000   1.0000   1.0000
     1.0000   1.0000   1.0000   1.0000   1.0000   1.0000   1.0000   1.0000
     1.0000   1.0000   1.0000   1.0000   1.0000   1.0000   1.0000   1.0000
     0.0000   0.0000   0.0000   0.0000   0.0000   0.0000   0.0000   0.0000
     0.0000   0.0000   0.0000   0.0000   0.0000   0.0000   0.0000   0.0000
     0.0000   0.0000   0.0000   0.0000   0.0000   0.0000

          k =-0.3533-0.3509-0.3574 (  8586 PWs)   bands (ev):

   -17.1540 -17.0143 -17.0018 -16.9724 -16.9496 -16.9361 -16.9263 -16.8932
   -16.8879 -16.8731 -16.8339 -16.8121 -16.7801 -16.7686 -16.7521 -16.7487
   -16.7235 -16.6859 -16.6619 -16.6497 -16.6325 -16.6264 -16.6117 -16.5794
   -16.5719 -16.5602 -16.5546 -16.5421 -16.5362 -16.5220 -16.5157 -16.5085
   -16.5037 -16.5019 -16.4949 -16.4845 -16.4753 -16.4683 -16.4604 -16.4564
   -16.4527 -16.4455 -16.4402 -16.4331 -16.4277 -16.4227 -16.4206 -16.4127
   -16.4094 -16.4066 -16.4011 -16.3926 -16.3844 -16.3838 -16.3822 -16.3771
   -16.3673 -16.3605 -16.3562 -16.3422 -16.3369 -16.3336 -16.3225 -16.3026
   -16.3008 -16.2957 -16.2900 -16.2891 -16.2808 -16.2649 -16.2545 -16.2476
   -16.2395 -16.2368 -16.2283 -16.2256 -16.2120 -16.2064 -16.1934 -16.1803
    -4.1269  -4.0914  -2.6360  -2.4368  -2.2390  -2.1133  -1.6855  -1.6527
     0.2696   0.6987   0.7848   0.8408   0.9373   1.2770   3.5114   3.6201
     4.3603   4.4920   4.6527   4.7240   5.0420   5.0865   5.5309   5.6113
     5.6655   5.7224   6.0077   6.0559   7.0994   7.4590   7.5637   7.8106
     8.5003   8.5989   9.0378   9.0933   9.3317   9.4954   9.6122   9.8210
    11.2500  11.5493  11.7101  11.9191  12.0602  12.1586  12.3322  12.5100
    12.8752  12.9095  13.0910  13.2624  13.6224  13.7460

     occupation numbers 
     1.0000   1.0000   1.0000   1.0000   1.0000   1.0000   1.0000   1.0000
     1.0000   1.0000   1.0000   1.0000   1.0000   1.0000   1.0000   1.0000
     1.0000   1.0000   1.0000   1.0000   1.0000   1.0000   1.0000   1.0000
     1.0000   1.0000   1.0000   1.0000   1.0000   1.0000   1.0000   1.0000
     1.0000   1.0000   1.0000   1.0000   1.0000   1.0000   1.0000   1.0000
     1.0000   1.0000   1.0000   1.0000   1.0000   1.0000   1.0000   1.0000
     1.0000   1.0000   1.0000   1.0000   1.0000   1.0000   1.0000   1.0000
     1.0000   1.0000   1.0000   1.0000   1.0000   1.0000   1.0000   1.0000
     1.0000   1.0000   1.0000   1.0000   1.0000   1.0000   1.0000   1.0000
     1.0000   1.0000   1.0000   1.0000   1.0000   1.0000   1.0000   1.0000
     1.0000   1.0000   1.0000   1.0000   1.0000   1.0000   1.0000   1.0000
     1.0000   1.0000   1.0000   1.0000   1.0000   1.0000   1.0000   1.0000
     1.0000   1.0000   1.0000   1.0000   1.0000   1.0000   1.0000   1.0000
     1.0000   1.0000   1.0000   1.0000   1.0000   1.0000   1.0000   0.9997
     0.0853   0.0200   0.0000   0.0000   0.0000   0.0000   0.0000   0.0000
     0.0000   0.0000   0.0000   0.0000   0.0000   0.0000   0.0000   0.0000
     0.0000   0.0000   0.0000   0.0000   0.0000   0.0000

     the Fermi energy is     8.3026 ev

!    total energy              =   -3410.65544299 Ry
     Harris-Foulkes estimate   =   -3410.65544291 Ry
     estimated scf accuracy    <          3.6E-10 Ry

     The total energy is the sum of the following terms:

     one-electron contribution =   -2257.71371508 Ry
     hartree contribution      =    1333.13720989 Ry
     xc contribution           =    -922.23878217 Ry
     ewald contribution        =   -1563.83683903 Ry
     smearing contrib. (-TS)   =      -0.00331660 Ry

     convergence has been achieved in  11 iterations

     Forces acting on atoms (Ry/au):

     atom    1 type  1   force =   0.12601118E+00 -0.36053112E-01  0.43338350E-01
     atom    2 type  1   force =  -0.10250510E+00  0.23366642E-01 -0.91690041E-01
     atom    3 type  1   force =  -0.26358800E-01  0.11371317E+00  0.62892884E-01
     atom    4 type  1   force =  -0.60505039E-01 -0.63178932E-01  0.12915081E-01
     atom    5 type  1   force =   0.74544481E-01 -0.12711975E+00  0.77781514E-01
     atom    6 type  1   force =  -0.11634296E+00  0.49712973E-01 -0.13652682E-01
     atom    7 type  1   force =  -0.94341720E-01  0.48126236E-01 -0.22418231E-01
     atom    8 type  1   force =   0.79244340E-01  0.83862131E-01  0.58398675E-01
     atom    9 type  1   force =  -0.69699886E-01 -0.13920627E+00 -0.58166873E-01
     atom   10 type  1   force =   0.13699437E+00  0.14704111E+00  0.13028823E+00
     atom   11 type  1   force =  -0.11222516E-01 -0.16224425E-01  0.34327802E-01
     atom   12 type  1   force =   0.43861744E-01 -0.66064298E-01 -0.74333309E-01
     atom   13 type  1   force =   0.34421800E-01  0.22424887E-01 -0.38614880E-01
     atom   14 type  1   force =  -0.78533462E-01  0.91325657E-01 -0.86432891E-01
     atom   15 type  1   force =   0.36957809E-01 -0.13875756E-01  0.64649615E-01
     atom   16 type  1   force =   0.27473761E-01 -0.11785026E+00 -0.99283246E-01
     The non-local contrib.  to forces
     atom    1 type  1   force =   0.21810647E-01  0.60247173E-02 -0.25694320E-01
     atom    2 type  1   force =  -0.14666849E-01  0.29212543E-01  0.37111152E-01
     atom    3 type  1   force =  -0.97689727E-02 -0.34741654E-01 -0.35026055E-02
     atom    4 type  1   force =   0.20616688E-01  0.20151605E-01  0.61138005E-02
     atom    5 type  1   force =  -0.43110907E-01  0.67996236E-02  0.45978795E-01
     atom    6 type  1   force =   0.40901462E-01  0.47614327E-01 -0.76715402E-02
     atom    7 type  1   force =  -0.10908321E+00 -0.33189218E-01 -0.32102250E-01
     atom    8 type  1   force =  -0.61325686E-02 -0.50078534E-01  0.68868555E-02
     atom    9 type  1   force =  -0.35024885E-01 -0.67381825E-01 -0.67068271E-01
     atom   10 type  1   force =  -0.74203817E-02 -0.75357464E-02 -0.29676189E-01
     atom   11 type  1   force =   0.29958674E-01 -0.86379700E-02  0.19719714E-01
     atom   12 type  1   force =   0.65720751E-01  0.45202880E-01  0.20726119E-01
     atom   13 type  1   force =  -0.13185815E-01  0.21067875E-01 -0.24758656E-01
     atom   14 type  1   force =   0.63349474E-02  0.17297657E-01  0.63389848E-01
     atom   15 type  1   force =   0.43557759E-01  0.21949677E-02  0.65187990E-02
     atom   16 type  1   force =  -0.11399417E-01  0.28033151E-01  0.41198133E-01
     The ionic contribution  to forces
     atom    1 type  1   force =   0.47772754E+01 -0.24177789E+00  0.33323586E+01
     atom    2 type  1   force =  -0.40924814E+01 -0.41956580E+00 -0.31675068E+01
     atom    3 type  1   force =  -0.11787025E+01  0.57977513E+01  0.37150513E+01
     atom    4 type  1   force =  -0.30985883E+01 -0.27170737E+01  0.17963936E+01
     atom    5 type  1   force =   0.18853325E+01 -0.48007324E+01  0.14192808E+01
     atom    6 type  1   force =  -0.58452293E+01  0.27867290E+01  0.47309551E+00
     atom    7 type  1   force =  -0.56398191E+01  0.25952104E+01 -0.41814593E+00
     atom    8 type  1   force =   0.45075153E+01  0.75092686E+01  0.37805455E+01
     atom    9 type  1   force =  -0.48624262E+00 -0.59321523E+01 -0.22438153E+01
     atom   10 type  1   force =   0.77232662E+01  0.55018663E+01  0.60392079E+01
     atom   11 type  1   force =  -0.67908972E+00 -0.48109392E+01  0.52914121E+00
     atom   12 type  1   force =   0.12052474E+01 -0.28125776E+01 -0.24956942E+01
     atom   13 type  1   force =   0.24120671E+01  0.12903957E+01 -0.38807205E+01
     atom   14 type  1   force =  -0.21004897E+01  0.33755284E+01 -0.44874601E+01
     atom   15 type  1   force =   0.17221260E+01 -0.12354159E+01  0.22961691E+01
     atom   16 type  1   force =  -0.11121871E+01 -0.58865152E+01 -0.66879007E+01
     The local contribution  to forces
     atom    1 type  1   force =  -0.46615955E+01  0.19866018E+00 -0.32593894E+01
     atom    2 type  1   force =   0.39936575E+01  0.41680656E+00  0.30326455E+01
     atom    3 type  1   force =   0.11589494E+01 -0.56402471E+01 -0.36431839E+01
     atom    4 type  1   force =   0.30145172E+01  0.26268718E+01 -0.17864040E+01
     atom    5 type  1   force =  -0.17619537E+01  0.46563577E+01 -0.13814806E+01
     atom    6 type  1   force =   0.56798004E+01 -0.27780374E+01 -0.48135875E+00
     atom    7 type  1   force =   0.56424715E+01 -0.25111038E+01  0.42652667E+00
     atom    8 type  1   force =  -0.44136701E+01 -0.73672535E+01 -0.37247494E+01
     atom    9 type  1   force =   0.44629783E+00  0.58441729E+01  0.22466670E+01
     atom   10 type  1   force =  -0.75678238E+01 -0.53354377E+01 -0.58679824E+01
     atom   11 type  1   force =   0.63665719E+00  0.47996084E+01 -0.51160504E+00
     atom   12 type  1   force =  -0.12221065E+01  0.26997849E+01  0.23927214E+01
     atom   13 type  1   force =  -0.23607060E+01 -0.12873349E+01  0.38615050E+01
     atom   14 type  1   force =   0.20110909E+01 -0.32952148E+01  0.43339649E+01
     atom   15 type  1   force =  -0.17253616E+01  0.12186787E+01 -0.22332906E+01
     atom   16 type  1   force =   0.11495587E+01  0.57321270E+01  0.65396155E+01
     The core correction contribution to forces
     atom    1 type  1   force =  -0.11466193E-01  0.10351845E-02 -0.39351141E-02
     atom    2 type  1   force =   0.10973453E-01 -0.30820653E-02  0.60558189E-02
     atom    3 type  1   force =   0.31582069E-02 -0.90493819E-02 -0.54777725E-02
     atom    4 type  1   force =   0.29373301E-02  0.68702954E-02 -0.31767559E-02
     atom    5 type  1   force =  -0.57293818E-02  0.10452852E-01 -0.59951115E-02
     atom    6 type  1   force =   0.81792199E-02 -0.65828345E-02  0.22854140E-02
     atom    7 type  1   force =   0.12094447E-01 -0.27898364E-02  0.12963163E-02
     atom    8 type  1   force =  -0.84677139E-02 -0.80665470E-02 -0.42705451E-02
     atom    9 type  1   force =   0.52751601E-02  0.16156352E-01  0.60599503E-02
     atom   10 type  1   force =  -0.11010039E-01 -0.11848801E-01 -0.11261924E-01
     atom   11 type  1   force =   0.12408092E-02  0.37325954E-02 -0.29204580E-02
     atom   12 type  1   force =  -0.49960516E-02  0.15172765E-02  0.79057583E-02
     atom   13 type  1   force =  -0.37657873E-02 -0.16988116E-02  0.53474929E-02
     atom   14 type  1   force =   0.45351327E-02 -0.62890793E-02  0.36687844E-02
     atom   15 type  1   force =  -0.33518631E-02  0.67397681E-03 -0.47528857E-02
     atom   16 type  1   force =   0.15039484E-02  0.84954779E-02  0.77992471E-02
     The Hubbard contrib.    to forces
     atom    1 type  1   force =   0.00000000E+00  0.00000000E+00  0.00000000E+00
     atom    2 type  1   force =   0.00000000E+00  0.00000000E+00  0.00000000E+00
     atom    3 type  1   force =   0.00000000E+00  0.00000000E+00  0.00000000E+00
     atom    4 type  1   force =   0.00000000E+00  0.00000000E+00  0.00000000E+00
     atom    5 type  1   force =   0.00000000E+00  0.00000000E+00  0.00000000E+00
     atom    6 type  1   force =   0.00000000E+00  0.00000000E+00  0.00000000E+00
     atom    7 type  1   force =   0.00000000E+00  0.00000000E+00  0.00000000E+00
     atom    8 type  1   force =   0.00000000E+00  0.00000000E+00  0.00000000E+00
     atom    9 type  1   force =   0.00000000E+00  0.00000000E+00  0.00000000E+00
     atom   10 type  1   force =   0.00000000E+00  0.00000000E+00  0.00000000E+00
     atom   11 type  1   force =   0.00000000E+00  0.00000000E+00  0.00000000E+00
     atom   12 type  1   force =   0.00000000E+00  0.00000000E+00  0.00000000E+00
     atom   13 type  1   force =   0.00000000E+00  0.00000000E+00  0.00000000E+00
     atom   14 type  1   force =   0.00000000E+00  0.00000000E+00  0.00000000E+00
     atom   15 type  1   force =   0.00000000E+00  0.00000000E+00  0.00000000E+00
     atom   16 type  1   force =   0.00000000E+00  0.00000000E+00  0.00000000E+00
     The SCF correction term to forces
     atom    1 type  1   force =  -0.12985261E-04  0.39902141E-05 -0.18306557E-05
     atom    2 type  1   force =   0.12379583E-04 -0.53017921E-05  0.39282753E-05
     atom    3 type  1   force =   0.52069578E-05 -0.72321008E-06  0.55366806E-05
     atom    4 type  1   force =   0.12102752E-04  0.38167042E-06 -0.11985323E-04
     atom    5 type  1   force =   0.61320239E-05  0.17428592E-05 -0.28030730E-05
     atom    6 type  1   force =   0.53011948E-05 -0.10879837E-04 -0.36760884E-05
     atom    7 type  1   force =  -0.52331803E-05 -0.19838313E-05  0.65964515E-05
     atom    8 type  1   force =  -0.49758501E-06 -0.85922413E-05 -0.14107093E-04
     atom    9 type  1   force =  -0.52677361E-05 -0.21718881E-05 -0.10650122E-04
     atom   10 type  1   force =  -0.17478406E-04 -0.37138238E-05  0.47959555E-06
     atom   11 type  1   force =   0.10632380E-04  0.10981501E-04 -0.79868661E-05
     atom   12 type  1   force =  -0.37285531E-05  0.74997532E-05  0.72556317E-05
     atom   13 type  1   force =   0.12346055E-04 -0.57108146E-05  0.11402581E-04
     atom   14 type  1   force =  -0.46939441E-05  0.27321922E-05  0.33234713E-05
     atom   15 type  1   force =  -0.12382940E-04 -0.82580830E-05  0.48642404E-05
     atom   16 type  1   force =  -0.22508757E-05  0.86031176E-05  0.42061986E-05

     Total force =     0.538591     Total SCF correction =     0.000054


     entering subroutine stress ...

          total   stress  (Ry/bohr**3)                   (kbar)     P=   43.28
   0.0002228987  -0.0000960406   0.0001063790         32.79    -14.13     15.65
  -0.0000960406   0.0003007522  -0.0000092574        -14.13     44.24     -1.36
   0.0001063790  -0.0000092574   0.0003589850         15.65     -1.36     52.81

     kinetic stress (kbar)  10068.16     17.77      5.21
                               17.77  10075.37     12.39
                                5.21     12.39  10075.13

     local   stress (kbar)   1336.72   3377.12   -268.32
                             3377.12   1900.23   2059.32
                             -268.32   2059.32    759.01

     nonloc. stress (kbar)   2979.94    -14.29      2.83
                              -14.29   2979.27     -7.77
                                2.83     -7.77   2983.98

     hartree stress (kbar)  26684.76  -1341.58     96.68
                            -1341.58  26431.65   -830.23
                               96.68   -830.23  26904.34

     exc-cor stress (kbar)  19581.75     -0.80      0.11
                               -0.80  19581.66     -0.45
                                0.11     -0.45  19581.90

     corecor stress (kbar) -29308.43      0.82     -0.30
                                0.82 -29308.49      0.36
                               -0.30      0.36 -29308.77

     ewald   stress (kbar) -31310.12  -2053.15    179.44
                            -2053.15 -31615.45  -1234.98
                              179.44  -1234.98 -30942.79

     hubbard stress (kbar)      0.00      0.00      0.00
                                0.00      0.00      0.00
                                0.00      0.00      0.00

     london  stress (kbar)      0.00      0.00      0.00
                                0.00      0.00      0.00
                                0.00      0.00      0.00

     XDM     stress (kbar)      0.00      0.00      0.00
                                0.00      0.00      0.00
                                0.00      0.00      0.00

     dft-nl  stress (kbar)      0.00      0.00      0.00
                                0.00      0.00      0.00
                                0.00      0.00      0.00



     Writing output data file Ge_diamond.scf.in.super.222.largdist.022.save

     init_run     :     35.33s CPU     31.17s WALL (       1 calls)
     electrons    :   1671.77s CPU   1814.80s WALL (       1 calls)
     forces       :     17.37s CPU     16.71s WALL (       1 calls)
     stress       :    123.45s CPU    124.52s WALL (       1 calls)

     Called by init_run:
     wfcinit      :     32.48s CPU     28.29s WALL (       1 calls)
     potinit      :      0.72s CPU      0.73s WALL (       1 calls)

     Called by electrons:
     c_bands      :   1451.28s CPU   1589.66s WALL (      12 calls)
     sum_band     :    207.30s CPU    211.52s WALL (      12 calls)
     v_of_rho     :      1.30s CPU      1.36s WALL (      12 calls)
     v_h          :      0.06s CPU      0.09s WALL (      12 calls)
     v_xc         :      1.46s CPU      1.49s WALL (      14 calls)
     newd         :     10.23s CPU     10.53s WALL (      12 calls)
     mix_rho      :      2.24s CPU      2.30s WALL (      12 calls)

     Called by c_bands:
     init_us_2    :      5.49s CPU      5.77s WALL (     972 calls)
     cegterg      :   1419.72s CPU   1556.03s WALL (     432 calls)

     Called by sum_band:
     sum_band:bec :      1.16s CPU      1.26s WALL (     432 calls)
     addusdens    :     10.08s CPU     10.41s WALL (      12 calls)

     Called by *egterg:
     h_psi        :    754.70s CPU    766.80s WALL (    1622 calls)
     s_psi        :     64.60s CPU     55.34s WALL (    1622 calls)
     g_psi        :      1.84s CPU      1.81s WALL (    1154 calls)
     cdiaghg      :    324.06s CPU    463.13s WALL (    1550 calls)
     cegterg:over :    131.28s CPU    125.49s WALL (    1154 calls)
     cegterg:upda :     45.65s CPU     42.64s WALL (    1154 calls)
     cegterg:last :     26.10s CPU     21.59s WALL (     432 calls)

     Called by h_psi:
     h_psi:vloc   :    591.51s CPU    616.68s WALL (    1622 calls)
     h_psi:vnl    :    160.32s CPU    146.98s WALL (    1622 calls)
     add_vuspsi   :     64.12s CPU     56.60s WALL (    1622 calls)

     General routines
     calbec       :    177.99s CPU    169.05s WALL (    2126 calls)
     fft          :      2.55s CPU      2.60s WALL (     217 calls)
     ffts         :      1.18s CPU      1.20s WALL (     366 calls)
     fftw         :    648.13s CPU    676.33s WALL (  335134 calls)
     interpolate  :      0.26s CPU      0.28s WALL (      24 calls)

     Parallel routines
     fft_scatter  :    370.21s CPU    385.65s WALL (  335717 calls)

     PWSCF        : 30m53.14s CPU    33m15.28s WALL


   This run was terminated on:  11:44: 8  27Sep2017            

=------------------------------------------------------------------------------=
   JOB DONE.
=------------------------------------------------------------------------------=
