
     Program PWSCF v.5.1 starts on 14Feb2017 at 10:43:41 

     This program is part of the open-source Quantum ESPRESSO suite
     for quantum simulation of materials; please cite
         "P. Giannozzi et al., J. Phys.:Condens. Matter 21 395502 (2009);
          URL http://www.quantum-espresso.org", 
     in publications or presentations arising from this work. More details at
     http://www.quantum-espresso.org/quote

     Parallel version (MPI), running on     8 processors
     R & G space division:  proc/nbgrp/npool/nimage =       8
     Reading input from /tmp/Ge_diamond.scf.in.super.222.03.30240/Ge_diamond.scf.in.super.222.03.t
Warning: card &IONS ignored
Warning: card   ION_DYNAMICS='BFGS', ignored
Warning: card / ignored
Warning: card &CELL ignored
Warning: card  CELL_DYNAMICS = 'BFGS' ignored
Warning: card / ignored
     Message from routine read_cards :
     DEPRECATED: no units specified in CELL_PARAMETERS card

     Current dimensions of program PWSCF are:
     Max number of different atomic species (ntypx) = 10
     Max number of k-points (npk) =  40000
     Max angular momentum in pseudopotentials (lmaxx) =  3

     Subspace diagonalization in iterative solution of the eigenvalue problem:
     a serial algorithm will be used


     Parallelization info
     --------------------
     sticks:   dense  smooth     PW     G-vecs:    dense   smooth      PW
     Min         397     277     76                14695     8616    1260
     Max         399     278     77                14696     8641    1261
     Sum        3181    2221    613               117565    69041   10081



     bravais-lattice index     =            0
     lattice parameter (alat)  =    15.161884076  a.u.
     unit-cell volume          =    2464.5891 (a.u.)^3
     number of atoms/cell      =           16
     number of atomic types    =            1
     number of electrons       =       224.00
     number of Kohn-Sham states=          134
     kinetic-energy cutoff     =      35.0000  Ry
     charge density cutoff     =     200.0000  Ry
     convergence threshold     =      1.0E-09
     mixing beta               =       0.3000
     number of iterations used =            8  local-TF  mixing
     Exchange-correlation      = SLA  PW   PSX  PSC ( 1  4 10  8 0)
     A smooth kinetic-energy cutoff is imposed at      34.5000 Ry
     height of the smooth step-function =             800.0000 Ry
     width of the smooth step-function  =               1.0000 Ry


     celldm(1)=  15.161884  celldm(2)=   0.000000  celldm(3)=   0.000000
     celldm(4)=   0.000000  celldm(5)=   0.000000  celldm(6)=   0.000000

     crystal axes: (cart. coord. in units of alat)
               a(1) = (   0.000000000000   0.707106781187   0.707106781187 )  
               a(2) = (   0.707106781187   0.000000000000   0.707106781187 )  
               a(3) = (   0.707106781187   0.707106781187  -0.000000000000 )  

     reciprocal axes: (cart. coord. in units 2 pi/alat)
               b(1) = ( -0.707107  0.707107  0.707107 )  
               b(2) = (  0.707107 -0.707107  0.707107 )  
               b(3) = (  0.707107  0.707107 -0.707107 )  


     PseudoPot. # 1 for Ge read from file:
     /users/kfg/psuedo/gbrv_1.5/ge.pbesol.UPF
     MD5 check sum: 7bed0412183f5e553a4d27ec7023354d
     Pseudo is Ultrasoft + core correction, Zval = 14.0
     Generated by new atomic code, or converted to UPF format
     Using radial grid of  873 points,  6 beta functions with: 
                l(1) =   0
                l(2) =   0
                l(3) =   1
                l(4) =   1
                l(5) =   2
                l(6) =   2
     Q(r) pseudized with  8 coefficients,  rinner =    1.400   1.400   1.400
                                                       1.400   1.400

     atomic species   valence    mass     pseudopotential
        Ge            14.00    72.64000     Ge( 1.00)

     No symmetry found


                                    s                        frac. trans.

      isym =  1     identity                                     

 cryst.   s( 1) = (     1          0          0      )
                  (     0          1          0      )
                  (     0          0          1      )

 cart.    s( 1) = (  1.0000000  0.0000000  0.0000000 )
                  (  0.0000000  1.0000000  0.0000000 )
                  (  0.0000000  0.0000000  1.0000000 )


     point group C_1 (1)    
     there are  1 classes
     the character table:

       E    
A      1.00

     the symmetry operations in each class:
     E        1

   Cartesian axes

     site n.     atom                  positions (alat units)
         1           Ge  tau(   1) = (   -0.00978803900   -0.00802520232    0.00110863911  )
         2           Ge  tau(   2) = (    0.17133836999    0.18601008344    0.16718247231  )
         3           Ge  tau(   3) = (    0.35489417588    0.34085288799   -0.00116441740  )
         4           Ge  tau(   4) = (    0.52772555714    0.51850829424    0.17972075312  )
         5           Ge  tau(   5) = (    0.35180047203   -0.01150832575    0.34432668168  )
         6           Ge  tau(   6) = (    0.53104903188    0.18303230273    0.54338087328  )
         7           Ge  tau(   7) = (    0.70477295303    0.36254652719    0.34248105672  )
         8           Ge  tau(   8) = (    0.89276985390    0.52026280939    0.53748551491  )
         9           Ge  tau(   9) = (    0.00881053267    0.34296199577    0.35487253870  )
        10           Ge  tau(  10) = (    0.17830541982    0.53341033784    0.53525450642  )
        11           Ge  tau(  11) = (    0.36183695255    0.70695276722    0.34242835857  )
        12           Ge  tau(  12) = (    0.53427743304    0.88774764882    0.52444383923  )
        13           Ge  tau(  13) = (    0.35805587689    0.35317972484    0.71000750145  )
        14           Ge  tau(  14) = (    0.52710927059    0.53430899031    0.88742588142  )
        15           Ge  tau(  15) = (    0.69603206787    0.70920345803    0.70003785566  )
        16           Ge  tau(  16) = (    0.87128754762    0.88745787977    0.87784732620  )

   Crystallographic axes

     site n.     atom                  positions (cryst. coord.)
         1           Ge  tau(   1) = (    0.00203044000   -0.00046258754   -0.01337978997  )
         2           Ge  tau(   2) = (    0.12859032794    0.10784139180    0.13446765480  )
         3           Ge  tau(   3) = (   -0.01075205732    0.00910532244    0.49279083429  )
         4           Ge  tau(   4) = (    0.12056417415    0.13359935235    0.61271728777  )
         5           Ge  tau(   5) = (   -0.01342238302    0.50037384614   -0.00285284734  )
         6           Ge  tau(   6) = (    0.13814331112    0.63031328941    0.12070345376  )
         7           Ge  tau(   7) = (    0.00018005122    0.48416130405    0.51253816452  )
         8           Ge  tau(   8) = (    0.11665739516    0.64346190960    0.61910532587  )
         9           Ge  tau(   9) = (    0.48721354407    0.01465201307   -0.00219203827  )
        10           Ge  tau(  10) = (    0.62957918672    0.12738499558    0.12477694737  )
        11           Ge  tau(  11) = (    0.48616714727   -0.00190031844    0.51361504410  )
        12           Ge  tau(  12) = (    0.62077898160    0.12089660854    0.63468578333  )
        13           Ge  tau(  13) = (    0.49860315879    0.50549907915    0.00086839804  )
        14           Ge  tau(  14) = (    0.63259582919    0.62241388792    0.12303119140  )
        15           Ge  tau(  15) = (    0.50431509413    0.48568793553    0.49865005470  )
        16           Ge  tau(  16) = (    0.63216594872    0.60929764568    0.62288902089  )

     number of k points=    36  gaussian smearing, width (Ry)=  0.0150
                       cart. coord. in units 2pi/alat
        k(    1) = (   0.0000000   0.0000000   0.0000000), wk =   0.0312500
        k(    2) = (   0.1767767   0.1767767  -0.1767767), wk =   0.0625000
        k(    3) = (  -0.3535534  -0.3535534   0.3535534), wk =   0.0312500
        k(    4) = (   0.3535534   0.0000000   0.0000000), wk =   0.0625000
        k(    5) = (  -0.1767767  -0.5303301   0.5303301), wk =   0.0625000
        k(    6) = (   0.0000000  -0.3535534   0.3535534), wk =   0.0625000
        k(    7) = (  -0.7071068   0.0000000   0.0000000), wk =   0.0312500
        k(    8) = (  -0.7071068   0.3535534   0.0000000), wk =   0.0625000
        k(    9) = (  -0.1767767  -0.1767767  -0.1767767), wk =   0.0625000
        k(   10) = (  -0.1767767   0.1767767   0.1767767), wk =   0.0625000
        k(   11) = (   0.1767767  -0.1767767   0.1767767), wk =   0.0625000
        k(   12) = (   0.3535534   0.3535534   0.3535534), wk =   0.0312500
        k(   13) = (   0.3535534  -0.3535534  -0.3535534), wk =   0.0312500
        k(   14) = (  -0.3535534   0.3535534  -0.3535534), wk =   0.0312500
        k(   15) = (   0.0000000   0.3535534   0.0000000), wk =   0.0625000
        k(   16) = (   0.0000000   0.0000000   0.3535534), wk =   0.0625000
        k(   17) = (   0.1767767   0.5303301   0.5303301), wk =   0.0625000
        k(   18) = (   0.1767767  -0.5303301  -0.5303301), wk =   0.0625000
        k(   19) = (  -0.1767767   0.5303301  -0.5303301), wk =   0.0625000
        k(   20) = (  -0.5303301  -0.1767767  -0.5303301), wk =   0.0625000
        k(   21) = (   0.5303301   0.1767767  -0.5303301), wk =   0.0625000
        k(   22) = (  -0.5303301   0.1767767   0.5303301), wk =   0.0625000
        k(   23) = (   0.5303301  -0.1767767   0.5303301), wk =   0.0625000
        k(   24) = (   0.5303301   0.5303301  -0.1767767), wk =   0.0625000
        k(   25) = (  -0.5303301   0.5303301   0.1767767), wk =   0.0625000
        k(   26) = (   0.5303301  -0.5303301   0.1767767), wk =   0.0625000
        k(   27) = (  -0.5303301  -0.5303301  -0.1767767), wk =   0.0625000
        k(   28) = (   0.0000000   0.3535534   0.3535534), wk =   0.0625000
        k(   29) = (  -0.3535534   0.0000000  -0.3535534), wk =   0.0625000
        k(   30) = (   0.3535534   0.0000000  -0.3535534), wk =   0.0625000
        k(   31) = (   0.3535534   0.3535534   0.0000000), wk =   0.0625000
        k(   32) = (  -0.3535534   0.3535534   0.0000000), wk =   0.0625000
        k(   33) = (   0.0000000  -0.7071068   0.0000000), wk =   0.0312500
        k(   34) = (   0.0000000   0.0000000  -0.7071068), wk =   0.0312500
        k(   35) = (   0.3535534  -0.7071068   0.0000000), wk =   0.0625000
        k(   36) = (   0.7071068  -0.0000000   0.3535534), wk =   0.0625000

                       cryst. coord.
        k(    1) = (   0.0000000   0.0000000   0.0000000), wk =   0.0312500
        k(    2) = (   0.0000000   0.0000000   0.2500000), wk =   0.0625000
        k(    3) = (   0.0000000   0.0000000  -0.5000000), wk =   0.0312500
        k(    4) = (   0.0000000   0.2500000   0.2500000), wk =   0.0625000
        k(    5) = (   0.0000000   0.2500000  -0.5000000), wk =   0.0625000
        k(    6) = (   0.0000000   0.2500000  -0.2500000), wk =   0.0625000
        k(    7) = (   0.0000000  -0.5000000  -0.5000000), wk =   0.0312500
        k(    8) = (   0.2500000  -0.5000000  -0.2500000), wk =   0.0625000
        k(    9) = (  -0.2500000  -0.2500000  -0.2500000), wk =   0.0625000
        k(   10) = (   0.2500000   0.0000000   0.0000000), wk =   0.0625000
        k(   11) = (   0.0000000   0.2500000   0.0000000), wk =   0.0625000
        k(   12) = (   0.5000000   0.5000000   0.5000000), wk =   0.0312500
        k(   13) = (  -0.5000000   0.0000000   0.0000000), wk =   0.0312500
        k(   14) = (   0.0000000  -0.5000000   0.0000000), wk =   0.0312500
        k(   15) = (   0.2500000   0.0000000   0.2500000), wk =   0.0625000
        k(   16) = (   0.2500000   0.2500000   0.0000000), wk =   0.0625000
        k(   17) = (   0.7500000   0.5000000   0.5000000), wk =   0.0625000
        k(   18) = (  -0.7500000  -0.2500000  -0.2500000), wk =   0.0625000
        k(   19) = (   0.0000000  -0.5000000   0.2500000), wk =   0.0625000
        k(   20) = (  -0.5000000  -0.7500000  -0.5000000), wk =   0.0625000
        k(   21) = (  -0.2500000   0.0000000   0.5000000), wk =   0.0625000
        k(   22) = (   0.5000000   0.0000000  -0.2500000), wk =   0.0625000
        k(   23) = (   0.2500000   0.7500000   0.2500000), wk =   0.0625000
        k(   24) = (   0.2500000   0.2500000   0.7500000), wk =   0.0625000
        k(   25) = (   0.5000000  -0.2500000   0.0000000), wk =   0.0625000
        k(   26) = (  -0.2500000   0.5000000   0.0000000), wk =   0.0625000
        k(   27) = (  -0.5000000  -0.5000000  -0.7500000), wk =   0.0625000
        k(   28) = (   0.5000000   0.2500000   0.2500000), wk =   0.0625000
        k(   29) = (  -0.2500000  -0.5000000  -0.2500000), wk =   0.0625000
        k(   30) = (  -0.2500000   0.0000000   0.2500000), wk =   0.0625000
        k(   31) = (   0.2500000   0.2500000   0.5000000), wk =   0.0625000
        k(   32) = (   0.2500000  -0.2500000   0.0000000), wk =   0.0625000
        k(   33) = (  -0.5000000   0.0000000  -0.5000000), wk =   0.0312500
        k(   34) = (  -0.5000000  -0.5000000   0.0000000), wk =   0.0312500
        k(   35) = (  -0.5000000   0.2500000  -0.2500000), wk =   0.0625000
        k(   36) = (   0.2500000   0.7500000   0.5000000), wk =   0.0625000

     Dense  grid:   117565 G-vectors     FFT dimensions: (  72,  72,  72)

     Smooth grid:    69041 G-vectors     FFT dimensions: (  60,  60,  60)

     Largest allocated arrays     est. size (Mb)     dimensions
        Kohn-Sham Wavefunctions         2.25 Mb     (    1100,  134)
        NL pseudopotentials             4.83 Mb     (    1100,  288)
        Each V/rho on FFT grid          0.71 Mb     (   46656)
        Each G-vector array             0.11 Mb     (   14696)
        G-vector shells                 0.01 Mb     (     776)
     Largest temporary arrays     est. size (Mb)     dimensions
        Auxiliary wavefunctions         9.00 Mb     (    1100,  536)
        Each subspace H/S matrix        4.38 Mb     (     536,  536)
        Each <psi_i|beta_j> matrix      0.59 Mb     (     288,  134)
        Arrays for rho mixing           5.70 Mb     (   46656,    8)

     Check: negative/imaginary core charge=   -0.000002    0.000000

     Initial potential from superposition of free atoms

     starting charge  223.98707, renormalised to  224.00000
     Starting wfc are  144 randomized atomic wfcs

     total cpu time spent up to now is       28.9 secs

     per-process dynamical memory:   105.7 Mb

     Self-consistent Calculation

     iteration #  1     ecut=    35.00 Ry     beta=0.30
     Davidson diagonalization with overlap
     ethr =  1.00E-02,  avg # of iterations =  4.0

     Threshold (ethr) on eigenvalues was too large:
     Diagonalizing with lowered threshold

     Davidson diagonalization with overlap
     ethr =  1.12E-04,  avg # of iterations =  5.7

     total cpu time spent up to now is      293.8 secs

     total energy              =   -3410.96683105 Ry
     Harris-Foulkes estimate   =   -3410.99430977 Ry
     estimated scf accuracy    <       0.26738466 Ry

     iteration #  2     ecut=    35.00 Ry     beta=0.30
     Davidson diagonalization with overlap
     ethr =  1.19E-04,  avg # of iterations =  1.0

     total cpu time spent up to now is      371.1 secs

     total energy              =   -3410.91605646 Ry
     Harris-Foulkes estimate   =   -3410.96776345 Ry
     estimated scf accuracy    <       0.16414040 Ry

     iteration #  3     ecut=    35.00 Ry     beta=0.30
     Davidson diagonalization with overlap
     ethr =  7.33E-05,  avg # of iterations =  2.0

     total cpu time spent up to now is      459.1 secs

     total energy              =   -3410.92471686 Ry
     Harris-Foulkes estimate   =   -3410.92520468 Ry
     estimated scf accuracy    <       0.00320397 Ry

     iteration #  4     ecut=    35.00 Ry     beta=0.30
     Davidson diagonalization with overlap
     ethr =  1.43E-06,  avg # of iterations =  5.4

     total cpu time spent up to now is      657.5 secs

     total energy              =   -3410.92531853 Ry
     Harris-Foulkes estimate   =   -3410.92536282 Ry
     estimated scf accuracy    <       0.00035718 Ry

     iteration #  5     ecut=    35.00 Ry     beta=0.30
     Davidson diagonalization with overlap
     ethr =  1.59E-07,  avg # of iterations =  2.0

     total cpu time spent up to now is      752.8 secs

     total energy              =   -3410.92531663 Ry
     Harris-Foulkes estimate   =   -3410.92534733 Ry
     estimated scf accuracy    <       0.00007595 Ry

     iteration #  6     ecut=    35.00 Ry     beta=0.30
     Davidson diagonalization with overlap
     ethr =  3.39E-08,  avg # of iterations =  2.0

     total cpu time spent up to now is      840.4 secs

     total energy              =   -3410.92532309 Ry
     Harris-Foulkes estimate   =   -3410.92532007 Ry
     estimated scf accuracy    <       0.00000434 Ry

     iteration #  7     ecut=    35.00 Ry     beta=0.30
     Davidson diagonalization with overlap
     ethr =  1.94E-09,  avg # of iterations =  2.0

     total cpu time spent up to now is      935.7 secs

     total energy              =   -3410.92532370 Ry
     Harris-Foulkes estimate   =   -3410.92532375 Ry
     estimated scf accuracy    <       0.00000311 Ry

     iteration #  8     ecut=    35.00 Ry     beta=0.30
     Davidson diagonalization with overlap
     ethr =  1.39E-09,  avg # of iterations =  2.0

     total cpu time spent up to now is     1026.3 secs

     total energy              =   -3410.92532423 Ry
     Harris-Foulkes estimate   =   -3410.92532389 Ry
     estimated scf accuracy    <       0.00000023 Ry

     iteration #  9     ecut=    35.00 Ry     beta=0.30
     Davidson diagonalization with overlap
     ethr =  1.04E-10,  avg # of iterations =  2.0

     total cpu time spent up to now is     1113.5 secs

     total energy              =   -3410.92532440 Ry
     Harris-Foulkes estimate   =   -3410.92532425 Ry
     estimated scf accuracy    <       0.00000013 Ry

     iteration # 10     ecut=    35.00 Ry     beta=0.30
     Davidson diagonalization with overlap
     ethr =  5.73E-11,  avg # of iterations =  2.0

     total cpu time spent up to now is     1205.2 secs

     total energy              =   -3410.92532448 Ry
     Harris-Foulkes estimate   =   -3410.92532442 Ry
     estimated scf accuracy    <       0.00000003 Ry

     iteration # 11     ecut=    35.00 Ry     beta=0.30
     Davidson diagonalization with overlap
     ethr =  1.37E-11,  avg # of iterations =  2.0

     total cpu time spent up to now is     1316.1 secs

     total energy              =   -3410.92532453 Ry
     Harris-Foulkes estimate   =   -3410.92532449 Ry
     estimated scf accuracy    <          1.7E-09 Ry

     iteration # 12     ecut=    35.00 Ry     beta=0.30
     Davidson diagonalization with overlap
     ethr =  7.40E-13,  avg # of iterations =  2.0

     total cpu time spent up to now is     1418.3 secs

     End of self-consistent calculation

          k = 0.0000 0.0000 0.0000 (  8609 PWs)   bands (ev):

   -16.8741 -16.8629 -16.8468 -16.8281 -16.7835 -16.7766 -16.7671 -16.7616
   -16.7307 -16.7214 -16.6932 -16.6929 -16.6831 -16.6522 -16.6440 -16.6319
   -16.6272 -16.6073 -16.6007 -16.5931 -16.5870 -16.5820 -16.5699 -16.5664
   -16.5623 -16.5519 -16.5454 -16.5408 -16.5382 -16.5297 -16.5222 -16.5211
   -16.5127 -16.5082 -16.4991 -16.4920 -16.4896 -16.4809 -16.4744 -16.4720
   -16.4651 -16.4614 -16.4532 -16.4473 -16.4441 -16.4379 -16.4317 -16.4249
   -16.4202 -16.4166 -16.4102 -16.4048 -16.4015 -16.3883 -16.3876 -16.3825
   -16.3723 -16.3619 -16.3522 -16.3508 -16.3493 -16.3350 -16.3337 -16.3327
   -16.3205 -16.3152 -16.3021 -16.2972 -16.2968 -16.2909 -16.2860 -16.2687
   -16.2653 -16.2620 -16.2545 -16.2536 -16.2360 -16.2273 -16.2008 -16.1983
    -4.5690  -2.6525  -2.6370  -2.4020  -2.2458  -0.9746  -0.8524  -0.7458
    -0.5688  -0.5433  -0.3470   0.3597   0.6412   0.8144   0.8907   5.0300
     5.0516   5.1316   5.1593   5.2326   5.2562   6.5227   6.6021   6.6723
     6.7532   6.8173   6.9660   7.1132   7.1549   7.9855   8.0456   8.1599
     8.2408   8.2990   8.3555   8.4067   8.5196   8.6329   8.6727   8.8660
     9.0057   9.0567   9.1627  10.5202  10.7220  10.9168  11.5283  11.6748
    11.7082  11.8925  11.9868  12.1938  12.2895  12.3243

     occupation numbers 
     1.0000   1.0000   1.0000   1.0000   1.0000   1.0000   1.0000   1.0000
     1.0000   1.0000   1.0000   1.0000   1.0000   1.0000   1.0000   1.0000
     1.0000   1.0000   1.0000   1.0000   1.0000   1.0000   1.0000   1.0000
     1.0000   1.0000   1.0000   1.0000   1.0000   1.0000   1.0000   1.0000
     1.0000   1.0000   1.0000   1.0000   1.0000   1.0000   1.0000   1.0000
     1.0000   1.0000   1.0000   1.0000   1.0000   1.0000   1.0000   1.0000
     1.0000   1.0000   1.0000   1.0000   1.0000   1.0000   1.0000   1.0000
     1.0000   1.0000   1.0000   1.0000   1.0000   1.0000   1.0000   1.0000
     1.0000   1.0000   1.0000   1.0000   1.0000   1.0000   1.0000   1.0000
     1.0000   1.0000   1.0000   1.0000   1.0000   1.0000   1.0000   1.0000
     1.0000   1.0000   1.0000   1.0000   1.0000   1.0000   1.0000   1.0000
     1.0000   1.0000   1.0000   1.0000   1.0000   1.0000   1.0000   1.0000
     1.0000   1.0000   1.0000   1.0000   1.0000   1.0000   1.0000   1.0000
     1.0000   1.0000   1.0000   1.0000   1.0000   0.9601   0.9092   0.7067
     0.4934   0.3371   0.2085   0.1217   0.0257   0.0031   0.0013   0.0000
     0.0000   0.0000   0.0000   0.0000   0.0000   0.0000   0.0000   0.0000
     0.0000   0.0000   0.0000   0.0000   0.0000   0.0000

          k = 0.1768 0.1768-0.1768 (  8627 PWs)   bands (ev):

   -16.8758 -16.8643 -16.8470 -16.8295 -16.7897 -16.7818 -16.7650 -16.7541
   -16.7305 -16.7193 -16.6925 -16.6907 -16.6809 -16.6512 -16.6454 -16.6327
   -16.6230 -16.6089 -16.5993 -16.5962 -16.5847 -16.5810 -16.5719 -16.5661
   -16.5619 -16.5557 -16.5502 -16.5407 -16.5365 -16.5308 -16.5251 -16.5220
   -16.5075 -16.5019 -16.4950 -16.4904 -16.4837 -16.4776 -16.4750 -16.4704
   -16.4665 -16.4602 -16.4527 -16.4502 -16.4409 -16.4359 -16.4343 -16.4293
   -16.4219 -16.4183 -16.4138 -16.4044 -16.4015 -16.3934 -16.3890 -16.3847
   -16.3747 -16.3664 -16.3582 -16.3531 -16.3484 -16.3386 -16.3360 -16.3321
   -16.3200 -16.3143 -16.3060 -16.3019 -16.2959 -16.2900 -16.2816 -16.2682
   -16.2649 -16.2589 -16.2525 -16.2499 -16.2333 -16.2272 -16.1997 -16.1978
    -4.3854  -3.0456  -2.5504  -2.4713  -2.1467  -1.5944  -1.5254  -1.2357
     0.0450   0.2239   0.3414   0.5409   0.9066   1.0093   1.6159   4.5106
     4.6478   4.7021   5.2047   5.3068   5.3818   5.4342   5.5703   5.7403
     5.9685   6.4032   6.4764   6.5983   6.8372   7.1217   7.7436   8.1562
     8.3675   8.7686   9.0185   9.0667   9.2553   9.4198   9.4941   9.6491
     9.8862  10.1671  10.2386  10.9844  11.2754  11.5271  11.5840  11.6708
    11.7373  11.8666  12.2723  12.6625  12.7493  12.8443

     occupation numbers 
     1.0000   1.0000   1.0000   1.0000   1.0000   1.0000   1.0000   1.0000
     1.0000   1.0000   1.0000   1.0000   1.0000   1.0000   1.0000   1.0000
     1.0000   1.0000   1.0000   1.0000   1.0000   1.0000   1.0000   1.0000
     1.0000   1.0000   1.0000   1.0000   1.0000   1.0000   1.0000   1.0000
     1.0000   1.0000   1.0000   1.0000   1.0000   1.0000   1.0000   1.0000
     1.0000   1.0000   1.0000   1.0000   1.0000   1.0000   1.0000   1.0000
     1.0000   1.0000   1.0000   1.0000   1.0000   1.0000   1.0000   1.0000
     1.0000   1.0000   1.0000   1.0000   1.0000   1.0000   1.0000   1.0000
     1.0000   1.0000   1.0000   1.0000   1.0000   1.0000   1.0000   1.0000
     1.0000   1.0000   1.0000   1.0000   1.0000   1.0000   1.0000   1.0000
     1.0000   1.0000   1.0000   1.0000   1.0000   1.0000   1.0000   1.0000
     1.0000   1.0000   1.0000   1.0000   1.0000   1.0000   1.0000   1.0000
     1.0000   1.0000   1.0000   1.0000   1.0000   1.0000   1.0000   1.0000
     1.0000   1.0000   1.0000   1.0000   1.0000   1.0000   0.9997   0.7156
     0.1855   0.0001   0.0000   0.0000   0.0000   0.0000   0.0000   0.0000
     0.0000   0.0000   0.0000   0.0000   0.0000   0.0000   0.0000   0.0000
     0.0000   0.0000   0.0000   0.0000   0.0000   0.0000

          k =-0.3536-0.3536 0.3536 (  8646 PWs)   bands (ev):

   -16.8770 -16.8659 -16.8472 -16.8309 -16.7936 -16.7842 -16.7645 -16.7495
   -16.7299 -16.7174 -16.6910 -16.6892 -16.6785 -16.6513 -16.6440 -16.6355
   -16.6164 -16.6082 -16.6006 -16.5925 -16.5874 -16.5825 -16.5727 -16.5698
   -16.5640 -16.5574 -16.5476 -16.5429 -16.5350 -16.5330 -16.5231 -16.5217
   -16.5051 -16.5008 -16.4919 -16.4858 -16.4816 -16.4735 -16.4709 -16.4695
   -16.4623 -16.4545 -16.4520 -16.4492 -16.4435 -16.4426 -16.4351 -16.4319
   -16.4217 -16.4208 -16.4152 -16.4069 -16.4010 -16.3989 -16.3912 -16.3878
   -16.3773 -16.3695 -16.3643 -16.3546 -16.3510 -16.3395 -16.3351 -16.3328
   -16.3203 -16.3139 -16.3071 -16.3048 -16.2963 -16.2881 -16.2792 -16.2674
   -16.2636 -16.2568 -16.2501 -16.2473 -16.2307 -16.2268 -16.1991 -16.1970
    -3.9498  -3.7202  -2.3982  -2.3065  -2.0400  -2.0366  -1.8142  -1.6630
     0.4440   0.6347   0.7338   0.8775   1.0867   1.2306   3.4053   3.4439
     4.2270   4.3454   4.5510   4.6116   4.6655   4.7736   5.6051   5.7225
     5.7784   5.8694   5.9438   6.1155   7.1278   7.1900   7.3846   7.8111
     8.5978   8.9143   9.1781   9.4397   9.4862   9.5470   9.5688   9.9299
    11.4353  11.6044  11.8957  12.0440  12.1348  12.2840  12.3247  12.4247
    12.4754  12.5491  13.1184  13.3030  13.3708  13.6043

     occupation numbers 
     1.0000   1.0000   1.0000   1.0000   1.0000   1.0000   1.0000   1.0000
     1.0000   1.0000   1.0000   1.0000   1.0000   1.0000   1.0000   1.0000
     1.0000   1.0000   1.0000   1.0000   1.0000   1.0000   1.0000   1.0000
     1.0000   1.0000   1.0000   1.0000   1.0000   1.0000   1.0000   1.0000
     1.0000   1.0000   1.0000   1.0000   1.0000   1.0000   1.0000   1.0000
     1.0000   1.0000   1.0000   1.0000   1.0000   1.0000   1.0000   1.0000
     1.0000   1.0000   1.0000   1.0000   1.0000   1.0000   1.0000   1.0000
     1.0000   1.0000   1.0000   1.0000   1.0000   1.0000   1.0000   1.0000
     1.0000   1.0000   1.0000   1.0000   1.0000   1.0000   1.0000   1.0000
     1.0000   1.0000   1.0000   1.0000   1.0000   1.0000   1.0000   1.0000
     1.0000   1.0000   1.0000   1.0000   1.0000   1.0000   1.0000   1.0000
     1.0000   1.0000   1.0000   1.0000   1.0000   1.0000   1.0000   1.0000
     1.0000   1.0000   1.0000   1.0000   1.0000   1.0000   1.0000   1.0000
     1.0000   1.0000   1.0000   1.0000   1.0000   1.0000   1.0000   0.9985
     0.0064   0.0000   0.0000   0.0000   0.0000   0.0000   0.0000   0.0000
     0.0000   0.0000   0.0000   0.0000   0.0000   0.0000   0.0000   0.0000
     0.0000   0.0000   0.0000   0.0000   0.0000   0.0000

          k = 0.3536 0.0000 0.0000 (  8620 PWs)   bands (ev):

   -16.8757 -16.8648 -16.8491 -16.8302 -16.7899 -16.7815 -16.7655 -16.7534
   -16.7304 -16.7188 -16.6915 -16.6887 -16.6803 -16.6484 -16.6450 -16.6354
   -16.6228 -16.6062 -16.6037 -16.5949 -16.5868 -16.5845 -16.5722 -16.5684
   -16.5618 -16.5529 -16.5491 -16.5427 -16.5383 -16.5334 -16.5201 -16.5160
   -16.5059 -16.5021 -16.4943 -16.4907 -16.4859 -16.4773 -16.4732 -16.4680
   -16.4647 -16.4592 -16.4545 -16.4480 -16.4432 -16.4376 -16.4346 -16.4294
   -16.4220 -16.4196 -16.4106 -16.4066 -16.4040 -16.3920 -16.3885 -16.3850
   -16.3799 -16.3685 -16.3603 -16.3506 -16.3444 -16.3415 -16.3386 -16.3309
   -16.3184 -16.3141 -16.3056 -16.3007 -16.2977 -16.2934 -16.2859 -16.2683
   -16.2637 -16.2593 -16.2525 -16.2477 -16.2315 -16.2258 -16.1986 -16.1970
    -4.3220  -2.8286  -2.7010  -2.5273  -2.3984  -2.2071  -0.8956  -0.6830
    -0.4854  -0.3655   0.8243   1.0158   1.1174   1.2612   1.5033   4.5219
     4.5999   4.6716   4.7479   5.2323   5.3184   5.3757   5.4611   5.4926
     5.6126   5.8747   6.6495   6.7608   6.8801   6.9706   7.4081   7.4591
     8.6723   9.3696   9.4314   9.5431   9.5877   9.6334   9.9181   9.9678
    10.1012  10.1725  10.2769  10.4537  11.6266  11.7453  11.8484  11.9039
    12.0530  12.1031  12.2144  12.3578  12.6367  12.6919

     occupation numbers 
     1.0000   1.0000   1.0000   1.0000   1.0000   1.0000   1.0000   1.0000
     1.0000   1.0000   1.0000   1.0000   1.0000   1.0000   1.0000   1.0000
     1.0000   1.0000   1.0000   1.0000   1.0000   1.0000   1.0000   1.0000
     1.0000   1.0000   1.0000   1.0000   1.0000   1.0000   1.0000   1.0000
     1.0000   1.0000   1.0000   1.0000   1.0000   1.0000   1.0000   1.0000
     1.0000   1.0000   1.0000   1.0000   1.0000   1.0000   1.0000   1.0000
     1.0000   1.0000   1.0000   1.0000   1.0000   1.0000   1.0000   1.0000
     1.0000   1.0000   1.0000   1.0000   1.0000   1.0000   1.0000   1.0000
     1.0000   1.0000   1.0000   1.0000   1.0000   1.0000   1.0000   1.0000
     1.0000   1.0000   1.0000   1.0000   1.0000   1.0000   1.0000   1.0000
     1.0000   1.0000   1.0000   1.0000   1.0000   1.0000   1.0000   1.0000
     1.0000   1.0000   1.0000   1.0000   1.0000   1.0000   1.0000   1.0000
     1.0000   1.0000   1.0000   1.0000   1.0000   1.0000   1.0000   1.0000
     1.0000   1.0000   1.0000   1.0000   1.0000   1.0000   1.0000   1.0000
     0.0013   0.0000   0.0000   0.0000   0.0000   0.0000   0.0000   0.0000
     0.0000   0.0000   0.0000   0.0000   0.0000   0.0000   0.0000   0.0000
     0.0000   0.0000   0.0000   0.0000   0.0000   0.0000

          k =-0.1768-0.5303 0.5303 (  8605 PWs)   bands (ev):

   -16.8769 -16.8662 -16.8491 -16.8315 -16.7937 -16.7841 -16.7652 -16.7486
   -16.7295 -16.7176 -16.6898 -16.6869 -16.6779 -16.6499 -16.6418 -16.6384
   -16.6156 -16.6092 -16.6014 -16.5925 -16.5880 -16.5845 -16.5764 -16.5679
   -16.5646 -16.5549 -16.5506 -16.5433 -16.5406 -16.5336 -16.5191 -16.5146
   -16.5021 -16.4981 -16.4891 -16.4878 -16.4847 -16.4734 -16.4704 -16.4653
   -16.4640 -16.4548 -16.4531 -16.4484 -16.4431 -16.4417 -16.4353 -16.4312
   -16.4287 -16.4203 -16.4139 -16.4058 -16.4025 -16.3974 -16.3918 -16.3886
   -16.3795 -16.3741 -16.3674 -16.3521 -16.3489 -16.3402 -16.3378 -16.3314
   -16.3185 -16.3142 -16.3068 -16.3030 -16.2971 -16.2940 -16.2828 -16.2677
   -16.2621 -16.2567 -16.2500 -16.2452 -16.2290 -16.2256 -16.1984 -16.1958
    -3.9150  -3.4316  -2.8887  -2.6413  -2.4155  -1.8663  -1.4786  -1.1497
    -0.0125   0.3563   0.6302   1.2631   1.5280   2.1447   2.7165   3.7257
     4.0200   4.1805   4.2669   4.6116   4.7891   5.0486   5.1492   5.4343
     5.6286   5.8061   6.0596   6.2057   6.3278   6.7092   6.9083   7.3717
     9.3451   9.6199   9.7815  10.0507  10.2332  10.3533  10.5278  10.6606
    10.8350  10.9052  11.4465  11.6926  11.8652  12.1222  12.2474  12.4099
    12.7258  12.8480  12.9526  13.0346  13.1736  13.2708

     occupation numbers 
     1.0000   1.0000   1.0000   1.0000   1.0000   1.0000   1.0000   1.0000
     1.0000   1.0000   1.0000   1.0000   1.0000   1.0000   1.0000   1.0000
     1.0000   1.0000   1.0000   1.0000   1.0000   1.0000   1.0000   1.0000
     1.0000   1.0000   1.0000   1.0000   1.0000   1.0000   1.0000   1.0000
     1.0000   1.0000   1.0000   1.0000   1.0000   1.0000   1.0000   1.0000
     1.0000   1.0000   1.0000   1.0000   1.0000   1.0000   1.0000   1.0000
     1.0000   1.0000   1.0000   1.0000   1.0000   1.0000   1.0000   1.0000
     1.0000   1.0000   1.0000   1.0000   1.0000   1.0000   1.0000   1.0000
     1.0000   1.0000   1.0000   1.0000   1.0000   1.0000   1.0000   1.0000
     1.0000   1.0000   1.0000   1.0000   1.0000   1.0000   1.0000   1.0000
     1.0000   1.0000   1.0000   1.0000   1.0000   1.0000   1.0000   1.0000
     1.0000   1.0000   1.0000   1.0000   1.0000   1.0000   1.0000   1.0000
     1.0000   1.0000   1.0000   1.0000   1.0000   1.0000   1.0000   1.0000
     1.0000   1.0000   1.0000   1.0000   1.0000   1.0000   1.0000   1.0000
     0.0000   0.0000   0.0000   0.0000   0.0000   0.0000   0.0000   0.0000
     0.0000   0.0000   0.0000   0.0000   0.0000   0.0000   0.0000   0.0000
     0.0000   0.0000   0.0000   0.0000   0.0000   0.0000

          k = 0.0000-0.3536 0.3536 (  8602 PWs)   bands (ev):

   -16.8761 -16.8647 -16.8492 -16.8305 -16.7904 -16.7817 -16.7662 -16.7542
   -16.7307 -16.7202 -16.6924 -16.6897 -16.6811 -16.6503 -16.6448 -16.6351
   -16.6215 -16.6072 -16.5961 -16.5925 -16.5864 -16.5810 -16.5704 -16.5635
   -16.5572 -16.5561 -16.5522 -16.5380 -16.5355 -16.5316 -16.5208 -16.5155
   -16.5088 -16.4963 -16.4914 -16.4881 -16.4848 -16.4762 -16.4714 -16.4690
   -16.4665 -16.4636 -16.4573 -16.4506 -16.4433 -16.4395 -16.4375 -16.4330
   -16.4257 -16.4215 -16.4135 -16.4115 -16.4087 -16.3945 -16.3911 -16.3834
   -16.3773 -16.3667 -16.3585 -16.3518 -16.3465 -16.3410 -16.3352 -16.3329
   -16.3183 -16.3125 -16.3097 -16.3025 -16.2948 -16.2922 -16.2819 -16.2679
   -16.2634 -16.2564 -16.2513 -16.2478 -16.2310 -16.2255 -16.1984 -16.1968
    -4.0963  -3.1930  -3.0618  -2.3870  -2.0952  -1.9840  -1.6913  -1.1325
    -0.0637   0.3103   0.7806   1.0071   1.2241   2.0273   2.1902   3.8906
     4.3104   4.3727   4.7224   4.7722   4.8278   5.1983   5.3786   5.5682
     5.7861   5.9298   6.0472   6.1574   6.3686   6.5603   6.7221   7.8951
     9.2135   9.5595   9.7459   9.8624   9.9808  10.0525  10.4012  10.5262
    10.6340  10.8309  11.2677  11.2871  11.3867  11.4415  11.6014  11.7342
    12.2465  12.7994  12.9707  13.1201  13.5673  13.6711

     occupation numbers 
     1.0000   1.0000   1.0000   1.0000   1.0000   1.0000   1.0000   1.0000
     1.0000   1.0000   1.0000   1.0000   1.0000   1.0000   1.0000   1.0000
     1.0000   1.0000   1.0000   1.0000   1.0000   1.0000   1.0000   1.0000
     1.0000   1.0000   1.0000   1.0000   1.0000   1.0000   1.0000   1.0000
     1.0000   1.0000   1.0000   1.0000   1.0000   1.0000   1.0000   1.0000
     1.0000   1.0000   1.0000   1.0000   1.0000   1.0000   1.0000   1.0000
     1.0000   1.0000   1.0000   1.0000   1.0000   1.0000   1.0000   1.0000
     1.0000   1.0000   1.0000   1.0000   1.0000   1.0000   1.0000   1.0000
     1.0000   1.0000   1.0000   1.0000   1.0000   1.0000   1.0000   1.0000
     1.0000   1.0000   1.0000   1.0000   1.0000   1.0000   1.0000   1.0000
     1.0000   1.0000   1.0000   1.0000   1.0000   1.0000   1.0000   1.0000
     1.0000   1.0000   1.0000   1.0000   1.0000   1.0000   1.0000   1.0000
     1.0000   1.0000   1.0000   1.0000   1.0000   1.0000   1.0000   1.0000
     1.0000   1.0000   1.0000   1.0000   1.0000   1.0000   1.0000   0.9913
     0.0000   0.0000   0.0000   0.0000   0.0000   0.0000   0.0000   0.0000
     0.0000   0.0000   0.0000   0.0000   0.0000   0.0000   0.0000   0.0000
     0.0000   0.0000   0.0000   0.0000   0.0000   0.0000

          k =-0.7071 0.0000 0.0000 (  8616 PWs)   bands (ev):

   -16.8768 -16.8666 -16.8511 -16.8321 -16.7938 -16.7839 -16.7657 -16.7479
   -16.7293 -16.7179 -16.6891 -16.6840 -16.6771 -16.6494 -16.6414 -16.6372
   -16.6153 -16.6100 -16.6047 -16.5909 -16.5895 -16.5870 -16.5771 -16.5716
   -16.5615 -16.5563 -16.5502 -16.5431 -16.5397 -16.5361 -16.5160 -16.5137
   -16.4948 -16.4941 -16.4920 -16.4872 -16.4859 -16.4745 -16.4719 -16.4647
   -16.4620 -16.4577 -16.4506 -16.4463 -16.4458 -16.4433 -16.4354 -16.4306
   -16.4278 -16.4196 -16.4155 -16.4106 -16.4028 -16.3952 -16.3902 -16.3873
   -16.3847 -16.3756 -16.3685 -16.3505 -16.3499 -16.3413 -16.3404 -16.3316
   -16.3184 -16.3144 -16.3082 -16.3007 -16.2981 -16.2950 -16.2863 -16.2674
   -16.2616 -16.2571 -16.2504 -16.2442 -16.2284 -16.2231 -16.1984 -16.1943
    -3.6963  -3.4757  -2.8887  -2.7655  -2.5779  -2.4091  -0.8544  -0.6216
    -0.4338  -0.2984   1.5570   1.6040   1.7583   1.8090   3.3327   3.5130
     4.1066   4.1902   4.2332   4.3178   4.3879   4.4152   4.5331   4.5901
     6.0428   6.1331   6.2922   6.3203   6.6203   6.7693   6.8478   6.9737
     9.0634   9.1805   9.9550  10.0088  10.1356  10.1775  10.7573  10.9197
    12.2728  12.3648  12.3907  12.4734  12.5814  12.6516  12.7059  12.8077
    12.8193  12.9154  13.0513  13.1097  13.1591  13.2297

     occupation numbers 
     1.0000   1.0000   1.0000   1.0000   1.0000   1.0000   1.0000   1.0000
     1.0000   1.0000   1.0000   1.0000   1.0000   1.0000   1.0000   1.0000
     1.0000   1.0000   1.0000   1.0000   1.0000   1.0000   1.0000   1.0000
     1.0000   1.0000   1.0000   1.0000   1.0000   1.0000   1.0000   1.0000
     1.0000   1.0000   1.0000   1.0000   1.0000   1.0000   1.0000   1.0000
     1.0000   1.0000   1.0000   1.0000   1.0000   1.0000   1.0000   1.0000
     1.0000   1.0000   1.0000   1.0000   1.0000   1.0000   1.0000   1.0000
     1.0000   1.0000   1.0000   1.0000   1.0000   1.0000   1.0000   1.0000
     1.0000   1.0000   1.0000   1.0000   1.0000   1.0000   1.0000   1.0000
     1.0000   1.0000   1.0000   1.0000   1.0000   1.0000   1.0000   1.0000
     1.0000   1.0000   1.0000   1.0000   1.0000   1.0000   1.0000   1.0000
     1.0000   1.0000   1.0000   1.0000   1.0000   1.0000   1.0000   1.0000
     1.0000   1.0000   1.0000   1.0000   1.0000   1.0000   1.0000   1.0000
     1.0000   1.0000   1.0000   1.0000   1.0000   1.0000   1.0000   1.0000
     0.0000   0.0000   0.0000   0.0000   0.0000   0.0000   0.0000   0.0000
     0.0000   0.0000   0.0000   0.0000   0.0000   0.0000   0.0000   0.0000
     0.0000   0.0000   0.0000   0.0000   0.0000   0.0000

          k =-0.7071 0.3536 0.0000 (  8652 PWs)   bands (ev):

   -16.8763 -16.8674 -16.8504 -16.8322 -16.7939 -16.7856 -16.7616 -16.7480
   -16.7283 -16.7194 -16.6908 -16.6827 -16.6751 -16.6515 -16.6462 -16.6382
   -16.6165 -16.6109 -16.6010 -16.5911 -16.5893 -16.5857 -16.5785 -16.5680
   -16.5615 -16.5548 -16.5507 -16.5424 -16.5371 -16.5308 -16.5155 -16.5085
   -16.5041 -16.4982 -16.4919 -16.4867 -16.4785 -16.4772 -16.4735 -16.4687
   -16.4625 -16.4588 -16.4541 -16.4469 -16.4438 -16.4411 -16.4377 -16.4308
   -16.4259 -16.4198 -16.4160 -16.4094 -16.4035 -16.3980 -16.3947 -16.3863
   -16.3837 -16.3718 -16.3626 -16.3557 -16.3457 -16.3423 -16.3375 -16.3333
   -16.3216 -16.3097 -16.3048 -16.3008 -16.2961 -16.2940 -16.2817 -16.2731
   -16.2669 -16.2546 -16.2490 -16.2452 -16.2311 -16.2274 -16.1960 -16.1923
    -3.5889  -3.4012  -3.2074  -3.1544  -1.8902  -1.7793  -1.6423  -1.3976
     0.3016   0.5578   0.6269   0.7413   2.6315   2.7367   2.8624   3.0207
     3.7830   3.9015   4.0172   4.1336   5.0882   5.1460   5.3253   5.4075
     5.4919   5.5801   5.6750   5.7448   6.5213   6.5814   6.7164   6.8850
    10.2472  10.3332  10.4392  10.5436  10.6349  10.7090  10.7883  10.8557
    10.8812  11.0040  11.0754  11.1748  12.4052  12.4949  12.5258  12.6286
    12.7558  12.7945  12.8945  12.9668  13.0365  13.1609

     occupation numbers 
     1.0000   1.0000   1.0000   1.0000   1.0000   1.0000   1.0000   1.0000
     1.0000   1.0000   1.0000   1.0000   1.0000   1.0000   1.0000   1.0000
     1.0000   1.0000   1.0000   1.0000   1.0000   1.0000   1.0000   1.0000
     1.0000   1.0000   1.0000   1.0000   1.0000   1.0000   1.0000   1.0000
     1.0000   1.0000   1.0000   1.0000   1.0000   1.0000   1.0000   1.0000
     1.0000   1.0000   1.0000   1.0000   1.0000   1.0000   1.0000   1.0000
     1.0000   1.0000   1.0000   1.0000   1.0000   1.0000   1.0000   1.0000
     1.0000   1.0000   1.0000   1.0000   1.0000   1.0000   1.0000   1.0000
     1.0000   1.0000   1.0000   1.0000   1.0000   1.0000   1.0000   1.0000
     1.0000   1.0000   1.0000   1.0000   1.0000   1.0000   1.0000   1.0000
     1.0000   1.0000   1.0000   1.0000   1.0000   1.0000   1.0000   1.0000
     1.0000   1.0000   1.0000   1.0000   1.0000   1.0000   1.0000   1.0000
     1.0000   1.0000   1.0000   1.0000   1.0000   1.0000   1.0000   1.0000
     1.0000   1.0000   1.0000   1.0000   1.0000   1.0000   1.0000   1.0000
     0.0000   0.0000   0.0000   0.0000   0.0000   0.0000   0.0000   0.0000
     0.0000   0.0000   0.0000   0.0000   0.0000   0.0000   0.0000   0.0000
     0.0000   0.0000   0.0000   0.0000   0.0000   0.0000

          k =-0.1768-0.1768-0.1768 (  8627 PWs)   bands (ev):

   -16.8752 -16.8642 -16.8484 -16.8297 -16.7879 -16.7790 -16.7641 -16.7580
   -16.7309 -16.7199 -16.6920 -16.6871 -16.6772 -16.6536 -16.6453 -16.6353
   -16.6293 -16.6076 -16.6025 -16.5974 -16.5871 -16.5801 -16.5738 -16.5669
   -16.5595 -16.5531 -16.5448 -16.5414 -16.5370 -16.5301 -16.5208 -16.5176
   -16.5095 -16.5028 -16.4951 -16.4918 -16.4862 -16.4808 -16.4768 -16.4696
   -16.4659 -16.4624 -16.4559 -16.4500 -16.4453 -16.4367 -16.4304 -16.4246
   -16.4203 -16.4163 -16.4127 -16.4056 -16.4037 -16.3923 -16.3868 -16.3827
   -16.3756 -16.3687 -16.3616 -16.3536 -16.3429 -16.3391 -16.3326 -16.3295
   -16.3235 -16.3123 -16.3030 -16.2986 -16.2949 -16.2909 -16.2807 -16.2742
   -16.2665 -16.2603 -16.2532 -16.2504 -16.2367 -16.2307 -16.1976 -16.1946
    -4.3869  -3.1081  -2.5341  -2.3230  -2.2008  -1.6105  -1.4926  -1.2476
     0.0511   0.1482   0.3438   0.5337   0.8076   0.9506   1.7366   4.6129
     4.6782   4.7656   5.1991   5.2698   5.3731   5.5516   5.6486   5.7764
     6.0396   6.3263   6.4158   6.4888   6.8702   7.1025   7.7419   8.0190
     8.2892   8.7875   8.8421   9.0822   9.1118   9.4650   9.5127   9.6866
     9.9325  10.1333  10.2582  11.1086  11.2806  11.4778  11.5822  11.6451
    11.7429  11.8031  12.1107  12.7663  12.9107  12.9522

     occupation numbers 
     1.0000   1.0000   1.0000   1.0000   1.0000   1.0000   1.0000   1.0000
     1.0000   1.0000   1.0000   1.0000   1.0000   1.0000   1.0000   1.0000
     1.0000   1.0000   1.0000   1.0000   1.0000   1.0000   1.0000   1.0000
     1.0000   1.0000   1.0000   1.0000   1.0000   1.0000   1.0000   1.0000
     1.0000   1.0000   1.0000   1.0000   1.0000   1.0000   1.0000   1.0000
     1.0000   1.0000   1.0000   1.0000   1.0000   1.0000   1.0000   1.0000
     1.0000   1.0000   1.0000   1.0000   1.0000   1.0000   1.0000   1.0000
     1.0000   1.0000   1.0000   1.0000   1.0000   1.0000   1.0000   1.0000
     1.0000   1.0000   1.0000   1.0000   1.0000   1.0000   1.0000   1.0000
     1.0000   1.0000   1.0000   1.0000   1.0000   1.0000   1.0000   1.0000
     1.0000   1.0000   1.0000   1.0000   1.0000   1.0000   1.0000   1.0000
     1.0000   1.0000   1.0000   1.0000   1.0000   1.0000   1.0000   1.0000
     1.0000   1.0000   1.0000   1.0000   1.0000   1.0000   1.0000   1.0000
     1.0000   1.0000   1.0000   1.0000   1.0000   1.0000   0.9997   0.9358
     0.3625   0.0001   0.0000   0.0000   0.0000   0.0000   0.0000   0.0000
     0.0000   0.0000   0.0000   0.0000   0.0000   0.0000   0.0000   0.0000
     0.0000   0.0000   0.0000   0.0000   0.0000   0.0000

          k =-0.1768 0.1768 0.1768 (  8627 PWs)   bands (ev):

   -16.8751 -16.8658 -16.8471 -16.8298 -16.7896 -16.7852 -16.7610 -16.7527
   -16.7282 -16.7212 -16.6940 -16.6883 -16.6792 -16.6511 -16.6453 -16.6371
   -16.6248 -16.6080 -16.6045 -16.5940 -16.5841 -16.5831 -16.5786 -16.5658
   -16.5598 -16.5549 -16.5502 -16.5393 -16.5374 -16.5287 -16.5199 -16.5126
   -16.5075 -16.5034 -16.4984 -16.4913 -16.4879 -16.4751 -16.4736 -16.4688
   -16.4615 -16.4597 -16.4542 -16.4499 -16.4408 -16.4381 -16.4332 -16.4280
   -16.4230 -16.4166 -16.4106 -16.4080 -16.4044 -16.3956 -16.3906 -16.3840
   -16.3776 -16.3637 -16.3609 -16.3504 -16.3463 -16.3392 -16.3363 -16.3324
   -16.3207 -16.3114 -16.3031 -16.2995 -16.2956 -16.2913 -16.2872 -16.2765
   -16.2703 -16.2606 -16.2501 -16.2479 -16.2329 -16.2278 -16.1962 -16.1940
    -4.3807  -3.0334  -2.5520  -2.3951  -2.2554  -1.5973  -1.5043  -1.3810
     0.1214   0.2742   0.3796   0.7754   0.8913   1.0555   1.4201   4.4880
     4.5688   4.6090   5.2826   5.3144   5.3564   5.4025   5.4811   5.5386
     5.7543   6.4953   6.5246   6.5856   7.0132   7.1491   7.9657   8.1478
     8.5177   8.9225   9.0874   9.1553   9.2755   9.4156   9.5038   9.5618
     9.9223  10.0226  10.1362  11.0354  11.2252  11.5393  11.6864  11.8649
    11.8956  12.0435  12.1678  12.4507  12.5339  12.5672

     occupation numbers 
     1.0000   1.0000   1.0000   1.0000   1.0000   1.0000   1.0000   1.0000
     1.0000   1.0000   1.0000   1.0000   1.0000   1.0000   1.0000   1.0000
     1.0000   1.0000   1.0000   1.0000   1.0000   1.0000   1.0000   1.0000
     1.0000   1.0000   1.0000   1.0000   1.0000   1.0000   1.0000   1.0000
     1.0000   1.0000   1.0000   1.0000   1.0000   1.0000   1.0000   1.0000
     1.0000   1.0000   1.0000   1.0000   1.0000   1.0000   1.0000   1.0000
     1.0000   1.0000   1.0000   1.0000   1.0000   1.0000   1.0000   1.0000
     1.0000   1.0000   1.0000   1.0000   1.0000   1.0000   1.0000   1.0000
     1.0000   1.0000   1.0000   1.0000   1.0000   1.0000   1.0000   1.0000
     1.0000   1.0000   1.0000   1.0000   1.0000   1.0000   1.0000   1.0000
     1.0000   1.0000   1.0000   1.0000   1.0000   1.0000   1.0000   1.0000
     1.0000   1.0000   1.0000   1.0000   1.0000   1.0000   1.0000   1.0000
     1.0000   1.0000   1.0000   1.0000   1.0000   1.0000   1.0000   1.0000
     1.0000   1.0000   1.0000   1.0000   1.0000   1.0000   0.9706   0.7348
     0.0265   0.0000   0.0000   0.0000   0.0000   0.0000   0.0000   0.0000
     0.0000   0.0000   0.0000   0.0000   0.0000   0.0000   0.0000   0.0000
     0.0000   0.0000   0.0000   0.0000   0.0000   0.0000

          k = 0.1768-0.1768 0.1768 (  8627 PWs)   bands (ev):

   -16.8744 -16.8635 -16.8492 -16.8293 -16.7846 -16.7768 -16.7678 -16.7619
   -16.7311 -16.7219 -16.6938 -16.6920 -16.6835 -16.6515 -16.6424 -16.6347
   -16.6267 -16.6044 -16.5989 -16.5906 -16.5864 -16.5819 -16.5697 -16.5632
   -16.5599 -16.5533 -16.5481 -16.5381 -16.5325 -16.5280 -16.5230 -16.5149
   -16.5121 -16.5041 -16.4979 -16.4921 -16.4855 -16.4779 -16.4743 -16.4717
   -16.4685 -16.4656 -16.4548 -16.4518 -16.4429 -16.4393 -16.4356 -16.4289
   -16.4211 -16.4185 -16.4137 -16.4105 -16.4075 -16.3918 -16.3884 -16.3822
   -16.3754 -16.3612 -16.3555 -16.3505 -16.3452 -16.3384 -16.3354 -16.3309
   -16.3181 -16.3129 -16.3066 -16.3040 -16.2949 -16.2890 -16.2857 -16.2684
   -16.2644 -16.2606 -16.2535 -16.2509 -16.2335 -16.2257 -16.1988 -16.1980
    -4.3880  -3.0401  -2.5657  -2.3845  -2.2124  -1.5901  -1.4788  -1.3577
     0.1259   0.2517   0.3555   0.5402   0.8723   1.0002   1.6067   4.5790
     4.6247   4.6946   5.2128   5.2850   5.3866   5.4486   5.5250   5.7105
     5.9341   6.3682   6.5077   6.5591   6.8551   7.1712   7.7452   8.1441
     8.3514   8.8320   8.9416   9.1087   9.2865   9.4262   9.5479   9.6441
     9.9278  10.1456  10.2094  10.9953  11.2925  11.4744  11.6529  11.7009
    11.7541  11.8466  12.2206  12.5709  12.7771  12.8091

     occupation numbers 
     1.0000   1.0000   1.0000   1.0000   1.0000   1.0000   1.0000   1.0000
     1.0000   1.0000   1.0000   1.0000   1.0000   1.0000   1.0000   1.0000
     1.0000   1.0000   1.0000   1.0000   1.0000   1.0000   1.0000   1.0000
     1.0000   1.0000   1.0000   1.0000   1.0000   1.0000   1.0000   1.0000
     1.0000   1.0000   1.0000   1.0000   1.0000   1.0000   1.0000   1.0000
     1.0000   1.0000   1.0000   1.0000   1.0000   1.0000   1.0000   1.0000
     1.0000   1.0000   1.0000   1.0000   1.0000   1.0000   1.0000   1.0000
     1.0000   1.0000   1.0000   1.0000   1.0000   1.0000   1.0000   1.0000
     1.0000   1.0000   1.0000   1.0000   1.0000   1.0000   1.0000   1.0000
     1.0000   1.0000   1.0000   1.0000   1.0000   1.0000   1.0000   1.0000
     1.0000   1.0000   1.0000   1.0000   1.0000   1.0000   1.0000   1.0000
     1.0000   1.0000   1.0000   1.0000   1.0000   1.0000   1.0000   1.0000
     1.0000   1.0000   1.0000   1.0000   1.0000   1.0000   1.0000   1.0000
     1.0000   1.0000   1.0000   1.0000   1.0000   1.0000   0.9997   0.7433
     0.2168   0.0000   0.0000   0.0000   0.0000   0.0000   0.0000   0.0000
     0.0000   0.0000   0.0000   0.0000   0.0000   0.0000   0.0000   0.0000
     0.0000   0.0000   0.0000   0.0000   0.0000   0.0000

          k = 0.3536 0.3536 0.3536 (  8646 PWs)   bands (ev):

   -16.8762 -16.8654 -16.8496 -16.8312 -16.7915 -16.7797 -16.7631 -16.7548
   -16.7309 -16.7188 -16.6883 -16.6826 -16.6702 -16.6541 -16.6475 -16.6383
   -16.6309 -16.6072 -16.6050 -16.6001 -16.5874 -16.5819 -16.5736 -16.5675
   -16.5582 -16.5537 -16.5456 -16.5414 -16.5379 -16.5290 -16.5192 -16.5129
   -16.5068 -16.4981 -16.4915 -16.4875 -16.4849 -16.4769 -16.4758 -16.4753
   -16.4631 -16.4601 -16.4578 -16.4543 -16.4440 -16.4415 -16.4305 -16.4232
   -16.4214 -16.4182 -16.4119 -16.4078 -16.4042 -16.3939 -16.3868 -16.3824
   -16.3795 -16.3757 -16.3654 -16.3561 -16.3450 -16.3383 -16.3309 -16.3295
   -16.3249 -16.3090 -16.3047 -16.2985 -16.2925 -16.2866 -16.2851 -16.2762
   -16.2651 -16.2586 -16.2525 -16.2472 -16.2376 -16.2335 -16.1948 -16.1916
    -3.9203  -3.7944  -2.3106  -2.1962  -2.0677  -2.0238  -1.8985  -1.6406
     0.4925   0.5355   0.6298   0.8667   1.0117   1.1192   3.5337   3.5814
     4.3845   4.5228   4.5687   4.5771   4.7162   4.9772   5.5501   5.7484
     5.7591   5.7626   5.8589   5.9943   7.1328   7.1914   7.4645   7.6183
     8.5764   8.7319   9.2764   9.3026   9.3983   9.4313   9.5108   9.8601
    11.5600  11.6064  11.9343  12.0482  12.0542  12.1232  12.2427  12.3521
    12.4290  12.6190  13.3320  13.4360  13.5520  13.6113

     occupation numbers 
     1.0000   1.0000   1.0000   1.0000   1.0000   1.0000   1.0000   1.0000
     1.0000   1.0000   1.0000   1.0000   1.0000   1.0000   1.0000   1.0000
     1.0000   1.0000   1.0000   1.0000   1.0000   1.0000   1.0000   1.0000
     1.0000   1.0000   1.0000   1.0000   1.0000   1.0000   1.0000   1.0000
     1.0000   1.0000   1.0000   1.0000   1.0000   1.0000   1.0000   1.0000
     1.0000   1.0000   1.0000   1.0000   1.0000   1.0000   1.0000   1.0000
     1.0000   1.0000   1.0000   1.0000   1.0000   1.0000   1.0000   1.0000
     1.0000   1.0000   1.0000   1.0000   1.0000   1.0000   1.0000   1.0000
     1.0000   1.0000   1.0000   1.0000   1.0000   1.0000   1.0000   1.0000
     1.0000   1.0000   1.0000   1.0000   1.0000   1.0000   1.0000   1.0000
     1.0000   1.0000   1.0000   1.0000   1.0000   1.0000   1.0000   1.0000
     1.0000   1.0000   1.0000   1.0000   1.0000   1.0000   1.0000   1.0000
     1.0000   1.0000   1.0000   1.0000   1.0000   1.0000   1.0000   1.0000
     1.0000   1.0000   1.0000   1.0000   1.0000   1.0000   1.0000   1.0000
     0.0096   0.0003   0.0000   0.0000   0.0000   0.0000   0.0000   0.0000
     0.0000   0.0000   0.0000   0.0000   0.0000   0.0000   0.0000   0.0000
     0.0000   0.0000   0.0000   0.0000   0.0000   0.0000

          k = 0.3536-0.3536-0.3536 (  8646 PWs)   bands (ev):

   -16.8758 -16.8683 -16.8475 -16.8315 -16.7940 -16.7889 -16.7590 -16.7459
   -16.7244 -16.7219 -16.6905 -16.6892 -16.6749 -16.6495 -16.6467 -16.6404
   -16.6150 -16.6102 -16.6076 -16.5948 -16.5894 -16.5854 -16.5819 -16.5691
   -16.5614 -16.5537 -16.5490 -16.5385 -16.5365 -16.5311 -16.5102 -16.5091
   -16.5038 -16.5005 -16.4975 -16.4872 -16.4832 -16.4765 -16.4749 -16.4617
   -16.4579 -16.4549 -16.4508 -16.4450 -16.4421 -16.4381 -16.4347 -16.4328
   -16.4270 -16.4220 -16.4120 -16.4092 -16.4091 -16.4026 -16.3938 -16.3849
   -16.3834 -16.3663 -16.3614 -16.3526 -16.3480 -16.3410 -16.3361 -16.3346
   -16.3219 -16.3083 -16.3063 -16.2973 -16.2950 -16.2913 -16.2877 -16.2835
   -16.2707 -16.2596 -16.2470 -16.2452 -16.2322 -16.2254 -16.1921 -16.1901
    -3.8931  -3.7642  -2.3570  -2.2436  -2.0680  -2.0001  -1.8950  -1.8894
     0.5916   0.7620   0.8608   0.9632   1.0979   1.3079   3.2726   3.3349
     4.1994   4.2637   4.3434   4.4242   4.4961   4.5344   5.7949   5.8196
     5.8435   5.8645   5.9152   6.0654   7.2455   7.3743   7.5195   7.6909
     8.8131   8.9562   9.3807   9.5457   9.5690   9.6435   9.7070   9.7695
    11.5319  11.7378  11.8839  12.0233  12.1674  12.2198  12.3815  12.4468
    12.5884  12.6531  13.1846  13.3099  13.3859  13.4464

     occupation numbers 
     1.0000   1.0000   1.0000   1.0000   1.0000   1.0000   1.0000   1.0000
     1.0000   1.0000   1.0000   1.0000   1.0000   1.0000   1.0000   1.0000
     1.0000   1.0000   1.0000   1.0000   1.0000   1.0000   1.0000   1.0000
     1.0000   1.0000   1.0000   1.0000   1.0000   1.0000   1.0000   1.0000
     1.0000   1.0000   1.0000   1.0000   1.0000   1.0000   1.0000   1.0000
     1.0000   1.0000   1.0000   1.0000   1.0000   1.0000   1.0000   1.0000
     1.0000   1.0000   1.0000   1.0000   1.0000   1.0000   1.0000   1.0000
     1.0000   1.0000   1.0000   1.0000   1.0000   1.0000   1.0000   1.0000
     1.0000   1.0000   1.0000   1.0000   1.0000   1.0000   1.0000   1.0000
     1.0000   1.0000   1.0000   1.0000   1.0000   1.0000   1.0000   1.0000
     1.0000   1.0000   1.0000   1.0000   1.0000   1.0000   1.0000   1.0000
     1.0000   1.0000   1.0000   1.0000   1.0000   1.0000   1.0000   1.0000
     1.0000   1.0000   1.0000   1.0000   1.0000   1.0000   1.0000   1.0000
     1.0000   1.0000   1.0000   1.0000   1.0000   1.0000   1.0000   0.9999
     0.0000   0.0000   0.0000   0.0000   0.0000   0.0000   0.0000   0.0000
     0.0000   0.0000   0.0000   0.0000   0.0000   0.0000   0.0000   0.0000
     0.0000   0.0000   0.0000   0.0000   0.0000   0.0000

          k =-0.3536 0.3536-0.3536 (  8646 PWs)   bands (ev):

   -16.8747 -16.8641 -16.8513 -16.8302 -16.7857 -16.7769 -16.7684 -16.7620
   -16.7314 -16.7223 -16.6941 -16.6911 -16.6839 -16.6507 -16.6409 -16.6364
   -16.6261 -16.6016 -16.5973 -16.5879 -16.5864 -16.5820 -16.5682 -16.5615
   -16.5587 -16.5550 -16.5468 -16.5315 -16.5295 -16.5239 -16.5207 -16.5135
   -16.5106 -16.4991 -16.4956 -16.4933 -16.4883 -16.4790 -16.4755 -16.4697
   -16.4678 -16.4628 -16.4580 -16.4523 -16.4432 -16.4408 -16.4381 -16.4339
   -16.4265 -16.4233 -16.4188 -16.4162 -16.4066 -16.3950 -16.3899 -16.3807
   -16.3780 -16.3607 -16.3586 -16.3475 -16.3446 -16.3430 -16.3343 -16.3304
   -16.3160 -16.3117 -16.3109 -16.3076 -16.2940 -16.2889 -16.2831 -16.2674
   -16.2635 -16.2588 -16.2527 -16.2493 -16.2322 -16.2230 -16.1985 -16.1963
    -3.9853  -3.6749  -2.4114  -2.1508  -2.1110  -1.9701  -1.9295  -1.7599
     0.5761   0.6199   0.7836   0.9202   1.0793   1.1158   3.3428   3.5354
     4.2784   4.3493   4.5322   4.5452   4.6695   4.7371   5.5525   5.6607
     5.7397   5.8991   6.0323   6.0749   7.0804   7.3218   7.3853   7.7473
     8.5422   8.9494   9.3101   9.4052   9.5053   9.5555   9.5883   9.9219
    11.5162  11.6134  11.9329  12.0335  12.1369  12.1893  12.2751  12.4448
    12.5158  12.6113  13.0960  13.2515  13.4684  13.4982

     occupation numbers 
     1.0000   1.0000   1.0000   1.0000   1.0000   1.0000   1.0000   1.0000
     1.0000   1.0000   1.0000   1.0000   1.0000   1.0000   1.0000   1.0000
     1.0000   1.0000   1.0000   1.0000   1.0000   1.0000   1.0000   1.0000
     1.0000   1.0000   1.0000   1.0000   1.0000   1.0000   1.0000   1.0000
     1.0000   1.0000   1.0000   1.0000   1.0000   1.0000   1.0000   1.0000
     1.0000   1.0000   1.0000   1.0000   1.0000   1.0000   1.0000   1.0000
     1.0000   1.0000   1.0000   1.0000   1.0000   1.0000   1.0000   1.0000
     1.0000   1.0000   1.0000   1.0000   1.0000   1.0000   1.0000   1.0000
     1.0000   1.0000   1.0000   1.0000   1.0000   1.0000   1.0000   1.0000
     1.0000   1.0000   1.0000   1.0000   1.0000   1.0000   1.0000   1.0000
     1.0000   1.0000   1.0000   1.0000   1.0000   1.0000   1.0000   1.0000
     1.0000   1.0000   1.0000   1.0000   1.0000   1.0000   1.0000   1.0000
     1.0000   1.0000   1.0000   1.0000   1.0000   1.0000   1.0000   1.0000
     1.0000   1.0000   1.0000   1.0000   1.0000   1.0000   1.0000   0.9997
     0.0176   0.0000   0.0000   0.0000   0.0000   0.0000   0.0000   0.0000
     0.0000   0.0000   0.0000   0.0000   0.0000   0.0000   0.0000   0.0000
     0.0000   0.0000   0.0000   0.0000   0.0000   0.0000

          k = 0.0000 0.3536 0.0000 (  8620 PWs)   bands (ev):

   -16.8755 -16.8645 -16.8474 -16.8299 -16.7886 -16.7802 -16.7649 -16.7586
   -16.7299 -16.7212 -16.6952 -16.6887 -16.6782 -16.6535 -16.6442 -16.6366
   -16.6287 -16.6054 -16.6016 -16.5941 -16.5845 -16.5802 -16.5751 -16.5620
   -16.5568 -16.5532 -16.5464 -16.5415 -16.5375 -16.5252 -16.5210 -16.5159
   -16.5051 -16.5015 -16.4956 -16.4924 -16.4835 -16.4809 -16.4752 -16.4716
   -16.4682 -16.4632 -16.4570 -16.4500 -16.4426 -16.4353 -16.4335 -16.4258
   -16.4235 -16.4212 -16.4139 -16.4099 -16.4033 -16.3944 -16.3902 -16.3851
   -16.3762 -16.3675 -16.3600 -16.3523 -16.3429 -16.3376 -16.3343 -16.3312
   -16.3214 -16.3114 -16.3069 -16.2999 -16.2949 -16.2886 -16.2847 -16.2736
   -16.2678 -16.2609 -16.2508 -16.2488 -16.2341 -16.2280 -16.1964 -16.1944
    -4.3245  -2.8315  -2.7115  -2.5238  -2.3724  -2.1959  -0.8506  -0.6822
    -0.5601  -0.4312   0.8183   1.0627   1.2119   1.2855   1.4134   4.6007
     4.6332   4.6909   4.7162   5.2217   5.2721   5.3765   5.4773   5.5355
     5.6280   5.8274   6.5054   6.7559   6.8236   7.0021   7.3549   7.5794
     8.6538   9.3227   9.4369   9.5162   9.5643   9.7338   9.8282  10.0546
    10.1319  10.2256  10.2691  10.4595  11.6790  11.7069  11.7796  11.9035
    12.0676  12.1772  12.2675  12.3817  12.4822  12.6841

     occupation numbers 
     1.0000   1.0000   1.0000   1.0000   1.0000   1.0000   1.0000   1.0000
     1.0000   1.0000   1.0000   1.0000   1.0000   1.0000   1.0000   1.0000
     1.0000   1.0000   1.0000   1.0000   1.0000   1.0000   1.0000   1.0000
     1.0000   1.0000   1.0000   1.0000   1.0000   1.0000   1.0000   1.0000
     1.0000   1.0000   1.0000   1.0000   1.0000   1.0000   1.0000   1.0000
     1.0000   1.0000   1.0000   1.0000   1.0000   1.0000   1.0000   1.0000
     1.0000   1.0000   1.0000   1.0000   1.0000   1.0000   1.0000   1.0000
     1.0000   1.0000   1.0000   1.0000   1.0000   1.0000   1.0000   1.0000
     1.0000   1.0000   1.0000   1.0000   1.0000   1.0000   1.0000   1.0000
     1.0000   1.0000   1.0000   1.0000   1.0000   1.0000   1.0000   1.0000
     1.0000   1.0000   1.0000   1.0000   1.0000   1.0000   1.0000   1.0000
     1.0000   1.0000   1.0000   1.0000   1.0000   1.0000   1.0000   1.0000
     1.0000   1.0000   1.0000   1.0000   1.0000   1.0000   1.0000   1.0000
     1.0000   1.0000   1.0000   1.0000   1.0000   1.0000   1.0000   1.0000
     0.0020   0.0000   0.0000   0.0000   0.0000   0.0000   0.0000   0.0000
     0.0000   0.0000   0.0000   0.0000   0.0000   0.0000   0.0000   0.0000
     0.0000   0.0000   0.0000   0.0000   0.0000   0.0000

          k = 0.0000 0.0000 0.3536 (  8620 PWs)   bands (ev):

   -16.8752 -16.8656 -16.8485 -16.8302 -16.7889 -16.7849 -16.7607 -16.7535
   -16.7296 -16.7211 -16.6923 -16.6868 -16.6789 -16.6541 -16.6460 -16.6352
   -16.6253 -16.6111 -16.5999 -16.5940 -16.5843 -16.5794 -16.5763 -16.5655
   -16.5600 -16.5556 -16.5517 -16.5377 -16.5328 -16.5300 -16.5209 -16.5155
   -16.5094 -16.5007 -16.4948 -16.4933 -16.4846 -16.4795 -16.4759 -16.4704
   -16.4651 -16.4603 -16.4548 -16.4494 -16.4431 -16.4383 -16.4326 -16.4289
   -16.4235 -16.4170 -16.4135 -16.4065 -16.4040 -16.3947 -16.3919 -16.3818
   -16.3778 -16.3641 -16.3590 -16.3515 -16.3475 -16.3400 -16.3350 -16.3330
   -16.3218 -16.3120 -16.3043 -16.2981 -16.2940 -16.2894 -16.2823 -16.2751
   -16.2679 -16.2583 -16.2513 -16.2491 -16.2345 -16.2300 -16.1972 -16.1942
    -4.3229  -2.7992  -2.7085  -2.6112  -2.3413  -2.1898  -0.8380  -0.7037
    -0.5259  -0.3922   0.7904   0.9782   1.1626   1.3129   1.4970   4.5224
     4.6144   4.7033   4.7283   5.2210   5.2983   5.4002   5.4762   5.5126
     5.6207   5.8893   6.6214   6.7159   6.7656   7.0467   7.3034   7.5855
     8.6603   9.4054   9.4348   9.4521   9.5835   9.7107   9.8797   9.9836
    10.1039  10.1890  10.2323  10.4824  11.6118  11.7499  11.8167  11.9658
    12.0525  12.1754  12.2191  12.3616  12.5748  12.6744

     occupation numbers 
     1.0000   1.0000   1.0000   1.0000   1.0000   1.0000   1.0000   1.0000
     1.0000   1.0000   1.0000   1.0000   1.0000   1.0000   1.0000   1.0000
     1.0000   1.0000   1.0000   1.0000   1.0000   1.0000   1.0000   1.0000
     1.0000   1.0000   1.0000   1.0000   1.0000   1.0000   1.0000   1.0000
     1.0000   1.0000   1.0000   1.0000   1.0000   1.0000   1.0000   1.0000
     1.0000   1.0000   1.0000   1.0000   1.0000   1.0000   1.0000   1.0000
     1.0000   1.0000   1.0000   1.0000   1.0000   1.0000   1.0000   1.0000
     1.0000   1.0000   1.0000   1.0000   1.0000   1.0000   1.0000   1.0000
     1.0000   1.0000   1.0000   1.0000   1.0000   1.0000   1.0000   1.0000
     1.0000   1.0000   1.0000   1.0000   1.0000   1.0000   1.0000   1.0000
     1.0000   1.0000   1.0000   1.0000   1.0000   1.0000   1.0000   1.0000
     1.0000   1.0000   1.0000   1.0000   1.0000   1.0000   1.0000   1.0000
     1.0000   1.0000   1.0000   1.0000   1.0000   1.0000   1.0000   1.0000
     1.0000   1.0000   1.0000   1.0000   1.0000   1.0000   1.0000   1.0000
     0.0017   0.0000   0.0000   0.0000   0.0000   0.0000   0.0000   0.0000
     0.0000   0.0000   0.0000   0.0000   0.0000   0.0000   0.0000   0.0000
     0.0000   0.0000   0.0000   0.0000   0.0000   0.0000

          k = 0.1768 0.5303 0.5303 (  8605 PWs)   bands (ev):

   -16.8767 -16.8657 -16.8503 -16.8317 -16.7919 -16.7846 -16.7604 -16.7534
   -16.7305 -16.7170 -16.6896 -16.6846 -16.6732 -16.6497 -16.6448 -16.6390
   -16.6249 -16.6076 -16.6048 -16.5963 -16.5883 -16.5832 -16.5744 -16.5670
   -16.5613 -16.5556 -16.5494 -16.5431 -16.5385 -16.5322 -16.5162 -16.5102
   -16.5046 -16.4982 -16.4938 -16.4861 -16.4811 -16.4774 -16.4751 -16.4677
   -16.4636 -16.4595 -16.4552 -16.4503 -16.4446 -16.4416 -16.4330 -16.4269
   -16.4236 -16.4186 -16.4140 -16.4069 -16.4018 -16.3955 -16.3889 -16.3860
   -16.3834 -16.3764 -16.3667 -16.3541 -16.3445 -16.3425 -16.3351 -16.3303
   -16.3216 -16.3097 -16.3062 -16.2985 -16.2971 -16.2943 -16.2825 -16.2720
   -16.2657 -16.2563 -16.2519 -16.2449 -16.2323 -16.2285 -16.1964 -16.1927
    -3.9166  -3.4589  -2.9037  -2.5615  -2.4289  -1.8387  -1.3869  -1.2766
     0.1392   0.2197   0.4966   1.3301   1.4764   2.0553   2.7660   3.8585
     4.0634   4.1990   4.3380   4.6794   4.8739   5.0373   5.1091   5.4897
     5.5962   5.8584   6.0550   6.1274   6.2480   6.5326   6.8846   7.4449
     9.3399   9.6190   9.7319  10.0051  10.1939  10.2959  10.5054  10.6301
    10.8036  11.0871  11.2431  11.4663  11.8227  12.1407  12.3034  12.4485
    12.6745  12.8132  13.0476  13.1630  13.2120  13.3583

     occupation numbers 
     1.0000   1.0000   1.0000   1.0000   1.0000   1.0000   1.0000   1.0000
     1.0000   1.0000   1.0000   1.0000   1.0000   1.0000   1.0000   1.0000
     1.0000   1.0000   1.0000   1.0000   1.0000   1.0000   1.0000   1.0000
     1.0000   1.0000   1.0000   1.0000   1.0000   1.0000   1.0000   1.0000
     1.0000   1.0000   1.0000   1.0000   1.0000   1.0000   1.0000   1.0000
     1.0000   1.0000   1.0000   1.0000   1.0000   1.0000   1.0000   1.0000
     1.0000   1.0000   1.0000   1.0000   1.0000   1.0000   1.0000   1.0000
     1.0000   1.0000   1.0000   1.0000   1.0000   1.0000   1.0000   1.0000
     1.0000   1.0000   1.0000   1.0000   1.0000   1.0000   1.0000   1.0000
     1.0000   1.0000   1.0000   1.0000   1.0000   1.0000   1.0000   1.0000
     1.0000   1.0000   1.0000   1.0000   1.0000   1.0000   1.0000   1.0000
     1.0000   1.0000   1.0000   1.0000   1.0000   1.0000   1.0000   1.0000
     1.0000   1.0000   1.0000   1.0000   1.0000   1.0000   1.0000   1.0000
     1.0000   1.0000   1.0000   1.0000   1.0000   1.0000   1.0000   1.0000
     0.0000   0.0000   0.0000   0.0000   0.0000   0.0000   0.0000   0.0000
     0.0000   0.0000   0.0000   0.0000   0.0000   0.0000   0.0000   0.0000
     0.0000   0.0000   0.0000   0.0000   0.0000   0.0000

          k = 0.1768-0.5303-0.5303 (  8605 PWs)   bands (ev):

   -16.8763 -16.8675 -16.8492 -16.8318 -16.7946 -16.7861 -16.7619 -16.7470
   -16.7270 -16.7194 -16.6913 -16.6855 -16.6758 -16.6495 -16.6442 -16.6394
   -16.6143 -16.6104 -16.6060 -16.5930 -16.5894 -16.5853 -16.5805 -16.5697
   -16.5609 -16.5558 -16.5497 -16.5403 -16.5370 -16.5348 -16.5156 -16.5075
   -16.5011 -16.4970 -16.4958 -16.4893 -16.4832 -16.4745 -16.4695 -16.4648
   -16.4619 -16.4572 -16.4496 -16.4470 -16.4432 -16.4403 -16.4347 -16.4320
   -16.4278 -16.4186 -16.4146 -16.4115 -16.4050 -16.3966 -16.3929 -16.3865
   -16.3835 -16.3722 -16.3637 -16.3536 -16.3472 -16.3428 -16.3379 -16.3329
   -16.3205 -16.3106 -16.3076 -16.2994 -16.2962 -16.2923 -16.2871 -16.2745
   -16.2687 -16.2568 -16.2483 -16.2441 -16.2303 -16.2246 -16.1951 -16.1919
    -3.8984  -3.4289  -2.9534  -2.5503  -2.4256  -1.9305  -1.4410  -1.2916
     0.1688   0.2725   0.7809   1.3251   1.5066   2.2806   2.5929   3.7240
     3.9356   4.0614   4.1499   4.5609   4.6368   5.0592   5.1469   5.2796
     5.7139   5.9174   6.1582   6.2305   6.2767   6.8388   6.9769   7.3772
     9.3572   9.6833   9.8758  10.1215  10.2717  10.5149  10.5313  10.5771
    10.7124  10.9421  11.6614  11.7634  11.9938  12.1439  12.2256  12.3501
    12.7634  12.8930  12.9292  13.0092  13.1601  13.2190

     occupation numbers 
     1.0000   1.0000   1.0000   1.0000   1.0000   1.0000   1.0000   1.0000
     1.0000   1.0000   1.0000   1.0000   1.0000   1.0000   1.0000   1.0000
     1.0000   1.0000   1.0000   1.0000   1.0000   1.0000   1.0000   1.0000
     1.0000   1.0000   1.0000   1.0000   1.0000   1.0000   1.0000   1.0000
     1.0000   1.0000   1.0000   1.0000   1.0000   1.0000   1.0000   1.0000
     1.0000   1.0000   1.0000   1.0000   1.0000   1.0000   1.0000   1.0000
     1.0000   1.0000   1.0000   1.0000   1.0000   1.0000   1.0000   1.0000
     1.0000   1.0000   1.0000   1.0000   1.0000   1.0000   1.0000   1.0000
     1.0000   1.0000   1.0000   1.0000   1.0000   1.0000   1.0000   1.0000
     1.0000   1.0000   1.0000   1.0000   1.0000   1.0000   1.0000   1.0000
     1.0000   1.0000   1.0000   1.0000   1.0000   1.0000   1.0000   1.0000
     1.0000   1.0000   1.0000   1.0000   1.0000   1.0000   1.0000   1.0000
     1.0000   1.0000   1.0000   1.0000   1.0000   1.0000   1.0000   1.0000
     1.0000   1.0000   1.0000   1.0000   1.0000   1.0000   1.0000   1.0000
     0.0000   0.0000   0.0000   0.0000   0.0000   0.0000   0.0000   0.0000
     0.0000   0.0000   0.0000   0.0000   0.0000   0.0000   0.0000   0.0000
     0.0000   0.0000   0.0000   0.0000   0.0000   0.0000

          k =-0.1768 0.5303-0.5303 (  8605 PWs)   bands (ev):

   -16.8759 -16.8652 -16.8511 -16.8311 -16.7906 -16.7814 -16.7665 -16.7536
   -16.7306 -16.7199 -16.6917 -16.6876 -16.6805 -16.6479 -16.6445 -16.6366
   -16.6212 -16.6056 -16.5991 -16.5921 -16.5882 -16.5835 -16.5730 -16.5657
   -16.5575 -16.5533 -16.5514 -16.5400 -16.5356 -16.5294 -16.5174 -16.5129
   -16.5048 -16.4965 -16.4941 -16.4905 -16.4842 -16.4752 -16.4735 -16.4696
   -16.4633 -16.4596 -16.4535 -16.4505 -16.4446 -16.4420 -16.4382 -16.4323
   -16.4261 -16.4220 -16.4178 -16.4121 -16.4070 -16.3956 -16.3897 -16.3844
   -16.3811 -16.3677 -16.3609 -16.3493 -16.3457 -16.3425 -16.3375 -16.3316
   -16.3181 -16.3133 -16.3085 -16.3039 -16.2966 -16.2930 -16.2842 -16.2675
   -16.2629 -16.2567 -16.2515 -16.2466 -16.2303 -16.2230 -16.1983 -16.1953
    -3.9309  -3.3928  -2.9106  -2.6429  -2.3952  -1.8839  -1.4688  -1.2006
    -0.0070   0.3879   0.6780   1.2380   1.5234   2.1348   2.7163   3.8154
     4.0149   4.1634   4.2205   4.5942   4.7424   5.0424   5.1774   5.4040
     5.6105   5.7974   6.0691   6.2374   6.3195   6.7532   6.8845   7.3722
     9.3501   9.6293   9.7471  10.0864  10.2567  10.3909  10.4868  10.7117
    10.7777  10.9085  11.5206  11.6376  11.8583  12.1786  12.2233  12.4429
    12.7405  12.8606  12.9881  13.0483  13.1410  13.2167

     occupation numbers 
     1.0000   1.0000   1.0000   1.0000   1.0000   1.0000   1.0000   1.0000
     1.0000   1.0000   1.0000   1.0000   1.0000   1.0000   1.0000   1.0000
     1.0000   1.0000   1.0000   1.0000   1.0000   1.0000   1.0000   1.0000
     1.0000   1.0000   1.0000   1.0000   1.0000   1.0000   1.0000   1.0000
     1.0000   1.0000   1.0000   1.0000   1.0000   1.0000   1.0000   1.0000
     1.0000   1.0000   1.0000   1.0000   1.0000   1.0000   1.0000   1.0000
     1.0000   1.0000   1.0000   1.0000   1.0000   1.0000   1.0000   1.0000
     1.0000   1.0000   1.0000   1.0000   1.0000   1.0000   1.0000   1.0000
     1.0000   1.0000   1.0000   1.0000   1.0000   1.0000   1.0000   1.0000
     1.0000   1.0000   1.0000   1.0000   1.0000   1.0000   1.0000   1.0000
     1.0000   1.0000   1.0000   1.0000   1.0000   1.0000   1.0000   1.0000
     1.0000   1.0000   1.0000   1.0000   1.0000   1.0000   1.0000   1.0000
     1.0000   1.0000   1.0000   1.0000   1.0000   1.0000   1.0000   1.0000
     1.0000   1.0000   1.0000   1.0000   1.0000   1.0000   1.0000   1.0000
     0.0000   0.0000   0.0000   0.0000   0.0000   0.0000   0.0000   0.0000
     0.0000   0.0000   0.0000   0.0000   0.0000   0.0000   0.0000   0.0000
     0.0000   0.0000   0.0000   0.0000   0.0000   0.0000

          k =-0.5303-0.1768-0.5303 (  8605 PWs)   bands (ev):

   -16.8765 -16.8656 -16.8487 -16.8312 -16.7921 -16.7809 -16.7638 -16.7556
   -16.7300 -16.7199 -16.6918 -16.6846 -16.6710 -16.6546 -16.6467 -16.6383
   -16.6308 -16.6063 -16.6030 -16.5975 -16.5855 -16.5812 -16.5741 -16.5634
   -16.5575 -16.5525 -16.5468 -16.5416 -16.5339 -16.5250 -16.5181 -16.5112
   -16.5051 -16.4970 -16.4933 -16.4890 -16.4853 -16.4785 -16.4750 -16.4731
   -16.4655 -16.4604 -16.4563 -16.4532 -16.4422 -16.4401 -16.4346 -16.4264
   -16.4244 -16.4197 -16.4137 -16.4100 -16.4048 -16.3995 -16.3892 -16.3855
   -16.3799 -16.3759 -16.3617 -16.3562 -16.3424 -16.3390 -16.3341 -16.3282
   -16.3252 -16.3080 -16.3053 -16.2990 -16.2961 -16.2877 -16.2834 -16.2785
   -16.2656 -16.2589 -16.2503 -16.2465 -16.2346 -16.2304 -16.1939 -16.1911
    -3.9183  -3.4799  -2.8621  -2.5645  -2.3993  -1.8848  -1.4395  -1.2074
    -0.0021   0.1939   0.7406   1.2246   1.3985   2.1133   2.8369   3.8773
     4.1091   4.1880   4.3435   4.6784   4.7815   5.0506   5.1224   5.4719
     5.6354   5.7124   6.0146   6.1130   6.3783   6.7382   6.8116   7.2999
     9.2290   9.5749   9.7208   9.9243  10.2877  10.4022  10.4965  10.6487
    10.8193  10.9521  11.5023  11.5732  11.8847  12.1534  12.2472  12.3860
    12.7354  12.9124  12.9896  13.1076  13.1389  13.4096

     occupation numbers 
     1.0000   1.0000   1.0000   1.0000   1.0000   1.0000   1.0000   1.0000
     1.0000   1.0000   1.0000   1.0000   1.0000   1.0000   1.0000   1.0000
     1.0000   1.0000   1.0000   1.0000   1.0000   1.0000   1.0000   1.0000
     1.0000   1.0000   1.0000   1.0000   1.0000   1.0000   1.0000   1.0000
     1.0000   1.0000   1.0000   1.0000   1.0000   1.0000   1.0000   1.0000
     1.0000   1.0000   1.0000   1.0000   1.0000   1.0000   1.0000   1.0000
     1.0000   1.0000   1.0000   1.0000   1.0000   1.0000   1.0000   1.0000
     1.0000   1.0000   1.0000   1.0000   1.0000   1.0000   1.0000   1.0000
     1.0000   1.0000   1.0000   1.0000   1.0000   1.0000   1.0000   1.0000
     1.0000   1.0000   1.0000   1.0000   1.0000   1.0000   1.0000   1.0000
     1.0000   1.0000   1.0000   1.0000   1.0000   1.0000   1.0000   1.0000
     1.0000   1.0000   1.0000   1.0000   1.0000   1.0000   1.0000   1.0000
     1.0000   1.0000   1.0000   1.0000   1.0000   1.0000   1.0000   1.0000
     1.0000   1.0000   1.0000   1.0000   1.0000   1.0000   1.0000   1.0000
     0.0000   0.0000   0.0000   0.0000   0.0000   0.0000   0.0000   0.0000
     0.0000   0.0000   0.0000   0.0000   0.0000   0.0000   0.0000   0.0000
     0.0000   0.0000   0.0000   0.0000   0.0000   0.0000

          k = 0.5303 0.1768-0.5303 (  8605 PWs)   bands (ev):

   -16.8771 -16.8654 -16.8474 -16.8311 -16.7921 -16.7863 -16.7612 -16.7543
   -16.7299 -16.7182 -16.6936 -16.6882 -16.6755 -16.6520 -16.6448 -16.6386
   -16.6222 -16.6084 -16.6010 -16.5943 -16.5854 -16.5789 -16.5734 -16.5660
   -16.5580 -16.5537 -16.5484 -16.5405 -16.5374 -16.5284 -16.5196 -16.5148
   -16.5032 -16.5004 -16.4916 -16.4882 -16.4822 -16.4791 -16.4702 -16.4672
   -16.4636 -16.4601 -16.4569 -16.4501 -16.4429 -16.4400 -16.4362 -16.4311
   -16.4262 -16.4210 -16.4120 -16.4103 -16.4065 -16.4005 -16.3886 -16.3866
   -16.3801 -16.3753 -16.3616 -16.3552 -16.3464 -16.3387 -16.3356 -16.3314
   -16.3204 -16.3116 -16.3088 -16.3012 -16.2939 -16.2880 -16.2848 -16.2725
   -16.2657 -16.2576 -16.2499 -16.2447 -16.2320 -16.2275 -16.1957 -16.1937
    -3.9276  -3.3965  -2.9596  -2.5449  -2.4754  -1.7780  -1.4612  -1.2655
     0.0979   0.2980   0.4319   1.4852   1.5714   2.0904   2.6302   3.8539
     3.9827   4.1954   4.2581   4.6492   4.7879   5.0934   5.1691   5.3831
     5.5864   5.8628   5.9777   6.1613   6.3261   6.5456   6.8630   7.5773
     9.3335   9.6775   9.8862   9.9946  10.2597  10.3739  10.4954  10.6293
    10.8258  10.9686  11.3270  11.4445  11.7488  12.2531  12.3345  12.4346
    12.6841  12.8757  12.9770  13.1094  13.1864  13.3203

     occupation numbers 
     1.0000   1.0000   1.0000   1.0000   1.0000   1.0000   1.0000   1.0000
     1.0000   1.0000   1.0000   1.0000   1.0000   1.0000   1.0000   1.0000
     1.0000   1.0000   1.0000   1.0000   1.0000   1.0000   1.0000   1.0000
     1.0000   1.0000   1.0000   1.0000   1.0000   1.0000   1.0000   1.0000
     1.0000   1.0000   1.0000   1.0000   1.0000   1.0000   1.0000   1.0000
     1.0000   1.0000   1.0000   1.0000   1.0000   1.0000   1.0000   1.0000
     1.0000   1.0000   1.0000   1.0000   1.0000   1.0000   1.0000   1.0000
     1.0000   1.0000   1.0000   1.0000   1.0000   1.0000   1.0000   1.0000
     1.0000   1.0000   1.0000   1.0000   1.0000   1.0000   1.0000   1.0000
     1.0000   1.0000   1.0000   1.0000   1.0000   1.0000   1.0000   1.0000
     1.0000   1.0000   1.0000   1.0000   1.0000   1.0000   1.0000   1.0000
     1.0000   1.0000   1.0000   1.0000   1.0000   1.0000   1.0000   1.0000
     1.0000   1.0000   1.0000   1.0000   1.0000   1.0000   1.0000   1.0000
     1.0000   1.0000   1.0000   1.0000   1.0000   1.0000   1.0000   1.0000
     0.0000   0.0000   0.0000   0.0000   0.0000   0.0000   0.0000   0.0000
     0.0000   0.0000   0.0000   0.0000   0.0000   0.0000   0.0000   0.0000
     0.0000   0.0000   0.0000   0.0000   0.0000   0.0000

          k =-0.5303 0.1768 0.5303 (  8605 PWs)   bands (ev):

   -16.8765 -16.8667 -16.8476 -16.8314 -16.7920 -16.7886 -16.7582 -16.7536
   -16.7275 -16.7199 -16.6932 -16.6880 -16.6729 -16.6523 -16.6455 -16.6400
   -16.6260 -16.6074 -16.6048 -16.5925 -16.5869 -16.5823 -16.5784 -16.5649
   -16.5566 -16.5526 -16.5473 -16.5408 -16.5356 -16.5278 -16.5119 -16.5067
   -16.5047 -16.5002 -16.4946 -16.4906 -16.4820 -16.4797 -16.4731 -16.4685
   -16.4628 -16.4597 -16.4522 -16.4451 -16.4439 -16.4370 -16.4349 -16.4320
   -16.4259 -16.4220 -16.4170 -16.4125 -16.4066 -16.4004 -16.3929 -16.3868
   -16.3823 -16.3697 -16.3624 -16.3525 -16.3459 -16.3406 -16.3351 -16.3323
   -16.3217 -16.3102 -16.3059 -16.2994 -16.2942 -16.2896 -16.2858 -16.2813
   -16.2687 -16.2592 -16.2484 -16.2448 -16.2325 -16.2262 -16.1926 -16.1904
    -3.9078  -3.4231  -2.9310  -2.5505  -2.4657  -1.8570  -1.4839  -1.2837
     0.0919   0.2970   0.6553   1.4983   1.5963   2.2096   2.5312   3.8170
     3.9438   4.0481   4.1246   4.5847   4.6842   5.1329   5.1565   5.2426
     5.6886   5.8812   5.9705   6.2072   6.2616   6.8413   6.9753   7.4902
     9.3721   9.7123   9.9214  10.1791  10.2774  10.4564  10.5375  10.5868
    10.7639  10.8245  11.5911  11.6459  11.8770  12.1509  12.3147  12.4204
    12.7329  12.8729  12.9821  13.0476  13.1692  13.2411

     occupation numbers 
     1.0000   1.0000   1.0000   1.0000   1.0000   1.0000   1.0000   1.0000
     1.0000   1.0000   1.0000   1.0000   1.0000   1.0000   1.0000   1.0000
     1.0000   1.0000   1.0000   1.0000   1.0000   1.0000   1.0000   1.0000
     1.0000   1.0000   1.0000   1.0000   1.0000   1.0000   1.0000   1.0000
     1.0000   1.0000   1.0000   1.0000   1.0000   1.0000   1.0000   1.0000
     1.0000   1.0000   1.0000   1.0000   1.0000   1.0000   1.0000   1.0000
     1.0000   1.0000   1.0000   1.0000   1.0000   1.0000   1.0000   1.0000
     1.0000   1.0000   1.0000   1.0000   1.0000   1.0000   1.0000   1.0000
     1.0000   1.0000   1.0000   1.0000   1.0000   1.0000   1.0000   1.0000
     1.0000   1.0000   1.0000   1.0000   1.0000   1.0000   1.0000   1.0000
     1.0000   1.0000   1.0000   1.0000   1.0000   1.0000   1.0000   1.0000
     1.0000   1.0000   1.0000   1.0000   1.0000   1.0000   1.0000   1.0000
     1.0000   1.0000   1.0000   1.0000   1.0000   1.0000   1.0000   1.0000
     1.0000   1.0000   1.0000   1.0000   1.0000   1.0000   1.0000   1.0000
     0.0000   0.0000   0.0000   0.0000   0.0000   0.0000   0.0000   0.0000
     0.0000   0.0000   0.0000   0.0000   0.0000   0.0000   0.0000   0.0000
     0.0000   0.0000   0.0000   0.0000   0.0000   0.0000

          k = 0.5303-0.1768 0.5303 (  8605 PWs)   bands (ev):

   -16.8757 -16.8650 -16.8494 -16.8309 -16.7894 -16.7805 -16.7649 -16.7595
   -16.7302 -16.7217 -16.6949 -16.6891 -16.6778 -16.6530 -16.6419 -16.6389
   -16.6279 -16.6034 -16.5991 -16.5923 -16.5851 -16.5786 -16.5738 -16.5610
   -16.5548 -16.5535 -16.5487 -16.5343 -16.5314 -16.5236 -16.5183 -16.5108
   -16.5064 -16.4984 -16.4948 -16.4919 -16.4887 -16.4799 -16.4750 -16.4687
   -16.4663 -16.4606 -16.4576 -16.4490 -16.4446 -16.4418 -16.4371 -16.4315
   -16.4287 -16.4232 -16.4186 -16.4136 -16.4078 -16.3966 -16.3922 -16.3839
   -16.3784 -16.3659 -16.3601 -16.3511 -16.3444 -16.3416 -16.3349 -16.3297
   -16.3191 -16.3112 -16.3093 -16.3036 -16.2933 -16.2877 -16.2850 -16.2721
   -16.2664 -16.2589 -16.2504 -16.2472 -16.2324 -16.2253 -16.1954 -16.1935
    -3.9360  -3.3922  -2.9570  -2.5259  -2.3910  -1.9685  -1.4310  -1.2320
     0.0446   0.2228   0.8491   1.2389   1.3847   2.2193   2.7479   3.9036
     3.9607   4.1737   4.2211   4.5902   4.7037   5.0645   5.1546   5.3960
     5.6268   5.7052   6.1095   6.2429   6.3678   6.7131   6.9536   7.2753
     9.2105   9.6096   9.7944  10.0672  10.3187  10.3733  10.5084  10.6662
    10.7957  11.0067  11.5871  11.7348  11.9223  12.1405  12.2582  12.3813
    12.7559  12.8864  12.9754  13.0256  13.1295  13.2408

     occupation numbers 
     1.0000   1.0000   1.0000   1.0000   1.0000   1.0000   1.0000   1.0000
     1.0000   1.0000   1.0000   1.0000   1.0000   1.0000   1.0000   1.0000
     1.0000   1.0000   1.0000   1.0000   1.0000   1.0000   1.0000   1.0000
     1.0000   1.0000   1.0000   1.0000   1.0000   1.0000   1.0000   1.0000
     1.0000   1.0000   1.0000   1.0000   1.0000   1.0000   1.0000   1.0000
     1.0000   1.0000   1.0000   1.0000   1.0000   1.0000   1.0000   1.0000
     1.0000   1.0000   1.0000   1.0000   1.0000   1.0000   1.0000   1.0000
     1.0000   1.0000   1.0000   1.0000   1.0000   1.0000   1.0000   1.0000
     1.0000   1.0000   1.0000   1.0000   1.0000   1.0000   1.0000   1.0000
     1.0000   1.0000   1.0000   1.0000   1.0000   1.0000   1.0000   1.0000
     1.0000   1.0000   1.0000   1.0000   1.0000   1.0000   1.0000   1.0000
     1.0000   1.0000   1.0000   1.0000   1.0000   1.0000   1.0000   1.0000
     1.0000   1.0000   1.0000   1.0000   1.0000   1.0000   1.0000   1.0000
     1.0000   1.0000   1.0000   1.0000   1.0000   1.0000   1.0000   1.0000
     0.0000   0.0000   0.0000   0.0000   0.0000   0.0000   0.0000   0.0000
     0.0000   0.0000   0.0000   0.0000   0.0000   0.0000   0.0000   0.0000
     0.0000   0.0000   0.0000   0.0000   0.0000   0.0000

          k = 0.5303 0.5303-0.1768 (  8605 PWs)   bands (ev):

   -16.8765 -16.8670 -16.8486 -16.8316 -16.7937 -16.7861 -16.7610 -16.7488
   -16.7286 -16.7193 -16.6918 -16.6847 -16.6761 -16.6535 -16.6475 -16.6363
   -16.6170 -16.6114 -16.5979 -16.5932 -16.5869 -16.5858 -16.5749 -16.5682
   -16.5616 -16.5562 -16.5493 -16.5396 -16.5344 -16.5277 -16.5214 -16.5172
   -16.5069 -16.4989 -16.4926 -16.4856 -16.4816 -16.4756 -16.4731 -16.4682
   -16.4654 -16.4575 -16.4541 -16.4452 -16.4433 -16.4412 -16.4357 -16.4299
   -16.4287 -16.4189 -16.4137 -16.4069 -16.4057 -16.3983 -16.3956 -16.3881
   -16.3794 -16.3670 -16.3601 -16.3565 -16.3494 -16.3415 -16.3358 -16.3340
   -16.3204 -16.3128 -16.3042 -16.3023 -16.2946 -16.2882 -16.2791 -16.2733
   -16.2669 -16.2558 -16.2493 -16.2466 -16.2320 -16.2294 -16.1965 -16.1935
    -3.9178  -3.4187  -2.9506  -2.6133  -2.3297  -1.9466  -1.4377  -1.1726
     0.0179   0.2317   0.8388   1.1197   1.4727   2.2058   2.7655   3.7468
[...]
   -16.4627 -16.4599 -16.4544 -16.4489 -16.4445 -16.4411 -16.4390 -16.4319
   -16.4255 -16.4216 -16.4142 -16.4105 -16.4071 -16.4006 -16.3939 -16.3883
   -16.3827 -16.3673 -16.3602 -16.3548 -16.3479 -16.3424 -16.3355 -16.3283
   -16.3238 -16.3096 -16.3034 -16.2999 -16.2936 -16.2885 -16.2840 -16.2796
   -16.2665 -16.2575 -16.2491 -16.2450 -16.2338 -16.2290 -16.1933 -16.1909
    -3.6047  -3.3956  -3.2687  -3.0647  -1.9383  -1.6992  -1.6222  -1.4679
     0.2939   0.4059   0.6637   0.8475   2.6652   2.7091   2.9090   3.0093
     3.8315   3.9352   4.0189   4.0699   5.1511   5.1991   5.2776   5.3730
     5.4662   5.5918   5.6267   5.7247   6.4445   6.5166   6.7517   6.9756
    10.2355  10.3238  10.4020  10.5212  10.6493  10.7102  10.7964  10.8792
    10.9050  11.0026  11.0724  11.1590  12.3858  12.4876  12.6182  12.6553
    12.7413  12.8418  12.9218  12.9807  13.0476  13.1028

     occupation numbers 
     1.0000   1.0000   1.0000   1.0000   1.0000   1.0000   1.0000   1.0000
     1.0000   1.0000   1.0000   1.0000   1.0000   1.0000   1.0000   1.0000
     1.0000   1.0000   1.0000   1.0000   1.0000   1.0000   1.0000   1.0000
     1.0000   1.0000   1.0000   1.0000   1.0000   1.0000   1.0000   1.0000
     1.0000   1.0000   1.0000   1.0000   1.0000   1.0000   1.0000   1.0000
     1.0000   1.0000   1.0000   1.0000   1.0000   1.0000   1.0000   1.0000
     1.0000   1.0000   1.0000   1.0000   1.0000   1.0000   1.0000   1.0000
     1.0000   1.0000   1.0000   1.0000   1.0000   1.0000   1.0000   1.0000
     1.0000   1.0000   1.0000   1.0000   1.0000   1.0000   1.0000   1.0000
     1.0000   1.0000   1.0000   1.0000   1.0000   1.0000   1.0000   1.0000
     1.0000   1.0000   1.0000   1.0000   1.0000   1.0000   1.0000   1.0000
     1.0000   1.0000   1.0000   1.0000   1.0000   1.0000   1.0000   1.0000
     1.0000   1.0000   1.0000   1.0000   1.0000   1.0000   1.0000   1.0000
     1.0000   1.0000   1.0000   1.0000   1.0000   1.0000   1.0000   1.0000
     0.0000   0.0000   0.0000   0.0000   0.0000   0.0000   0.0000   0.0000
     0.0000   0.0000   0.0000   0.0000   0.0000   0.0000   0.0000   0.0000
     0.0000   0.0000   0.0000   0.0000   0.0000   0.0000

          k = 0.7071-0.0000 0.3536 (  8652 PWs)   bands (ev):

   -16.8770 -16.8659 -16.8493 -16.8317 -16.7926 -16.7857 -16.7617 -16.7536
   -16.7296 -16.7182 -16.6920 -16.6870 -16.6745 -16.6495 -16.6442 -16.6402
   -16.6230 -16.6073 -16.6022 -16.5928 -16.5891 -16.5814 -16.5723 -16.5676
   -16.5588 -16.5550 -16.5494 -16.5413 -16.5351 -16.5307 -16.5135 -16.5084
   -16.5053 -16.4957 -16.4935 -16.4911 -16.4823 -16.4771 -16.4717 -16.4684
   -16.4624 -16.4574 -16.4524 -16.4477 -16.4449 -16.4411 -16.4353 -16.4321
   -16.4299 -16.4227 -16.4155 -16.4102 -16.4059 -16.3983 -16.3902 -16.3862
   -16.3830 -16.3774 -16.3629 -16.3530 -16.3451 -16.3410 -16.3365 -16.3317
   -16.3199 -16.3118 -16.3069 -16.3029 -16.2959 -16.2910 -16.2853 -16.2722
   -16.2659 -16.2571 -16.2499 -16.2439 -16.2311 -16.2251 -16.1954 -16.1924
    -3.6073  -3.3942  -3.2156  -3.1245  -1.9269  -1.6880  -1.5911  -1.5323
     0.3357   0.4848   0.6127   0.8107   2.6447   2.7654   2.8804   2.9773
     3.8134   3.9405   3.9841   4.0932   5.1126   5.2347   5.3260   5.3581
     5.4548   5.4988   5.6922   5.7536   6.4351   6.5934   6.7899   6.8901
    10.2131  10.3483  10.4719  10.5297  10.6092  10.7185  10.7663  10.8100
    10.8969  11.0092  11.1237  11.2103  12.3850  12.5501  12.5941  12.6515
    12.7230  12.7896  12.8953  12.9544  13.0714  13.1560

     occupation numbers 
     1.0000   1.0000   1.0000   1.0000   1.0000   1.0000   1.0000   1.0000
     1.0000   1.0000   1.0000   1.0000   1.0000   1.0000   1.0000   1.0000
     1.0000   1.0000   1.0000   1.0000   1.0000   1.0000   1.0000   1.0000
     1.0000   1.0000   1.0000   1.0000   1.0000   1.0000   1.0000   1.0000
     1.0000   1.0000   1.0000   1.0000   1.0000   1.0000   1.0000   1.0000
     1.0000   1.0000   1.0000   1.0000   1.0000   1.0000   1.0000   1.0000
     1.0000   1.0000   1.0000   1.0000   1.0000   1.0000   1.0000   1.0000
     1.0000   1.0000   1.0000   1.0000   1.0000   1.0000   1.0000   1.0000
     1.0000   1.0000   1.0000   1.0000   1.0000   1.0000   1.0000   1.0000
     1.0000   1.0000   1.0000   1.0000   1.0000   1.0000   1.0000   1.0000
     1.0000   1.0000   1.0000   1.0000   1.0000   1.0000   1.0000   1.0000
     1.0000   1.0000   1.0000   1.0000   1.0000   1.0000   1.0000   1.0000
     1.0000   1.0000   1.0000   1.0000   1.0000   1.0000   1.0000   1.0000
     1.0000   1.0000   1.0000   1.0000   1.0000   1.0000   1.0000   1.0000
     0.0000   0.0000   0.0000   0.0000   0.0000   0.0000   0.0000   0.0000
     0.0000   0.0000   0.0000   0.0000   0.0000   0.0000   0.0000   0.0000
     0.0000   0.0000   0.0000   0.0000   0.0000   0.0000

     the Fermi energy is     8.2384 ev

!    total energy              =   -3410.92532458 Ry
     Harris-Foulkes estimate   =   -3410.92532453 Ry
     estimated scf accuracy    <          5.5E-10 Ry

     The total energy is the sum of the following terms:

     one-electron contribution =   -2239.83277023 Ry
     hartree contribution      =    1324.23963526 Ry
     xc contribution           =    -922.08105723 Ry
     ewald contribution        =   -1573.24867313 Ry
     smearing contrib. (-TS)   =      -0.00245924 Ry

     convergence has been achieved in  12 iterations

     Forces acting on atoms (Ry/au):

     atom    1 type  1   force =   0.16363175E-01  0.13330425E-01  0.31863732E-02
     atom    2 type  1   force =   0.40936088E-02 -0.75503870E-01  0.16089127E-01
     atom    3 type  1   force =   0.17445914E-01  0.19631219E-01 -0.47007350E-02
     atom    4 type  1   force =  -0.21970747E-01  0.29076715E-01 -0.36140526E-01
     atom    5 type  1   force =  -0.21343692E-01  0.62061610E-01  0.46798747E-01
     atom    6 type  1   force =   0.22085003E-03 -0.25400972E-01 -0.66680546E-01
     atom    7 type  1   force =   0.27326980E-01 -0.41942542E-01  0.73231400E-01
     atom    8 type  1   force =  -0.32681211E-01  0.32143340E-01 -0.27231070E-01
     atom    9 type  1   force =  -0.10921568E-01  0.64355573E-01  0.58652001E-03
     atom   10 type  1   force =   0.15507863E-01 -0.38114455E-02 -0.20823844E-01
     atom   11 type  1   force =  -0.44726367E-01  0.13443197E-01  0.20606265E-01
     atom   12 type  1   force =  -0.17807074E-01 -0.23419592E-01 -0.12320991E-01
     atom   13 type  1   force =  -0.30614758E-01  0.14762223E-01  0.12169389E-01
     atom   14 type  1   force =   0.39174473E-01 -0.36221431E-01 -0.12512097E-01
     atom   15 type  1   force =   0.31054840E-01 -0.26023981E-01  0.89600054E-02
     atom   16 type  1   force =   0.28877711E-01 -0.16480468E-01 -0.12180167E-02
     The non-local contrib.  to forces
     atom    1 type  1   force =   0.19081796E-01 -0.51917727E-02  0.14452393E-01
     atom    2 type  1   force =   0.25639979E-01  0.46740461E-01  0.41991644E-02
     atom    3 type  1   force =   0.93529009E-02  0.23681367E-02  0.25432344E-02
     atom    4 type  1   force =  -0.80532460E-02 -0.57819253E-02 -0.20540311E-01
     atom    5 type  1   force =  -0.25712838E-02 -0.11285411E-01 -0.84304757E-02
     atom    6 type  1   force =   0.94074279E-02  0.67018694E-02  0.21751053E-01
     atom    7 type  1   force =  -0.31349590E-01  0.15175656E-02 -0.24752566E-01
     atom    8 type  1   force =  -0.15388168E-01 -0.21982676E-01  0.20660978E-01
     atom    9 type  1   force =  -0.28725521E-01 -0.41951217E-01 -0.19003148E-01
     atom   10 type  1   force =  -0.40570347E-01 -0.16424752E-02 -0.72643173E-02
     atom   11 type  1   force =   0.26907120E-01 -0.13231394E-01 -0.19162637E-02
     atom   12 type  1   force =  -0.22808879E-01  0.32851991E-01  0.26762811E-01
     atom   13 type  1   force =   0.56675559E-02 -0.45610024E-02 -0.12222361E-01
     atom   14 type  1   force =   0.21614341E-01  0.52343365E-03 -0.22730454E-01
     atom   15 type  1   force =   0.13005223E-01 -0.28001398E-02 -0.14602850E-02
     atom   16 type  1   force =   0.15552394E-01 -0.79303473E-02  0.31613611E-01
     The ionic contribution  to forces
     atom    1 type  1   force =   0.18108178E+00 -0.79323399E-01 -0.86105447E+00
     atom    2 type  1   force =   0.72218077E-01 -0.20295194E+01  0.49386131E+00
     atom    3 type  1   force =   0.45614322E+00  0.14689864E+00 -0.33280546E+00
     atom    4 type  1   force =  -0.21339249E+01  0.72058599E+00 -0.96112537E+00
     atom    5 type  1   force =  -0.97348734E+00  0.33154472E+01  0.22789161E+01
     atom    6 type  1   force =   0.75711210E-01 -0.12272069E+01 -0.33571426E+01
     atom    7 type  1   force =   0.11026558E+01 -0.16571921E+01  0.34955185E+01
     atom    8 type  1   force =  -0.76080616E+00  0.15653020E+01  0.67499041E+00
     atom    9 type  1   force =   0.72345878E+00  0.26673874E+01  0.52421935E-01
     atom   10 type  1   force =   0.49737638E+00  0.15163545E+01 -0.17370611E+01
     atom   11 type  1   force =  -0.27761221E+01  0.89933911E+00 -0.21678769E-01
     atom   12 type  1   force =  -0.12530075E+01 -0.25924709E+00 -0.12748748E+01
     atom   13 type  1   force =  -0.75633099E+00 -0.14469821E+00 -0.23504960E-01
     atom   14 type  1   force =   0.30248857E+01 -0.81416395E+00  0.79586573E+00
     atom   15 type  1   force =   0.17223444E+01 -0.21955646E+01 -0.14940071E+00
     atom   16 type  1   force =   0.79780360E+00 -0.24243993E+01  0.92707430E+00
     The local contribution  to forces
     atom    1 type  1   force =  -0.18283376E+00  0.97436439E-01  0.85118877E+00
     atom    2 type  1   force =  -0.93214647E-01  0.19032991E+01 -0.48167427E+00
     atom    3 type  1   force =  -0.44508924E+00 -0.12923318E+00  0.32548358E+00
     atom    4 type  1   force =   0.21166961E+01 -0.68481905E+00  0.94163771E+00
     atom    5 type  1   force =   0.95187785E+00 -0.32363289E+01 -0.22204719E+01
     atom    6 type  1   force =  -0.84085513E-01  0.11936844E+01  0.32633468E+01
     atom    7 type  1   force =  -0.10424643E+01  0.16114698E+01 -0.33920969E+01
     atom    8 type  1   force =   0.74103152E+00 -0.15097409E+01 -0.72241000E+00
     atom    9 type  1   force =  -0.70658033E+00 -0.25573589E+01 -0.33040294E-01
     atom   10 type  1   force =  -0.44094416E+00 -0.15176692E+01  0.17216518E+01
     atom   11 type  1   force =   0.27020405E+01 -0.87120873E+00  0.44696459E-01
     atom   12 type  1   force =   0.12552712E+01  0.20339801E+00  0.12350226E+01
     atom   13 type  1   force =   0.71797640E+00  0.16504001E+00  0.49155580E-01
     atom   14 type  1   force =  -0.30018705E+01  0.77405780E+00 -0.78645472E+00
     atom   15 type  1   force =  -0.17021261E+01  0.21693244E+01  0.15931944E+00
     atom   16 type  1   force =  -0.78248297E+00  0.24135350E+01 -0.95890828E+00
     The core correction contribution to forces
     atom    1 type  1   force =  -0.97716811E-03  0.41768524E-03 -0.14443450E-02
     atom    2 type  1   force =  -0.55931537E-03  0.39467343E-02 -0.27268324E-03
     atom    3 type  1   force =  -0.29621425E-02 -0.39730632E-03  0.82398296E-04
     atom    4 type  1   force =   0.33226311E-02 -0.90115704E-03  0.38896501E-02
     atom    5 type  1   force =   0.28820767E-02 -0.57529915E-02 -0.32005677E-02
     atom    6 type  1   force =  -0.83353574E-03  0.14252213E-02  0.53671509E-02
     atom    7 type  1   force =  -0.15241168E-02  0.22097159E-02 -0.54129405E-02
     atom    8 type  1   force =   0.24674944E-02 -0.14063764E-02 -0.49006156E-03
     atom    9 type  1   force =   0.93115780E-03 -0.36756582E-02  0.18908761E-03
     atom   10 type  1   force =  -0.34427342E-03 -0.86719463E-03  0.18753923E-02
     atom   11 type  1   force =   0.24080251E-02 -0.14561162E-02 -0.50811151E-03
     atom   12 type  1   force =   0.27451498E-02 -0.42256777E-03  0.75657651E-03
     atom   13 type  1   force =   0.20959854E-02 -0.10286286E-02 -0.12607124E-02
     atom   14 type  1   force =  -0.54709018E-02  0.33503203E-02  0.79572406E-03
     atom   15 type  1   force =  -0.21593699E-02  0.29914607E-02  0.54002990E-03
     atom   16 type  1   force =  -0.19851429E-02  0.23341006E-02 -0.10138602E-02
     The Hubbard contrib.    to forces
     atom    1 type  1   force =   0.00000000E+00  0.00000000E+00  0.00000000E+00
     atom    2 type  1   force =   0.00000000E+00  0.00000000E+00  0.00000000E+00
     atom    3 type  1   force =   0.00000000E+00  0.00000000E+00  0.00000000E+00
     atom    4 type  1   force =   0.00000000E+00  0.00000000E+00  0.00000000E+00
     atom    5 type  1   force =   0.00000000E+00  0.00000000E+00  0.00000000E+00
     atom    6 type  1   force =   0.00000000E+00  0.00000000E+00  0.00000000E+00
     atom    7 type  1   force =   0.00000000E+00  0.00000000E+00  0.00000000E+00
     atom    8 type  1   force =   0.00000000E+00  0.00000000E+00  0.00000000E+00
     atom    9 type  1   force =   0.00000000E+00  0.00000000E+00  0.00000000E+00
     atom   10 type  1   force =   0.00000000E+00  0.00000000E+00  0.00000000E+00
     atom   11 type  1   force =   0.00000000E+00  0.00000000E+00  0.00000000E+00
     atom   12 type  1   force =   0.00000000E+00  0.00000000E+00  0.00000000E+00
     atom   13 type  1   force =   0.00000000E+00  0.00000000E+00  0.00000000E+00
     atom   14 type  1   force =   0.00000000E+00  0.00000000E+00  0.00000000E+00
     atom   15 type  1   force =   0.00000000E+00  0.00000000E+00  0.00000000E+00
     atom   16 type  1   force =   0.00000000E+00  0.00000000E+00  0.00000000E+00
     The SCF correction term to forces
     atom    1 type  1   force =   0.10662036E-04 -0.81777189E-05  0.43116479E-04
     atom    2 type  1   force =   0.96485413E-05  0.29504270E-04 -0.25310050E-04
     atom    3 type  1   force =   0.13148727E-05 -0.47213815E-05 -0.53964600E-05
     atom    4 type  1   force =  -0.11189249E-04 -0.67848179E-05 -0.31249154E-05
     atom    5 type  1   force =  -0.44861540E-04 -0.18016922E-04 -0.15317536E-04
     atom    6 type  1   force =   0.21393486E-04 -0.51680781E-05 -0.38699667E-05
     atom    7 type  1   force =   0.93238546E-05  0.52784667E-04 -0.25632390E-04
     atom    8 type  1   force =   0.14227998E-04 -0.28392155E-04  0.16686091E-04
     atom    9 type  1   force =  -0.55225406E-05 -0.45711144E-04  0.18026043E-04
     atom   10 type  1   force =  -0.96035713E-05  0.13254583E-04 -0.26547357E-04
     atom   11 type  1   force =   0.40212527E-04  0.68384922E-06  0.12035841E-04
     atom   12 type  1   force =  -0.69499549E-05  0.41887091E-06  0.10959901E-04
     atom   13 type  1   force =  -0.23581416E-04  0.10404163E-04  0.92988338E-06
     atom   14 type  1   force =   0.15964853E-04  0.11318057E-04  0.10717632E-04
     atom   15 type  1   force =  -0.92056428E-05  0.25156944E-04 -0.39382317E-04
     atom   16 type  1   force =  -0.10035219E-04 -0.19586750E-04  0.15306237E-04

     Total force =     0.218603     Total SCF correction =     0.000146


     entering subroutine stress ...

          total   stress  (Ry/bohr**3)                   (kbar)     P=    7.38
   0.0000555151  -0.0000992501  -0.0000801240          8.17    -14.60    -11.79
  -0.0000992501   0.0000433775   0.0000123577        -14.60      6.38      1.82
  -0.0000801240   0.0000123577   0.0000516574        -11.79      1.82      7.60

     kinetic stress (kbar)   9997.85     11.62     10.76
                               11.62   9999.66     -1.89
                               10.76     -1.89   9999.04

     local   stress (kbar)   1549.97   2133.59   1955.45
                             2133.59   1828.75   -298.54
                             1955.45   -298.54   1687.96

     nonloc. stress (kbar)   2942.62    -10.50     -9.40
                              -10.50   2941.66      1.52
                               -9.40      1.52   2942.33

     hartree stress (kbar)  26402.31   -831.61   -766.08
                             -831.61  26291.53    116.73
                             -766.08    116.73  26346.65

     exc-cor stress (kbar)  19474.18     -0.57     -0.50
                               -0.57  19474.12      0.08
                               -0.50      0.08  19474.16

     corecor stress (kbar) -29142.51      0.65      0.57
                                0.65 -29142.44     -0.09
                                0.57     -0.09 -29142.48

     ewald   stress (kbar) -31216.26  -1317.78  -1202.58
                            -1317.78 -31386.90    184.01
                            -1202.58    184.01 -31300.05

     hubbard stress (kbar)      0.00      0.00      0.00
                                0.00      0.00      0.00
                                0.00      0.00      0.00

     london  stress (kbar)      0.00      0.00      0.00
                                0.00      0.00      0.00
                                0.00      0.00      0.00

     XDM     stress (kbar)      0.00      0.00      0.00
                                0.00      0.00      0.00
                                0.00      0.00      0.00

     dft-nl  stress (kbar)      0.00      0.00      0.00
                                0.00      0.00      0.00
                                0.00      0.00      0.00



     Writing output data file Ge_diamond.scf.in.super.222.033.save

     init_run     :     33.16s CPU     28.72s WALL (       1 calls)
     electrons    :   1632.00s CPU   1389.49s WALL (       1 calls)
     forces       :     16.58s CPU     11.99s WALL (       1 calls)
     stress       :     93.74s CPU     93.02s WALL (       1 calls)

     Called by init_run:
     wfcinit      :     32.11s CPU     27.65s WALL (       1 calls)
     potinit      :      0.12s CPU      0.12s WALL (       1 calls)

     Called by electrons:
     c_bands      :   1457.46s CPU   1226.63s WALL (      13 calls)
     sum_band     :    163.22s CPU    151.47s WALL (      13 calls)
     v_of_rho     :      1.30s CPU      1.30s WALL (      13 calls)
     v_h          :      0.08s CPU      0.08s WALL (      13 calls)
     v_xc         :      1.46s CPU      1.47s WALL (      15 calls)
     newd         :      8.68s CPU      8.71s WALL (      13 calls)
     mix_rho      :      1.83s CPU      1.84s WALL (      13 calls)

     Called by c_bands:
     init_us_2    :      6.29s CPU      6.43s WALL (    1044 calls)
     cegterg      :   1432.06s CPU   1200.77s WALL (     468 calls)

     Called by sum_band:
     sum_band:bec :      1.93s CPU      1.94s WALL (     468 calls)
     addusdens    :      9.32s CPU      9.34s WALL (      13 calls)

     Called by *egterg:
     h_psi        :    621.89s CPU    562.81s WALL (    1730 calls)
     s_psi        :     79.57s CPU     47.46s WALL (    1730 calls)
     g_psi        :      2.77s CPU      2.82s WALL (    1226 calls)
     cdiaghg      :    465.50s CPU    396.28s WALL (    1658 calls)
     cegterg:over :    120.02s CPU     81.04s WALL (    1226 calls)
     cegterg:upda :     58.81s CPU     35.24s WALL (    1226 calls)
     cegterg:last :     32.15s CPU     17.89s WALL (     468 calls)

     Called by h_psi:
     h_psi:vloc   :    446.38s CPU    450.03s WALL (    1730 calls)
     h_psi:vnl    :    173.23s CPU    110.45s WALL (    1730 calls)
     add_vuspsi   :     80.90s CPU     48.59s WALL (    1730 calls)

     General routines
     calbec       :    138.14s CPU     92.78s WALL (    2270 calls)
     fft          :      1.42s CPU      1.43s WALL (     233 calls)
     ffts         :      1.04s CPU      1.02s WALL (     395 calls)
     fftw         :    488.15s CPU    492.40s WALL (  357486 calls)
     interpolate  :      0.29s CPU      0.29s WALL (      26 calls)

     Parallel routines
     fft_scatter  :    206.45s CPU    209.03s WALL (  358114 calls)

     PWSCF        : 29m39.46s CPU    25m30.55s WALL


   This run was terminated on:  11: 9:11  14Feb2017            

=------------------------------------------------------------------------------=
   JOB DONE.
=------------------------------------------------------------------------------=
