
     Program PWSCF v.5.1 starts on 14Feb2017 at 10:43:41 

     This program is part of the open-source Quantum ESPRESSO suite
     for quantum simulation of materials; please cite
         "P. Giannozzi et al., J. Phys.:Condens. Matter 21 395502 (2009);
          URL http://www.quantum-espresso.org", 
     in publications or presentations arising from this work. More details at
     http://www.quantum-espresso.org/quote

     Parallel version (MPI), running on     8 processors
     R & G space division:  proc/nbgrp/npool/nimage =       8
     Reading input from /tmp/Ge_diamond.scf.in.super.222.04.27214/Ge_diamond.scf.in.super.222.04.t
Warning: card &IONS ignored
Warning: card   ION_DYNAMICS='BFGS', ignored
Warning: card / ignored
Warning: card &CELL ignored
Warning: card  CELL_DYNAMICS = 'BFGS' ignored
Warning: card / ignored
     Message from routine read_cards :
     DEPRECATED: no units specified in CELL_PARAMETERS card

     Current dimensions of program PWSCF are:
     Max number of different atomic species (ntypx) = 10
     Max number of k-points (npk) =  40000
     Max angular momentum in pseudopotentials (lmaxx) =  3

     Subspace diagonalization in iterative solution of the eigenvalue problem:
     a serial algorithm will be used


     Parallelization info
     --------------------
     sticks:   dense  smooth     PW     G-vecs:    dense   smooth      PW
     Min         397     277     76                14695     8616    1260
     Max         399     278     77                14696     8641    1261
     Sum        3181    2221    613               117565    69041   10081



     bravais-lattice index     =            0
     lattice parameter (alat)  =    15.161884076  a.u.
     unit-cell volume          =    2464.5891 (a.u.)^3
     number of atoms/cell      =           16
     number of atomic types    =            1
     number of electrons       =       224.00
     number of Kohn-Sham states=          134
     kinetic-energy cutoff     =      35.0000  Ry
     charge density cutoff     =     200.0000  Ry
     convergence threshold     =      1.0E-09
     mixing beta               =       0.3000
     number of iterations used =            8  local-TF  mixing
     Exchange-correlation      = SLA  PW   PSX  PSC ( 1  4 10  8 0)
     A smooth kinetic-energy cutoff is imposed at      34.5000 Ry
     height of the smooth step-function =             800.0000 Ry
     width of the smooth step-function  =               1.0000 Ry


     celldm(1)=  15.161884  celldm(2)=   0.000000  celldm(3)=   0.000000
     celldm(4)=   0.000000  celldm(5)=   0.000000  celldm(6)=   0.000000

     crystal axes: (cart. coord. in units of alat)
               a(1) = (   0.000000000000   0.707106781187   0.707106781187 )  
               a(2) = (   0.707106781187   0.000000000000   0.707106781187 )  
               a(3) = (   0.707106781187   0.707106781187  -0.000000000000 )  

     reciprocal axes: (cart. coord. in units 2 pi/alat)
               b(1) = ( -0.707107  0.707107  0.707107 )  
               b(2) = (  0.707107 -0.707107  0.707107 )  
               b(3) = (  0.707107  0.707107 -0.707107 )  


     PseudoPot. # 1 for Ge read from file:
     /users/kfg/psuedo/gbrv_1.5/ge.pbesol.UPF
     MD5 check sum: 7bed0412183f5e553a4d27ec7023354d
     Pseudo is Ultrasoft + core correction, Zval = 14.0
     Generated by new atomic code, or converted to UPF format
     Using radial grid of  873 points,  6 beta functions with: 
                l(1) =   0
                l(2) =   0
                l(3) =   1
                l(4) =   1
                l(5) =   2
                l(6) =   2
     Q(r) pseudized with  8 coefficients,  rinner =    1.400   1.400   1.400
                                                       1.400   1.400

     atomic species   valence    mass     pseudopotential
        Ge            14.00    72.64000     Ge( 1.00)

     No symmetry found


                                    s                        frac. trans.

      isym =  1     identity                                     

 cryst.   s( 1) = (     1          0          0      )
                  (     0          1          0      )
                  (     0          0          1      )

 cart.    s( 1) = (  1.0000000  0.0000000  0.0000000 )
                  (  0.0000000  1.0000000  0.0000000 )
                  (  0.0000000  0.0000000  1.0000000 )


     point group C_1 (1)    
     there are  1 classes
     the character table:

       E    
A      1.00

     the symmetry operations in each class:
     E        1

   Cartesian axes

     site n.     atom                  positions (alat units)
         1           Ge  tau(   1) = (    0.01235137308    0.00057966129   -0.00242254391  )
         2           Ge  tau(   2) = (    0.18538496378    0.17994934332    0.18025526330  )
         3           Ge  tau(   3) = (    0.34682664354    0.34958195257    0.00972203234  )
         4           Ge  tau(   4) = (    0.53567176362    0.52904338405    0.18023072841  )
         5           Ge  tau(   5) = (    0.34851657928    0.01218046469    0.35557227153  )
         6           Ge  tau(   6) = (    0.52877049577    0.17486272782    0.52255035584  )
         7           Ge  tau(   7) = (    0.70779914235    0.35635582367    0.36590653357  )
         8           Ge  tau(   8) = (    0.89592949882    0.52076540089    0.51882454415  )
         9           Ge  tau(   9) = (    0.00950908882    0.34973825182    0.36397874376  )
        10           Ge  tau(  10) = (    0.17252931108    0.53720739083    0.52044827853  )
        11           Ge  tau(  11) = (    0.35599354515    0.70466576756    0.34166566410  )
        12           Ge  tau(  12) = (    0.54221433948    0.88867037647    0.52348530592  )
        13           Ge  tau(  13) = (    0.34976929551    0.36357485726    0.70287317361  )
        14           Ge  tau(  14) = (    0.51974978489    0.51847039201    0.87688089672  )
        15           Ge  tau(  15) = (    0.70919379672    0.71534196130    0.69520096104  )
        16           Ge  tau(  16) = (    0.89615594142    0.87208944156    0.87964090007  )

   Crystallographic axes

     site n.     atom                  positions (cryst. coord.)
         1           Ge  tau(   1) = (   -0.01003685445    0.00661086000    0.01085661932  )
         2           Ge  tau(   2) = (    0.12361615493    0.13130328311    0.13087064693  )
         3           Ge  tau(   3) = (    0.00882281270    0.00492621729    0.48556072579  )
         4           Ge  tau(   4) = (    0.12275539809    0.13212934238    0.62542493071  )
         5           Ge  tau(   5) = (    0.01360201702    0.48925311179    0.00362376134  )
         6           Ge  tau(   6) = (    0.11924831749    0.61974948276    0.12804492374  )
         7           Ge  tau(   7) = (    0.01022703733    0.50724294500    0.49373620155  )
         8           Ge  tau(   8) = (    0.10158327570    0.63214543112    0.63489021705  )
         9           Ge  tau(   9) = (    0.49795018624    0.01679348960   -0.00334560723  )
        10           Ge  tau(  10) = (    0.62587885014    0.11014616387    0.13384712777  )
        11           Ge  tau(  11) = (    0.48814260086   -0.00495438489    0.50840528457  )
        12           Ge  tau(  12) = (    0.61514142281    0.12517859653    0.64162827607  )
        13           Ge  tau(  13) = (    0.50676839371    0.48724438105    0.00740410037  )
        14           Ge  tau(  14) = (    0.61914376098    0.62095309575    0.11408409909  )
        15           Ge  tau(  15) = (    0.49592872270    0.48723390498    0.51571758070  )
        16           Ge  tau(  16) = (    0.60498246019    0.63901763071    0.62833825566  )

     number of k points=    36  gaussian smearing, width (Ry)=  0.0150
                       cart. coord. in units 2pi/alat
        k(    1) = (   0.0000000   0.0000000   0.0000000), wk =   0.0312500
        k(    2) = (   0.1767767   0.1767767  -0.1767767), wk =   0.0625000
        k(    3) = (  -0.3535534  -0.3535534   0.3535534), wk =   0.0312500
        k(    4) = (   0.3535534   0.0000000   0.0000000), wk =   0.0625000
        k(    5) = (  -0.1767767  -0.5303301   0.5303301), wk =   0.0625000
        k(    6) = (   0.0000000  -0.3535534   0.3535534), wk =   0.0625000
        k(    7) = (  -0.7071068   0.0000000   0.0000000), wk =   0.0312500
        k(    8) = (  -0.7071068   0.3535534   0.0000000), wk =   0.0625000
        k(    9) = (  -0.1767767  -0.1767767  -0.1767767), wk =   0.0625000
        k(   10) = (  -0.1767767   0.1767767   0.1767767), wk =   0.0625000
        k(   11) = (   0.1767767  -0.1767767   0.1767767), wk =   0.0625000
        k(   12) = (   0.3535534   0.3535534   0.3535534), wk =   0.0312500
        k(   13) = (   0.3535534  -0.3535534  -0.3535534), wk =   0.0312500
        k(   14) = (  -0.3535534   0.3535534  -0.3535534), wk =   0.0312500
        k(   15) = (   0.0000000   0.3535534   0.0000000), wk =   0.0625000
        k(   16) = (   0.0000000   0.0000000   0.3535534), wk =   0.0625000
        k(   17) = (   0.1767767   0.5303301   0.5303301), wk =   0.0625000
        k(   18) = (   0.1767767  -0.5303301  -0.5303301), wk =   0.0625000
        k(   19) = (  -0.1767767   0.5303301  -0.5303301), wk =   0.0625000
        k(   20) = (  -0.5303301  -0.1767767  -0.5303301), wk =   0.0625000
        k(   21) = (   0.5303301   0.1767767  -0.5303301), wk =   0.0625000
        k(   22) = (  -0.5303301   0.1767767   0.5303301), wk =   0.0625000
        k(   23) = (   0.5303301  -0.1767767   0.5303301), wk =   0.0625000
        k(   24) = (   0.5303301   0.5303301  -0.1767767), wk =   0.0625000
        k(   25) = (  -0.5303301   0.5303301   0.1767767), wk =   0.0625000
        k(   26) = (   0.5303301  -0.5303301   0.1767767), wk =   0.0625000
        k(   27) = (  -0.5303301  -0.5303301  -0.1767767), wk =   0.0625000
        k(   28) = (   0.0000000   0.3535534   0.3535534), wk =   0.0625000
        k(   29) = (  -0.3535534   0.0000000  -0.3535534), wk =   0.0625000
        k(   30) = (   0.3535534   0.0000000  -0.3535534), wk =   0.0625000
        k(   31) = (   0.3535534   0.3535534   0.0000000), wk =   0.0625000
        k(   32) = (  -0.3535534   0.3535534   0.0000000), wk =   0.0625000
        k(   33) = (   0.0000000  -0.7071068   0.0000000), wk =   0.0312500
        k(   34) = (   0.0000000   0.0000000  -0.7071068), wk =   0.0312500
        k(   35) = (   0.3535534  -0.7071068   0.0000000), wk =   0.0625000
        k(   36) = (   0.7071068  -0.0000000   0.3535534), wk =   0.0625000

                       cryst. coord.
        k(    1) = (   0.0000000   0.0000000   0.0000000), wk =   0.0312500
        k(    2) = (   0.0000000   0.0000000   0.2500000), wk =   0.0625000
        k(    3) = (   0.0000000   0.0000000  -0.5000000), wk =   0.0312500
        k(    4) = (   0.0000000   0.2500000   0.2500000), wk =   0.0625000
        k(    5) = (   0.0000000   0.2500000  -0.5000000), wk =   0.0625000
        k(    6) = (   0.0000000   0.2500000  -0.2500000), wk =   0.0625000
        k(    7) = (   0.0000000  -0.5000000  -0.5000000), wk =   0.0312500
        k(    8) = (   0.2500000  -0.5000000  -0.2500000), wk =   0.0625000
        k(    9) = (  -0.2500000  -0.2500000  -0.2500000), wk =   0.0625000
        k(   10) = (   0.2500000   0.0000000   0.0000000), wk =   0.0625000
        k(   11) = (   0.0000000   0.2500000   0.0000000), wk =   0.0625000
        k(   12) = (   0.5000000   0.5000000   0.5000000), wk =   0.0312500
        k(   13) = (  -0.5000000   0.0000000   0.0000000), wk =   0.0312500
        k(   14) = (   0.0000000  -0.5000000   0.0000000), wk =   0.0312500
        k(   15) = (   0.2500000   0.0000000   0.2500000), wk =   0.0625000
        k(   16) = (   0.2500000   0.2500000   0.0000000), wk =   0.0625000
        k(   17) = (   0.7500000   0.5000000   0.5000000), wk =   0.0625000
        k(   18) = (  -0.7500000  -0.2500000  -0.2500000), wk =   0.0625000
        k(   19) = (   0.0000000  -0.5000000   0.2500000), wk =   0.0625000
        k(   20) = (  -0.5000000  -0.7500000  -0.5000000), wk =   0.0625000
        k(   21) = (  -0.2500000   0.0000000   0.5000000), wk =   0.0625000
        k(   22) = (   0.5000000   0.0000000  -0.2500000), wk =   0.0625000
        k(   23) = (   0.2500000   0.7500000   0.2500000), wk =   0.0625000
        k(   24) = (   0.2500000   0.2500000   0.7500000), wk =   0.0625000
        k(   25) = (   0.5000000  -0.2500000   0.0000000), wk =   0.0625000
        k(   26) = (  -0.2500000   0.5000000   0.0000000), wk =   0.0625000
        k(   27) = (  -0.5000000  -0.5000000  -0.7500000), wk =   0.0625000
        k(   28) = (   0.5000000   0.2500000   0.2500000), wk =   0.0625000
        k(   29) = (  -0.2500000  -0.5000000  -0.2500000), wk =   0.0625000
        k(   30) = (  -0.2500000   0.0000000   0.2500000), wk =   0.0625000
        k(   31) = (   0.2500000   0.2500000   0.5000000), wk =   0.0625000
        k(   32) = (   0.2500000  -0.2500000   0.0000000), wk =   0.0625000
        k(   33) = (  -0.5000000   0.0000000  -0.5000000), wk =   0.0312500
        k(   34) = (  -0.5000000  -0.5000000   0.0000000), wk =   0.0312500
        k(   35) = (  -0.5000000   0.2500000  -0.2500000), wk =   0.0625000
        k(   36) = (   0.2500000   0.7500000   0.5000000), wk =   0.0625000

     Dense  grid:   117565 G-vectors     FFT dimensions: (  72,  72,  72)

     Smooth grid:    69041 G-vectors     FFT dimensions: (  60,  60,  60)

     Largest allocated arrays     est. size (Mb)     dimensions
        Kohn-Sham Wavefunctions         2.25 Mb     (    1100,  134)
        NL pseudopotentials             4.83 Mb     (    1100,  288)
        Each V/rho on FFT grid          0.71 Mb     (   46656)
        Each G-vector array             0.11 Mb     (   14696)
        G-vector shells                 0.01 Mb     (     776)
     Largest temporary arrays     est. size (Mb)     dimensions
        Auxiliary wavefunctions         9.00 Mb     (    1100,  536)
        Each subspace H/S matrix        4.38 Mb     (     536,  536)
        Each <psi_i|beta_j> matrix      0.59 Mb     (     288,  134)
        Arrays for rho mixing           5.70 Mb     (   46656,    8)

     Check: negative/imaginary core charge=   -0.000002    0.000000

     Initial potential from superposition of free atoms

     starting charge  223.98707, renormalised to  224.00000
     Starting wfc are  144 randomized atomic wfcs

     total cpu time spent up to now is       28.8 secs

     per-process dynamical memory:   102.9 Mb

     Self-consistent Calculation

     iteration #  1     ecut=    35.00 Ry     beta=0.30
     Davidson diagonalization with overlap
     ethr =  1.00E-02,  avg # of iterations =  3.8

     Threshold (ethr) on eigenvalues was too large:
     Diagonalizing with lowered threshold

     Davidson diagonalization with overlap
     ethr =  1.12E-04,  avg # of iterations =  5.9

     total cpu time spent up to now is      295.1 secs

     total energy              =   -3410.94474757 Ry
     Harris-Foulkes estimate   =   -3410.97244982 Ry
     estimated scf accuracy    <       0.26786552 Ry

     iteration #  2     ecut=    35.00 Ry     beta=0.30
     Davidson diagonalization with overlap
     ethr =  1.20E-04,  avg # of iterations =  1.0

     total cpu time spent up to now is      372.3 secs

     total energy              =   -3410.89361523 Ry
     Harris-Foulkes estimate   =   -3410.94568921 Ry
     estimated scf accuracy    <       0.16430293 Ry

     iteration #  3     ecut=    35.00 Ry     beta=0.30
     Davidson diagonalization with overlap
     ethr =  7.33E-05,  avg # of iterations =  2.0

     total cpu time spent up to now is      460.3 secs

     total energy              =   -3410.90240453 Ry
     Harris-Foulkes estimate   =   -3410.90288406 Ry
     estimated scf accuracy    <       0.00316751 Ry

     iteration #  4     ecut=    35.00 Ry     beta=0.30
     Davidson diagonalization with overlap
     ethr =  1.41E-06,  avg # of iterations =  4.7

     total cpu time spent up to now is      641.8 secs

     total energy              =   -3410.90300164 Ry
     Harris-Foulkes estimate   =   -3410.90304367 Ry
     estimated scf accuracy    <       0.00035874 Ry

     iteration #  5     ecut=    35.00 Ry     beta=0.30
     Davidson diagonalization with overlap
     ethr =  1.60E-07,  avg # of iterations =  2.0

     total cpu time spent up to now is      736.7 secs

     total energy              =   -3410.90299959 Ry
     Harris-Foulkes estimate   =   -3410.90303024 Ry
     estimated scf accuracy    <       0.00007654 Ry

     iteration #  6     ecut=    35.00 Ry     beta=0.30
     Davidson diagonalization with overlap
     ethr =  3.42E-08,  avg # of iterations =  2.0

     total cpu time spent up to now is      824.7 secs

     total energy              =   -3410.90300567 Ry
     Harris-Foulkes estimate   =   -3410.90300299 Ry
     estimated scf accuracy    <       0.00000426 Ry

     iteration #  7     ecut=    35.00 Ry     beta=0.30
     Davidson diagonalization with overlap
     ethr =  1.90E-09,  avg # of iterations =  2.0

     total cpu time spent up to now is      919.7 secs

     total energy              =   -3410.90300645 Ry
     Harris-Foulkes estimate   =   -3410.90300623 Ry
     estimated scf accuracy    <       0.00000255 Ry

     iteration #  8     ecut=    35.00 Ry     beta=0.30
     Davidson diagonalization with overlap
     ethr =  1.14E-09,  avg # of iterations =  2.0

     total cpu time spent up to now is     1009.8 secs

     total energy              =   -3410.90300695 Ry
     Harris-Foulkes estimate   =   -3410.90300661 Ry
     estimated scf accuracy    <       0.00000028 Ry

     iteration #  9     ecut=    35.00 Ry     beta=0.30
     Davidson diagonalization with overlap
     ethr =  1.24E-10,  avg # of iterations =  2.0

     total cpu time spent up to now is     1097.7 secs

     total energy              =   -3410.90300711 Ry
     Harris-Foulkes estimate   =   -3410.90300696 Ry
     estimated scf accuracy    <       0.00000014 Ry

     iteration # 10     ecut=    35.00 Ry     beta=0.30
     Davidson diagonalization with overlap
     ethr =  6.37E-11,  avg # of iterations =  2.0

     total cpu time spent up to now is     1191.2 secs

     total energy              =   -3410.90300721 Ry
     Harris-Foulkes estimate   =   -3410.90300714 Ry
     estimated scf accuracy    <       0.00000003 Ry

     iteration # 11     ecut=    35.00 Ry     beta=0.30
     Davidson diagonalization with overlap
     ethr =  1.41E-11,  avg # of iterations =  2.0

     total cpu time spent up to now is     1301.4 secs

     total energy              =   -3410.90300725 Ry
     Harris-Foulkes estimate   =   -3410.90300721 Ry
     estimated scf accuracy    <          2.0E-09 Ry

     iteration # 12     ecut=    35.00 Ry     beta=0.30
     Davidson diagonalization with overlap
     ethr =  8.73E-13,  avg # of iterations =  2.0

     total cpu time spent up to now is     1399.1 secs

     End of self-consistent calculation

          k = 0.0000 0.0000 0.0000 (  8609 PWs)   bands (ev):

   -16.8619 -16.8424 -16.8081 -16.7951 -16.7672 -16.7533 -16.7407 -16.7369
   -16.7215 -16.7061 -16.6952 -16.6848 -16.6749 -16.6672 -16.6637 -16.6510
   -16.6433 -16.6375 -16.6335 -16.6248 -16.6162 -16.6085 -16.6044 -16.5966
   -16.5950 -16.5819 -16.5770 -16.5728 -16.5671 -16.5617 -16.5493 -16.5451
   -16.5360 -16.5338 -16.5257 -16.5110 -16.5109 -16.4972 -16.4926 -16.4875
   -16.4824 -16.4710 -16.4647 -16.4613 -16.4549 -16.4506 -16.4425 -16.4375
   -16.4334 -16.4319 -16.4248 -16.4224 -16.4125 -16.4062 -16.4015 -16.3998
   -16.3943 -16.3862 -16.3788 -16.3738 -16.3655 -16.3588 -16.3574 -16.3524
   -16.3383 -16.3273 -16.3154 -16.3120 -16.3052 -16.2973 -16.2914 -16.2771
   -16.2631 -16.2593 -16.2119 -16.2103 -16.2049 -16.1905 -16.1743 -16.1680
    -4.5827  -2.7440  -2.5746  -2.4266  -2.2781  -1.1300  -0.9043  -0.7470
    -0.6236  -0.4789  -0.2930   0.4713   0.6172   0.6536   1.0398   5.0061
     5.0371   5.1215   5.1552   5.2212   5.2582   6.4372   6.4405   6.6528
     6.8038   6.9142   7.0553   7.0814   7.1075   8.0205   8.0494   8.1419
     8.2251   8.2708   8.2746   8.4014   8.5970   8.6865   8.7357   8.9122
     8.9709   9.0413   9.1575  10.4772  10.7566  10.8409  11.5378  11.6135
    11.7113  11.7911  12.0710  12.2607  12.3432  12.3738

     occupation numbers 
     1.0000   1.0000   1.0000   1.0000   1.0000   1.0000   1.0000   1.0000
     1.0000   1.0000   1.0000   1.0000   1.0000   1.0000   1.0000   1.0000
     1.0000   1.0000   1.0000   1.0000   1.0000   1.0000   1.0000   1.0000
     1.0000   1.0000   1.0000   1.0000   1.0000   1.0000   1.0000   1.0000
     1.0000   1.0000   1.0000   1.0000   1.0000   1.0000   1.0000   1.0000
     1.0000   1.0000   1.0000   1.0000   1.0000   1.0000   1.0000   1.0000
     1.0000   1.0000   1.0000   1.0000   1.0000   1.0000   1.0000   1.0000
     1.0000   1.0000   1.0000   1.0000   1.0000   1.0000   1.0000   1.0000
     1.0000   1.0000   1.0000   1.0000   1.0000   1.0000   1.0000   1.0000
     1.0000   1.0000   1.0000   1.0000   1.0000   1.0000   1.0000   1.0000
     1.0000   1.0000   1.0000   1.0000   1.0000   1.0000   1.0000   1.0000
     1.0000   1.0000   1.0000   1.0000   1.0000   1.0000   1.0000   1.0000
     1.0000   1.0000   1.0000   1.0000   1.0000   1.0000   1.0000   1.0000
     1.0000   1.0000   1.0000   1.0000   1.0000   0.9516   0.9279   0.7938
     0.5959   0.4705   0.4601   0.1638   0.0098   0.0016   0.0005   0.0000
     0.0000   0.0000   0.0000   0.0000   0.0000   0.0000   0.0000   0.0000
     0.0000   0.0000   0.0000   0.0000   0.0000   0.0000

          k = 0.1768 0.1768-0.1768 (  8627 PWs)   bands (ev):

   -16.8640 -16.8431 -16.8096 -16.7967 -16.7690 -16.7567 -16.7423 -16.7398
   -16.7229 -16.7071 -16.6993 -16.6851 -16.6726 -16.6657 -16.6573 -16.6498
   -16.6433 -16.6316 -16.6305 -16.6200 -16.6109 -16.6046 -16.6029 -16.5941
   -16.5905 -16.5783 -16.5752 -16.5687 -16.5663 -16.5580 -16.5508 -16.5425
   -16.5350 -16.5311 -16.5274 -16.5136 -16.5106 -16.5040 -16.5002 -16.4934
   -16.4865 -16.4780 -16.4698 -16.4659 -16.4583 -16.4548 -16.4485 -16.4447
   -16.4347 -16.4318 -16.4278 -16.4198 -16.4101 -16.4039 -16.4012 -16.3986
   -16.3941 -16.3888 -16.3751 -16.3710 -16.3658 -16.3620 -16.3525 -16.3471
   -16.3363 -16.3268 -16.3181 -16.3096 -16.3036 -16.2959 -16.2925 -16.2758
   -16.2647 -16.2608 -16.2197 -16.2096 -16.2016 -16.1897 -16.1719 -16.1664
    -4.3975  -3.0418  -2.6441  -2.4445  -2.1746  -1.7327  -1.5170  -1.2242
    -0.0151   0.2600   0.3744   0.5982   0.8556   1.1388   1.5431   4.4872
     4.6069   4.6345   5.2222   5.2556   5.3464   5.4072   5.4977   5.6941
     5.9961   6.4058   6.5219   6.6557   6.8129   7.1652   7.7763   8.2116
     8.4275   8.7509   9.0638   9.1410   9.2116   9.4124   9.5198   9.6386
     9.8559  10.1057  10.2240  10.9221  11.2680  11.5364  11.6148  11.6516
    11.7778  11.9051  12.2987  12.5684  12.7383  12.8567

     occupation numbers 
     1.0000   1.0000   1.0000   1.0000   1.0000   1.0000   1.0000   1.0000
     1.0000   1.0000   1.0000   1.0000   1.0000   1.0000   1.0000   1.0000
     1.0000   1.0000   1.0000   1.0000   1.0000   1.0000   1.0000   1.0000
     1.0000   1.0000   1.0000   1.0000   1.0000   1.0000   1.0000   1.0000
     1.0000   1.0000   1.0000   1.0000   1.0000   1.0000   1.0000   1.0000
     1.0000   1.0000   1.0000   1.0000   1.0000   1.0000   1.0000   1.0000
     1.0000   1.0000   1.0000   1.0000   1.0000   1.0000   1.0000   1.0000
     1.0000   1.0000   1.0000   1.0000   1.0000   1.0000   1.0000   1.0000
     1.0000   1.0000   1.0000   1.0000   1.0000   1.0000   1.0000   1.0000
     1.0000   1.0000   1.0000   1.0000   1.0000   1.0000   1.0000   1.0000
     1.0000   1.0000   1.0000   1.0000   1.0000   1.0000   1.0000   1.0000
     1.0000   1.0000   1.0000   1.0000   1.0000   1.0000   1.0000   1.0000
     1.0000   1.0000   1.0000   1.0000   1.0000   1.0000   1.0000   1.0000
     1.0000   1.0000   1.0000   1.0000   1.0000   1.0000   0.9996   0.6317
     0.1231   0.0003   0.0000   0.0000   0.0000   0.0000   0.0000   0.0000
     0.0000   0.0000   0.0000   0.0000   0.0000   0.0000   0.0000   0.0000
     0.0000   0.0000   0.0000   0.0000   0.0000   0.0000

          k =-0.3536-0.3536 0.3536 (  8646 PWs)   bands (ev):

   -16.8657 -16.8438 -16.8112 -16.7979 -16.7707 -16.7594 -16.7441 -16.7413
   -16.7234 -16.7085 -16.7013 -16.6894 -16.6697 -16.6646 -16.6505 -16.6473
   -16.6416 -16.6278 -16.6250 -16.6172 -16.6096 -16.6017 -16.5990 -16.5883
   -16.5811 -16.5773 -16.5726 -16.5668 -16.5612 -16.5518 -16.5447 -16.5419
   -16.5357 -16.5326 -16.5265 -16.5241 -16.5136 -16.5085 -16.5072 -16.4962
   -16.4934 -16.4872 -16.4780 -16.4667 -16.4591 -16.4585 -16.4563 -16.4473
   -16.4385 -16.4335 -16.4240 -16.4175 -16.4118 -16.4057 -16.4008 -16.3947
   -16.3933 -16.3876 -16.3720 -16.3691 -16.3685 -16.3595 -16.3525 -16.3426
   -16.3328 -16.3263 -16.3225 -16.3076 -16.2996 -16.2976 -16.2912 -16.2743
   -16.2671 -16.2617 -16.2249 -16.2087 -16.2005 -16.1888 -16.1695 -16.1649
    -3.9466  -3.7444  -2.4223  -2.2920  -2.2031  -2.0428  -1.9031  -1.5901
     0.3922   0.6729   0.7804   0.9639   1.1354   1.2273   3.3245   3.3900
     4.1999   4.2857   4.3786   4.4403   4.6304   4.9276   5.6567   5.6980
     5.8329   5.9049   5.9460   6.1120   7.0614   7.1979   7.5617   7.7923
     8.6915   8.9183   9.1515   9.4249   9.4790   9.6682   9.7558   9.7802
    11.4314  11.5296  11.9544  12.0584  12.1430  12.1832  12.3589  12.4043
    12.5263  12.6268  13.1140  13.2141  13.3422  13.4501

     occupation numbers 
     1.0000   1.0000   1.0000   1.0000   1.0000   1.0000   1.0000   1.0000
     1.0000   1.0000   1.0000   1.0000   1.0000   1.0000   1.0000   1.0000
     1.0000   1.0000   1.0000   1.0000   1.0000   1.0000   1.0000   1.0000
     1.0000   1.0000   1.0000   1.0000   1.0000   1.0000   1.0000   1.0000
     1.0000   1.0000   1.0000   1.0000   1.0000   1.0000   1.0000   1.0000
     1.0000   1.0000   1.0000   1.0000   1.0000   1.0000   1.0000   1.0000
     1.0000   1.0000   1.0000   1.0000   1.0000   1.0000   1.0000   1.0000
     1.0000   1.0000   1.0000   1.0000   1.0000   1.0000   1.0000   1.0000
     1.0000   1.0000   1.0000   1.0000   1.0000   1.0000   1.0000   1.0000
     1.0000   1.0000   1.0000   1.0000   1.0000   1.0000   1.0000   1.0000
     1.0000   1.0000   1.0000   1.0000   1.0000   1.0000   1.0000   1.0000
     1.0000   1.0000   1.0000   1.0000   1.0000   1.0000   1.0000   1.0000
     1.0000   1.0000   1.0000   1.0000   1.0000   1.0000   1.0000   1.0000
     1.0000   1.0000   1.0000   1.0000   1.0000   1.0000   1.0000   0.9994
     0.0014   0.0000   0.0000   0.0000   0.0000   0.0000   0.0000   0.0000
     0.0000   0.0000   0.0000   0.0000   0.0000   0.0000   0.0000   0.0000
     0.0000   0.0000   0.0000   0.0000   0.0000   0.0000

          k = 0.3536 0.0000 0.0000 (  8620 PWs)   bands (ev):

   -16.8628 -16.8442 -16.8097 -16.7974 -16.7693 -16.7587 -16.7411 -16.7374
   -16.7227 -16.7072 -16.6994 -16.6848 -16.6746 -16.6713 -16.6622 -16.6499
   -16.6428 -16.6344 -16.6284 -16.6170 -16.6102 -16.6025 -16.5989 -16.5914
   -16.5890 -16.5790 -16.5745 -16.5705 -16.5676 -16.5585 -16.5494 -16.5405
   -16.5367 -16.5306 -16.5256 -16.5128 -16.5096 -16.5035 -16.4993 -16.4920
   -16.4868 -16.4755 -16.4679 -16.4619 -16.4571 -16.4556 -16.4511 -16.4408
   -16.4378 -16.4320 -16.4306 -16.4212 -16.4142 -16.4112 -16.4019 -16.3968
   -16.3920 -16.3877 -16.3797 -16.3724 -16.3656 -16.3611 -16.3545 -16.3514
   -16.3377 -16.3285 -16.3165 -16.3078 -16.3010 -16.2953 -16.2916 -16.2755
   -16.2644 -16.2601 -16.2190 -16.2092 -16.2017 -16.1893 -16.1719 -16.1658
    -4.3391  -2.8334  -2.7392  -2.5318  -2.3979  -2.2730  -0.8491  -0.8095
    -0.5064  -0.3978   0.8884   0.9796   1.0880   1.3874   1.4638   4.5560
     4.5809   4.6990   4.7533   5.1630   5.2799   5.3351   5.4577   5.5124
     5.6654   5.8341   6.4930   6.7668   6.9285   6.9860   7.3649   7.5731
     8.6461   9.2969   9.3874   9.5278   9.5725   9.7414   9.7984  10.0199
    10.1053  10.1907  10.3696  10.4597  11.6126  11.7119  11.7975  11.9103
    12.0330  12.0694  12.2292  12.4832  12.5887  12.7254

     occupation numbers 
     1.0000   1.0000   1.0000   1.0000   1.0000   1.0000   1.0000   1.0000
     1.0000   1.0000   1.0000   1.0000   1.0000   1.0000   1.0000   1.0000
     1.0000   1.0000   1.0000   1.0000   1.0000   1.0000   1.0000   1.0000
     1.0000   1.0000   1.0000   1.0000   1.0000   1.0000   1.0000   1.0000
     1.0000   1.0000   1.0000   1.0000   1.0000   1.0000   1.0000   1.0000
     1.0000   1.0000   1.0000   1.0000   1.0000   1.0000   1.0000   1.0000
     1.0000   1.0000   1.0000   1.0000   1.0000   1.0000   1.0000   1.0000
     1.0000   1.0000   1.0000   1.0000   1.0000   1.0000   1.0000   1.0000
     1.0000   1.0000   1.0000   1.0000   1.0000   1.0000   1.0000   1.0000
     1.0000   1.0000   1.0000   1.0000   1.0000   1.0000   1.0000   1.0000
     1.0000   1.0000   1.0000   1.0000   1.0000   1.0000   1.0000   1.0000
     1.0000   1.0000   1.0000   1.0000   1.0000   1.0000   1.0000   1.0000
     1.0000   1.0000   1.0000   1.0000   1.0000   1.0000   1.0000   1.0000
     1.0000   1.0000   1.0000   1.0000   1.0000   1.0000   1.0000   1.0000
     0.0037   0.0000   0.0000   0.0000   0.0000   0.0000   0.0000   0.0000
     0.0000   0.0000   0.0000   0.0000   0.0000   0.0000   0.0000   0.0000
     0.0000   0.0000   0.0000   0.0000   0.0000   0.0000

          k =-0.1768-0.5303 0.5303 (  8605 PWs)   bands (ev):

   -16.8647 -16.8446 -16.8112 -16.7984 -16.7710 -16.7610 -16.7439 -16.7397
   -16.7233 -16.7081 -16.7016 -16.6890 -16.6715 -16.6669 -16.6572 -16.6500
   -16.6410 -16.6296 -16.6244 -16.6120 -16.6065 -16.5995 -16.5943 -16.5896
   -16.5801 -16.5763 -16.5735 -16.5667 -16.5610 -16.5547 -16.5485 -16.5396
   -16.5352 -16.5298 -16.5236 -16.5214 -16.5139 -16.5125 -16.5023 -16.4991
   -16.4897 -16.4808 -16.4787 -16.4653 -16.4604 -16.4586 -16.4543 -16.4468
   -16.4425 -16.4348 -16.4260 -16.4185 -16.4146 -16.4098 -16.4035 -16.3939
   -16.3925 -16.3859 -16.3777 -16.3699 -16.3651 -16.3612 -16.3535 -16.3493
   -16.3334 -16.3263 -16.3209 -16.3053 -16.2992 -16.2953 -16.2910 -16.2744
   -16.2667 -16.2609 -16.2243 -16.2083 -16.2006 -16.1885 -16.1696 -16.1643
    -3.9343  -3.4278  -2.9021  -2.7059  -2.4400  -1.8603  -1.5415  -1.1834
    -0.0154   0.3765   0.5537   1.3751   1.6122   2.1458   2.6232   3.7861
     3.9423   4.0602   4.2103   4.6719   4.7910   5.0205   5.2281   5.3818
     5.5983   5.8265   5.9384   6.2937   6.3332   6.6438   6.9039   7.5277
     9.3104   9.7329   9.7986   9.9899  10.2216  10.4029  10.5686  10.6958
    10.7611  10.8907  11.4025  11.6068  11.8055  12.2230  12.2805  12.4521
    12.7092  12.8399  12.9453  13.0337  13.1689  13.2466

     occupation numbers 
     1.0000   1.0000   1.0000   1.0000   1.0000   1.0000   1.0000   1.0000
     1.0000   1.0000   1.0000   1.0000   1.0000   1.0000   1.0000   1.0000
     1.0000   1.0000   1.0000   1.0000   1.0000   1.0000   1.0000   1.0000
     1.0000   1.0000   1.0000   1.0000   1.0000   1.0000   1.0000   1.0000
     1.0000   1.0000   1.0000   1.0000   1.0000   1.0000   1.0000   1.0000
     1.0000   1.0000   1.0000   1.0000   1.0000   1.0000   1.0000   1.0000
     1.0000   1.0000   1.0000   1.0000   1.0000   1.0000   1.0000   1.0000
     1.0000   1.0000   1.0000   1.0000   1.0000   1.0000   1.0000   1.0000
     1.0000   1.0000   1.0000   1.0000   1.0000   1.0000   1.0000   1.0000
     1.0000   1.0000   1.0000   1.0000   1.0000   1.0000   1.0000   1.0000
     1.0000   1.0000   1.0000   1.0000   1.0000   1.0000   1.0000   1.0000
     1.0000   1.0000   1.0000   1.0000   1.0000   1.0000   1.0000   1.0000
     1.0000   1.0000   1.0000   1.0000   1.0000   1.0000   1.0000   1.0000
     1.0000   1.0000   1.0000   1.0000   1.0000   1.0000   1.0000   1.0000
     0.0000   0.0000   0.0000   0.0000   0.0000   0.0000   0.0000   0.0000
     0.0000   0.0000   0.0000   0.0000   0.0000   0.0000   0.0000   0.0000
     0.0000   0.0000   0.0000   0.0000   0.0000   0.0000

          k = 0.0000-0.3536 0.3536 (  8602 PWs)   bands (ev):

   -16.8655 -16.8434 -16.8098 -16.7972 -16.7703 -16.7597 -16.7442 -16.7414
   -16.7238 -16.7049 -16.6990 -16.6852 -16.6749 -16.6652 -16.6579 -16.6496
   -16.6411 -16.6352 -16.6262 -16.6208 -16.6057 -16.6030 -16.6011 -16.5933
   -16.5875 -16.5806 -16.5710 -16.5666 -16.5614 -16.5491 -16.5439 -16.5400
   -16.5305 -16.5272 -16.5247 -16.5144 -16.5121 -16.5079 -16.5033 -16.4934
   -16.4868 -16.4824 -16.4762 -16.4693 -16.4620 -16.4545 -16.4510 -16.4460
   -16.4399 -16.4304 -16.4272 -16.4210 -16.4142 -16.4113 -16.4023 -16.3981
   -16.3917 -16.3898 -16.3786 -16.3713 -16.3672 -16.3638 -16.3528 -16.3505
   -16.3335 -16.3265 -16.3174 -16.3086 -16.2992 -16.2961 -16.2925 -16.2746
   -16.2643 -16.2593 -16.2192 -16.2082 -16.2003 -16.1896 -16.1713 -16.1654
    -4.1025  -3.2517  -3.0285  -2.4028  -2.1831  -2.0662  -1.6895  -1.0857
    -0.1449   0.2952   0.7467   1.1325   1.3705   2.0030   2.1396   3.7771
     4.2323   4.4603   4.5056   4.8071   4.8345   5.1007   5.4295   5.5727
     5.7210   5.9459   6.0846   6.1168   6.4032   6.5734   6.7957   8.0566
     9.2117   9.6446   9.7250   9.8341   9.9997  10.0856  10.3531  10.4104
    10.6581  10.8755  11.1239  11.2934  11.4129  11.5517  11.6729  11.9006
    12.1663  12.7258  12.9646  13.1408  13.3775  13.5630

     occupation numbers 
     1.0000   1.0000   1.0000   1.0000   1.0000   1.0000   1.0000   1.0000
     1.0000   1.0000   1.0000   1.0000   1.0000   1.0000   1.0000   1.0000
     1.0000   1.0000   1.0000   1.0000   1.0000   1.0000   1.0000   1.0000
     1.0000   1.0000   1.0000   1.0000   1.0000   1.0000   1.0000   1.0000
     1.0000   1.0000   1.0000   1.0000   1.0000   1.0000   1.0000   1.0000
     1.0000   1.0000   1.0000   1.0000   1.0000   1.0000   1.0000   1.0000
     1.0000   1.0000   1.0000   1.0000   1.0000   1.0000   1.0000   1.0000
     1.0000   1.0000   1.0000   1.0000   1.0000   1.0000   1.0000   1.0000
     1.0000   1.0000   1.0000   1.0000   1.0000   1.0000   1.0000   1.0000
     1.0000   1.0000   1.0000   1.0000   1.0000   1.0000   1.0000   1.0000
     1.0000   1.0000   1.0000   1.0000   1.0000   1.0000   1.0000   1.0000
     1.0000   1.0000   1.0000   1.0000   1.0000   1.0000   1.0000   1.0000
     1.0000   1.0000   1.0000   1.0000   1.0000   1.0000   1.0000   1.0000
     1.0000   1.0000   1.0000   1.0000   1.0000   1.0000   1.0000   0.9208
     0.0000   0.0000   0.0000   0.0000   0.0000   0.0000   0.0000   0.0000
     0.0000   0.0000   0.0000   0.0000   0.0000   0.0000   0.0000   0.0000
     0.0000   0.0000   0.0000   0.0000   0.0000   0.0000

          k =-0.7071 0.0000 0.0000 (  8616 PWs)   bands (ev):

   -16.8635 -16.8457 -16.8113 -16.7990 -16.7714 -16.7625 -16.7425 -16.7380
   -16.7234 -16.7083 -16.7020 -16.6891 -16.6739 -16.6687 -16.6629 -16.6511
   -16.6423 -16.6283 -16.6255 -16.6081 -16.6055 -16.5968 -16.5919 -16.5845
   -16.5800 -16.5760 -16.5728 -16.5658 -16.5621 -16.5560 -16.5502 -16.5446
   -16.5377 -16.5291 -16.5233 -16.5186 -16.5148 -16.5089 -16.5016 -16.4937
   -16.4881 -16.4791 -16.4724 -16.4638 -16.4619 -16.4587 -16.4560 -16.4441
   -16.4426 -16.4367 -16.4288 -16.4251 -16.4195 -16.4122 -16.4055 -16.3976
   -16.3877 -16.3854 -16.3819 -16.3682 -16.3627 -16.3609 -16.3586 -16.3535
   -16.3352 -16.3271 -16.3196 -16.3041 -16.2976 -16.2939 -16.2909 -16.2746
   -16.2662 -16.2601 -16.2237 -16.2084 -16.2006 -16.1883 -16.1695 -16.1639
    -3.7610  -3.4361  -2.8734  -2.7915  -2.6003  -2.4708  -0.8007  -0.7543
    -0.4477  -0.3320   1.5416   1.6708   1.7120   1.8434   3.3965   3.5180
     4.1509   4.1663   4.2357   4.2978   4.3686   4.4060   4.5378   4.5882
     5.8959   5.9939   6.3408   6.3960   6.5113   6.8769   6.9178   6.9761
     9.0004   9.1677   9.8383  10.0307  10.1144  10.2231  10.7862  10.9703
    12.2323  12.3322  12.4088  12.4578  12.5076  12.6475  12.7377  12.8106
    12.8633  12.9597  13.0181  13.1091  13.1385  13.1836

     occupation numbers 
     1.0000   1.0000   1.0000   1.0000   1.0000   1.0000   1.0000   1.0000
     1.0000   1.0000   1.0000   1.0000   1.0000   1.0000   1.0000   1.0000
     1.0000   1.0000   1.0000   1.0000   1.0000   1.0000   1.0000   1.0000
     1.0000   1.0000   1.0000   1.0000   1.0000   1.0000   1.0000   1.0000
     1.0000   1.0000   1.0000   1.0000   1.0000   1.0000   1.0000   1.0000
     1.0000   1.0000   1.0000   1.0000   1.0000   1.0000   1.0000   1.0000
     1.0000   1.0000   1.0000   1.0000   1.0000   1.0000   1.0000   1.0000
     1.0000   1.0000   1.0000   1.0000   1.0000   1.0000   1.0000   1.0000
     1.0000   1.0000   1.0000   1.0000   1.0000   1.0000   1.0000   1.0000
     1.0000   1.0000   1.0000   1.0000   1.0000   1.0000   1.0000   1.0000
     1.0000   1.0000   1.0000   1.0000   1.0000   1.0000   1.0000   1.0000
     1.0000   1.0000   1.0000   1.0000   1.0000   1.0000   1.0000   1.0000
     1.0000   1.0000   1.0000   1.0000   1.0000   1.0000   1.0000   1.0000
     1.0000   1.0000   1.0000   1.0000   1.0000   1.0000   1.0000   1.0000
     0.0000   0.0000   0.0000   0.0000   0.0000   0.0000   0.0000   0.0000
     0.0000   0.0000   0.0000   0.0000   0.0000   0.0000   0.0000   0.0000
     0.0000   0.0000   0.0000   0.0000   0.0000   0.0000

          k =-0.7071 0.3536 0.0000 (  8652 PWs)   bands (ev):

   -16.8647 -16.8450 -16.8125 -16.8040 -16.7686 -16.7595 -16.7425 -16.7378
   -16.7222 -16.7046 -16.6974 -16.6861 -16.6742 -16.6703 -16.6598 -16.6493
   -16.6421 -16.6365 -16.6222 -16.6147 -16.6066 -16.5996 -16.5964 -16.5871
   -16.5819 -16.5769 -16.5707 -16.5672 -16.5622 -16.5517 -16.5465 -16.5443
   -16.5366 -16.5307 -16.5250 -16.5191 -16.5171 -16.5072 -16.5022 -16.4937
   -16.4849 -16.4831 -16.4757 -16.4678 -16.4594 -16.4554 -16.4487 -16.4450
   -16.4417 -16.4298 -16.4264 -16.4233 -16.4176 -16.4102 -16.4066 -16.3996
   -16.3903 -16.3860 -16.3779 -16.3719 -16.3656 -16.3623 -16.3586 -16.3528
   -16.3354 -16.3294 -16.3166 -16.3078 -16.2994 -16.2953 -16.2916 -16.2763
   -16.2629 -16.2582 -16.2183 -16.2074 -16.2009 -16.1886 -16.1713 -16.1648
    -3.6289  -3.3858  -3.2626  -3.1338  -1.9714  -1.7786  -1.6818  -1.3920
     0.2536   0.4734   0.6630   0.8030   2.6623   2.7108   2.8790   3.0359
     3.7873   3.9000   3.9637   4.1499   5.0938   5.1906   5.2793   5.3592
     5.4461   5.5534   5.6896   5.7544   6.4689   6.6556   6.7240   6.8974
    10.1901  10.3189  10.4253  10.5503  10.6280  10.7085  10.7264  10.8226
    10.8703  11.0158  11.0875  11.2269  12.3984  12.4920  12.6136  12.6776
    12.7278  12.8031  12.8999  13.0056  13.0585  13.1118

     occupation numbers 
     1.0000   1.0000   1.0000   1.0000   1.0000   1.0000   1.0000   1.0000
     1.0000   1.0000   1.0000   1.0000   1.0000   1.0000   1.0000   1.0000
     1.0000   1.0000   1.0000   1.0000   1.0000   1.0000   1.0000   1.0000
     1.0000   1.0000   1.0000   1.0000   1.0000   1.0000   1.0000   1.0000
     1.0000   1.0000   1.0000   1.0000   1.0000   1.0000   1.0000   1.0000
     1.0000   1.0000   1.0000   1.0000   1.0000   1.0000   1.0000   1.0000
     1.0000   1.0000   1.0000   1.0000   1.0000   1.0000   1.0000   1.0000
     1.0000   1.0000   1.0000   1.0000   1.0000   1.0000   1.0000   1.0000
     1.0000   1.0000   1.0000   1.0000   1.0000   1.0000   1.0000   1.0000
     1.0000   1.0000   1.0000   1.0000   1.0000   1.0000   1.0000   1.0000
     1.0000   1.0000   1.0000   1.0000   1.0000   1.0000   1.0000   1.0000
     1.0000   1.0000   1.0000   1.0000   1.0000   1.0000   1.0000   1.0000
     1.0000   1.0000   1.0000   1.0000   1.0000   1.0000   1.0000   1.0000
     1.0000   1.0000   1.0000   1.0000   1.0000   1.0000   1.0000   1.0000
     0.0000   0.0000   0.0000   0.0000   0.0000   0.0000   0.0000   0.0000
     0.0000   0.0000   0.0000   0.0000   0.0000   0.0000   0.0000   0.0000
     0.0000   0.0000   0.0000   0.0000   0.0000   0.0000

          k =-0.1768-0.1768-0.1768 (  8627 PWs)   bands (ev):

   -16.8625 -16.8434 -16.8119 -16.8020 -16.7651 -16.7539 -16.7436 -16.7333
   -16.7215 -16.7061 -16.6953 -16.6854 -16.6767 -16.6704 -16.6626 -16.6504
   -16.6431 -16.6355 -16.6313 -16.6237 -16.6124 -16.6055 -16.5975 -16.5929
   -16.5863 -16.5784 -16.5735 -16.5710 -16.5653 -16.5599 -16.5499 -16.5457
   -16.5357 -16.5324 -16.5278 -16.5168 -16.5110 -16.5028 -16.4973 -16.4914
   -16.4862 -16.4726 -16.4652 -16.4605 -16.4559 -16.4519 -16.4418 -16.4399
   -16.4351 -16.4297 -16.4285 -16.4227 -16.4185 -16.4100 -16.4064 -16.3999
   -16.3933 -16.3877 -16.3766 -16.3712 -16.3706 -16.3593 -16.3558 -16.3457
   -16.3379 -16.3285 -16.3177 -16.3088 -16.3028 -16.2969 -16.2912 -16.2783
   -16.2642 -16.2598 -16.2185 -16.2091 -16.2018 -16.1890 -16.1719 -16.1657
    -4.3952  -3.0668  -2.6100  -2.3586  -2.2618  -1.7377  -1.4733  -1.3446
    -0.0049   0.2433   0.4559   0.7101   0.8386   1.1393   1.4864   4.4959
     4.5614   4.6358   5.2132   5.3188   5.3544   5.4304   5.4646   5.5713
     5.8082   6.3573   6.4978   6.6616   6.9967   7.1916   7.8476   8.2136
     8.4494   8.8579   9.0762   9.1686   9.2426   9.3813   9.5207   9.5945
     9.9098  10.0274  10.2030  11.0191  11.2470  11.5077  11.5826  11.8019
    11.9575  11.9849  12.1410  12.4773  12.6184  12.7487

     occupation numbers 
     1.0000   1.0000   1.0000   1.0000   1.0000   1.0000   1.0000   1.0000
     1.0000   1.0000   1.0000   1.0000   1.0000   1.0000   1.0000   1.0000
     1.0000   1.0000   1.0000   1.0000   1.0000   1.0000   1.0000   1.0000
     1.0000   1.0000   1.0000   1.0000   1.0000   1.0000   1.0000   1.0000
     1.0000   1.0000   1.0000   1.0000   1.0000   1.0000   1.0000   1.0000
     1.0000   1.0000   1.0000   1.0000   1.0000   1.0000   1.0000   1.0000
     1.0000   1.0000   1.0000   1.0000   1.0000   1.0000   1.0000   1.0000
     1.0000   1.0000   1.0000   1.0000   1.0000   1.0000   1.0000   1.0000
     1.0000   1.0000   1.0000   1.0000   1.0000   1.0000   1.0000   1.0000
     1.0000   1.0000   1.0000   1.0000   1.0000   1.0000   1.0000   1.0000
     1.0000   1.0000   1.0000   1.0000   1.0000   1.0000   1.0000   1.0000
     1.0000   1.0000   1.0000   1.0000   1.0000   1.0000   1.0000   1.0000
     1.0000   1.0000   1.0000   1.0000   1.0000   1.0000   1.0000   1.0000
     1.0000   1.0000   1.0000   1.0000   1.0000   1.0000   0.9979   0.6265
     0.0949   0.0000   0.0000   0.0000   0.0000   0.0000   0.0000   0.0000
     0.0000   0.0000   0.0000   0.0000   0.0000   0.0000   0.0000   0.0000
     0.0000   0.0000   0.0000   0.0000   0.0000   0.0000

          k =-0.1768 0.1768 0.1768 (  8627 PWs)   bands (ev):

   -16.8625 -16.8436 -16.8105 -16.8024 -16.7647 -16.7542 -16.7404 -16.7334
   -16.7203 -16.7052 -16.6964 -16.6847 -16.6727 -16.6696 -16.6622 -16.6508
   -16.6445 -16.6384 -16.6309 -16.6238 -16.6138 -16.6078 -16.6017 -16.5969
   -16.5884 -16.5806 -16.5749 -16.5715 -16.5664 -16.5618 -16.5515 -16.5451
   -16.5370 -16.5310 -16.5267 -16.5168 -16.5102 -16.5021 -16.4930 -16.4872
   -16.4816 -16.4723 -16.4636 -16.4611 -16.4559 -16.4543 -16.4478 -16.4386
   -16.4342 -16.4296 -16.4272 -16.4234 -16.4114 -16.4087 -16.4053 -16.3975
   -16.3898 -16.3845 -16.3775 -16.3750 -16.3659 -16.3620 -16.3606 -16.3559
   -16.3380 -16.3294 -16.3154 -16.3108 -16.3034 -16.2966 -16.2916 -16.2757
   -16.2614 -16.2586 -16.2116 -16.2096 -16.2047 -16.1899 -16.1744 -16.1679
    -4.4027  -3.1455  -2.5044  -2.3406  -2.2603  -1.6520  -1.4665  -1.3266
     0.0333   0.1776   0.3362   0.6056   0.7573   0.8097   1.8409   4.6299
     4.6966   4.8091   5.1723   5.2266   5.3185   5.5473   5.7189   5.8490
     6.1241   6.2707   6.3098   6.4594   6.9154   7.0825   7.7527   7.9224
     8.2273   8.7812   8.8245   9.0026   9.0855   9.4767   9.5428   9.6695
    10.0345  10.1711  10.2389  11.0891  11.2148  11.4526  11.5349  11.6600
    11.7324  11.8015  12.0745  12.8926  12.9456  13.0074

     occupation numbers 
     1.0000   1.0000   1.0000   1.0000   1.0000   1.0000   1.0000   1.0000
     1.0000   1.0000   1.0000   1.0000   1.0000   1.0000   1.0000   1.0000
     1.0000   1.0000   1.0000   1.0000   1.0000   1.0000   1.0000   1.0000
     1.0000   1.0000   1.0000   1.0000   1.0000   1.0000   1.0000   1.0000
     1.0000   1.0000   1.0000   1.0000   1.0000   1.0000   1.0000   1.0000
     1.0000   1.0000   1.0000   1.0000   1.0000   1.0000   1.0000   1.0000
     1.0000   1.0000   1.0000   1.0000   1.0000   1.0000   1.0000   1.0000
     1.0000   1.0000   1.0000   1.0000   1.0000   1.0000   1.0000   1.0000
     1.0000   1.0000   1.0000   1.0000   1.0000   1.0000   1.0000   1.0000
     1.0000   1.0000   1.0000   1.0000   1.0000   1.0000   1.0000   1.0000
     1.0000   1.0000   1.0000   1.0000   1.0000   1.0000   1.0000   1.0000
     1.0000   1.0000   1.0000   1.0000   1.0000   1.0000   1.0000   1.0000
     1.0000   1.0000   1.0000   1.0000   1.0000   1.0000   1.0000   1.0000
     1.0000   1.0000   1.0000   1.0000   1.0000   1.0000   0.9998   0.9904
     0.5901   0.0002   0.0000   0.0000   0.0000   0.0000   0.0000   0.0000
     0.0000   0.0000   0.0000   0.0000   0.0000   0.0000   0.0000   0.0000
     0.0000   0.0000   0.0000   0.0000   0.0000   0.0000

          k = 0.1768-0.1768 0.1768 (  8627 PWs)   bands (ev):

   -16.8637 -16.8428 -16.8085 -16.7959 -16.7684 -16.7571 -16.7411 -16.7409
   -16.7230 -16.7018 -16.6968 -16.6827 -16.6765 -16.6676 -16.6636 -16.6516
   -16.6447 -16.6381 -16.6303 -16.6250 -16.6141 -16.6103 -16.6011 -16.5938
   -16.5903 -16.5785 -16.5766 -16.5700 -16.5652 -16.5562 -16.5446 -16.5422
   -16.5324 -16.5302 -16.5247 -16.5122 -16.5068 -16.4999 -16.4957 -16.4885
   -16.4860 -16.4738 -16.4695 -16.4634 -16.4580 -16.4533 -16.4440 -16.4392
   -16.4348 -16.4317 -16.4275 -16.4230 -16.4154 -16.4104 -16.4045 -16.3988
   -16.3971 -16.3869 -16.3822 -16.3733 -16.3668 -16.3634 -16.3566 -16.3532
   -16.3375 -16.3275 -16.3143 -16.3090 -16.3015 -16.2967 -16.2928 -16.2761
   -16.2628 -16.2579 -16.2117 -16.2092 -16.2036 -16.1904 -16.1738 -16.1669
    -4.4010  -3.0516  -2.6191  -2.3822  -2.2396  -1.7245  -1.4833  -1.2831
     0.0143   0.1349   0.3678   0.6665   0.8555   1.1966   1.5354   4.5154
     4.5841   4.7164   5.2097   5.2843   5.3413   5.4098   5.5395   5.6744
     5.8519   6.3241   6.5556   6.6200   6.9336   7.0673   7.7910   8.2855
     8.3794   8.7726   9.0051   9.1063   9.2507   9.3580   9.5612   9.6211
     9.9346  10.0799  10.2797  10.9786  11.2014  11.4692  11.5543  11.6829
    11.8626  11.9864  12.3236  12.5504  12.6823  12.8424

     occupation numbers 
     1.0000   1.0000   1.0000   1.0000   1.0000   1.0000   1.0000   1.0000
     1.0000   1.0000   1.0000   1.0000   1.0000   1.0000   1.0000   1.0000
     1.0000   1.0000   1.0000   1.0000   1.0000   1.0000   1.0000   1.0000
     1.0000   1.0000   1.0000   1.0000   1.0000   1.0000   1.0000   1.0000
     1.0000   1.0000   1.0000   1.0000   1.0000   1.0000   1.0000   1.0000
     1.0000   1.0000   1.0000   1.0000   1.0000   1.0000   1.0000   1.0000
     1.0000   1.0000   1.0000   1.0000   1.0000   1.0000   1.0000   1.0000
     1.0000   1.0000   1.0000   1.0000   1.0000   1.0000   1.0000   1.0000
     1.0000   1.0000   1.0000   1.0000   1.0000   1.0000   1.0000   1.0000
     1.0000   1.0000   1.0000   1.0000   1.0000   1.0000   1.0000   1.0000
     1.0000   1.0000   1.0000   1.0000   1.0000   1.0000   1.0000   1.0000
     1.0000   1.0000   1.0000   1.0000   1.0000   1.0000   1.0000   1.0000
     1.0000   1.0000   1.0000   1.0000   1.0000   1.0000   1.0000   1.0000
     1.0000   1.0000   1.0000   1.0000   1.0000   1.0000   0.9994   0.4302
     0.2044   0.0002   0.0000   0.0000   0.0000   0.0000   0.0000   0.0000
     0.0000   0.0000   0.0000   0.0000   0.0000   0.0000   0.0000   0.0000
     0.0000   0.0000   0.0000   0.0000   0.0000   0.0000

          k = 0.3536 0.3536 0.3536 (  8646 PWs)   bands (ev):

   -16.8629 -16.8443 -16.8153 -16.8066 -16.7641 -16.7551 -16.7457 -16.7305
   -16.7215 -16.7045 -16.6955 -16.6909 -16.6753 -16.6707 -16.6624 -16.6485
   -16.6442 -16.6319 -16.6263 -16.6232 -16.6156 -16.5964 -16.5908 -16.5829
   -16.5812 -16.5772 -16.5732 -16.5659 -16.5601 -16.5538 -16.5528 -16.5494
   -16.5367 -16.5313 -16.5281 -16.5262 -16.5133 -16.5051 -16.5027 -16.4968
   -16.4840 -16.4782 -16.4671 -16.4585 -16.4555 -16.4500 -16.4465 -16.4420
   -16.4362 -16.4325 -16.4278 -16.4237 -16.4210 -16.4130 -16.4115 -16.4017
   -16.3925 -16.3858 -16.3763 -16.3710 -16.3694 -16.3584 -16.3564 -16.3417
   -16.3366 -16.3303 -16.3208 -16.3055 -16.2997 -16.2966 -16.2909 -16.2796
   -16.2667 -16.2588 -16.2222 -16.2080 -16.2005 -16.1877 -16.1695 -16.1637
    -3.8920  -3.8074  -2.4275  -2.2048  -2.1176  -2.0493  -1.9422  -1.7937
     0.4214   0.7020   0.8443   0.9800   1.2274   1.2431   3.2805   3.4079
     4.1759   4.3004   4.3713   4.3859   4.5850   4.6144   5.6775   5.7701
     5.8534   5.8606   5.9368   6.0545   7.2687   7.3189   7.5044   7.7135
     8.7865   8.8492   9.3757   9.4727   9.5997   9.6284   9.6783   9.7268
    11.5586  11.7580  11.8898  12.0045  12.0577  12.1999  12.3962  12.4485
    12.5534  12.6939  13.1806  13.2605  13.3555  13.4198

     occupation numbers 
     1.0000   1.0000   1.0000   1.0000   1.0000   1.0000   1.0000   1.0000
     1.0000   1.0000   1.0000   1.0000   1.0000   1.0000   1.0000   1.0000
     1.0000   1.0000   1.0000   1.0000   1.0000   1.0000   1.0000   1.0000
     1.0000   1.0000   1.0000   1.0000   1.0000   1.0000   1.0000   1.0000
     1.0000   1.0000   1.0000   1.0000   1.0000   1.0000   1.0000   1.0000
     1.0000   1.0000   1.0000   1.0000   1.0000   1.0000   1.0000   1.0000
     1.0000   1.0000   1.0000   1.0000   1.0000   1.0000   1.0000   1.0000
     1.0000   1.0000   1.0000   1.0000   1.0000   1.0000   1.0000   1.0000
     1.0000   1.0000   1.0000   1.0000   1.0000   1.0000   1.0000   1.0000
     1.0000   1.0000   1.0000   1.0000   1.0000   1.0000   1.0000   1.0000
     1.0000   1.0000   1.0000   1.0000   1.0000   1.0000   1.0000   1.0000
     1.0000   1.0000   1.0000   1.0000   1.0000   1.0000   1.0000   1.0000
     1.0000   1.0000   1.0000   1.0000   1.0000   1.0000   1.0000   1.0000
     1.0000   1.0000   1.0000   1.0000   1.0000   1.0000   1.0000   0.9999
     0.0001   0.0000   0.0000   0.0000   0.0000   0.0000   0.0000   0.0000
     0.0000   0.0000   0.0000   0.0000   0.0000   0.0000   0.0000   0.0000
     0.0000   0.0000   0.0000   0.0000   0.0000   0.0000

          k = 0.3536-0.3536-0.3536 (  8646 PWs)   bands (ev):

   -16.8629 -16.8446 -16.8124 -16.8077 -16.7639 -16.7545 -16.7397 -16.7318
   -16.7188 -16.7055 -16.6948 -16.6847 -16.6739 -16.6693 -16.6586 -16.6517
   -16.6445 -16.6396 -16.6293 -16.6205 -16.6159 -16.6060 -16.5983 -16.5930
   -16.5815 -16.5789 -16.5720 -16.5707 -16.5662 -16.5580 -16.5538 -16.5510
   -16.5413 -16.5296 -16.5268 -16.5195 -16.5090 -16.5061 -16.4909 -16.4881
   -16.4809 -16.4728 -16.4625 -16.4611 -16.4599 -16.4559 -16.4483 -16.4441
   -16.4332 -16.4298 -16.4276 -16.4228 -16.4151 -16.4080 -16.4035 -16.3998
   -16.3858 -16.3836 -16.3774 -16.3739 -16.3685 -16.3656 -16.3625 -16.3580
   -16.3367 -16.3312 -16.3156 -16.3099 -16.3025 -16.2951 -16.2915 -16.2744
   -16.2594 -16.2579 -16.2111 -16.2087 -16.2044 -16.1892 -16.1745 -16.1678
    -3.9563  -3.7981  -2.3571  -2.1725  -2.1272  -2.0021  -1.8454  -1.7542
     0.5117   0.5336   0.6799   0.8358   0.9246   0.9999   3.5169   3.7019
     4.3918   4.4618   4.5887   4.7455   4.9309   4.9750   5.5292   5.6466
     5.7001   5.7553   5.8516   5.9121   7.1382   7.2929   7.3197   7.5796
     8.4742   8.7122   9.2442   9.3215   9.3587   9.5209   9.5665   9.6328
    11.5953  11.6582  11.7866  11.9925  12.0430  12.1475  12.3007  12.3671
    12.3790  12.4792  13.2556  13.4121  13.4610  13.7869

     occupation numbers 
     1.0000   1.0000   1.0000   1.0000   1.0000   1.0000   1.0000   1.0000
     1.0000   1.0000   1.0000   1.0000   1.0000   1.0000   1.0000   1.0000
     1.0000   1.0000   1.0000   1.0000   1.0000   1.0000   1.0000   1.0000
     1.0000   1.0000   1.0000   1.0000   1.0000   1.0000   1.0000   1.0000
     1.0000   1.0000   1.0000   1.0000   1.0000   1.0000   1.0000   1.0000
     1.0000   1.0000   1.0000   1.0000   1.0000   1.0000   1.0000   1.0000
     1.0000   1.0000   1.0000   1.0000   1.0000   1.0000   1.0000   1.0000
     1.0000   1.0000   1.0000   1.0000   1.0000   1.0000   1.0000   1.0000
     1.0000   1.0000   1.0000   1.0000   1.0000   1.0000   1.0000   1.0000
     1.0000   1.0000   1.0000   1.0000   1.0000   1.0000   1.0000   1.0000
     1.0000   1.0000   1.0000   1.0000   1.0000   1.0000   1.0000   1.0000
     1.0000   1.0000   1.0000   1.0000   1.0000   1.0000   1.0000   1.0000
     1.0000   1.0000   1.0000   1.0000   1.0000   1.0000   1.0000   1.0000
     1.0000   1.0000   1.0000   1.0000   1.0000   1.0000   1.0000   1.0000
     0.0690   0.0009   0.0000   0.0000   0.0000   0.0000   0.0000   0.0000
     0.0000   0.0000   0.0000   0.0000   0.0000   0.0000   0.0000   0.0000
     0.0000   0.0000   0.0000   0.0000   0.0000   0.0000

          k =-0.3536 0.3536-0.3536 (  8646 PWs)   bands (ev):

   -16.8653 -16.8431 -16.8088 -16.7966 -16.7699 -16.7598 -16.7439 -16.7417
   -16.7242 -16.7013 -16.6951 -16.6814 -16.6780 -16.6674 -16.6643 -16.6523
   -16.6432 -16.6400 -16.6276 -16.6253 -16.6134 -16.6015 -16.6003 -16.5927
   -16.5899 -16.5791 -16.5725 -16.5670 -16.5592 -16.5493 -16.5415 -16.5373
   -16.5298 -16.5255 -16.5219 -16.5139 -16.5093 -16.5038 -16.4979 -16.4894
   -16.4795 -16.4779 -16.4738 -16.4661 -16.4633 -16.4535 -16.4506 -16.4419
   -16.4351 -16.4344 -16.4295 -16.4221 -16.4190 -16.4178 -16.4035 -16.4018
   -16.3957 -16.3874 -16.3820 -16.3713 -16.3704 -16.3682 -16.3591 -16.3510
   -16.3363 -16.3276 -16.3133 -16.3078 -16.2981 -16.2955 -16.2937 -16.2750
   -16.2622 -16.2566 -16.2115 -16.2080 -16.2022 -16.1903 -16.1733 -16.1658
    -3.9943  -3.6910  -2.4097  -2.2964  -2.1582  -2.0166  -1.9071  -1.6771
     0.4015   0.5965   0.6825   0.8770   1.1676   1.4637   3.3063   3.5132
     4.2641   4.3171   4.4278   4.4948   4.5829   4.7140   5.5841   5.6638
     5.7217   5.8419   6.0640   6.1832   7.0967   7.2101   7.3817   7.9653
     8.5873   8.9543   9.2399   9.4143   9.4379   9.5719   9.6151   9.9910
    11.3843  11.5503  11.9127  11.9441  12.1943  12.2499  12.3637  12.5168
    12.5564  12.6930  13.1742  13.2372  13.4054  13.5125

     occupation numbers 
     1.0000   1.0000   1.0000   1.0000   1.0000   1.0000   1.0000   1.0000
     1.0000   1.0000   1.0000   1.0000   1.0000   1.0000   1.0000   1.0000
     1.0000   1.0000   1.0000   1.0000   1.0000   1.0000   1.0000   1.0000
     1.0000   1.0000   1.0000   1.0000   1.0000   1.0000   1.0000   1.0000
     1.0000   1.0000   1.0000   1.0000   1.0000   1.0000   1.0000   1.0000
     1.0000   1.0000   1.0000   1.0000   1.0000   1.0000   1.0000   1.0000
     1.0000   1.0000   1.0000   1.0000   1.0000   1.0000   1.0000   1.0000
     1.0000   1.0000   1.0000   1.0000   1.0000   1.0000   1.0000   1.0000
     1.0000   1.0000   1.0000   1.0000   1.0000   1.0000   1.0000   1.0000
     1.0000   1.0000   1.0000   1.0000   1.0000   1.0000   1.0000   1.0000
     1.0000   1.0000   1.0000   1.0000   1.0000   1.0000   1.0000   1.0000
     1.0000   1.0000   1.0000   1.0000   1.0000   1.0000   1.0000   1.0000
     1.0000   1.0000   1.0000   1.0000   1.0000   1.0000   1.0000   1.0000
     1.0000   1.0000   1.0000   1.0000   1.0000   1.0000   1.0000   0.9795
     0.0117   0.0000   0.0000   0.0000   0.0000   0.0000   0.0000   0.0000
     0.0000   0.0000   0.0000   0.0000   0.0000   0.0000   0.0000   0.0000
     0.0000   0.0000   0.0000   0.0000   0.0000   0.0000

          k = 0.0000 0.3536 0.0000 (  8620 PWs)   bands (ev):

   -16.8638 -16.8428 -16.8114 -16.8017 -16.7651 -16.7538 -16.7441 -16.7372
   -16.7220 -16.7050 -16.6968 -16.6852 -16.6737 -16.6680 -16.6580 -16.6513
   -16.6449 -16.6364 -16.6295 -16.6233 -16.6129 -16.6076 -16.6035 -16.5933
   -16.5883 -16.5772 -16.5727 -16.5689 -16.5645 -16.5566 -16.5472 -16.5454
   -16.5361 -16.5308 -16.5275 -16.5173 -16.5107 -16.5008 -16.4971 -16.4894
   -16.4841 -16.4750 -16.4672 -16.4627 -16.4565 -16.4534 -16.4467 -16.4410
   -16.4358 -16.4329 -16.4297 -16.4235 -16.4152 -16.4103 -16.4039 -16.3990
   -16.3911 -16.3894 -16.3773 -16.3745 -16.3654 -16.3609 -16.3566 -16.3519
   -16.3352 -16.3239 -16.3192 -16.3073 -16.3028 -16.2963 -16.2929 -16.2750
   -16.2639 -16.2600 -16.2190 -16.2094 -16.2012 -16.1892 -16.1719 -16.1663
    -4.3353  -2.8756  -2.7460  -2.5613  -2.3894  -2.1608  -1.0262  -0.7128
    -0.5314  -0.2926   0.7493   1.0062   1.1251   1.3265   1.5526   4.5042
     4.5988   4.6651   4.7978   5.1368   5.2462   5.3766   5.4647   5.5320
     5.6622   5.9315   6.5932   6.6702   6.8537   7.0046   7.2649   7.6726
     8.6439   9.3318   9.3642   9.4719   9.5585   9.7167   9.9016  10.0170
    10.0660  10.1834  10.3172  10.4529  11.5757  11.6938  11.8013  11.9151
    11.9813  12.2362  12.2543  12.4586  12.5889  12.7658

     occupation numbers 
     1.0000   1.0000   1.0000   1.0000   1.0000   1.0000   1.0000   1.0000
     1.0000   1.0000   1.0000   1.0000   1.0000   1.0000   1.0000   1.0000
     1.0000   1.0000   1.0000   1.0000   1.0000   1.0000   1.0000   1.0000
     1.0000   1.0000   1.0000   1.0000   1.0000   1.0000   1.0000   1.0000
     1.0000   1.0000   1.0000   1.0000   1.0000   1.0000   1.0000   1.0000
     1.0000   1.0000   1.0000   1.0000   1.0000   1.0000   1.0000   1.0000
     1.0000   1.0000   1.0000   1.0000   1.0000   1.0000   1.0000   1.0000
     1.0000   1.0000   1.0000   1.0000   1.0000   1.0000   1.0000   1.0000
     1.0000   1.0000   1.0000   1.0000   1.0000   1.0000   1.0000   1.0000
     1.0000   1.0000   1.0000   1.0000   1.0000   1.0000   1.0000   1.0000
     1.0000   1.0000   1.0000   1.0000   1.0000   1.0000   1.0000   1.0000
     1.0000   1.0000   1.0000   1.0000   1.0000   1.0000   1.0000   1.0000
     1.0000   1.0000   1.0000   1.0000   1.0000   1.0000   1.0000   1.0000
     1.0000   1.0000   1.0000   1.0000   1.0000   1.0000   1.0000   1.0000
     0.0039   0.0000   0.0000   0.0000   0.0000   0.0000   0.0000   0.0000
     0.0000   0.0000   0.0000   0.0000   0.0000   0.0000   0.0000   0.0000
     0.0000   0.0000   0.0000   0.0000   0.0000   0.0000

          k = 0.0000 0.0000 0.3536 (  8620 PWs)   bands (ev):

   -16.8640 -16.8435 -16.8113 -16.8027 -16.7657 -16.7552 -16.7433 -16.7359
   -16.7216 -16.7011 -16.6965 -16.6830 -16.6743 -16.6683 -16.6626 -16.6484
   -16.6461 -16.6358 -16.6280 -16.6247 -16.6130 -16.6092 -16.6001 -16.5937
   -16.5867 -16.5774 -16.5742 -16.5693 -16.5641 -16.5606 -16.5504 -16.5424
   -16.5362 -16.5307 -16.5278 -16.5169 -16.5086 -16.5030 -16.4954 -16.4909
   -16.4878 -16.4763 -16.4691 -16.4658 -16.4556 -16.4535 -16.4456 -16.4380
   -16.4316 -16.4293 -16.4279 -16.4213 -16.4129 -16.4109 -16.4069 -16.4015
   -16.3919 -16.3837 -16.3790 -16.3736 -16.3682 -16.3606 -16.3567 -16.3522
   -16.3373 -16.3299 -16.3146 -16.3098 -16.3046 -16.2965 -16.2927 -16.2780
   -16.2613 -16.2579 -16.2114 -16.2085 -16.2038 -16.1899 -16.1739 -16.1669
    -4.3369  -2.8374  -2.7198  -2.5564  -2.4264  -2.2555  -0.8251  -0.7464
    -0.5451  -0.4023   0.8388   0.9729   1.1519   1.2321   1.5874   4.5624
     4.5886   4.6556   4.6891   5.1964   5.3081   5.3644   5.4353   5.5409
     5.6384   5.8812   6.4628   6.8302   6.9177   6.9948   7.3346   7.5334
     8.6558   9.3252   9.4805   9.5221   9.5580   9.6546   9.9014   9.9746
    10.0786  10.1702  10.3346  10.4572  11.6277  11.6691  11.8104  11.9521
    11.9891  12.0448  12.3726  12.4353  12.5138  12.7632

     occupation numbers 
     1.0000   1.0000   1.0000   1.0000   1.0000   1.0000   1.0000   1.0000
     1.0000   1.0000   1.0000   1.0000   1.0000   1.0000   1.0000   1.0000
     1.0000   1.0000   1.0000   1.0000   1.0000   1.0000   1.0000   1.0000
     1.0000   1.0000   1.0000   1.0000   1.0000   1.0000   1.0000   1.0000
     1.0000   1.0000   1.0000   1.0000   1.0000   1.0000   1.0000   1.0000
     1.0000   1.0000   1.0000   1.0000   1.0000   1.0000   1.0000   1.0000
     1.0000   1.0000   1.0000   1.0000   1.0000   1.0000   1.0000   1.0000
     1.0000   1.0000   1.0000   1.0000   1.0000   1.0000   1.0000   1.0000
     1.0000   1.0000   1.0000   1.0000   1.0000   1.0000   1.0000   1.0000
     1.0000   1.0000   1.0000   1.0000   1.0000   1.0000   1.0000   1.0000
     1.0000   1.0000   1.0000   1.0000   1.0000   1.0000   1.0000   1.0000
     1.0000   1.0000   1.0000   1.0000   1.0000   1.0000   1.0000   1.0000
     1.0000   1.0000   1.0000   1.0000   1.0000   1.0000   1.0000   1.0000
     1.0000   1.0000   1.0000   1.0000   1.0000   1.0000   1.0000   1.0000
     0.0031   0.0000   0.0000   0.0000   0.0000   0.0000   0.0000   0.0000
     0.0000   0.0000   0.0000   0.0000   0.0000   0.0000   0.0000   0.0000
     0.0000   0.0000   0.0000   0.0000   0.0000   0.0000

          k = 0.1768 0.5303 0.5303 (  8605 PWs)   bands (ev):

   -16.8632 -16.8450 -16.8131 -16.8035 -16.7679 -16.7588 -16.7429 -16.7347
   -16.7223 -16.7064 -16.6993 -16.6898 -16.6746 -16.6714 -16.6603 -16.6506
   -16.6427 -16.6297 -16.6277 -16.6158 -16.6104 -16.5930 -16.5901 -16.5861
   -16.5808 -16.5796 -16.5705 -16.5688 -16.5612 -16.5533 -16.5522 -16.5426
   -16.5382 -16.5308 -16.5255 -16.5241 -16.5129 -16.5081 -16.5026 -16.4945
   -16.4861 -16.4797 -16.4694 -16.4621 -16.4592 -16.4532 -16.4505 -16.4408
   -16.4388 -16.4362 -16.4303 -16.4224 -16.4206 -16.4141 -16.4063 -16.3980
   -16.3914 -16.3877 -16.3766 -16.3720 -16.3657 -16.3611 -16.3550 -16.3484
   -16.3357 -16.3282 -16.3202 -16.3045 -16.2989 -16.2952 -16.2905 -16.2772
   -16.2664 -16.2594 -16.2229 -16.2081 -16.2004 -16.1879 -16.1695 -16.1638
    -3.9210  -3.4527  -2.9643  -2.5292  -2.4655  -1.9914  -1.4075  -1.3346
     0.0817   0.2028   0.9287   1.2817   1.4018   2.3007   2.6627   3.7936
     3.9144   4.0717   4.1798   4.5449   4.6290   5.0491   5.1540   5.2940
     5.7251   5.8630   6.0907   6.1665   6.3554   6.8041   7.0995   7.2675
     9.2775   9.5769   9.8551  10.0762  10.3637  10.4613  10.4994  10.5792
    10.7255  10.9338  11.7033  11.8442  12.0256  12.0946  12.2389  12.4122
    12.7467  12.8953  12.9347  12.9904  13.0945  13.2290

     occupation numbers 
     1.0000   1.0000   1.0000   1.0000   1.0000   1.0000   1.0000   1.0000
     1.0000   1.0000   1.0000   1.0000   1.0000   1.0000   1.0000   1.0000
     1.0000   1.0000   1.0000   1.0000   1.0000   1.0000   1.0000   1.0000
     1.0000   1.0000   1.0000   1.0000   1.0000   1.0000   1.0000   1.0000
     1.0000   1.0000   1.0000   1.0000   1.0000   1.0000   1.0000   1.0000
     1.0000   1.0000   1.0000   1.0000   1.0000   1.0000   1.0000   1.0000
     1.0000   1.0000   1.0000   1.0000   1.0000   1.0000   1.0000   1.0000
     1.0000   1.0000   1.0000   1.0000   1.0000   1.0000   1.0000   1.0000
     1.0000   1.0000   1.0000   1.0000   1.0000   1.0000   1.0000   1.0000
     1.0000   1.0000   1.0000   1.0000   1.0000   1.0000   1.0000   1.0000
     1.0000   1.0000   1.0000   1.0000   1.0000   1.0000   1.0000   1.0000
     1.0000   1.0000   1.0000   1.0000   1.0000   1.0000   1.0000   1.0000
     1.0000   1.0000   1.0000   1.0000   1.0000   1.0000   1.0000   1.0000
     1.0000   1.0000   1.0000   1.0000   1.0000   1.0000   1.0000   1.0000
     0.0000   0.0000   0.0000   0.0000   0.0000   0.0000   0.0000   0.0000
     0.0000   0.0000   0.0000   0.0000   0.0000   0.0000   0.0000   0.0000
     0.0000   0.0000   0.0000   0.0000   0.0000   0.0000

          k = 0.1768-0.5303-0.5303 (  8605 PWs)   bands (ev):

   -16.8632 -16.8452 -16.8118 -16.8037 -16.7677 -16.7586 -16.7409 -16.7344
   -16.7216 -16.7072 -16.6988 -16.6849 -16.6744 -16.6704 -16.6616 -16.6502
   -16.6441 -16.6349 -16.6264 -16.6143 -16.6104 -16.5975 -16.5950 -16.5895
   -16.5822 -16.5775 -16.5744 -16.5688 -16.5628 -16.5577 -16.5547 -16.5460
   -16.5386 -16.5297 -16.5244 -16.5207 -16.5104 -16.5049 -16.4989 -16.4911
   -16.4838 -16.4749 -16.4687 -16.4643 -16.4601 -16.4568 -16.4508 -16.4444
   -16.4366 -16.4332 -16.4297 -16.4233 -16.4152 -16.4100 -16.4054 -16.4000
   -16.3870 -16.3843 -16.3817 -16.3707 -16.3649 -16.3632 -16.3596 -16.3554
   -16.3362 -16.3292 -16.3168 -16.3069 -16.3000 -16.2944 -16.2917 -16.2745
   -16.2625 -16.2591 -16.2185 -16.2085 -16.2014 -16.1886 -16.1719 -16.1657
    -3.9470  -3.4651  -2.9430  -2.5061  -2.4524  -1.9432  -1.3802  -1.3004
     0.0965   0.1462   0.6166   1.2764   1.3826   2.0469   2.8433   3.9665
     4.0672   4.2040   4.4014   4.6987   4.8067   5.0646   5.0791   5.4649
     5.5926   5.7276   6.0886   6.1728   6.2135   6.6409   6.8240   7.3630
     9.2392   9.5318   9.7678   9.8968  10.2251  10.3481  10.4880  10.5914
    10.8283  11.0546  11.3481  11.4142  11.8764  12.1038  12.3277  12.3991
    12.6359  12.8885  12.9859  13.1264  13.3004  13.3376

     occupation numbers 
     1.0000   1.0000   1.0000   1.0000   1.0000   1.0000   1.0000   1.0000
     1.0000   1.0000   1.0000   1.0000   1.0000   1.0000   1.0000   1.0000
     1.0000   1.0000   1.0000   1.0000   1.0000   1.0000   1.0000   1.0000
     1.0000   1.0000   1.0000   1.0000   1.0000   1.0000   1.0000   1.0000
     1.0000   1.0000   1.0000   1.0000   1.0000   1.0000   1.0000   1.0000
     1.0000   1.0000   1.0000   1.0000   1.0000   1.0000   1.0000   1.0000
     1.0000   1.0000   1.0000   1.0000   1.0000   1.0000   1.0000   1.0000
     1.0000   1.0000   1.0000   1.0000   1.0000   1.0000   1.0000   1.0000
     1.0000   1.0000   1.0000   1.0000   1.0000   1.0000   1.0000   1.0000
     1.0000   1.0000   1.0000   1.0000   1.0000   1.0000   1.0000   1.0000
     1.0000   1.0000   1.0000   1.0000   1.0000   1.0000   1.0000   1.0000
     1.0000   1.0000   1.0000   1.0000   1.0000   1.0000   1.0000   1.0000
     1.0000   1.0000   1.0000   1.0000   1.0000   1.0000   1.0000   1.0000
     1.0000   1.0000   1.0000   1.0000   1.0000   1.0000   1.0000   1.0000
     0.0000   0.0000   0.0000   0.0000   0.0000   0.0000   0.0000   0.0000
     0.0000   0.0000   0.0000   0.0000   0.0000   0.0000   0.0000   0.0000
     0.0000   0.0000   0.0000   0.0000   0.0000   0.0000

          k =-0.1768 0.5303-0.5303 (  8605 PWs)   bands (ev):

   -16.8644 -16.8443 -16.8099 -16.7980 -16.7705 -16.7613 -16.7428 -16.7406
   -16.7234 -16.7046 -16.6988 -16.6858 -16.6767 -16.6685 -16.6617 -16.6514
   -16.6430 -16.6353 -16.6255 -16.6173 -16.6072 -16.6015 -16.5953 -16.5916
   -16.5841 -16.5798 -16.5726 -16.5665 -16.5605 -16.5519 -16.5422 -16.5391
   -16.5324 -16.5281 -16.5230 -16.5179 -16.5120 -16.5068 -16.4964 -16.4914
   -16.4866 -16.4786 -16.4720 -16.4696 -16.4611 -16.4559 -16.4493 -16.4463
   -16.4420 -16.4320 -16.4266 -16.4251 -16.4218 -16.4143 -16.4043 -16.3968
   -16.3905 -16.3884 -16.3815 -16.3712 -16.3689 -16.3632 -16.3588 -16.3505
   -16.3348 -16.3282 -16.3162 -16.3075 -16.2960 -16.2948 -16.2927 -16.2744
   -16.2644 -16.2583 -16.2187 -16.2079 -16.2005 -16.1892 -16.1713 -16.1648
    -3.9522  -3.3965  -2.9051  -2.7025  -2.4414  -1.8693  -1.5448  -1.1693
    -0.0429   0.3203   0.5681   1.3574   1.6752   2.1682   2.6160   3.9207
     4.0054   4.0675   4.1529   4.5879   4.7733   5.0188   5.2146   5.3381
     5.5599   5.7799   5.9374   6.2572   6.3466   6.7304   6.9395   7.5250
     9.3252   9.6519   9.7823  10.0456  10.2358  10.3835  10.4690  10.6514
    10.8049  10.9633  11.4511  11.5335  11.9140  12.0744  12.2724  12.5014
    12.7988  12.8863  12.9863  13.0446  13.1670  13.2706

     occupation numbers 
     1.0000   1.0000   1.0000   1.0000   1.0000   1.0000   1.0000   1.0000
     1.0000   1.0000   1.0000   1.0000   1.0000   1.0000   1.0000   1.0000
     1.0000   1.0000   1.0000   1.0000   1.0000   1.0000   1.0000   1.0000
     1.0000   1.0000   1.0000   1.0000   1.0000   1.0000   1.0000   1.0000
     1.0000   1.0000   1.0000   1.0000   1.0000   1.0000   1.0000   1.0000
     1.0000   1.0000   1.0000   1.0000   1.0000   1.0000   1.0000   1.0000
     1.0000   1.0000   1.0000   1.0000   1.0000   1.0000   1.0000   1.0000
     1.0000   1.0000   1.0000   1.0000   1.0000   1.0000   1.0000   1.0000
     1.0000   1.0000   1.0000   1.0000   1.0000   1.0000   1.0000   1.0000
     1.0000   1.0000   1.0000   1.0000   1.0000   1.0000   1.0000   1.0000
     1.0000   1.0000   1.0000   1.0000   1.0000   1.0000   1.0000   1.0000
     1.0000   1.0000   1.0000   1.0000   1.0000   1.0000   1.0000   1.0000
     1.0000   1.0000   1.0000   1.0000   1.0000   1.0000   1.0000   1.0000
     1.0000   1.0000   1.0000   1.0000   1.0000   1.0000   1.0000   1.0000
     0.0000   0.0000   0.0000   0.0000   0.0000   0.0000   0.0000   0.0000
     0.0000   0.0000   0.0000   0.0000   0.0000   0.0000   0.0000   0.0000
     0.0000   0.0000   0.0000   0.0000   0.0000   0.0000

          k =-0.5303-0.1768-0.5303 (  8605 PWs)   bands (ev):

   -16.8642 -16.8436 -16.8148 -16.8066 -16.7640 -16.7548 -16.7464 -16.7346
   -16.7218 -16.7031 -16.6968 -16.6906 -16.6734 -16.6665 -16.6601 -16.6522
   -16.6407 -16.6335 -16.6284 -16.6199 -16.6144 -16.6019 -16.5954 -16.5877
   -16.5817 -16.5731 -16.5698 -16.5645 -16.5603 -16.5574 -16.5500 -16.5435
   -16.5332 -16.5302 -16.5276 -16.5240 -16.5168 -16.5075 -16.5010 -16.4952
   -16.4806 -16.4794 -16.4718 -16.4621 -16.4557 -16.4499 -16.4468 -16.4431
   -16.4393 -16.4331 -16.4312 -16.4272 -16.4195 -16.4137 -16.4055 -16.4007
   -16.3929 -16.3852 -16.3798 -16.3722 -16.3663 -16.3598 -16.3568 -16.3485
   -16.3322 -16.3263 -16.3210 -16.3045 -16.3001 -16.2962 -16.2923 -16.2762
   -16.2666 -16.2590 -16.2229 -16.2080 -16.2001 -16.1879 -16.1696 -16.1641
    -3.9091  -3.4751  -2.8914  -2.7182  -2.4047  -1.8534  -1.4943  -1.2953
     0.0567   0.3280   0.5549   1.3779   1.7340   2.1519   2.5842   3.7724
     3.8868   4.0789   4.2143   4.5504   4.7980   5.0129   5.2151   5.3380
     5.6364   5.8747   5.9783   6.1814   6.2490   6.7219   7.0229   7.5503
     9.3466   9.6389   9.8645  10.1954  10.2610  10.3953  10.4582  10.5622
    10.8693  10.9373  11.3220  11.6424  11.8498  12.2204  12.2572  12.4824
    12.7312  12.8349  12.9323  13.0513  13.1235  13.2740

     occupation numbers 
     1.0000   1.0000   1.0000   1.0000   1.0000   1.0000   1.0000   1.0000
     1.0000   1.0000   1.0000   1.0000   1.0000   1.0000   1.0000   1.0000
     1.0000   1.0000   1.0000   1.0000   1.0000   1.0000   1.0000   1.0000
     1.0000   1.0000   1.0000   1.0000   1.0000   1.0000   1.0000   1.0000
     1.0000   1.0000   1.0000   1.0000   1.0000   1.0000   1.0000   1.0000
     1.0000   1.0000   1.0000   1.0000   1.0000   1.0000   1.0000   1.0000
     1.0000   1.0000   1.0000   1.0000   1.0000   1.0000   1.0000   1.0000
     1.0000   1.0000   1.0000   1.0000   1.0000   1.0000   1.0000   1.0000
     1.0000   1.0000   1.0000   1.0000   1.0000   1.0000   1.0000   1.0000
     1.0000   1.0000   1.0000   1.0000   1.0000   1.0000   1.0000   1.0000
     1.0000   1.0000   1.0000   1.0000   1.0000   1.0000   1.0000   1.0000
     1.0000   1.0000   1.0000   1.0000   1.0000   1.0000   1.0000   1.0000
     1.0000   1.0000   1.0000   1.0000   1.0000   1.0000   1.0000   1.0000
     1.0000   1.0000   1.0000   1.0000   1.0000   1.0000   1.0000   1.0000
     0.0000   0.0000   0.0000   0.0000   0.0000   0.0000   0.0000   0.0000
     0.0000   0.0000   0.0000   0.0000   0.0000   0.0000   0.0000   0.0000
     0.0000   0.0000   0.0000   0.0000   0.0000   0.0000

          k = 0.5303 0.1768-0.5303 (  8605 PWs)   bands (ev):

   -16.8656 -16.8434 -16.8126 -16.8028 -16.7676 -16.7567 -16.7449 -16.7396
   -16.7228 -16.7058 -16.6997 -16.6900 -16.6726 -16.6626 -16.6542 -16.6470
   -16.6438 -16.6313 -16.6257 -16.6173 -16.6120 -16.6059 -16.5963 -16.5872
   -16.5828 -16.5791 -16.5699 -16.5633 -16.5604 -16.5535 -16.5450 -16.5422
   -16.5373 -16.5331 -16.5268 -16.5232 -16.5121 -16.5093 -16.4972 -16.4944
   -16.4887 -16.4856 -16.4750 -16.4669 -16.4620 -16.4546 -16.4514 -16.4453
   -16.4414 -16.4339 -16.4277 -16.4202 -16.4153 -16.4087 -16.4030 -16.3993
   -16.3913 -16.3878 -16.3744 -16.3713 -16.3674 -16.3610 -16.3522 -16.3488
   -16.3317 -16.3250 -16.3217 -16.3046 -16.3009 -16.2965 -16.2927 -16.2737
   -16.2665 -16.2605 -16.2242 -16.2086 -16.2000 -16.1884 -16.1695 -16.1648
    -3.9197  -3.4436  -2.9967  -2.6085  -2.3935  -1.9334  -1.4688  -1.2392
     0.0261   0.2369   0.9025   1.0863   1.5130   2.2312   2.7291   3.7382
     3.9185   4.1044   4.2544   4.5520   4.7555   5.0089   5.1796   5.3996
     5.7024   5.8078   6.0738   6.2339   6.3911   6.7269   7.0325   7.2384
     9.2677   9.5786   9.7330  10.0376  10.2894  10.3502  10.5743  10.6476
    10.7881  10.9440  11.5956  11.8404  11.9378  12.1388  12.2078  12.3722
    12.7732  12.8468  12.9035  13.0257  13.0694  13.2069

     occupation numbers 
     1.0000   1.0000   1.0000   1.0000   1.0000   1.0000   1.0000   1.0000
     1.0000   1.0000   1.0000   1.0000   1.0000   1.0000   1.0000   1.0000
     1.0000   1.0000   1.0000   1.0000   1.0000   1.0000   1.0000   1.0000
     1.0000   1.0000   1.0000   1.0000   1.0000   1.0000   1.0000   1.0000
     1.0000   1.0000   1.0000   1.0000   1.0000   1.0000   1.0000   1.0000
     1.0000   1.0000   1.0000   1.0000   1.0000   1.0000   1.0000   1.0000
     1.0000   1.0000   1.0000   1.0000   1.0000   1.0000   1.0000   1.0000
     1.0000   1.0000   1.0000   1.0000   1.0000   1.0000   1.0000   1.0000
     1.0000   1.0000   1.0000   1.0000   1.0000   1.0000   1.0000   1.0000
     1.0000   1.0000   1.0000   1.0000   1.0000   1.0000   1.0000   1.0000
     1.0000   1.0000   1.0000   1.0000   1.0000   1.0000   1.0000   1.0000
     1.0000   1.0000   1.0000   1.0000   1.0000   1.0000   1.0000   1.0000
     1.0000   1.0000   1.0000   1.0000   1.0000   1.0000   1.0000   1.0000
     1.0000   1.0000   1.0000   1.0000   1.0000   1.0000   1.0000   1.0000
     0.0000   0.0000   0.0000   0.0000   0.0000   0.0000   0.0000   0.0000
     0.0000   0.0000   0.0000   0.0000   0.0000   0.0000   0.0000   0.0000
     0.0000   0.0000   0.0000   0.0000   0.0000   0.0000

          k =-0.5303 0.1768 0.5303 (  8605 PWs)   bands (ev):

   -16.8642 -16.8437 -16.8134 -16.8071 -16.7639 -16.7545 -16.7437 -16.7354
   -16.7201 -16.7041 -16.6971 -16.6862 -16.6735 -16.6650 -16.6582 -16.6510
   -16.6455 -16.6354 -16.6287 -16.6191 -16.6143 -16.6080 -16.5996 -16.5903
   -16.5805 -16.5772 -16.5706 -16.5663 -16.5614 -16.5582 -16.5515 -16.5469
   -16.5377 -16.5311 -16.5272 -16.5238 -16.5080 -16.5043 -16.4972 -16.4891
   -16.4831 -16.4707 -16.4685 -16.4665 -16.4565 -16.4548 -16.4509 -16.4439
   -16.4391 -16.4347 -16.4243 -16.4227 -16.4165 -16.4131 -16.4050 -16.4010
   -16.3896 -16.3854 -16.3781 -16.3743 -16.3674 -16.3617 -16.3587 -16.3543
   -16.3351 -16.3254 -16.3190 -16.3059 -16.3020 -16.2959 -16.2927 -16.2736
   -16.2625 -16.2587 -16.2185 -16.2087 -16.2009 -16.1886 -16.1718 -16.1662
    -3.9330  -3.4878  -2.9490  -2.5992  -2.3375  -1.8937  -1.4680  -1.2744
     0.0635   0.2278   0.6614   1.0482   1.4731   2.0667   2.8899   3.8931
     4.1865   4.2211   4.3672   4.6361   4.7846   5.0172   5.1341   5.4237
     5.5810   5.7993   6.0272   6.1346   6.3782   6.7337   6.8228   7.2398
     9.2772   9.5608   9.6281   9.9022  10.1349  10.3421  10.4773  10.6952
    10.8184  10.9166  11.3115  11.6764  11.9548  12.0678  12.2150  12.4225
    12.7245  12.8584  13.0471  13.0796  13.2589  13.3867

     occupation numbers 
     1.0000   1.0000   1.0000   1.0000   1.0000   1.0000   1.0000   1.0000
     1.0000   1.0000   1.0000   1.0000   1.0000   1.0000   1.0000   1.0000
     1.0000   1.0000   1.0000   1.0000   1.0000   1.0000   1.0000   1.0000
     1.0000   1.0000   1.0000   1.0000   1.0000   1.0000   1.0000   1.0000
     1.0000   1.0000   1.0000   1.0000   1.0000   1.0000   1.0000   1.0000
     1.0000   1.0000   1.0000   1.0000   1.0000   1.0000   1.0000   1.0000
     1.0000   1.0000   1.0000   1.0000   1.0000   1.0000   1.0000   1.0000
     1.0000   1.0000   1.0000   1.0000   1.0000   1.0000   1.0000   1.0000
     1.0000   1.0000   1.0000   1.0000   1.0000   1.0000   1.0000   1.0000
     1.0000   1.0000   1.0000   1.0000   1.0000   1.0000   1.0000   1.0000
     1.0000   1.0000   1.0000   1.0000   1.0000   1.0000   1.0000   1.0000
     1.0000   1.0000   1.0000   1.0000   1.0000   1.0000   1.0000   1.0000
     1.0000   1.0000   1.0000   1.0000   1.0000   1.0000   1.0000   1.0000
     1.0000   1.0000   1.0000   1.0000   1.0000   1.0000   1.0000   1.0000
     0.0000   0.0000   0.0000   0.0000   0.0000   0.0000   0.0000   0.0000
     0.0000   0.0000   0.0000   0.0000   0.0000   0.0000   0.0000   0.0000
     0.0000   0.0000   0.0000   0.0000   0.0000   0.0000

          k = 0.5303-0.1768 0.5303 (  8605 PWs)   bands (ev):

   -16.8653 -16.8431 -16.8118 -16.8021 -16.7668 -16.7565 -16.7461 -16.7385
   -16.7232 -16.7012 -16.6981 -16.6859 -16.6749 -16.6667 -16.6595 -16.6535
   -16.6389 -16.6379 -16.6281 -16.6240 -16.6109 -16.6046 -16.6023 -16.5906
   -16.5839 -16.5767 -16.5720 -16.5661 -16.5606 -16.5493 -16.5447 -16.5377
   -16.5340 -16.5267 -16.5241 -16.5184 -16.5105 -16.5067 -16.4997 -16.4889
   -16.4836 -16.4787 -16.4706 -16.4673 -16.4603 -16.4540 -16.4484 -16.4465
   -16.4382 -16.4362 -16.4288 -16.4254 -16.4158 -16.4126 -16.4054 -16.4006
   -16.3941 -16.3878 -16.3820 -16.3742 -16.3674 -16.3616 -16.3582 -16.3521
   -16.3334 -16.3247 -16.3176 -16.3071 -16.2979 -16.2956 -16.2942 -16.2741
   -16.2634 -16.2586 -16.2184 -16.2080 -16.2002 -16.1891 -16.1713 -16.1653
    -3.9432  -3.3964  -2.9575  -2.7161  -2.4048  -1.7791  -1.5003  -1.3094
     0.1048   0.2177   0.5242   1.3507   1.7137   2.1639   2.6059   3.8082
     4.0407   4.0715   4.2325   4.5638   4.7657   5.0148   5.2365   5.4028
     5.6052   5.8473   5.9495   6.1209   6.4168   6.6371   6.7961   7.6713
     9.3039   9.6718   9.8615  10.1134  10.1910  10.3537  10.4521  10.7120
    10.7538  10.9049  11.2647  11.5973  11.7278  12.2455  12.2609  12.4968
    12.7670  12.9181  12.9637  13.0871  13.2030  13.2929

     occupation numbers 
     1.0000   1.0000   1.0000   1.0000   1.0000   1.0000   1.0000   1.0000
     1.0000   1.0000   1.0000   1.0000   1.0000   1.0000   1.0000   1.0000
     1.0000   1.0000   1.0000   1.0000   1.0000   1.0000   1.0000   1.0000
     1.0000   1.0000   1.0000   1.0000   1.0000   1.0000   1.0000   1.0000
     1.0000   1.0000   1.0000   1.0000   1.0000   1.0000   1.0000   1.0000
     1.0000   1.0000   1.0000   1.0000   1.0000   1.0000   1.0000   1.0000
     1.0000   1.0000   1.0000   1.0000   1.0000   1.0000   1.0000   1.0000
     1.0000   1.0000   1.0000   1.0000   1.0000   1.0000   1.0000   1.0000
     1.0000   1.0000   1.0000   1.0000   1.0000   1.0000   1.0000   1.0000
     1.0000   1.0000   1.0000   1.0000   1.0000   1.0000   1.0000   1.0000
     1.0000   1.0000   1.0000   1.0000   1.0000   1.0000   1.0000   1.0000
     1.0000   1.0000   1.0000   1.0000   1.0000   1.0000   1.0000   1.0000
     1.0000   1.0000   1.0000   1.0000   1.0000   1.0000   1.0000   1.0000
     1.0000   1.0000   1.0000   1.0000   1.0000   1.0000   1.0000   1.0000
     0.0000   0.0000   0.0000   0.0000   0.0000   0.0000   0.0000   0.0000
     0.0000   0.0000   0.0000   0.0000   0.0000   0.0000   0.0000   0.0000
     0.0000   0.0000   0.0000   0.0000   0.0000   0.0000

          k = 0.5303 0.5303-0.1768 (  8605 PWs)   bands (ev):

   -16.8657 -16.8441 -16.8124 -16.8036 -16.7681 -16.7578 -16.7439 -16.7392
   -16.7224 -16.7043 -16.6979 -16.6860 -16.6716 -16.6661 -16.6574 -16.6459
   -16.6429 -16.6349 -16.6225 -16.6192 -16.6079 -16.6042 -16.5947 -16.5934
   -16.5811 -16.5766 -16.5702 -16.5669 -16.5618 -16.5526 -16.5476 -16.5420
   -16.5374 -16.5303 -16.5258 -16.5208 -16.5146 -16.5096 -16.5015 -16.4953
   -16.4914 -16.4870 -16.4795 -16.4640 -16.4581 -16.4554 -16.4530 -16.4452
   -16.4376 -16.4283 -16.4233 -16.4201 -16.4145 -16.4087 -16.4048 -16.4007
   -16.3902 -16.3852 -16.3768 -16.3734 -16.3668 -16.3605 -16.3547 -16.3475
   -16.3348 -16.3291 -16.3170 -16.3088 -16.3021 -16.2972 -16.2919 -16.2763
   -16.2629 -16.2592 -16.2189 -16.2075 -16.2008 -16.1890 -16.1713 -16.1653
    -3.9303  -3.4121  -2.9584  -2.6986  -2.4171  -1.8831  -1.5012  -1.1790
     0.0540   0.2583   0.5602   1.4258   1.6059   2.1520   2.5809   3.7373
[...]
   -16.4868 -16.4813 -16.4755 -16.4630 -16.4587 -16.4540 -16.4504 -16.4423
   -16.4394 -16.4323 -16.4282 -16.4221 -16.4138 -16.4130 -16.4071 -16.3997
   -16.3941 -16.3848 -16.3801 -16.3739 -16.3685 -16.3588 -16.3574 -16.3514
   -16.3342 -16.3276 -16.3179 -16.3065 -16.3013 -16.2966 -16.2933 -16.2756
   -16.2624 -16.2583 -16.2181 -16.2073 -16.2005 -16.1886 -16.1713 -16.1652
    -3.5953  -3.3927  -3.2948  -3.1544  -1.9311  -1.7915  -1.6145  -1.4470
     0.2928   0.3883   0.6490   0.8426   2.6406   2.6908   2.9096   3.0303
     3.8087   3.8729   4.0208   4.1279   5.0549   5.1458   5.3218   5.4228
     5.4728   5.5681   5.6456   5.7861   6.4622   6.5138   6.7753   6.9575
    10.1977  10.2753  10.4482  10.5406  10.6079  10.6525  10.7266  10.8349
    10.9138  11.0254  11.1298  11.1674  12.3628  12.4878  12.5801  12.6145
    12.7518  12.7815  12.8965  12.9739  13.0719  13.1201

     occupation numbers 
     1.0000   1.0000   1.0000   1.0000   1.0000   1.0000   1.0000   1.0000
     1.0000   1.0000   1.0000   1.0000   1.0000   1.0000   1.0000   1.0000
     1.0000   1.0000   1.0000   1.0000   1.0000   1.0000   1.0000   1.0000
     1.0000   1.0000   1.0000   1.0000   1.0000   1.0000   1.0000   1.0000
     1.0000   1.0000   1.0000   1.0000   1.0000   1.0000   1.0000   1.0000
     1.0000   1.0000   1.0000   1.0000   1.0000   1.0000   1.0000   1.0000
     1.0000   1.0000   1.0000   1.0000   1.0000   1.0000   1.0000   1.0000
     1.0000   1.0000   1.0000   1.0000   1.0000   1.0000   1.0000   1.0000
     1.0000   1.0000   1.0000   1.0000   1.0000   1.0000   1.0000   1.0000
     1.0000   1.0000   1.0000   1.0000   1.0000   1.0000   1.0000   1.0000
     1.0000   1.0000   1.0000   1.0000   1.0000   1.0000   1.0000   1.0000
     1.0000   1.0000   1.0000   1.0000   1.0000   1.0000   1.0000   1.0000
     1.0000   1.0000   1.0000   1.0000   1.0000   1.0000   1.0000   1.0000
     1.0000   1.0000   1.0000   1.0000   1.0000   1.0000   1.0000   1.0000
     0.0000   0.0000   0.0000   0.0000   0.0000   0.0000   0.0000   0.0000
     0.0000   0.0000   0.0000   0.0000   0.0000   0.0000   0.0000   0.0000
     0.0000   0.0000   0.0000   0.0000   0.0000   0.0000

          k = 0.7071-0.0000 0.3536 (  8652 PWs)   bands (ev):

   -16.8646 -16.8442 -16.8127 -16.8032 -16.7680 -16.7584 -16.7445 -16.7375
   -16.7225 -16.7054 -16.7003 -16.6898 -16.6745 -16.6651 -16.6577 -16.6530
   -16.6423 -16.6301 -16.6285 -16.6164 -16.6086 -16.5995 -16.5904 -16.5865
   -16.5834 -16.5803 -16.5696 -16.5653 -16.5608 -16.5530 -16.5483 -16.5406
   -16.5332 -16.5311 -16.5268 -16.5219 -16.5139 -16.5090 -16.5007 -16.4936
   -16.4882 -16.4764 -16.4699 -16.4680 -16.4579 -16.4553 -16.4517 -16.4461
   -16.4429 -16.4388 -16.4291 -16.4217 -16.4180 -16.4136 -16.4036 -16.3992
   -16.3932 -16.3841 -16.3789 -16.3717 -16.3670 -16.3619 -16.3574 -16.3499
   -16.3324 -16.3247 -16.3211 -16.3044 -16.2978 -16.2954 -16.2921 -16.2738
   -16.2665 -16.2595 -16.2235 -16.2084 -16.2000 -16.1881 -16.1696 -16.1642
    -3.6274  -3.3556  -3.2933  -3.1515  -1.8898  -1.8040  -1.6386  -1.4780
     0.2938   0.4594   0.5374   0.8992   2.6498   2.7714   2.8301   3.0210
     3.8221   3.8953   3.9967   4.1167   5.1408   5.2231   5.2643   5.3775
     5.4562   5.5238   5.6330   5.7507   6.4210   6.6306   6.6670   7.0446
    10.2225  10.2573  10.3470  10.4643  10.6082  10.6907  10.7556  10.8965
    10.9279  11.0129  11.0714  11.2269  12.3590  12.5089  12.5973  12.6667
    12.7385  12.7840  12.8710  12.9823  13.1087  13.1878

     occupation numbers 
     1.0000   1.0000   1.0000   1.0000   1.0000   1.0000   1.0000   1.0000
     1.0000   1.0000   1.0000   1.0000   1.0000   1.0000   1.0000   1.0000
     1.0000   1.0000   1.0000   1.0000   1.0000   1.0000   1.0000   1.0000
     1.0000   1.0000   1.0000   1.0000   1.0000   1.0000   1.0000   1.0000
     1.0000   1.0000   1.0000   1.0000   1.0000   1.0000   1.0000   1.0000
     1.0000   1.0000   1.0000   1.0000   1.0000   1.0000   1.0000   1.0000
     1.0000   1.0000   1.0000   1.0000   1.0000   1.0000   1.0000   1.0000
     1.0000   1.0000   1.0000   1.0000   1.0000   1.0000   1.0000   1.0000
     1.0000   1.0000   1.0000   1.0000   1.0000   1.0000   1.0000   1.0000
     1.0000   1.0000   1.0000   1.0000   1.0000   1.0000   1.0000   1.0000
     1.0000   1.0000   1.0000   1.0000   1.0000   1.0000   1.0000   1.0000
     1.0000   1.0000   1.0000   1.0000   1.0000   1.0000   1.0000   1.0000
     1.0000   1.0000   1.0000   1.0000   1.0000   1.0000   1.0000   1.0000
     1.0000   1.0000   1.0000   1.0000   1.0000   1.0000   1.0000   1.0000
     0.0000   0.0000   0.0000   0.0000   0.0000   0.0000   0.0000   0.0000
     0.0000   0.0000   0.0000   0.0000   0.0000   0.0000   0.0000   0.0000
     0.0000   0.0000   0.0000   0.0000   0.0000   0.0000

     the Fermi energy is     8.2602 ev

!    total energy              =   -3410.90300730 Ry
     Harris-Foulkes estimate   =   -3410.90300725 Ry
     estimated scf accuracy    <          7.2E-10 Ry

     The total energy is the sum of the following terms:

     one-electron contribution =   -2242.32419414 Ry
     hartree contribution      =    1325.42468728 Ry
     xc contribution           =    -922.09675024 Ry
     ewald contribution        =   -1571.90409040 Ry
     smearing contrib. (-TS)   =      -0.00265981 Ry

     convergence has been achieved in  12 iterations

     Forces acting on atoms (Ry/au):

     atom    1 type  1   force =  -0.40514023E-01  0.13873269E-01  0.13586145E-01
     atom    2 type  1   force =  -0.48532630E-01 -0.11868880E-01 -0.76714237E-03
     atom    3 type  1   force =   0.59645747E-01  0.25239744E-01 -0.41357922E-01
     atom    4 type  1   force =   0.13984240E-01 -0.10201769E-01 -0.23330201E-01
     atom    5 type  1   force =   0.31269677E-01 -0.60202348E-01 -0.19964432E-01
     atom    6 type  1   force =   0.12715037E-01  0.14359018E-01  0.50915919E-01
     atom    7 type  1   force =   0.90793307E-02 -0.32195907E-01 -0.56439091E-01
     atom    8 type  1   force =  -0.13834734E-01  0.37480127E-01  0.45947480E-01
     atom    9 type  1   force =  -0.24370148E-01  0.25529315E-01 -0.64709121E-01
     atom   10 type  1   force =   0.35659854E-01  0.26996999E-02  0.14254946E-01
     atom   11 type  1   force =   0.29652261E-01  0.44527035E-02  0.41054349E-01
     atom   12 type  1   force =  -0.64756483E-01 -0.17256348E-01  0.22031200E-01
     atom   13 type  1   force =  -0.18545171E-01 -0.47362403E-01 -0.27355901E-01
     atom   14 type  1   force =   0.58159801E-01  0.59129173E-01  0.35773265E-01
     atom   15 type  1   force =   0.93561844E-02 -0.57931145E-01  0.25930311E-01
     atom   16 type  1   force =  -0.48968942E-01  0.54255751E-01 -0.15569804E-01
     The non-local contrib.  to forces
     atom    1 type  1   force =   0.17536398E-01  0.52693720E-02  0.50993459E-02
     atom    2 type  1   force =  -0.11781841E-01  0.25552292E-02 -0.13620002E-01
     atom    3 type  1   force =  -0.26191492E-01 -0.10480656E-01 -0.65522002E-02
     atom    4 type  1   force =  -0.32461633E-02  0.96779226E-02 -0.14786416E-01
     atom    5 type  1   force =  -0.21705876E-01  0.13956339E-01  0.30592139E-01
     atom    6 type  1   force =   0.15890991E-02 -0.28566948E-01 -0.27832946E-01
     atom    7 type  1   force =  -0.27169437E-02  0.18289941E-01 -0.93537102E-03
     atom    8 type  1   force =   0.36704759E-01 -0.17577648E-01 -0.16973940E-01
     atom    9 type  1   force =   0.24949385E-01  0.11141480E-01 -0.97233617E-02
     atom   10 type  1   force =   0.14893317E-03 -0.97274029E-02 -0.59136649E-02
     atom   11 type  1   force =  -0.26925831E-01  0.21894140E-02  0.46861399E-01
     atom   12 type  1   force =  -0.15199931E-01  0.14031704E-01 -0.28825391E-01
     atom   13 type  1   force =  -0.32612407E-02  0.52370388E-03 -0.17063303E-01
     atom   14 type  1   force =  -0.13054378E-02 -0.12219982E-01  0.15614152E-01
     atom   15 type  1   force =   0.10523603E-02  0.25469307E-01  0.14626695E-01
     atom   16 type  1   force =   0.21855670E-01 -0.54693297E-02  0.17323591E-01
     The ionic contribution  to forces
     atom    1 type  1   force =  -0.18046898E+01  0.83817855E+00  0.67709042E+00
     atom    2 type  1   force =  -0.25402728E+01 -0.43401325E+00 -0.16098417E+01
     atom    3 type  1   force =   0.20260268E+01  0.78618548E+00 -0.19905720E+01
     atom    4 type  1   force =   0.18676732E+01 -0.48659929E+00 -0.23991453E+01
     atom    5 type  1   force =   0.24507735E+01 -0.27661919E+01 -0.47367025E+00
     atom    6 type  1   force =   0.12326738E+01 -0.10564510E+01  0.24215371E+01
     atom    7 type  1   force =   0.81668797E+00 -0.18757667E+01 -0.21547521E+01
     atom    8 type  1   force =   0.12536760E+01  0.58329678E-01  0.15575621E+01
     atom    9 type  1   force =  -0.19821765E+01  0.22307819E+01 -0.29638467E+01
     atom   10 type  1   force =   0.35943097E+00  0.17699961E+01  0.58045414E-01
     atom   11 type  1   force =   0.10921690E+01  0.90912477E+00  0.20214344E+01
     atom   12 type  1   force =  -0.41967175E+01  0.66707956E-01  0.92826766E+00
     atom   13 type  1   force =  -0.65628906E+00 -0.89006089E+00 -0.57717918E+00
     atom   14 type  1   force =   0.32545344E+01  0.18648859E+01  0.18214768E+01
     atom   15 type  1   force =  -0.73481780E+00 -0.27849419E+01  0.24889753E+01
     atom   16 type  1   force =  -0.24386821E+01  0.17698347E+01  0.19461815E+00
     The local contribution  to forces
     atom    1 type  1   force =   0.17444969E+01 -0.82773656E+00 -0.66672597E+00
     atom    2 type  1   force =   0.24983823E+01  0.41877268E+00  0.16221241E+01
     atom    3 type  1   force =  -0.19366884E+01 -0.74919901E+00  0.19525432E+01
     atom    4 type  1   force =  -0.18483018E+01  0.46596661E+00  0.23873915E+01
     atom    5 type  1   force =  -0.23961223E+01  0.26881651E+01  0.42265257E+00
     atom    6 type  1   force =  -0.12208266E+01  0.10986395E+01 -0.23388417E+01
     atom    7 type  1   force =  -0.80411386E+00  0.18227284E+01  0.20950011E+01
     atom    8 type  1   force =  -0.13019912E+01 -0.14732154E-02 -0.14921303E+01
     atom    9 type  1   force =   0.19324146E+01 -0.22138602E+01  0.29032781E+01
     atom   10 type  1   force =  -0.32134154E+00 -0.17563982E+01 -0.38061575E-01
     atom   11 type  1   force =  -0.10334632E+01 -0.90661667E+00 -0.20215446E+01
     atom   12 type  1   force =   0.41394427E+01 -0.98113631E-01 -0.87712879E+00
     atom   13 type  1   force =   0.63803326E+00  0.83895952E+00  0.56276178E+00
     atom   14 type  1   force =  -0.31898409E+01 -0.17898203E+01 -0.17967322E+01
     atom   15 type  1   force =   0.74354433E+00  0.26970409E+01 -0.24751748E+01
     atom   16 type  1   force =   0.23645280E+01 -0.17057220E+01 -0.22765025E+00
     The core correction contribution to forces
     atom    1 type  1   force =   0.21360474E-02 -0.18357191E-02 -0.18838067E-02
     atom    2 type  1   force =   0.51277221E-02  0.82968869E-03  0.57872372E-03
     atom    3 type  1   force =  -0.34884676E-02 -0.12664585E-02  0.31859859E-02
     atom    4 type  1   force =  -0.21410223E-02  0.74749452E-03  0.32204335E-02
     atom    5 type  1   force =  -0.16477175E-02  0.38225081E-02  0.46892837E-03
     atom    6 type  1   force =  -0.74325053E-03  0.75808895E-03 -0.39471264E-02
     atom    7 type  1   force =  -0.73593942E-03  0.25229435E-02  0.42314621E-02
     atom    8 type  1   force =  -0.22358372E-02 -0.17850749E-02 -0.24974024E-02
     atom    9 type  1   force =   0.39697464E-03 -0.25046935E-02  0.55731417E-02
     atom   10 type  1   force =  -0.25405178E-02 -0.11832549E-02  0.16202924E-03
     atom   11 type  1   force =  -0.21413733E-02 -0.20120054E-03 -0.56812739E-02
     atom   12 type  1   force =   0.77197745E-02  0.90134681E-04 -0.27904145E-03
     atom   13 type  1   force =   0.29566362E-02  0.32112642E-02  0.41594139E-02
     atom   14 type  1   force =  -0.52115437E-02 -0.37116498E-02 -0.46044266E-02
     atom   15 type  1   force =  -0.42904036E-03  0.45060995E-02 -0.24652637E-02
     atom   16 type  1   force =   0.33216006E-02 -0.43957184E-02  0.12449117E-03
     The Hubbard contrib.    to forces
     atom    1 type  1   force =   0.00000000E+00  0.00000000E+00  0.00000000E+00
     atom    2 type  1   force =   0.00000000E+00  0.00000000E+00  0.00000000E+00
     atom    3 type  1   force =   0.00000000E+00  0.00000000E+00  0.00000000E+00
     atom    4 type  1   force =   0.00000000E+00  0.00000000E+00  0.00000000E+00
     atom    5 type  1   force =   0.00000000E+00  0.00000000E+00  0.00000000E+00
     atom    6 type  1   force =   0.00000000E+00  0.00000000E+00  0.00000000E+00
     atom    7 type  1   force =   0.00000000E+00  0.00000000E+00  0.00000000E+00
     atom    8 type  1   force =   0.00000000E+00  0.00000000E+00  0.00000000E+00
     atom    9 type  1   force =   0.00000000E+00  0.00000000E+00  0.00000000E+00
     atom   10 type  1   force =   0.00000000E+00  0.00000000E+00  0.00000000E+00
     atom   11 type  1   force =   0.00000000E+00  0.00000000E+00  0.00000000E+00
     atom   12 type  1   force =   0.00000000E+00  0.00000000E+00  0.00000000E+00
     atom   13 type  1   force =   0.00000000E+00  0.00000000E+00  0.00000000E+00
     atom   14 type  1   force =   0.00000000E+00  0.00000000E+00  0.00000000E+00
     atom   15 type  1   force =   0.00000000E+00  0.00000000E+00  0.00000000E+00
     atom   16 type  1   force =   0.00000000E+00  0.00000000E+00  0.00000000E+00
     The SCF correction term to forces
     atom    1 type  1   force =   0.70775226E-05 -0.19043478E-05  0.74164172E-05
     atom    2 type  1   force =   0.12603941E-04 -0.12760539E-04 -0.69933647E-05
     atom    3 type  1   force =  -0.12028344E-04  0.86072077E-06  0.38296173E-04
     atom    4 type  1   force =   0.68675935E-06  0.59618326E-05 -0.90793694E-05
     atom    5 type  1   force =  -0.27363577E-04  0.46113481E-04 -0.65727185E-05
     atom    6 type  1   force =   0.22664932E-04 -0.20116444E-04  0.18532889E-05
     atom    7 type  1   force =  -0.41264922E-04  0.29963609E-04  0.17108653E-04
     atom    8 type  1   force =   0.12112596E-04 -0.13144376E-04 -0.11683695E-04
     atom    9 type  1   force =   0.45979818E-04 -0.28683155E-04  0.10908629E-04
     atom   10 type  1   force =  -0.37369939E-04  0.12913446E-04  0.23995656E-04
     atom   11 type  1   force =   0.14280737E-04 -0.43137475E-04 -0.14373303E-04
     atom   12 type  1   force =  -0.87944198E-06  0.27957142E-04 -0.19852402E-05
     atom   13 type  1   force =   0.15853361E-04  0.44709751E-05 -0.33352121E-04
     atom   14 type  1   force =  -0.16021020E-04 -0.43430095E-05  0.20238946E-04
     atom   15 type  1   force =   0.69676858E-05 -0.50084115E-05 -0.30296646E-04
     atom   16 type  1   force =   0.85450148E-05  0.85774632E-05  0.15471950E-04

     Total force =     0.250813     Total SCF correction =     0.000145


     entering subroutine stress ...

          total   stress  (Ry/bohr**3)                   (kbar)     P=   10.83
   0.0000741036   0.0000898286   0.0000858703         10.90     13.21     12.63
   0.0000898286   0.0000803111  -0.0000481182         13.21     11.81     -7.08
   0.0000858703  -0.0000481182   0.0000664993         12.63     -7.08      9.78

     kinetic stress (kbar)  10000.34    -12.29    -11.18
                              -12.29  10001.37      6.04
                              -11.18      6.04  10000.12

     local   stress (kbar)   1708.88  -2175.85  -2167.10
                            -2175.85   1485.42   1192.09
                            -2167.10   1192.09   1720.82

     nonloc. stress (kbar)   2944.58     10.08     11.23
                               10.08   2945.01     -5.90
                               11.23     -5.90   2943.82

     hartree stress (kbar)  26336.90    853.14    849.27
                              853.14  26437.66   -467.20
                              849.27   -467.20  26336.68

     exc-cor stress (kbar)  19473.92      0.55      0.57
                                0.55  19473.93     -0.30
                                0.57     -0.30  19473.89

     corecor stress (kbar) -29142.64     -0.62     -0.65
                               -0.62 -29142.65      0.35
                               -0.65      0.35 -29142.59

     ewald   stress (kbar) -31311.08   1338.20   1330.49
                             1338.20 -31188.93   -732.15
                             1330.49   -732.15 -31322.95

     hubbard stress (kbar)      0.00      0.00      0.00
                                0.00      0.00      0.00
                                0.00      0.00      0.00

     london  stress (kbar)      0.00      0.00      0.00
                                0.00      0.00      0.00
                                0.00      0.00      0.00

     XDM     stress (kbar)      0.00      0.00      0.00
                                0.00      0.00      0.00
                                0.00      0.00      0.00

     dft-nl  stress (kbar)      0.00      0.00      0.00
                                0.00      0.00      0.00
                                0.00      0.00      0.00



     Writing output data file Ge_diamond.scf.in.super.222.044.save

     init_run     :     33.13s CPU     28.71s WALL (       1 calls)
     electrons    :   1609.55s CPU   1370.36s WALL (       1 calls)
     forces       :     14.69s CPU     10.54s WALL (       1 calls)
     stress       :    112.80s CPU    111.69s WALL (       1 calls)

     Called by init_run:
     wfcinit      :     32.09s CPU     27.66s WALL (       1 calls)
     potinit      :      0.12s CPU      0.12s WALL (       1 calls)

     Called by electrons:
     c_bands      :   1438.01s CPU   1210.50s WALL (      13 calls)
     sum_band     :    160.17s CPU    148.41s WALL (      13 calls)
     v_of_rho     :      1.26s CPU      1.27s WALL (      13 calls)
     v_h          :      0.07s CPU      0.07s WALL (      13 calls)
     v_xc         :      1.36s CPU      1.37s WALL (      15 calls)
     newd         :      8.74s CPU      8.77s WALL (      13 calls)
     mix_rho      :      1.88s CPU      1.91s WALL (      13 calls)

     Called by c_bands:
     init_us_2    :      6.02s CPU      6.11s WALL (    1044 calls)
     cegterg      :   1411.94s CPU   1183.81s WALL (     468 calls)

     Called by sum_band:
     sum_band:bec :      1.86s CPU      1.91s WALL (     468 calls)
     addusdens    :      9.14s CPU      9.17s WALL (      13 calls)

     Called by *egterg:
     h_psi        :    619.37s CPU    559.62s WALL (    1704 calls)
     s_psi        :     79.80s CPU     47.45s WALL (    1704 calls)
     g_psi        :      2.72s CPU      2.71s WALL (    1200 calls)
     cdiaghg      :    449.04s CPU    382.71s WALL (    1632 calls)
     cegterg:over :    118.89s CPU     80.56s WALL (    1200 calls)
     cegterg:upda :     57.70s CPU     34.85s WALL (    1200 calls)
     cegterg:last :     32.13s CPU     17.90s WALL (     468 calls)

     Called by h_psi:
     h_psi:vloc   :    443.43s CPU    446.91s WALL (    1704 calls)
     h_psi:vnl    :    173.70s CPU    110.33s WALL (    1704 calls)
     add_vuspsi   :     81.13s CPU     48.50s WALL (    1704 calls)

     General routines
     calbec       :    206.91s CPU    161.35s WALL (    2244 calls)
     fft          :      2.48s CPU      2.53s WALL (     233 calls)
     ffts         :      1.00s CPU      1.05s WALL (     397 calls)
     fftw         :    479.02s CPU    482.54s WALL (  357048 calls)
     interpolate  :      0.24s CPU      0.25s WALL (      26 calls)

     Parallel routines
     fft_scatter  :    197.05s CPU    198.59s WALL (  357678 calls)

     PWSCF        : 29m34.18s CPU    25m27.56s WALL


   This run was terminated on:  11: 9: 9  14Feb2017            

=------------------------------------------------------------------------------=
   JOB DONE.
=------------------------------------------------------------------------------=
