
     Program PWSCF v.5.1 starts on  4Apr2018 at 18:47:12 

     This program is part of the open-source Quantum ESPRESSO suite
     for quantum simulation of materials; please cite
         "P. Giannozzi et al., J. Phys.:Condens. Matter 21 395502 (2009);
          URL http://www.quantum-espresso.org", 
     in publications or presentations arising from this work. More details at
     http://www.quantum-espresso.org/quote

     Parallel version (MPI), running on    16 processors
     R & G space division:  proc/nbgrp/npool/nimage =      16
     Waiting for input...
     Reading input from standard input
Warning: card &IONS ignored
Warning: card   ION_DYNAMICS='BFGS', ignored
Warning: card / ignored
Warning: card &CELL ignored
Warning: card  CELL_DYNAMICS = 'BFGS' ignored
Warning: card / ignored

     Current dimensions of program PWSCF are:
     Max number of different atomic species (ntypx) = 10
     Max number of k-points (npk) =  40000
     Max angular momentum in pseudopotentials (lmaxx) =  3
 kfg - two_fermi_energies  F

     Subspace diagonalization in iterative solution of the eigenvalue problem:
     a serial algorithm will be used


     Parallelization info
     --------------------
     sticks:   dense  smooth     PW     G-vecs:    dense   smooth      PW
     Min         192     135     37                 7189     4199     633
     Max         193     136     38                 7193     4218     636
     Sum        3083    2161    605               115051    67329   10157



     bravais-lattice index     =            0
     lattice parameter (alat)  =    14.944635326  a.u.
     unit-cell volume          =    2408.1659 (a.u.)^3
     number of atoms/cell      =           16
     number of atomic types    =            2
     number of electrons       =       204.00
     number of Kohn-Sham states=          122
     kinetic-energy cutoff     =      35.0000  Ry
     charge density cutoff     =     200.0000  Ry
     convergence threshold     =      1.0E-09
     mixing beta               =       0.3000
     number of iterations used =            8  local-TF  mixing
     Exchange-correlation      = SLA  PW   PSX  PSC ( 1  4 10  8 0)
     A smooth kinetic-energy cutoff is imposed at      34.5000 Ry
     height of the smooth step-function =             800.0000 Ry
     width of the smooth step-function  =               1.0000 Ry


     celldm(1)=  14.944635  celldm(2)=   0.000000  celldm(3)=   0.000000
     celldm(4)=   0.000000  celldm(5)=   0.000000  celldm(6)=   0.000000

     crystal axes: (cart. coord. in units of alat)
               a(1) = (  -0.012468854072   0.703620448994   0.710466601211 )  
               a(2) = (   0.703029465549  -0.006670037871   0.704667785010 )  
               a(3) = (   0.710749323492   0.705541490736  -0.014389895815 )  

     reciprocal axes: (cart. coord. in units 2 pi/alat)
               b(1) = ( -0.688958  0.708199  0.694060 )  
               b(2) = (  0.708795 -0.699641  0.705339 )  
               b(3) = (  0.693783  0.704466 -0.685502 )  


     PseudoPot. # 1 for Si read from file:
     /users/kfg/psuedo/gbrv_1.5/si.pbesol.UPF
     MD5 check sum: ef58ba74faed4df802eb8a9742fc00a8
     Pseudo is Ultrasoft + core correction, Zval =  4.0
     Generated by new atomic code, or converted to UPF format
     Using radial grid of  899 points,  6 beta functions with: 
                l(1) =   0
                l(2) =   0
                l(3) =   1
                l(4) =   1
                l(5) =   2
                l(6) =   2
     Q(r) pseudized with  8 coefficients,  rinner =    0.900   0.900   0.900
                                                       0.900   0.900

     PseudoPot. # 2 for Ge read from file:
     /users/kfg/psuedo/gbrv_1.5/ge.pbesol.UPF
     MD5 check sum: 7bed0412183f5e553a4d27ec7023354d
     Pseudo is Ultrasoft + core correction, Zval = 14.0
     Generated by new atomic code, or converted to UPF format
     Using radial grid of  873 points,  6 beta functions with: 
                l(1) =   0
                l(2) =   0
                l(3) =   1
                l(4) =   1
                l(5) =   2
                l(6) =   2
     Q(r) pseudized with  8 coefficients,  rinner =    1.400   1.400   1.400
                                                       1.400   1.400

     atomic species   valence    mass     pseudopotential
        Si             4.00    28.08550     Si( 1.00)
        Ge            14.00    72.59000     Ge( 1.00)

     No symmetry found


                                    s                        frac. trans.

      isym =  1     identity                                     

 cryst.   s( 1) = (     1          0          0      )
                  (     0          1          0      )
                  (     0          0          1      )

 cart.    s( 1) = (  1.0000000  0.0000000  0.0000000 )
                  (  0.0000000  1.0000000  0.0000000 )
                  ( -0.0000000 -0.0000000  1.0000000 )


     point group C_1 (1)    
     there are  1 classes
     the character table:

       E    
A      1.00

     the symmetry operations in each class:
     E        1

   Cartesian axes

     site n.     atom                  positions (alat units)
         1           Si  tau(   1) = (   -0.01244822906   -0.00818986926    0.00824181123  )
         2           Ge  tau(   2) = (    0.17324599140    0.18600130787    0.15224933428  )
         3           Ge  tau(   3) = (    0.35355229907    0.35028815536   -0.02387740655  )
         4           Ge  tau(   4) = (    0.52586319473    0.52148971059    0.18263840645  )
         5           Ge  tau(   5) = (    0.34930278493    0.00232283005    0.34386459197  )
         6           Ge  tau(   6) = (    0.52040109603    0.17086085128    0.54856985617  )
         7           Ge  tau(   7) = (    0.69820395412    0.34144676797    0.36842778232  )
         8           Ge  tau(   8) = (    0.89339365109    0.53201806414    0.50475725844  )
         9           Ge  tau(   9) = (    0.00823411588    0.33582830033    0.34962529730  )
        10           Ge  tau(  10) = (    0.16613697325    0.51984308308    0.54107295362  )
        11           Ge  tau(  11) = (    0.33241632327    0.70323049856    0.35257413699  )
        12           Si  tau(  12) = (    0.53378228502    0.87220242678    0.49816490909  )
        13           Ge  tau(  13) = (    0.34449444316    0.36334936201    0.72043654083  )
        14           Ge  tau(  14) = (    0.54084197055    0.52700993631    0.88431140364  )
        15           Ge  tau(  15) = (    0.70672253233    0.70935070921    0.69353941585  )
        16           Ge  tau(  16) = (    0.87240628905    0.88540737501    0.87912616040  )

   Crystallographic axes

     site n.     atom                  positions (cryst. coord.)
         1           Si  tau(   1) = (    0.00849655628    0.00271999573   -0.02005562779  )
         2           Ge  tau(   2) = (    0.11803686227    0.10004910215    0.14685952635  )
         3           Ge  tau(   3) = (   -0.01208125693   -0.01132154542    0.50842262909  )
         4           Ge  tau(   4) = (    0.13378284556    0.13669553612    0.60700771642  )
         5           Ge  tau(   5) = (   -0.00034737693    0.48849999178    0.00825687089  )
         6           Ge  tau(   6) = (    0.14320920431    0.63624406700    0.10536545284  )
         7           Ge  tau(   7) = (    0.01648997098    0.51585972839    0.47238170325  )
         8           Ge  tau(   8) = (    0.11159567502    0.61703617471    0.64859788664  )
         9           Ge  tau(   9) = (    0.47482111096    0.01748130111    0.00262359905  )
        10           Ge  tau(  10) = (    0.62922786249    0.13569321898    0.11056836754  )
        11           Ge  tau(  11) = (    0.51371377313   -0.00770971579    0.48433658863  )
        12           Si  tau(  12) = (    0.59569553001    0.11948859485    0.64327310286  )
        13           Ge  tau(  13) = (    0.52000738379    0.49811366324    0.00111116095  )
        14           Ge  tau(  14) = (    0.61437538321    0.63836745332    0.14029052821  )
        15           Ge  tau(  15) = (    0.49681709466    0.49381077774    0.51460301536  )
        16           Ge  tau(  16) = (    0.63615938120    0.61897165610    0.62635747971  )

     number of k points=    36  gaussian smearing, width (Ry)=  0.0150
                       cart. coord. in units 2pi/alat
        k(    1) = (   0.0000000   0.0000000   0.0000000), wk =   0.0312500
        k(    2) = (   0.1734457   0.1761165  -0.1713754), wk =   0.0625000
        k(    3) = (  -0.3468914  -0.3522330   0.3427508), wk =   0.0312500
        k(    4) = (   0.1771988  -0.1749103   0.1763347), wk =   0.0625000
        k(    5) = (   0.3506445   0.0012062   0.0049593), wk =   0.0625000
        k(    6) = (  -0.1696926  -0.5271433   0.5190855), wk =   0.0625000
        k(    7) = (   0.0037531  -0.3510268   0.3477101), wk =   0.0625000
        k(    8) = (  -0.3543975   0.3498206  -0.3526694), wk =   0.0312500
        k(    9) = (  -0.1809518   0.5259371  -0.5240448), wk =   0.0625000
        k(   10) = (  -0.7012889  -0.0024125  -0.0099186), wk =   0.0312500
        k(   11) = (  -0.1722395   0.1770498   0.1735149), wk =   0.0625000
        k(   12) = (   0.0012062   0.3531663   0.0021395), wk =   0.0625000
        k(   13) = (  -0.5191309  -0.1751833   0.5162657), wk =   0.0625000
        k(   14) = (  -0.3456852   0.0009332   0.3448903), wk =   0.0625000
        k(   15) = (   0.0049593   0.0021395   0.3498496), wk =   0.0625000
        k(   16) = (   0.1784050   0.1782560   0.1784742), wk =   0.0625000
        k(   17) = (  -0.3419321  -0.3500936   0.6926004), wk =   0.0625000
        k(   18) = (  -0.1684864  -0.1739770   0.5212250), wk =   0.0625000
        k(   19) = (  -0.5266370   0.5268703  -0.1791545), wk =   0.0625000
        k(   20) = (  -0.3531913   0.7029869  -0.3505299), wk =   0.0625000
        k(   21) = (  -0.8735284   0.1746373   0.1635963), wk =   0.0625000
        k(   22) = (  -0.7000827   0.3507538  -0.0077791), wk =   0.0625000
        k(   23) = (  -0.3494382   0.3519601  -0.0028198), wk =   0.0625000
        k(   24) = (  -0.1759925   0.5280766  -0.1741952), wk =   0.0625000
        k(   25) = (  -0.6963297  -0.0002730   0.3399310), wk =   0.0625000
        k(   26) = (  -0.5228839   0.1758435   0.1685556), wk =   0.0625000
        k(   27) = (   0.3444790  -0.3540995  -0.3470298), wk =   0.0312500
        k(   28) = (   0.5179247  -0.1779830  -0.5184052), wk =   0.0625000
        k(   29) = (  -0.0024125  -0.7063326  -0.0042790), wk =   0.0312500
        k(   30) = (   0.5216777  -0.5290098  -0.1706951), wk =   0.0625000
        k(   31) = (   0.6951234  -0.3528933  -0.3420705), wk =   0.0625000
        k(   32) = (   0.1747863  -0.8812428   0.1720558), wk =   0.0625000
        k(   33) = (   0.3482320  -0.7051263   0.0006803), wk =   0.0625000
        k(   34) = (  -0.0099186  -0.0042790  -0.6996992), wk =   0.0312500
        k(   35) = (   0.1635271   0.1718376  -0.8710746), wk =   0.0625000
        k(   36) = (  -0.3568100  -0.3565120  -0.3569484), wk =   0.0312500

                       cryst. coord.
        k(    1) = (   0.0000000   0.0000000   0.0000000), wk =   0.0312500
        k(    2) = (  -0.0000000   0.0000000   0.2500000), wk =   0.0625000
        k(    3) = (   0.0000000  -0.0000000  -0.5000000), wk =   0.0312500
        k(    4) = (   0.0000000   0.2500000  -0.0000000), wk =   0.0625000
        k(    5) = (  -0.0000000   0.2500000   0.2500000), wk =   0.0625000
        k(    6) = (   0.0000000   0.2500000  -0.5000000), wk =   0.0625000
        k(    7) = (   0.0000000   0.2500000  -0.2500000), wk =   0.0625000
        k(    8) = (   0.0000000  -0.5000000   0.0000000), wk =   0.0312500
        k(    9) = (  -0.0000000  -0.5000000   0.2500000), wk =   0.0625000
        k(   10) = (   0.0000000  -0.5000000  -0.5000000), wk =   0.0312500
        k(   11) = (   0.2500000   0.0000000  -0.0000000), wk =   0.0625000
        k(   12) = (   0.2500000   0.0000000   0.2500000), wk =   0.0625000
        k(   13) = (   0.2500000  -0.0000000  -0.5000000), wk =   0.0625000
        k(   14) = (   0.2500000   0.0000000  -0.2500000), wk =   0.0625000
        k(   15) = (   0.2500000   0.2500000  -0.0000000), wk =   0.0625000
        k(   16) = (   0.2500000   0.2500000   0.2500000), wk =   0.0625000
        k(   17) = (   0.2500000   0.2500000  -0.5000000), wk =   0.0625000
        k(   18) = (   0.2500000   0.2500000  -0.2500000), wk =   0.0625000
        k(   19) = (   0.2500000  -0.5000000   0.0000000), wk =   0.0625000
        k(   20) = (   0.2500000  -0.5000000   0.2500000), wk =   0.0625000
        k(   21) = (   0.2500000  -0.5000000  -0.5000000), wk =   0.0625000
        k(   22) = (   0.2500000  -0.5000000  -0.2500000), wk =   0.0625000
        k(   23) = (   0.2500000  -0.2500000   0.0000000), wk =   0.0625000
        k(   24) = (   0.2500000  -0.2500000   0.2500000), wk =   0.0625000
        k(   25) = (   0.2500000  -0.2500000  -0.5000000), wk =   0.0625000
        k(   26) = (   0.2500000  -0.2500000  -0.2500000), wk =   0.0625000
        k(   27) = (  -0.5000000   0.0000000   0.0000000), wk =   0.0312500
        k(   28) = (  -0.5000000   0.0000000   0.2500000), wk =   0.0625000
        k(   29) = (  -0.5000000  -0.0000000  -0.5000000), wk =   0.0312500
        k(   30) = (  -0.5000000   0.2500000   0.0000000), wk =   0.0625000
        k(   31) = (  -0.5000000   0.2500000   0.2500000), wk =   0.0625000
        k(   32) = (  -0.5000000   0.2500000  -0.5000000), wk =   0.0625000
        k(   33) = (  -0.5000000   0.2500000  -0.2500000), wk =   0.0625000
        k(   34) = (  -0.5000000  -0.5000000   0.0000000), wk =   0.0312500
        k(   35) = (  -0.5000000  -0.5000000   0.2500000), wk =   0.0625000
        k(   36) = (  -0.5000000  -0.5000000  -0.5000000), wk =   0.0312500

     Dense  grid:   115051 G-vectors     FFT dimensions: (  72,  72,  72)

     Smooth grid:    67329 G-vectors     FFT dimensions: (  60,  60,  60)

     Largest allocated arrays     est. size (Mb)     dimensions
        Kohn-Sham Wavefunctions         1.01 Mb     (     540,  122)
        NL pseudopotentials             2.37 Mb     (     540,  288)
        Each V/rho on FFT grid          0.40 Mb     (   25920)
        Each G-vector array             0.05 Mb     (    7191)
        G-vector shells                 0.05 Mb     (    7112)
     Largest temporary arrays     est. size (Mb)     dimensions
        Auxiliary wavefunctions         4.02 Mb     (     540,  488)
        Each subspace H/S matrix        3.63 Mb     (     488,  488)
        Each <psi_i|beta_j> matrix      0.54 Mb     (     288,  122)
        Arrays for rho mixing           3.16 Mb     (   25920,    8)

     Check: negative/imaginary core charge=   -0.000001    0.000000

     Initial potential from superposition of free atoms

     starting charge  203.98739, renormalised to  204.00000
     Starting wfc are  134 randomized atomic wfcs

     total cpu time spent up to now is       17.1 secs

     Self-consistent Calculation

     iteration #  1     ecut=    35.00 Ry     beta=0.30
     Davidson diagonalization with overlap
     ethr =  1.00E-02,  avg # of iterations =  3.6

     Threshold (ethr) on eigenvalues was too large:
     Diagonalizing with lowered threshold

     Davidson diagonalization with overlap
     ethr =  1.33E-04,  avg # of iterations =  5.1

     total cpu time spent up to now is      175.8 secs

     total energy              =   -3003.72625338 Ry
     Harris-Foulkes estimate   =   -3003.75588175 Ry
     estimated scf accuracy    <       0.28586629 Ry

     iteration #  2     ecut=    35.00 Ry     beta=0.30
     Davidson diagonalization with overlap
     ethr =  1.40E-04,  avg # of iterations =  1.0

     total cpu time spent up to now is      216.2 secs

     total energy              =   -3003.67119582 Ry
     Harris-Foulkes estimate   =   -3003.72732408 Ry
     estimated scf accuracy    <       0.17501978 Ry

     iteration #  3     ecut=    35.00 Ry     beta=0.30
     Davidson diagonalization with overlap
     ethr =  8.58E-05,  avg # of iterations =  2.0

     total cpu time spent up to now is      264.9 secs

     total energy              =   -3003.68123934 Ry
     Harris-Foulkes estimate   =   -3003.68146802 Ry
     estimated scf accuracy    <       0.00289384 Ry

     iteration #  4     ecut=    35.00 Ry     beta=0.30
     Davidson diagonalization with overlap
     ethr =  1.42E-06,  avg # of iterations =  6.4

     total cpu time spent up to now is      398.0 secs

     total energy              =   -3003.68165362 Ry
     Harris-Foulkes estimate   =   -3003.68170955 Ry
     estimated scf accuracy    <       0.00064874 Ry

     iteration #  5     ecut=    35.00 Ry     beta=0.30
     Davidson diagonalization with overlap
     ethr =  3.18E-07,  avg # of iterations =  2.0

     total cpu time spent up to now is      452.2 secs

     total energy              =   -3003.68168426 Ry
     Harris-Foulkes estimate   =   -3003.68170834 Ry
     estimated scf accuracy    <       0.00006904 Ry

     iteration #  6     ecut=    35.00 Ry     beta=0.30
     Davidson diagonalization with overlap
     ethr =  3.38E-08,  avg # of iterations =  2.0

     total cpu time spent up to now is      503.5 secs

     total energy              =   -3003.68168650 Ry
     Harris-Foulkes estimate   =   -3003.68168770 Ry
     estimated scf accuracy    <       0.00000707 Ry

     iteration #  7     ecut=    35.00 Ry     beta=0.30
     Davidson diagonalization with overlap
     ethr =  3.47E-09,  avg # of iterations =  2.0

     total cpu time spent up to now is      555.8 secs

     total energy              =   -3003.68168751 Ry
     Harris-Foulkes estimate   =   -3003.68168709 Ry
     estimated scf accuracy    <       0.00000201 Ry

     iteration #  8     ecut=    35.00 Ry     beta=0.30
     Davidson diagonalization with overlap
     ethr =  9.84E-10,  avg # of iterations =  2.0

     total cpu time spent up to now is      606.1 secs

     total energy              =   -3003.68168790 Ry
     Harris-Foulkes estimate   =   -3003.68168770 Ry
     estimated scf accuracy    <       0.00000038 Ry

     iteration #  9     ecut=    35.00 Ry     beta=0.30
     Davidson diagonalization with overlap
     ethr =  1.88E-10,  avg # of iterations =  2.0

     total cpu time spent up to now is      670.3 secs

     total energy              =   -3003.68168807 Ry
     Harris-Foulkes estimate   =   -3003.68168801 Ry
     estimated scf accuracy    <       0.00000017 Ry

     iteration # 10     ecut=    35.00 Ry     beta=0.30
     Davidson diagonalization with overlap
     ethr =  8.48E-11,  avg # of iterations =  2.0

     total cpu time spent up to now is      724.7 secs

     total energy              =   -3003.68168817 Ry
     Harris-Foulkes estimate   =   -3003.68168809 Ry
     estimated scf accuracy    <          5.1E-09 Ry

     iteration # 11     ecut=    35.00 Ry     beta=0.30
     Davidson diagonalization with overlap
     ethr =  2.48E-12,  avg # of iterations =  2.0

     total cpu time spent up to now is      778.9 secs

     total energy              =   -3003.68168821 Ry
     Harris-Foulkes estimate   =   -3003.68168817 Ry
     estimated scf accuracy    <          3.0E-09 Ry

     iteration # 12     ecut=    35.00 Ry     beta=0.30
     Davidson diagonalization with overlap
     ethr =  1.46E-12,  avg # of iterations =  2.0

     total cpu time spent up to now is      834.2 secs

     End of self-consistent calculation

          k = 0.0000 0.0000 0.0000 (  8413 PWs)   bands (ev):

   -16.8593 -16.8455 -16.8251 -16.7744 -16.7575 -16.7523 -16.7479 -16.7345
   -16.7169 -16.7149 -16.6957 -16.6914 -16.6873 -16.6862 -16.6826 -16.6713
   -16.6707 -16.6573 -16.6550 -16.6380 -16.6313 -16.6300 -16.6168 -16.6130
   -16.6053 -16.6008 -16.5935 -16.5932 -16.5885 -16.5778 -16.5722 -16.5693
   -16.5623 -16.5452 -16.5348 -16.5340 -16.5255 -16.5214 -16.5075 -16.5054
   -16.4994 -16.4939 -16.4907 -16.4821 -16.4756 -16.4694 -16.4674 -16.4570
   -16.4540 -16.4484 -16.4425 -16.4399 -16.4316 -16.4274 -16.4195 -16.4143
   -16.4113 -16.4050 -16.4023 -16.3988 -16.3863 -16.3854 -16.3783 -16.3734
   -16.3569 -16.3554 -16.3480 -16.3422 -16.3291 -16.3236  -4.6374  -2.7283
    -2.6422  -2.3958  -2.2604  -0.9696  -0.8621  -0.7339  -0.6922  -0.4790
    -0.3410   0.3179   0.5804   0.6319   0.8471   4.8516   4.9124   5.0503
     5.0691   5.1495   5.1841   6.3509   6.5043   6.6259   6.7057   6.7725
     6.8565   6.8605   7.0449   7.7108   8.0570   8.1552   8.1759   8.2895
     8.3440   8.3651   8.5198   8.5746   8.6005   8.7777   8.8480   9.0446
     9.0777  10.4234  10.6731  10.8075  11.4000  11.4953  11.6475  11.7351
    11.8120  11.8751

     occupation numbers 
     1.0000   1.0000   1.0000   1.0000   1.0000   1.0000   1.0000   1.0000
     1.0000   1.0000   1.0000   1.0000   1.0000   1.0000   1.0000   1.0000
     1.0000   1.0000   1.0000   1.0000   1.0000   1.0000   1.0000   1.0000
     1.0000   1.0000   1.0000   1.0000   1.0000   1.0000   1.0000   1.0000
     1.0000   1.0000   1.0000   1.0000   1.0000   1.0000   1.0000   1.0000
     1.0000   1.0000   1.0000   1.0000   1.0000   1.0000   1.0000   1.0000
     1.0000   1.0000   1.0000   1.0000   1.0000   1.0000   1.0000   1.0000
     1.0000   1.0000   1.0000   1.0000   1.0000   1.0000   1.0000   1.0000
     1.0000   1.0000   1.0000   1.0000   1.0000   1.0000   1.0000   1.0000
     1.0000   1.0000   1.0000   1.0000   1.0000   1.0000   1.0000   1.0000
     1.0000   1.0000   1.0000   1.0000   1.0000   1.0000   1.0000   1.0000
     1.0000   1.0000   1.0000   1.0000   1.0000   1.0000   1.0000   1.0000
     1.0000   1.0000   1.0000   0.9992   0.7739   0.5282   0.4712   0.1950
     0.1080   0.0833   0.0070   0.0023   0.0013   0.0000   0.0000   0.0000
     0.0000   0.0000   0.0000   0.0000   0.0000   0.0000   0.0000   0.0000
     0.0000   0.0000

          k = 0.1734 0.1761-0.1714 (  8407 PWs)   bands (ev):

   -16.8596 -16.8459 -16.8261 -16.7755 -16.7603 -16.7536 -16.7481 -16.7376
   -16.7196 -16.7173 -16.7059 -16.6949 -16.6901 -16.6834 -16.6757 -16.6721
   -16.6637 -16.6563 -16.6506 -16.6415 -16.6256 -16.6231 -16.6110 -16.6076
   -16.6017 -16.5996 -16.5929 -16.5884 -16.5790 -16.5753 -16.5690 -16.5645
   -16.5614 -16.5465 -16.5383 -16.5332 -16.5277 -16.5201 -16.5138 -16.5105
   -16.5008 -16.4976 -16.4915 -16.4859 -16.4759 -16.4744 -16.4705 -16.4638
   -16.4622 -16.4553 -16.4460 -16.4417 -16.4331 -16.4285 -16.4220 -16.4169
   -16.4138 -16.4022 -16.3989 -16.3951 -16.3861 -16.3828 -16.3777 -16.3714
   -16.3552 -16.3512 -16.3451 -16.3367 -16.3285 -16.3238  -4.4519  -3.1082
    -2.5842  -2.4300  -2.1953  -1.6793  -1.4655  -1.3092   0.0548   0.2299
     0.3561   0.6731   0.8110   1.0194   1.3656   4.3171   4.4382   4.4966
     5.1524   5.1929   5.2456   5.3156   5.4494   5.5299   5.6670   6.4003
     6.4742   6.5269   6.8918   7.0746   7.8234   8.0137   8.6722   8.7933
     8.8624   8.9754   9.2938   9.4272   9.5354   9.6859   9.7768   9.8547
    10.0067  10.9444  11.1751  11.3710  11.5040  11.6016  11.6998  11.8236
    12.0423  12.2839

     occupation numbers 
     1.0000   1.0000   1.0000   1.0000   1.0000   1.0000   1.0000   1.0000
     1.0000   1.0000   1.0000   1.0000   1.0000   1.0000   1.0000   1.0000
     1.0000   1.0000   1.0000   1.0000   1.0000   1.0000   1.0000   1.0000
     1.0000   1.0000   1.0000   1.0000   1.0000   1.0000   1.0000   1.0000
     1.0000   1.0000   1.0000   1.0000   1.0000   1.0000   1.0000   1.0000
     1.0000   1.0000   1.0000   1.0000   1.0000   1.0000   1.0000   1.0000
     1.0000   1.0000   1.0000   1.0000   1.0000   1.0000   1.0000   1.0000
     1.0000   1.0000   1.0000   1.0000   1.0000   1.0000   1.0000   1.0000
     1.0000   1.0000   1.0000   1.0000   1.0000   1.0000   1.0000   1.0000
     1.0000   1.0000   1.0000   1.0000   1.0000   1.0000   1.0000   1.0000
     1.0000   1.0000   1.0000   1.0000   1.0000   1.0000   1.0000   1.0000
     1.0000   1.0000   1.0000   1.0000   1.0000   1.0000   1.0000   1.0000
     1.0000   1.0000   1.0000   1.0000   0.9911   0.8535   0.0002   0.0000
     0.0000   0.0000   0.0000   0.0000   0.0000   0.0000   0.0000   0.0000
     0.0000   0.0000   0.0000   0.0000   0.0000   0.0000   0.0000   0.0000
     0.0000   0.0000

          k =-0.3469-0.3522 0.3428 (  8390 PWs)   bands (ev):

   -16.8597 -16.8464 -16.8268 -16.7765 -16.7629 -16.7546 -16.7481 -16.7396
   -16.7220 -16.7195 -16.7113 -16.6953 -16.6923 -16.6852 -16.6751 -16.6669
   -16.6579 -16.6555 -16.6469 -16.6434 -16.6212 -16.6208 -16.6051 -16.6030
   -16.5972 -16.5932 -16.5900 -16.5810 -16.5793 -16.5725 -16.5646 -16.5533
   -16.5480 -16.5464 -16.5444 -16.5342 -16.5300 -16.5275 -16.5218 -16.5124
   -16.5087 -16.5021 -16.4916 -16.4909 -16.4817 -16.4763 -16.4733 -16.4694
   -16.4683 -16.4579 -16.4482 -16.4449 -16.4340 -16.4294 -16.4267 -16.4171
   -16.4143 -16.3989 -16.3962 -16.3941 -16.3838 -16.3811 -16.3776 -16.3693
   -16.3549 -16.3466 -16.3416 -16.3338 -16.3266 -16.3240  -3.9952  -3.8070
    -2.3693  -2.2265  -2.2134  -2.0381  -1.8560  -1.7187   0.5017   0.6496
     0.7972   0.8358   1.1118   1.3331   3.1871   3.3103   4.1056   4.2230
     4.2352   4.2578   4.3276   4.3593   5.5961   5.7166   5.8181   5.8522
     5.8901   6.0330   7.2192   7.2949   7.3382   7.5919   8.9361   9.1235
     9.1828   9.2126   9.3628   9.5687   9.8282  10.0472  11.4732  11.5642
    11.7414  11.8162  11.8747  11.9972  12.1211  12.2461  12.3364  12.4069
    12.9031  13.0149

     occupation numbers 
     1.0000   1.0000   1.0000   1.0000   1.0000   1.0000   1.0000   1.0000
     1.0000   1.0000   1.0000   1.0000   1.0000   1.0000   1.0000   1.0000
     1.0000   1.0000   1.0000   1.0000   1.0000   1.0000   1.0000   1.0000
     1.0000   1.0000   1.0000   1.0000   1.0000   1.0000   1.0000   1.0000
     1.0000   1.0000   1.0000   1.0000   1.0000   1.0000   1.0000   1.0000
     1.0000   1.0000   1.0000   1.0000   1.0000   1.0000   1.0000   1.0000
     1.0000   1.0000   1.0000   1.0000   1.0000   1.0000   1.0000   1.0000
     1.0000   1.0000   1.0000   1.0000   1.0000   1.0000   1.0000   1.0000
     1.0000   1.0000   1.0000   1.0000   1.0000   1.0000   1.0000   1.0000
     1.0000   1.0000   1.0000   1.0000   1.0000   1.0000   1.0000   1.0000
     1.0000   1.0000   1.0000   1.0000   1.0000   1.0000   1.0000   1.0000
     1.0000   1.0000   1.0000   1.0000   1.0000   1.0000   1.0000   1.0000
     1.0000   1.0000   1.0000   1.0000   1.0000   1.0000   0.0000   0.0000
     0.0000   0.0000   0.0000   0.0000   0.0000   0.0000   0.0000   0.0000
     0.0000   0.0000   0.0000   0.0000   0.0000   0.0000   0.0000   0.0000
     0.0000   0.0000

          k = 0.1772-0.1749 0.1763 (  8393 PWs)   bands (ev):

   -16.8603 -16.8478 -16.8280 -16.7746 -16.7623 -16.7542 -16.7434 -16.7344
   -16.7159 -16.7108 -16.7000 -16.6939 -16.6881 -16.6829 -16.6754 -16.6707
   -16.6664 -16.6560 -16.6516 -16.6362 -16.6327 -16.6284 -16.6150 -16.6125
   -16.6062 -16.6035 -16.5945 -16.5897 -16.5858 -16.5764 -16.5712 -16.5618
   -16.5586 -16.5454 -16.5386 -16.5349 -16.5294 -16.5218 -16.5136 -16.5067
   -16.5007 -16.4971 -16.4923 -16.4807 -16.4749 -16.4715 -16.4676 -16.4591
   -16.4541 -16.4496 -16.4453 -16.4403 -16.4345 -16.4299 -16.4188 -16.4134
   -16.4108 -16.4067 -16.4022 -16.3975 -16.3884 -16.3834 -16.3808 -16.3687
   -16.3581 -16.3537 -16.3472 -16.3413 -16.3251 -16.3202  -4.4455  -3.0777
    -2.6115  -2.4463  -2.1921  -1.6623  -1.5531  -1.2777   0.0913   0.1993
     0.4610   0.5320   0.7844   0.9893   1.5162   4.4084   4.4969   4.5921
     5.0431   5.1956   5.2932   5.3667   5.4884   5.5890   5.8126   6.2592
     6.4007   6.5288   6.6709   7.0645   7.5651   7.9968   8.3880   8.6706
     8.8175   8.9867   9.2631   9.3470   9.5309   9.7316   9.8793   9.9943
    10.1559  10.8964  11.1439  11.4348  11.4893  11.5859  11.6815  11.7757
    12.0560  12.3150

     occupation numbers 
     1.0000   1.0000   1.0000   1.0000   1.0000   1.0000   1.0000   1.0000
     1.0000   1.0000   1.0000   1.0000   1.0000   1.0000   1.0000   1.0000
     1.0000   1.0000   1.0000   1.0000   1.0000   1.0000   1.0000   1.0000
     1.0000   1.0000   1.0000   1.0000   1.0000   1.0000   1.0000   1.0000
     1.0000   1.0000   1.0000   1.0000   1.0000   1.0000   1.0000   1.0000
     1.0000   1.0000   1.0000   1.0000   1.0000   1.0000   1.0000   1.0000
     1.0000   1.0000   1.0000   1.0000   1.0000   1.0000   1.0000   1.0000
     1.0000   1.0000   1.0000   1.0000   1.0000   1.0000   1.0000   1.0000
     1.0000   1.0000   1.0000   1.0000   1.0000   1.0000   1.0000   1.0000
     1.0000   1.0000   1.0000   1.0000   1.0000   1.0000   1.0000   1.0000
     1.0000   1.0000   1.0000   1.0000   1.0000   1.0000   1.0000   1.0000
     1.0000   1.0000   1.0000   1.0000   1.0000   1.0000   1.0000   1.0000
     1.0000   1.0000   1.0000   1.0000   1.0000   0.8787   0.0615   0.0002
     0.0000   0.0000   0.0000   0.0000   0.0000   0.0000   0.0000   0.0000
     0.0000   0.0000   0.0000   0.0000   0.0000   0.0000   0.0000   0.0000
     0.0000   0.0000

          k = 0.3506 0.0012 0.0050 (  8409 PWs)   bands (ev):

   -16.8605 -16.8474 -16.8274 -16.7742 -16.7622 -16.7527 -16.7433 -16.7337
   -16.7183 -16.7124 -16.7029 -16.6947 -16.6915 -16.6842 -16.6795 -16.6703
   -16.6691 -16.6579 -16.6536 -16.6400 -16.6278 -16.6231 -16.6152 -16.6098
   -16.6049 -16.6009 -16.5921 -16.5879 -16.5780 -16.5746 -16.5686 -16.5618
   -16.5576 -16.5449 -16.5382 -16.5341 -16.5272 -16.5203 -16.5132 -16.5080
   -16.5020 -16.4964 -16.4919 -16.4836 -16.4757 -16.4732 -16.4696 -16.4639
   -16.4570 -16.4530 -16.4482 -16.4388 -16.4361 -16.4289 -16.4243 -16.4188
   -16.4129 -16.4039 -16.3984 -16.3969 -16.3892 -16.3844 -16.3808 -16.3674
   -16.3553 -16.3525 -16.3469 -16.3391 -16.3244 -16.3199  -4.3865  -2.8126
    -2.7826  -2.5634  -2.4050  -2.2616  -0.8312  -0.7257  -0.5079  -0.4099
     0.8031   0.9555   1.0528   1.2515   1.5034   4.4157   4.5070   4.5487
     4.6011   5.1139   5.1891   5.3031   5.3764   5.4147   5.4891   5.8847
     6.4887   6.5731   6.7364   6.9663   7.0905   7.4590   8.5543   9.2648
     9.3062   9.4420   9.5672   9.6991   9.7427   9.9238  10.0109  10.0943
    10.2261  10.5029  11.4035  11.6966  11.7774  11.8165  11.9238  11.9747
    12.0903  12.2280

     occupation numbers 
     1.0000   1.0000   1.0000   1.0000   1.0000   1.0000   1.0000   1.0000
     1.0000   1.0000   1.0000   1.0000   1.0000   1.0000   1.0000   1.0000
     1.0000   1.0000   1.0000   1.0000   1.0000   1.0000   1.0000   1.0000
     1.0000   1.0000   1.0000   1.0000   1.0000   1.0000   1.0000   1.0000
     1.0000   1.0000   1.0000   1.0000   1.0000   1.0000   1.0000   1.0000
     1.0000   1.0000   1.0000   1.0000   1.0000   1.0000   1.0000   1.0000
     1.0000   1.0000   1.0000   1.0000   1.0000   1.0000   1.0000   1.0000
     1.0000   1.0000   1.0000   1.0000   1.0000   1.0000   1.0000   1.0000
     1.0000   1.0000   1.0000   1.0000   1.0000   1.0000   1.0000   1.0000
     1.0000   1.0000   1.0000   1.0000   1.0000   1.0000   1.0000   1.0000
     1.0000   1.0000   1.0000   1.0000   1.0000   1.0000   1.0000   1.0000
     1.0000   1.0000   1.0000   1.0000   1.0000   1.0000   1.0000   1.0000
     1.0000   1.0000   1.0000   1.0000   1.0000   1.0000   0.0035   0.0000
     0.0000   0.0000   0.0000   0.0000   0.0000   0.0000   0.0000   0.0000
     0.0000   0.0000   0.0000   0.0000   0.0000   0.0000   0.0000   0.0000
     0.0000   0.0000

          k =-0.1697-0.5271 0.5191 (  8421 PWs)   bands (ev):

   -16.8606 -16.8477 -16.8282 -16.7750 -16.7632 -16.7556 -16.7458 -16.7345
   -16.7210 -16.7157 -16.7081 -16.6958 -16.6922 -16.6848 -16.6752 -16.6725
   -16.6615 -16.6574 -16.6486 -16.6416 -16.6247 -16.6183 -16.6118 -16.6057
   -16.5984 -16.5942 -16.5917 -16.5811 -16.5776 -16.5687 -16.5624 -16.5553
   -16.5482 -16.5459 -16.5420 -16.5336 -16.5295 -16.5277 -16.5169 -16.5122
   -16.5064 -16.5004 -16.4952 -16.4906 -16.4828 -16.4755 -16.4699 -16.4690
   -16.4668 -16.4565 -16.4486 -16.4426 -16.4360 -16.4308 -16.4257 -16.4189
   -16.4119 -16.4068 -16.3970 -16.3948 -16.3869 -16.3820 -16.3782 -16.3663
   -16.3544 -16.3475 -16.3444 -16.3357 -16.3224 -16.3202  -3.9772  -3.4694
    -2.9631  -2.6653  -2.4071  -1.9045  -1.5214  -1.1557   0.0519   0.2285
     0.6583   1.3714   1.5982   2.2207   2.5208   3.7159   3.8395   3.8745
     4.0161   4.4960   4.5424   5.0102   5.0517   5.1824   5.6053   5.7876
     5.9129   6.0217   6.2487   6.6391   6.8697   7.4390   9.2868   9.6470
     9.9156  10.0734  10.2939  10.3485  10.5329  10.6509  10.7717  10.8440
    11.3913  11.4249  11.6894  11.9167  12.1020  12.2860  12.4317  12.5866
    12.7224  12.8136

     occupation numbers 
     1.0000   1.0000   1.0000   1.0000   1.0000   1.0000   1.0000   1.0000
     1.0000   1.0000   1.0000   1.0000   1.0000   1.0000   1.0000   1.0000
     1.0000   1.0000   1.0000   1.0000   1.0000   1.0000   1.0000   1.0000
     1.0000   1.0000   1.0000   1.0000   1.0000   1.0000   1.0000   1.0000
     1.0000   1.0000   1.0000   1.0000   1.0000   1.0000   1.0000   1.0000
     1.0000   1.0000   1.0000   1.0000   1.0000   1.0000   1.0000   1.0000
     1.0000   1.0000   1.0000   1.0000   1.0000   1.0000   1.0000   1.0000
     1.0000   1.0000   1.0000   1.0000   1.0000   1.0000   1.0000   1.0000
     1.0000   1.0000   1.0000   1.0000   1.0000   1.0000   1.0000   1.0000
     1.0000   1.0000   1.0000   1.0000   1.0000   1.0000   1.0000   1.0000
     1.0000   1.0000   1.0000   1.0000   1.0000   1.0000   1.0000   1.0000
     1.0000   1.0000   1.0000   1.0000   1.0000   1.0000   1.0000   1.0000
     1.0000   1.0000   1.0000   1.0000   1.0000   1.0000   0.0000   0.0000
     0.0000   0.0000   0.0000   0.0000   0.0000   0.0000   0.0000   0.0000
     0.0000   0.0000   0.0000   0.0000   0.0000   0.0000   0.0000   0.0000
     0.0000   0.0000

          k = 0.0038-0.3510 0.3477 (  8420 PWs)   bands (ev):

   -16.8606 -16.8482 -16.8289 -16.7756 -16.7636 -16.7569 -16.7453 -16.7349
   -16.7191 -16.7138 -16.7077 -16.6950 -16.6895 -16.6843 -16.6728 -16.6686
   -16.6599 -16.6543 -16.6480 -16.6386 -16.6274 -16.6229 -16.6111 -16.6090
   -16.6023 -16.5982 -16.5912 -16.5814 -16.5788 -16.5740 -16.5662 -16.5623
   -16.5530 -16.5490 -16.5399 -16.5373 -16.5333 -16.5220 -16.5173 -16.5150
   -16.5013 -16.4977 -16.4918 -16.4841 -16.4822 -16.4744 -16.4702 -16.4666
   -16.4626 -16.4551 -16.4494 -16.4442 -16.4342 -16.4297 -16.4194 -16.4148
   -16.4121 -16.4050 -16.4013 -16.3975 -16.3868 -16.3818 -16.3774 -16.3672
   -16.3539 -16.3516 -16.3447 -16.3369 -16.3235 -16.3207  -4.1391  -3.3153
    -3.0554  -2.3113  -2.2059  -2.0465  -1.7731  -1.0218  -0.2465   0.5005
     0.7519   1.0759   1.3428   1.8668   2.1513   3.6449   4.1776   4.3027
     4.4021   4.5605   4.6149   5.1051   5.1510   5.5976   5.7377   5.8395
     5.9305   6.0160   6.3546   6.4660   6.6756   7.9779   9.2046   9.4319
     9.7832   9.9266  10.0298  10.0854  10.1839  10.5154  10.5930  10.6926
    11.1472  11.3149  11.3822  11.4453  11.5059  11.6604  11.9017  12.5850
    12.7615  12.9764

     occupation numbers 
     1.0000   1.0000   1.0000   1.0000   1.0000   1.0000   1.0000   1.0000
     1.0000   1.0000   1.0000   1.0000   1.0000   1.0000   1.0000   1.0000
     1.0000   1.0000   1.0000   1.0000   1.0000   1.0000   1.0000   1.0000
     1.0000   1.0000   1.0000   1.0000   1.0000   1.0000   1.0000   1.0000
     1.0000   1.0000   1.0000   1.0000   1.0000   1.0000   1.0000   1.0000
     1.0000   1.0000   1.0000   1.0000   1.0000   1.0000   1.0000   1.0000
     1.0000   1.0000   1.0000   1.0000   1.0000   1.0000   1.0000   1.0000
     1.0000   1.0000   1.0000   1.0000   1.0000   1.0000   1.0000   1.0000
     1.0000   1.0000   1.0000   1.0000   1.0000   1.0000   1.0000   1.0000
     1.0000   1.0000   1.0000   1.0000   1.0000   1.0000   1.0000   1.0000
     1.0000   1.0000   1.0000   1.0000   1.0000   1.0000   1.0000   1.0000
     1.0000   1.0000   1.0000   1.0000   1.0000   1.0000   1.0000   1.0000
     1.0000   1.0000   1.0000   1.0000   1.0000   0.9031   0.0000   0.0000
     0.0000   0.0000   0.0000   0.0000   0.0000   0.0000   0.0000   0.0000
     0.0000   0.0000   0.0000   0.0000   0.0000   0.0000   0.0000   0.0000
     0.0000   0.0000

          k =-0.3544 0.3498-0.3527 (  8422 PWs)   bands (ev):

   -16.8616 -16.8500 -16.8305 -16.7749 -16.7647 -16.7564 -16.7443 -16.7323
   -16.7157 -16.7051 -16.7020 -16.6940 -16.6865 -16.6842 -16.6724 -16.6688
   -16.6610 -16.6567 -16.6477 -16.6374 -16.6296 -16.6225 -16.6163 -16.6129
   -16.6100 -16.6062 -16.5945 -16.5840 -16.5802 -16.5741 -16.5716 -16.5666
   -16.5497 -16.5448 -16.5400 -16.5378 -16.5319 -16.5221 -16.5171 -16.5085
   -16.5059 -16.4980 -16.4907 -16.4847 -16.4774 -16.4719 -16.4680 -16.4598
   -16.4561 -16.4517 -16.4459 -16.4426 -16.4374 -16.4303 -16.4164 -16.4152
   -16.4087 -16.4077 -16.4021 -16.3979 -16.3901 -16.3845 -16.3798 -16.3640
   -16.3597 -16.3519 -16.3472 -16.3406 -16.3210 -16.3177  -3.9317  -3.8411
    -2.3859  -2.2656  -2.1741  -2.0279  -1.9801  -1.6833   0.5361   0.6827
     0.7854   0.9122   1.0197   1.2108   3.3563   3.5306   4.1808   4.2344
     4.3325   4.4069   4.4417   4.4633   5.4588   5.6366   5.6644   5.7993
     5.8436   5.9695   6.9220   7.1076   7.3811   7.5091   8.6894   8.8232
     9.1297   9.3276   9.3765   9.4998   9.5855   9.7388  11.3459  11.5213
    11.6535  11.9443  12.0513  12.1759  12.2765  12.3922  12.5103  12.7206
    13.1439  13.2083

     occupation numbers 
     1.0000   1.0000   1.0000   1.0000   1.0000   1.0000   1.0000   1.0000
     1.0000   1.0000   1.0000   1.0000   1.0000   1.0000   1.0000   1.0000
     1.0000   1.0000   1.0000   1.0000   1.0000   1.0000   1.0000   1.0000
     1.0000   1.0000   1.0000   1.0000   1.0000   1.0000   1.0000   1.0000
     1.0000   1.0000   1.0000   1.0000   1.0000   1.0000   1.0000   1.0000
     1.0000   1.0000   1.0000   1.0000   1.0000   1.0000   1.0000   1.0000
     1.0000   1.0000   1.0000   1.0000   1.0000   1.0000   1.0000   1.0000
     1.0000   1.0000   1.0000   1.0000   1.0000   1.0000   1.0000   1.0000
     1.0000   1.0000   1.0000   1.0000   1.0000   1.0000   1.0000   1.0000
     1.0000   1.0000   1.0000   1.0000   1.0000   1.0000   1.0000   1.0000
     1.0000   1.0000   1.0000   1.0000   1.0000   1.0000   1.0000   1.0000
     1.0000   1.0000   1.0000   1.0000   1.0000   1.0000   1.0000   1.0000
     1.0000   1.0000   1.0000   1.0000   1.0000   1.0000   0.0001   0.0000
     0.0000   0.0000   0.0000   0.0000   0.0000   0.0000   0.0000   0.0000
     0.0000   0.0000   0.0000   0.0000   0.0000   0.0000   0.0000   0.0000
     0.0000   0.0000

          k =-0.1810 0.5259-0.5240 (  8419 PWs)   bands (ev):

   -16.8615 -16.8496 -16.8299 -16.7743 -16.7646 -16.7544 -16.7443 -16.7324
   -16.7178 -16.7090 -16.7020 -16.6958 -16.6894 -16.6837 -16.6768 -16.6715
   -16.6618 -16.6579 -16.6476 -16.6426 -16.6260 -16.6202 -16.6149 -16.6135
   -16.6038 -16.5993 -16.5944 -16.5830 -16.5753 -16.5732 -16.5668 -16.5638
   -16.5494 -16.5448 -16.5409 -16.5363 -16.5284 -16.5238 -16.5172 -16.5101
   -16.5021 -16.5004 -16.4901 -16.4875 -16.4775 -16.4720 -16.4710 -16.4649
   -16.4588 -16.4547 -16.4488 -16.4431 -16.4361 -16.4327 -16.4210 -16.4169
   -16.4146 -16.4047 -16.4008 -16.3970 -16.3888 -16.3851 -16.3792 -16.3637
   -16.3545 -16.3522 -16.3461 -16.3389 -16.3204 -16.3173  -3.9532  -3.4858
    -2.9523  -2.6686  -2.4238  -1.9300  -1.5211  -1.1666   0.0803   0.2695
     0.5535   1.4027   1.6030   2.1396   2.6300   3.7903   3.9178   3.9824
     4.0926   4.5567   4.5952   4.9666   5.0176   5.1761   5.4321   5.8065
     5.8461   5.9914   6.2283   6.4663   6.8820   7.4219   9.3176   9.6603
     9.8470   9.9172  10.0866  10.2462  10.3532  10.4972  10.6794  10.7518
    11.2502  11.3625  11.6956  11.9714  12.2947  12.5133  12.5765  12.7821
    12.9444  13.0658

     occupation numbers 
     1.0000   1.0000   1.0000   1.0000   1.0000   1.0000   1.0000   1.0000
     1.0000   1.0000   1.0000   1.0000   1.0000   1.0000   1.0000   1.0000
     1.0000   1.0000   1.0000   1.0000   1.0000   1.0000   1.0000   1.0000
     1.0000   1.0000   1.0000   1.0000   1.0000   1.0000   1.0000   1.0000
     1.0000   1.0000   1.0000   1.0000   1.0000   1.0000   1.0000   1.0000
     1.0000   1.0000   1.0000   1.0000   1.0000   1.0000   1.0000   1.0000
     1.0000   1.0000   1.0000   1.0000   1.0000   1.0000   1.0000   1.0000
     1.0000   1.0000   1.0000   1.0000   1.0000   1.0000   1.0000   1.0000
     1.0000   1.0000   1.0000   1.0000   1.0000   1.0000   1.0000   1.0000
     1.0000   1.0000   1.0000   1.0000   1.0000   1.0000   1.0000   1.0000
     1.0000   1.0000   1.0000   1.0000   1.0000   1.0000   1.0000   1.0000
     1.0000   1.0000   1.0000   1.0000   1.0000   1.0000   1.0000   1.0000
     1.0000   1.0000   1.0000   1.0000   1.0000   1.0000   0.0000   0.0000
     0.0000   0.0000   0.0000   0.0000   0.0000   0.0000   0.0000   0.0000
     0.0000   0.0000   0.0000   0.0000   0.0000   0.0000   0.0000   0.0000
     0.0000   0.0000

          k =-0.7013-0.0024-0.0099 (  8400 PWs)   bands (ev):

   -16.8615 -16.8493 -16.8293 -16.7738 -16.7644 -16.7528 -16.7436 -16.7333
   -16.7189 -16.7121 -16.7037 -16.6945 -16.6926 -16.6873 -16.6798 -16.6684
   -16.6664 -16.6591 -16.6498 -16.6441 -16.6224 -16.6196 -16.6150 -16.6108
   -16.6032 -16.5965 -16.5889 -16.5829 -16.5750 -16.5648 -16.5614 -16.5536
   -16.5503 -16.5468 -16.5439 -16.5324 -16.5278 -16.5243 -16.5136 -16.5097
   -16.5060 -16.5001 -16.4949 -16.4896 -16.4842 -16.4746 -16.4693 -16.4666
   -16.4627 -16.4564 -16.4545 -16.4389 -16.4370 -16.4324 -16.4241 -16.4210
   -16.4138 -16.4072 -16.4006 -16.3946 -16.3880 -16.3843 -16.3799 -16.3636
   -16.3549 -16.3483 -16.3451 -16.3372 -16.3193 -16.3172  -3.7566  -3.5144
    -2.8717  -2.8317  -2.6143  -2.4862  -0.7784  -0.6782  -0.4449  -0.3389
     1.4838   1.5773   1.7045   1.9861   3.4201   3.6408   3.9611   4.0953
     4.1311   4.1619   4.2170   4.2925   4.3114   4.3479   5.8845   5.9969
     6.0368   6.3316   6.5038   6.5197   6.7687   6.9310   8.9666   9.0649
     9.8364   9.8851  10.1100  10.2574  10.6805  10.8119  11.9055  12.0257
    12.2325  12.4131  12.4901  12.5773  12.6439  12.7518  12.7838  12.8307
    12.8708  12.9284

     occupation numbers 
     1.0000   1.0000   1.0000   1.0000   1.0000   1.0000   1.0000   1.0000
     1.0000   1.0000   1.0000   1.0000   1.0000   1.0000   1.0000   1.0000
     1.0000   1.0000   1.0000   1.0000   1.0000   1.0000   1.0000   1.0000
     1.0000   1.0000   1.0000   1.0000   1.0000   1.0000   1.0000   1.0000
     1.0000   1.0000   1.0000   1.0000   1.0000   1.0000   1.0000   1.0000
     1.0000   1.0000   1.0000   1.0000   1.0000   1.0000   1.0000   1.0000
     1.0000   1.0000   1.0000   1.0000   1.0000   1.0000   1.0000   1.0000
     1.0000   1.0000   1.0000   1.0000   1.0000   1.0000   1.0000   1.0000
     1.0000   1.0000   1.0000   1.0000   1.0000   1.0000   1.0000   1.0000
     1.0000   1.0000   1.0000   1.0000   1.0000   1.0000   1.0000   1.0000
     1.0000   1.0000   1.0000   1.0000   1.0000   1.0000   1.0000   1.0000
     1.0000   1.0000   1.0000   1.0000   1.0000   1.0000   1.0000   1.0000
     1.0000   1.0000   1.0000   1.0000   1.0000   1.0000   0.0000   0.0000
     0.0000   0.0000   0.0000   0.0000   0.0000   0.0000   0.0000   0.0000
     0.0000   0.0000   0.0000   0.0000   0.0000   0.0000   0.0000   0.0000
     0.0000   0.0000

          k =-0.1722 0.1770 0.1735 (  8410 PWs)   bands (ev):

   -16.8603 -16.8455 -16.8253 -16.7748 -16.7582 -16.7537 -16.7479 -16.7350
   -16.7186 -16.7154 -16.6976 -16.6930 -16.6909 -16.6847 -16.6826 -16.6738
   -16.6685 -16.6583 -16.6543 -16.6388 -16.6323 -16.6239 -16.6149 -16.6109
   -16.6051 -16.5990 -16.5926 -16.5879 -16.5792 -16.5743 -16.5661 -16.5651
   -16.5584 -16.5485 -16.5387 -16.5315 -16.5277 -16.5205 -16.5111 -16.5074
   -16.5015 -16.4956 -16.4876 -16.4804 -16.4789 -16.4750 -16.4678 -16.4646
   -16.4592 -16.4536 -16.4445 -16.4382 -16.4347 -16.4267 -16.4233 -16.4154
   -16.4135 -16.4077 -16.4029 -16.3931 -16.3895 -16.3839 -16.3759 -16.3676
   -16.3568 -16.3526 -16.3458 -16.3391 -16.3287 -16.3234  -4.4558  -3.1596
    -2.5537  -2.3279  -2.2334  -1.5908  -1.4315  -1.3916   0.1028   0.2223
     0.2795   0.5060   0.7122   0.8425   1.6535   4.4253   4.5552   4.6383
     5.0628   5.2133   5.2675   5.4436   5.5611   5.6673   5.9361   6.2211
     6.3431   6.4833   6.7557   6.9759   7.5597   7.9146   8.4448   8.6820
     8.8713   8.9919   9.1848   9.3533   9.4216   9.6746   9.8462   9.9932
    10.1272  10.9945  11.1212  11.3142  11.3676  11.5439  11.6696  11.7772
    11.8966  12.5559

     occupation numbers 
     1.0000   1.0000   1.0000   1.0000   1.0000   1.0000   1.0000   1.0000
     1.0000   1.0000   1.0000   1.0000   1.0000   1.0000   1.0000   1.0000
     1.0000   1.0000   1.0000   1.0000   1.0000   1.0000   1.0000   1.0000
     1.0000   1.0000   1.0000   1.0000   1.0000   1.0000   1.0000   1.0000
     1.0000   1.0000   1.0000   1.0000   1.0000   1.0000   1.0000   1.0000
     1.0000   1.0000   1.0000   1.0000   1.0000   1.0000   1.0000   1.0000
     1.0000   1.0000   1.0000   1.0000   1.0000   1.0000   1.0000   1.0000
     1.0000   1.0000   1.0000   1.0000   1.0000   1.0000   1.0000   1.0000
     1.0000   1.0000   1.0000   1.0000   1.0000   1.0000   1.0000   1.0000
     1.0000   1.0000   1.0000   1.0000   1.0000   1.0000   1.0000   1.0000
     1.0000   1.0000   1.0000   1.0000   1.0000   1.0000   1.0000   1.0000
     1.0000   1.0000   1.0000   1.0000   1.0000   1.0000   1.0000   1.0000
     1.0000   1.0000   1.0000   1.0000   1.0000   0.9589   0.0265   0.0002
     0.0000   0.0000   0.0000   0.0000   0.0000   0.0000   0.0000   0.0000
     0.0000   0.0000   0.0000   0.0000   0.0000   0.0000   0.0000   0.0000
     0.0000   0.0000

          k = 0.0012 0.3532 0.0021 (  8409 PWs)   bands (ev):

   -16.8602 -16.8459 -16.8260 -16.7758 -16.7605 -16.7536 -16.7480 -16.7368
   -16.7191 -16.7168 -16.7060 -16.6957 -16.6890 -16.6818 -16.6763 -16.6735
   -16.6641 -16.6542 -16.6502 -16.6379 -16.6307 -16.6244 -16.6139 -16.6077
   -16.6042 -16.5966 -16.5922 -16.5861 -16.5799 -16.5716 -16.5672 -16.5636
   -16.5575 -16.5447 -16.5428 -16.5341 -16.5299 -16.5205 -16.5107 -16.5076
   -16.4993 -16.4965 -16.4917 -16.4854 -16.4793 -16.4741 -16.4718 -16.4627
   -16.4602 -16.4554 -16.4491 -16.4430 -16.4384 -16.4271 -16.4212 -16.4180
   -16.4113 -16.4066 -16.4021 -16.3925 -16.3861 -16.3831 -16.3746 -16.3681
   -16.3556 -16.3533 -16.3431 -16.3357 -16.3282 -16.3236  -4.3830  -2.8593
    -2.7425  -2.5356  -2.4427  -2.2482  -0.8404  -0.7196  -0.5053  -0.4447
     0.8004   0.9947   1.0618   1.2534   1.5143   4.4156   4.5058   4.5562
     4.6352   5.1240   5.1815   5.2871   5.3769   5.4299   5.5193   5.8971
     6.4216   6.6125   6.7453   6.7771   7.1311   7.3893   8.5079   9.2386
     9.3082   9.4768   9.5713   9.7162   9.8432   9.8976   9.9918  10.0549
    10.2991  10.5479  11.5810  11.6083  11.6539  11.8024  11.8726  11.9877
    12.1518  12.2213

     occupation numbers 
     1.0000   1.0000   1.0000   1.0000   1.0000   1.0000   1.0000   1.0000
     1.0000   1.0000   1.0000   1.0000   1.0000   1.0000   1.0000   1.0000
     1.0000   1.0000   1.0000   1.0000   1.0000   1.0000   1.0000   1.0000
     1.0000   1.0000   1.0000   1.0000   1.0000   1.0000   1.0000   1.0000
     1.0000   1.0000   1.0000   1.0000   1.0000   1.0000   1.0000   1.0000
     1.0000   1.0000   1.0000   1.0000   1.0000   1.0000   1.0000   1.0000
     1.0000   1.0000   1.0000   1.0000   1.0000   1.0000   1.0000   1.0000
     1.0000   1.0000   1.0000   1.0000   1.0000   1.0000   1.0000   1.0000
     1.0000   1.0000   1.0000   1.0000   1.0000   1.0000   1.0000   1.0000
     1.0000   1.0000   1.0000   1.0000   1.0000   1.0000   1.0000   1.0000
     1.0000   1.0000   1.0000   1.0000   1.0000   1.0000   1.0000   1.0000
     1.0000   1.0000   1.0000   1.0000   1.0000   1.0000   1.0000   1.0000
     1.0000   1.0000   1.0000   1.0000   1.0000   1.0000   0.0088   0.0000
     0.0000   0.0000   0.0000   0.0000   0.0000   0.0000   0.0000   0.0000
     0.0000   0.0000   0.0000   0.0000   0.0000   0.0000   0.0000   0.0000
     0.0000   0.0000

          k =-0.5191-0.1752 0.5163 (  8417 PWs)   bands (ev):

   -16.8602 -16.8464 -16.8269 -16.7768 -16.7630 -16.7546 -16.7482 -16.7390
   -16.7221 -16.7186 -16.7120 -16.6964 -16.6904 -16.6842 -16.6761 -16.6683
   -16.6590 -16.6535 -16.6452 -16.6394 -16.6269 -16.6199 -16.6081 -16.6046
   -16.5972 -16.5953 -16.5912 -16.5800 -16.5729 -16.5665 -16.5640 -16.5568
   -16.5527 -16.5468 -16.5396 -16.5363 -16.5298 -16.5243 -16.5182 -16.5104
   -16.5066 -16.5016 -16.4979 -16.4889 -16.4846 -16.4775 -16.4734 -16.4701
   -16.4654 -16.4581 -16.4529 -16.4465 -16.4365 -16.4283 -16.4245 -16.4165
   -16.4148 -16.4048 -16.3981 -16.3921 -16.3850 -16.3818 -16.3735 -16.3660
   -16.3536 -16.3495 -16.3403 -16.3322 -16.3269 -16.3238  -3.9632  -3.5034
    -2.9364  -2.6105  -2.4431  -1.9926  -1.3778  -1.2715   0.0832   0.1909
     0.7935   1.3444   1.4359   2.3170   2.5870   3.7344   3.8397   3.9169
     3.9857   4.4559   4.5479   4.9634   5.0044   5.1083   5.6240   5.8072
     5.9537   6.0952   6.2076   6.7704   6.8641   7.2621   9.2312   9.6375
     9.9483  10.0829  10.2395  10.3082  10.4447  10.6183  10.6735  10.6996
    11.3998  11.4800  11.9157  12.0466  12.1092  12.3655  12.5802  12.6361
    12.7973  12.9148

     occupation numbers 
     1.0000   1.0000   1.0000   1.0000   1.0000   1.0000   1.0000   1.0000
     1.0000   1.0000   1.0000   1.0000   1.0000   1.0000   1.0000   1.0000
     1.0000   1.0000   1.0000   1.0000   1.0000   1.0000   1.0000   1.0000
     1.0000   1.0000   1.0000   1.0000   1.0000   1.0000   1.0000   1.0000
     1.0000   1.0000   1.0000   1.0000   1.0000   1.0000   1.0000   1.0000
     1.0000   1.0000   1.0000   1.0000   1.0000   1.0000   1.0000   1.0000
     1.0000   1.0000   1.0000   1.0000   1.0000   1.0000   1.0000   1.0000
     1.0000   1.0000   1.0000   1.0000   1.0000   1.0000   1.0000   1.0000
     1.0000   1.0000   1.0000   1.0000   1.0000   1.0000   1.0000   1.0000
     1.0000   1.0000   1.0000   1.0000   1.0000   1.0000   1.0000   1.0000
     1.0000   1.0000   1.0000   1.0000   1.0000   1.0000   1.0000   1.0000
     1.0000   1.0000   1.0000   1.0000   1.0000   1.0000   1.0000   1.0000
     1.0000   1.0000   1.0000   1.0000   1.0000   1.0000   0.0000   0.0000
     0.0000   0.0000   0.0000   0.0000   0.0000   0.0000   0.0000   0.0000
     0.0000   0.0000   0.0000   0.0000   0.0000   0.0000   0.0000   0.0000
     0.0000   0.0000

          k =-0.3457 0.0009 0.3449 (  8381 PWs)   bands (ev):

   -16.8603 -16.8459 -16.8262 -16.7758 -16.7607 -16.7551 -16.7480 -16.7379
   -16.7207 -16.7180 -16.7068 -16.6962 -16.6920 -16.6818 -16.6767 -16.6752
   -16.6623 -16.6565 -16.6499 -16.6412 -16.6273 -16.6179 -16.6099 -16.6063
   -16.6025 -16.5951 -16.5896 -16.5820 -16.5780 -16.5669 -16.5629 -16.5578
   -16.5563 -16.5496 -16.5386 -16.5308 -16.5286 -16.5208 -16.5164 -16.5105
   -16.5059 -16.5016 -16.4981 -16.4860 -16.4787 -16.4775 -16.4715 -16.4691
   -16.4649 -16.4579 -16.4462 -16.4412 -16.4348 -16.4300 -16.4275 -16.4194
   -16.4107 -16.4051 -16.3998 -16.3925 -16.3871 -16.3826 -16.3750 -16.3655
   -16.3551 -16.3489 -16.3426 -16.3342 -16.3282 -16.3236  -4.1643  -3.3009
    -3.0845  -2.3538  -2.1117  -1.8494  -1.8031  -1.2073  -0.0593   0.4691
     0.5744   1.0833   1.1156   1.8582   2.2113   3.6780   4.1964   4.3528
     4.5087   4.6055   4.7016   5.1049   5.2597   5.6086   5.6898   5.7996
     5.9130   6.1469   6.3909   6.4568   6.5510   7.8159   9.2160   9.4909
     9.8077   9.8773   9.9900  10.1234  10.3875  10.4426  10.5680  10.6802
    11.1553  11.2988  11.3591  11.3963  11.5140  11.5784  11.7834  12.5851
    12.7174  12.9156

     occupation numbers 
     1.0000   1.0000   1.0000   1.0000   1.0000   1.0000   1.0000   1.0000
     1.0000   1.0000   1.0000   1.0000   1.0000   1.0000   1.0000   1.0000
     1.0000   1.0000   1.0000   1.0000   1.0000   1.0000   1.0000   1.0000
     1.0000   1.0000   1.0000   1.0000   1.0000   1.0000   1.0000   1.0000
     1.0000   1.0000   1.0000   1.0000   1.0000   1.0000   1.0000   1.0000
     1.0000   1.0000   1.0000   1.0000   1.0000   1.0000   1.0000   1.0000
     1.0000   1.0000   1.0000   1.0000   1.0000   1.0000   1.0000   1.0000
     1.0000   1.0000   1.0000   1.0000   1.0000   1.0000   1.0000   1.0000
     1.0000   1.0000   1.0000   1.0000   1.0000   1.0000   1.0000   1.0000
     1.0000   1.0000   1.0000   1.0000   1.0000   1.0000   1.0000   1.0000
     1.0000   1.0000   1.0000   1.0000   1.0000   1.0000   1.0000   1.0000
     1.0000   1.0000   1.0000   1.0000   1.0000   1.0000   1.0000   1.0000
     1.0000   1.0000   1.0000   1.0000   1.0000   0.9923   0.0000   0.0000
     0.0000   0.0000   0.0000   0.0000   0.0000   0.0000   0.0000   0.0000
     0.0000   0.0000   0.0000   0.0000   0.0000   0.0000   0.0000   0.0000
     0.0000   0.0000

          k = 0.0050 0.0021 0.3498 (  8412 PWs)   bands (ev):

   -16.8607 -16.8474 -16.8281 -16.7744 -16.7620 -16.7544 -16.7436 -16.7353
   -16.7177 -16.7113 -16.7012 -16.6956 -16.6908 -16.6833 -16.6777 -16.6715
   -16.6620 -16.6578 -16.6504 -16.6425 -16.6310 -16.6227 -16.6176 -16.6117
   -16.6036 -16.5975 -16.5931 -16.5883 -16.5825 -16.5720 -16.5671 -16.5640
   -16.5595 -16.5499 -16.5377 -16.5334 -16.5292 -16.5218 -16.5117 -16.5076
   -16.5024 -16.4957 -16.4887 -16.4856 -16.4800 -16.4713 -16.4681 -16.4653
   -16.4598 -16.4535 -16.4477 -16.4373 -16.4339 -16.4291 -16.4217 -16.4141
   -16.4110 -16.4054 -16.4029 -16.3932 -16.3880 -16.3831 -16.3781 -16.3731
   -16.3572 -16.3513 -16.3465 -16.3383 -16.3261 -16.3207  -4.3846  -2.8868
    -2.7113  -2.5973  -2.3660  -2.2613  -0.7969  -0.6836  -0.6562  -0.3324
     0.7632   1.0132   1.1080   1.2998   1.3616   4.3714   4.4657   4.5506
     4.6571   5.0384   5.2475   5.2715   5.3603   5.4294   5.5480   5.8587
     6.5276   6.6767   6.7491   6.8456   7.2405   7.3592   8.5610   9.3013
     9.3383   9.4443   9.5306   9.6684   9.8020   9.8367  10.0120  10.1282
    10.2459  10.4586  11.5273  11.6141  11.7202  11.7759  11.8785  12.0241
    12.0617  12.2483

     occupation numbers 
     1.0000   1.0000   1.0000   1.0000   1.0000   1.0000   1.0000   1.0000
     1.0000   1.0000   1.0000   1.0000   1.0000   1.0000   1.0000   1.0000
     1.0000   1.0000   1.0000   1.0000   1.0000   1.0000   1.0000   1.0000
     1.0000   1.0000   1.0000   1.0000   1.0000   1.0000   1.0000   1.0000
     1.0000   1.0000   1.0000   1.0000   1.0000   1.0000   1.0000   1.0000
     1.0000   1.0000   1.0000   1.0000   1.0000   1.0000   1.0000   1.0000
     1.0000   1.0000   1.0000   1.0000   1.0000   1.0000   1.0000   1.0000
     1.0000   1.0000   1.0000   1.0000   1.0000   1.0000   1.0000   1.0000
     1.0000   1.0000   1.0000   1.0000   1.0000   1.0000   1.0000   1.0000
     1.0000   1.0000   1.0000   1.0000   1.0000   1.0000   1.0000   1.0000
     1.0000   1.0000   1.0000   1.0000   1.0000   1.0000   1.0000   1.0000
     1.0000   1.0000   1.0000   1.0000   1.0000   1.0000   1.0000   1.0000
     1.0000   1.0000   1.0000   1.0000   1.0000   1.0000   0.0031   0.0000
     0.0000   0.0000   0.0000   0.0000   0.0000   0.0000   0.0000   0.0000
     0.0000   0.0000   0.0000   0.0000   0.0000   0.0000   0.0000   0.0000
     0.0000   0.0000

          k = 0.1784 0.1783 0.1785 (  8416 PWs)   bands (ev):

   -16.8605 -16.8469 -16.8272 -16.7737 -16.7615 -16.7517 -16.7427 -16.7333
   -16.7174 -16.7112 -16.7033 -16.6958 -16.6922 -16.6839 -16.6764 -16.6725
   -16.6674 -16.6573 -16.6528 -16.6405 -16.6332 -16.6265 -16.6161 -16.6131
   -16.6023 -16.5984 -16.5921 -16.5885 -16.5836 -16.5712 -16.5689 -16.5603
   -16.5579 -16.5453 -16.5396 -16.5330 -16.5299 -16.5214 -16.5091 -16.5027
   -16.4980 -16.4947 -16.4891 -16.4860 -16.4804 -16.4731 -16.4683 -16.4628
   -16.4561 -16.4514 -16.4486 -16.4439 -16.4341 -16.4289 -16.4220 -16.4144
   -16.4105 -16.4052 -16.4003 -16.3954 -16.3863 -16.3849 -16.3799 -16.3726
   -16.3570 -16.3543 -16.3462 -16.3377 -16.3252 -16.3202  -4.4406  -3.0547
    -2.6170  -2.3606  -2.3269  -1.6871  -1.4935  -1.3294   0.0731   0.2243
     0.4118   0.5455   0.7761   1.0059   1.6289   4.4861   4.5168   4.6400
     5.0305   5.0992   5.2430   5.4673   5.5441   5.6041   6.0438   6.2077
     6.3083   6.4646   6.6442   6.9087   7.4899   7.9056   8.2431   8.5701
     8.7403   8.9205   9.1087   9.4181   9.5205   9.7447   9.9441  10.1292
    10.2321  10.8814  11.1076  11.4199  11.5759  11.6370  11.6997  11.7912
    12.0925  12.4540

     occupation numbers 
     1.0000   1.0000   1.0000   1.0000   1.0000   1.0000   1.0000   1.0000
     1.0000   1.0000   1.0000   1.0000   1.0000   1.0000   1.0000   1.0000
     1.0000   1.0000   1.0000   1.0000   1.0000   1.0000   1.0000   1.0000
     1.0000   1.0000   1.0000   1.0000   1.0000   1.0000   1.0000   1.0000
     1.0000   1.0000   1.0000   1.0000   1.0000   1.0000   1.0000   1.0000
     1.0000   1.0000   1.0000   1.0000   1.0000   1.0000   1.0000   1.0000
     1.0000   1.0000   1.0000   1.0000   1.0000   1.0000   1.0000   1.0000
     1.0000   1.0000   1.0000   1.0000   1.0000   1.0000   1.0000   1.0000
     1.0000   1.0000   1.0000   1.0000   1.0000   1.0000   1.0000   1.0000
     1.0000   1.0000   1.0000   1.0000   1.0000   1.0000   1.0000   1.0000
     1.0000   1.0000   1.0000   1.0000   1.0000   1.0000   1.0000   1.0000
     1.0000   1.0000   1.0000   1.0000   1.0000   1.0000   1.0000   1.0000
     1.0000   1.0000   1.0000   1.0000   1.0000   0.9641   0.2952   0.0025
     0.0000   0.0000   0.0000   0.0000   0.0000   0.0000   0.0000   0.0000
     0.0000   0.0000   0.0000   0.0000   0.0000   0.0000   0.0000   0.0000
     0.0000   0.0000

          k =-0.3419-0.3501 0.6926 (  8438 PWs)   bands (ev):

   -16.8607 -16.8473 -16.8282 -16.7748 -16.7629 -16.7543 -16.7445 -16.7353
   -16.7212 -16.7143 -16.7085 -16.6964 -16.6923 -16.6823 -16.6755 -16.6724
   -16.6639 -16.6570 -16.6474 -16.6413 -16.6286 -16.6176 -16.6135 -16.6093
   -16.5986 -16.5952 -16.5888 -16.5863 -16.5780 -16.5706 -16.5624 -16.5550
   -16.5512 -16.5454 -16.5415 -16.5355 -16.5254 -16.5215 -16.5149 -16.5089
   -16.5057 -16.4989 -16.4927 -16.4909 -16.4856 -16.4798 -16.4730 -16.4678
   -16.4603 -16.4557 -16.4494 -16.4436 -16.4404 -16.4284 -16.4233 -16.4159
   -16.4120 -16.4041 -16.3980 -16.3934 -16.3863 -16.3825 -16.3774 -16.3712
   -16.3549 -16.3498 -16.3444 -16.3343 -16.3232 -16.3206  -4.1319  -3.2433
    -3.1325  -2.3342  -2.1883  -2.0011  -1.8555  -1.0152  -0.1851   0.4265
     0.6052   1.1648   1.4091   1.9125   2.2053   3.6720   4.2200   4.3477
     4.3985   4.5711   4.6784   5.0624   5.2463   5.4995   5.7112   5.8202
     5.8906   6.0509   6.3739   6.4066   6.5359   7.8905   9.1174   9.5322
     9.6458   9.7846   9.9065  10.0341  10.2184  10.3781  10.6112  10.7491
    11.0645  11.1307  11.4252  11.4993  11.5863  11.7375  12.1731  12.5929
    12.8390  12.9585

     occupation numbers 
     1.0000   1.0000   1.0000   1.0000   1.0000   1.0000   1.0000   1.0000
     1.0000   1.0000   1.0000   1.0000   1.0000   1.0000   1.0000   1.0000
     1.0000   1.0000   1.0000   1.0000   1.0000   1.0000   1.0000   1.0000
     1.0000   1.0000   1.0000   1.0000   1.0000   1.0000   1.0000   1.0000
     1.0000   1.0000   1.0000   1.0000   1.0000   1.0000   1.0000   1.0000
     1.0000   1.0000   1.0000   1.0000   1.0000   1.0000   1.0000   1.0000
     1.0000   1.0000   1.0000   1.0000   1.0000   1.0000   1.0000   1.0000
     1.0000   1.0000   1.0000   1.0000   1.0000   1.0000   1.0000   1.0000
     1.0000   1.0000   1.0000   1.0000   1.0000   1.0000   1.0000   1.0000
     1.0000   1.0000   1.0000   1.0000   1.0000   1.0000   1.0000   1.0000
     1.0000   1.0000   1.0000   1.0000   1.0000   1.0000   1.0000   1.0000
     1.0000   1.0000   1.0000   1.0000   1.0000   1.0000   1.0000   1.0000
     1.0000   1.0000   1.0000   1.0000   1.0000   0.9716   0.0000   0.0000
     0.0000   0.0000   0.0000   0.0000   0.0000   0.0000   0.0000   0.0000
     0.0000   0.0000   0.0000   0.0000   0.0000   0.0000   0.0000   0.0000
     0.0000   0.0000

          k =-0.1685-0.1740 0.5212 (  8421 PWs)   bands (ev):

   -16.8609 -16.8478 -16.8289 -16.7753 -16.7636 -16.7567 -16.7449 -16.7364
   -16.7209 -16.7144 -16.7083 -16.6950 -16.6920 -16.6844 -16.6744 -16.6701
   -16.6578 -16.6565 -16.6468 -16.6425 -16.6259 -16.6199 -16.6116 -16.6050
   -16.6004 -16.5955 -16.5876 -16.5818 -16.5786 -16.5719 -16.5619 -16.5582
   -16.5550 -16.5505 -16.5421 -16.5327 -16.5268 -16.5229 -16.5190 -16.5117
   -16.5046 -16.5021 -16.4932 -16.4894 -16.4843 -16.4790 -16.4744 -16.4677
   -16.4646 -16.4570 -16.4465 -16.4430 -16.4380 -16.4281 -16.4258 -16.4154
   -16.4103 -16.4039 -16.3992 -16.3925 -16.3872 -16.3813 -16.3761 -16.3711
   -16.3554 -16.3484 -16.3436 -16.3344 -16.3242 -16.3213  -3.9744  -3.4648
    -2.9745  -2.6718  -2.4516  -1.8314  -1.4545  -1.2428   0.0540   0.2947
     0.5988   1.3462   1.6397   2.1887   2.5195   3.6653   3.8027   3.8983
     4.0262   4.4334   4.5173   5.0694   5.1478   5.2369   5.6565   5.7494
     5.9442   6.1015   6.1481   6.6898   6.7648   7.3640   9.2234   9.6445
     9.8932  10.0993  10.1944  10.3120  10.6447  10.8127  10.9297  11.0665
    11.4391  11.5090  11.7202  11.9386  12.0178  12.1228  12.4644  12.6350
    12.6832  12.7436

     occupation numbers 
     1.0000   1.0000   1.0000   1.0000   1.0000   1.0000   1.0000   1.0000
     1.0000   1.0000   1.0000   1.0000   1.0000   1.0000   1.0000   1.0000
     1.0000   1.0000   1.0000   1.0000   1.0000   1.0000   1.0000   1.0000
     1.0000   1.0000   1.0000   1.0000   1.0000   1.0000   1.0000   1.0000
     1.0000   1.0000   1.0000   1.0000   1.0000   1.0000   1.0000   1.0000
     1.0000   1.0000   1.0000   1.0000   1.0000   1.0000   1.0000   1.0000
     1.0000   1.0000   1.0000   1.0000   1.0000   1.0000   1.0000   1.0000
     1.0000   1.0000   1.0000   1.0000   1.0000   1.0000   1.0000   1.0000
     1.0000   1.0000   1.0000   1.0000   1.0000   1.0000   1.0000   1.0000
     1.0000   1.0000   1.0000   1.0000   1.0000   1.0000   1.0000   1.0000
     1.0000   1.0000   1.0000   1.0000   1.0000   1.0000   1.0000   1.0000
     1.0000   1.0000   1.0000   1.0000   1.0000   1.0000   1.0000   1.0000
     1.0000   1.0000   1.0000   1.0000   1.0000   1.0000   0.0000   0.0000
     0.0000   0.0000   0.0000   0.0000   0.0000   0.0000   0.0000   0.0000
     0.0000   0.0000   0.0000   0.0000   0.0000   0.0000   0.0000   0.0000
     0.0000   0.0000

          k =-0.5266 0.5269-0.1792 (  8430 PWs)   bands (ev):

   -16.8618 -16.8494 -16.8306 -16.7746 -16.7646 -16.7562 -16.7441 -16.7334
   -16.7176 -16.7061 -16.7042 -16.6941 -16.6886 -16.6842 -16.6742 -16.6697
   -16.6585 -16.6563 -16.6473 -16.6419 -16.6282 -16.6219 -16.6174 -16.6111
   -16.6051 -16.5993 -16.5936 -16.5822 -16.5803 -16.5708 -16.5673 -16.5634
   -16.5532 -16.5473 -16.5425 -16.5381 -16.5284 -16.5203 -16.5173 -16.5096
   -16.5022 -16.4994 -16.4914 -16.4888 -16.4797 -16.4747 -16.4688 -16.4641
   -16.4590 -16.4547 -16.4473 -16.4429 -16.4395 -16.4270 -16.4219 -16.4145
   -16.4087 -16.4054 -16.4024 -16.3944 -16.3888 -16.3843 -16.3790 -16.3670
   -16.3581 -16.3491 -16.3472 -16.3379 -16.3216 -16.3181  -3.9419  -3.5065
    -2.9851  -2.5845  -2.4583  -1.9629  -1.4376  -1.2338   0.0606   0.2574
     0.8039   1.1732   1.4986   2.2084   2.7357   3.8107   3.9219   3.9447
     4.0207   4.4363   4.5714   4.8553   5.1039   5.2052   5.5307   5.7554
     6.0364   6.1122   6.1905   6.5753   6.8769   7.1531   9.2382   9.6190
     9.7058   9.9224  10.0750  10.2300  10.4644  10.6202  10.7077  10.8497
    11.4829  11.6402  11.8474  11.9173  12.0701  12.4110  12.6326  12.7171
    12.8334  12.9554

     occupation numbers 
     1.0000   1.0000   1.0000   1.0000   1.0000   1.0000   1.0000   1.0000
     1.0000   1.0000   1.0000   1.0000   1.0000   1.0000   1.0000   1.0000
     1.0000   1.0000   1.0000   1.0000   1.0000   1.0000   1.0000   1.0000
     1.0000   1.0000   1.0000   1.0000   1.0000   1.0000   1.0000   1.0000
     1.0000   1.0000   1.0000   1.0000   1.0000   1.0000   1.0000   1.0000
     1.0000   1.0000   1.0000   1.0000   1.0000   1.0000   1.0000   1.0000
     1.0000   1.0000   1.0000   1.0000   1.0000   1.0000   1.0000   1.0000
     1.0000   1.0000   1.0000   1.0000   1.0000   1.0000   1.0000   1.0000
     1.0000   1.0000   1.0000   1.0000   1.0000   1.0000   1.0000   1.0000
     1.0000   1.0000   1.0000   1.0000   1.0000   1.0000   1.0000   1.0000
     1.0000   1.0000   1.0000   1.0000   1.0000   1.0000   1.0000   1.0000
     1.0000   1.0000   1.0000   1.0000   1.0000   1.0000   1.0000   1.0000
     1.0000   1.0000   1.0000   1.0000   1.0000   1.0000   0.0000   0.0000
     0.0000   0.0000   0.0000   0.0000   0.0000   0.0000   0.0000   0.0000
     0.0000   0.0000   0.0000   0.0000   0.0000   0.0000   0.0000   0.0000
     0.0000   0.0000

          k =-0.3532 0.7030-0.3505 (  8433 PWs)   bands (ev):

   -16.8616 -16.8490 -16.8299 -16.7739 -16.7642 -16.7533 -16.7430 -16.7328
   -16.7162 -16.7079 -16.7036 -16.6962 -16.6892 -16.6829 -16.6750 -16.6724
   -16.6614 -16.6576 -16.6477 -16.6400 -16.6334 -16.6240 -16.6163 -16.6134
   -16.6006 -16.5962 -16.5951 -16.5864 -16.5823 -16.5716 -16.5649 -16.5607
   -16.5534 -16.5474 -16.5403 -16.5357 -16.5283 -16.5222 -16.5125 -16.5040
   -16.5019 -16.4985 -16.4916 -16.4845 -16.4815 -16.4740 -16.4691 -16.4647
   -16.4565 -16.4519 -16.4468 -16.4442 -16.4422 -16.4316 -16.4229 -16.4150
   -16.4096 -16.4050 -16.3980 -16.3944 -16.3892 -16.3861 -16.3797 -16.3671
   -16.3577 -16.3522 -16.3462 -16.3376 -16.3212 -16.3174  -4.1198  -3.2938
    -3.0467  -2.3524  -2.2056  -2.0627  -1.8712  -0.9840  -0.1319   0.3416
     0.6959   1.0865   1.3163   2.0393   2.2369   3.7310   4.2806   4.3200
     4.6015   4.6252   4.7453   5.1802   5.2107   5.3146   5.7162   5.8047
     5.8792   6.0336   6.1854   6.3548   6.4894   7.6446   8.8786   9.5286
     9.5688   9.6977   9.9214   9.9362  10.4428  10.5199  10.6292  10.7744
    11.0821  11.2198  11.2786  11.4496  11.5493  11.6450  12.2474  12.4942
    12.8798  13.1587

     occupation numbers 
     1.0000   1.0000   1.0000   1.0000   1.0000   1.0000   1.0000   1.0000
     1.0000   1.0000   1.0000   1.0000   1.0000   1.0000   1.0000   1.0000
     1.0000   1.0000   1.0000   1.0000   1.0000   1.0000   1.0000   1.0000
     1.0000   1.0000   1.0000   1.0000   1.0000   1.0000   1.0000   1.0000
     1.0000   1.0000   1.0000   1.0000   1.0000   1.0000   1.0000   1.0000
     1.0000   1.0000   1.0000   1.0000   1.0000   1.0000   1.0000   1.0000
     1.0000   1.0000   1.0000   1.0000   1.0000   1.0000   1.0000   1.0000
     1.0000   1.0000   1.0000   1.0000   1.0000   1.0000   1.0000   1.0000
     1.0000   1.0000   1.0000   1.0000   1.0000   1.0000   1.0000   1.0000
     1.0000   1.0000   1.0000   1.0000   1.0000   1.0000   1.0000   1.0000
     1.0000   1.0000   1.0000   1.0000   1.0000   1.0000   1.0000   1.0000
     1.0000   1.0000   1.0000   1.0000   1.0000   1.0000   1.0000   1.0000
     1.0000   1.0000   1.0000   1.0000   1.0000   0.9998   0.0000   0.0000
     0.0000   0.0000   0.0000   0.0000   0.0000   0.0000   0.0000   0.0000
     0.0000   0.0000   0.0000   0.0000   0.0000   0.0000   0.0000   0.0000
     0.0000   0.0000

          k =-0.8735 0.1746 0.1636 (  8428 PWs)   bands (ev):

   -16.8617 -16.8487 -16.8294 -16.7735 -16.7640 -16.7517 -16.7424 -16.7334
   -16.7184 -16.7110 -16.7043 -16.6971 -16.6918 -16.6852 -16.6795 -16.6706
   -16.6641 -16.6593 -16.6496 -16.6423 -16.6319 -16.6227 -16.6135 -16.6112
   -16.6033 -16.5953 -16.5873 -16.5842 -16.5761 -16.5707 -16.5606 -16.5548
   -16.5492 -16.5455 -16.5429 -16.5342 -16.5248 -16.5217 -16.5108 -16.5086
   -16.5061 -16.4951 -16.4928 -16.4906 -16.4848 -16.4786 -16.4720 -16.4645
   -16.4621 -16.4564 -16.4485 -16.4441 -16.4385 -16.4313 -16.4223 -16.4173
   -16.4131 -16.4058 -16.3990 -16.3931 -16.3886 -16.3858 -16.3805 -16.3665
   -16.3553 -16.3518 -16.3445 -16.3358 -16.3199 -16.3174  -3.9397  -3.4797
    -2.9617  -2.6400  -2.4589  -1.9841  -1.4267  -1.2667   0.1480   0.1736
     0.7808   1.2476   1.3905   2.2817   2.8355   3.8288   3.9210   4.0014
     4.1895   4.4409   4.5968   4.8689   5.0240   5.2720   5.5081   5.6285
     5.9420   6.0512   6.2863   6.5054   6.8004   7.0238   9.1549   9.4747
     9.5843   9.8194  10.0163  10.2813  10.3446  10.6374  10.6699  10.9156
    11.5582  11.6513  11.7450  11.9011  12.2321  12.5594  12.7110  12.8445
    12.9859  13.1463

     occupation numbers 
     1.0000   1.0000   1.0000   1.0000   1.0000   1.0000   1.0000   1.0000
     1.0000   1.0000   1.0000   1.0000   1.0000   1.0000   1.0000   1.0000
     1.0000   1.0000   1.0000   1.0000   1.0000   1.0000   1.0000   1.0000
     1.0000   1.0000   1.0000   1.0000   1.0000   1.0000   1.0000   1.0000
     1.0000   1.0000   1.0000   1.0000   1.0000   1.0000   1.0000   1.0000
     1.0000   1.0000   1.0000   1.0000   1.0000   1.0000   1.0000   1.0000
     1.0000   1.0000   1.0000   1.0000   1.0000   1.0000   1.0000   1.0000
     1.0000   1.0000   1.0000   1.0000   1.0000   1.0000   1.0000   1.0000
     1.0000   1.0000   1.0000   1.0000   1.0000   1.0000   1.0000   1.0000
     1.0000   1.0000   1.0000   1.0000   1.0000   1.0000   1.0000   1.0000
     1.0000   1.0000   1.0000   1.0000   1.0000   1.0000   1.0000   1.0000
     1.0000   1.0000   1.0000   1.0000   1.0000   1.0000   1.0000   1.0000
     1.0000   1.0000   1.0000   1.0000   1.0000   1.0000   0.0000   0.0000
     0.0000   0.0000   0.0000   0.0000   0.0000   0.0000   0.0000   0.0000
     0.0000   0.0000   0.0000   0.0000   0.0000   0.0000   0.0000   0.0000
     0.0000   0.0000

          k =-0.7001 0.3508-0.0078 (  8433 PWs)   bands (ev):

   -16.8618 -16.8491 -16.8301 -16.7742 -16.7644 -16.7544 -16.7442 -16.7337
   -16.7195 -16.7102 -16.7025 -16.6945 -16.6913 -16.6870 -16.6765 -16.6707
   -16.6623 -16.6584 -16.6474 -16.6444 -16.6280 -16.6190 -16.6156 -16.6095
   -16.6015 -16.5929 -16.5905 -16.5852 -16.5761 -16.5696 -16.5607 -16.5554
   -16.5506 -16.5492 -16.5406 -16.5361 -16.5265 -16.5227 -16.5171 -16.5092
   -16.5057 -16.4989 -16.4926 -16.4901 -16.4861 -16.4779 -16.4720 -16.4667
   -16.4633 -16.4573 -16.4457 -16.4407 -16.4394 -16.4293 -16.4245 -16.4165
   -16.4117 -16.4053 -16.4003 -16.3951 -16.3882 -16.3845 -16.3790 -16.3665
   -16.3557 -16.3480 -16.3456 -16.3362 -16.3208 -16.3178  -3.5582  -3.4574
    -3.4092  -3.1290  -1.9382  -1.7814  -1.6032  -1.4451   0.2978   0.4390
     0.5985   0.8790   2.6244   2.7498   2.9406   3.0541   3.6798   3.7531
     3.8097   3.8482   5.0678   5.1111   5.2179   5.3165   5.3358   5.3794
     5.5193   5.5962   6.3492   6.4765   6.5762   6.7711  10.1447  10.2478
    10.3627  10.4572  10.5387  10.6372  10.7426  10.8100  10.9176  10.9962
    11.0918  11.1930  12.1396  12.2341  12.3331  12.3694  12.4590  12.5669
    12.6486  12.7326

     occupation numbers 
     1.0000   1.0000   1.0000   1.0000   1.0000   1.0000   1.0000   1.0000
     1.0000   1.0000   1.0000   1.0000   1.0000   1.0000   1.0000   1.0000
     1.0000   1.0000   1.0000   1.0000   1.0000   1.0000   1.0000   1.0000
     1.0000   1.0000   1.0000   1.0000   1.0000   1.0000   1.0000   1.0000
     1.0000   1.0000   1.0000   1.0000   1.0000   1.0000   1.0000   1.0000
     1.0000   1.0000   1.0000   1.0000   1.0000   1.0000   1.0000   1.0000
     1.0000   1.0000   1.0000   1.0000   1.0000   1.0000   1.0000   1.0000
     1.0000   1.0000   1.0000   1.0000   1.0000   1.0000   1.0000   1.0000
     1.0000   1.0000   1.0000   1.0000   1.0000   1.0000   1.0000   1.0000
     1.0000   1.0000   1.0000   1.0000   1.0000   1.0000   1.0000   1.0000
     1.0000   1.0000   1.0000   1.0000   1.0000   1.0000   1.0000   1.0000
     1.0000   1.0000   1.0000   1.0000   1.0000   1.0000   1.0000   1.0000
     1.0000   1.0000   1.0000   1.0000   1.0000   1.0000   0.0000   0.0000
     0.0000   0.0000   0.0000   0.0000   0.0000   0.0000   0.0000   0.0000
     0.0000   0.0000   0.0000   0.0000   0.0000   0.0000   0.0000   0.0000
     0.0000   0.0000

          k =-0.3494 0.3520-0.0028 (  8412 PWs)   bands (ev):

   -16.8612 -16.8479 -16.8281 -16.7750 -16.7633 -16.7545 -16.7433 -16.7357
   -16.7178 -16.7117 -16.7009 -16.6943 -16.6902 -16.6845 -16.6761 -16.6727
   -16.6641 -16.6568 -16.6505 -16.6395 -16.6302 -16.6233 -16.6133 -16.6092
   -16.6060 -16.6014 -16.5934 -16.5829 -16.5790 -16.5719 -16.5665 -16.5638
   -16.5533 -16.5440 -16.5379 -16.5352 -16.5302 -16.5206 -16.5192 -16.5077
   -16.5042 -16.5013 -16.4880 -16.4855 -16.4778 -16.4728 -16.4702 -16.4630
   -16.4614 -16.4529 -16.4458 -16.4414 -16.4381 -16.4279 -16.4240 -16.4171
   -16.4131 -16.4073 -16.4005 -16.3934 -16.3882 -16.3844 -16.3789 -16.3633
   -16.3579 -16.3510 -16.3455 -16.3385 -16.3246 -16.3200  -4.1497  -3.2649
    -3.1475  -2.2853  -2.1334  -1.9456  -1.7838  -1.1823  -0.0284   0.3586
     0.6091   0.9342   1.2383   1.9802   2.1983   3.7207   4.3496   4.4160
     4.5586   4.5855   4.7294   5.2059   5.2691   5.4834   5.6200   5.8571
     5.8931   6.0588   6.2710   6.3953   6.5147   7.6845   9.1117   9.5483
     9.6672   9.7729   9.8889  10.0163  10.2438  10.4798  10.5982  10.7630
    11.0840  11.1630  11.2816  11.3820  11.4163  11.5665  12.1381  12.7293
    12.7958  13.0307

     occupation numbers 
     1.0000   1.0000   1.0000   1.0000   1.0000   1.0000   1.0000   1.0000
     1.0000   1.0000   1.0000   1.0000   1.0000   1.0000   1.0000   1.0000
     1.0000   1.0000   1.0000   1.0000   1.0000   1.0000   1.0000   1.0000
     1.0000   1.0000   1.0000   1.0000   1.0000   1.0000   1.0000   1.0000
     1.0000   1.0000   1.0000   1.0000   1.0000   1.0000   1.0000   1.0000
     1.0000   1.0000   1.0000   1.0000   1.0000   1.0000   1.0000   1.0000
     1.0000   1.0000   1.0000   1.0000   1.0000   1.0000   1.0000   1.0000
     1.0000   1.0000   1.0000   1.0000   1.0000   1.0000   1.0000   1.0000
     1.0000   1.0000   1.0000   1.0000   1.0000   1.0000   1.0000   1.0000
     1.0000   1.0000   1.0000   1.0000   1.0000   1.0000   1.0000   1.0000
     1.0000   1.0000   1.0000   1.0000   1.0000   1.0000   1.0000   1.0000
     1.0000   1.0000   1.0000   1.0000   1.0000   1.0000   1.0000   1.0000
     1.0000   1.0000   1.0000   1.0000   1.0000   0.9996   0.0000   0.0000
     0.0000   0.0000   0.0000   0.0000   0.0000   0.0000   0.0000   0.0000
     0.0000   0.0000   0.0000   0.0000   0.0000   0.0000   0.0000   0.0000
     0.0000   0.0000

          k =-0.1760 0.5281-0.1742 (  8441 PWs)   bands (ev):

   -16.8613 -16.8482 -16.8289 -16.7758 -16.7644 -16.7564 -16.7445 -16.7355
   -16.7183 -16.7133 -16.7084 -16.6954 -16.6870 -16.6842 -16.6757 -16.6694
   -16.6601 -16.6514 -16.6479 -16.6359 -16.6277 -16.6240 -16.6134 -16.6109
   -16.6037 -16.5965 -16.5907 -16.5849 -16.5771 -16.5718 -16.5671 -16.5590
   -16.5528 -16.5465 -16.5411 -16.5375 -16.5314 -16.5219 -16.5169 -16.5086
   -16.5048 -16.4996 -16.4929 -16.4856 -16.4782 -16.4757 -16.4716 -16.4639
   -16.4618 -16.4577 -16.4488 -16.4461 -16.4399 -16.4298 -16.4237 -16.4156
   -16.4109 -16.4054 -16.4014 -16.3933 -16.3878 -16.3814 -16.3777 -16.3628
   -16.3572 -16.3512 -16.3436 -16.3362 -16.3234 -16.3203  -3.9567  -3.4546
    -2.9527  -2.6923  -2.4904  -1.8493  -1.5226  -1.1937   0.0352   0.3120
     0.6417   1.2829   1.5472   2.2236   2.6962   3.7906   3.8634   3.9931
     4.0756   4.5025   4.6457   4.9718   5.1265   5.2739   5.5293   5.6914
     5.8811   6.0663   6.1280   6.4856   6.7531   7.0966   9.1139   9.4273
     9.6448   9.9216  10.2444  10.3481  10.7283  10.8053  10.8571  11.0783
    11.4720  11.6350  11.6794  11.9818  12.1374  12.2873  12.5375  12.7812
    12.8316  12.8969

     occupation numbers 
     1.0000   1.0000   1.0000   1.0000   1.0000   1.0000   1.0000   1.0000
     1.0000   1.0000   1.0000   1.0000   1.0000   1.0000   1.0000   1.0000
     1.0000   1.0000   1.0000   1.0000   1.0000   1.0000   1.0000   1.0000
     1.0000   1.0000   1.0000   1.0000   1.0000   1.0000   1.0000   1.0000
     1.0000   1.0000   1.0000   1.0000   1.0000   1.0000   1.0000   1.0000
     1.0000   1.0000   1.0000   1.0000   1.0000   1.0000   1.0000   1.0000
     1.0000   1.0000   1.0000   1.0000   1.0000   1.0000   1.0000   1.0000
     1.0000   1.0000   1.0000   1.0000   1.0000   1.0000   1.0000   1.0000
     1.0000   1.0000   1.0000   1.0000   1.0000   1.0000   1.0000   1.0000
     1.0000   1.0000   1.0000   1.0000   1.0000   1.0000   1.0000   1.0000
     1.0000   1.0000   1.0000   1.0000   1.0000   1.0000   1.0000   1.0000
     1.0000   1.0000   1.0000   1.0000   1.0000   1.0000   1.0000   1.0000
     1.0000   1.0000   1.0000   1.0000   1.0000   1.0000   0.0000   0.0000
     0.0000   0.0000   0.0000   0.0000   0.0000   0.0000   0.0000   0.0000
     0.0000   0.0000   0.0000   0.0000   0.0000   0.0000   0.0000   0.0000
     0.0000   0.0000

          k =-0.6963-0.0003 0.3399 (  8427 PWs)   bands (ev):

   -16.8612 -16.8478 -16.8283 -16.7752 -16.7639 -16.7553 -16.7453 -16.7343
   -16.7198 -16.7152 -16.7094 -16.6973 -16.6909 -16.6837 -16.6763 -16.6731
   -16.6602 -16.6550 -16.6492 -16.6374 -16.6264 -16.6245 -16.6113 -16.6069
   -16.6000 -16.5968 -16.5886 -16.5798 -16.5736 -16.5682 -16.5609 -16.5523
   -16.5517 -16.5451 -16.5434 -16.5341 -16.5285 -16.5214 -16.5187 -16.5106
   -16.5030 -16.5012 -16.4969 -16.4941 -16.4794 -16.4779 -16.4727 -16.4649
   -16.4639 -16.4581 -16.4518 -16.4479 -16.4396 -16.4292 -16.4241 -16.4202
   -16.4143 -16.4063 -16.3980 -16.3926 -16.3866 -16.3823 -16.3776 -16.3626
   -16.3536 -16.3517 -16.3424 -16.3345 -16.3223 -16.3198  -3.6063  -3.4672
    -3.2639  -3.1949  -1.9211  -1.8136  -1.7140  -1.3722   0.3125   0.4642
     0.6660   0.7862   2.6498   2.7666   2.8697   3.1727   3.7010   3.7387
     3.8381   3.8987   5.0531   5.1332   5.1828   5.2493   5.3237   5.3810
     5.4675   5.5616   6.3125   6.4935   6.6052   6.7281  10.0362  10.1778
    10.3073  10.3359  10.4574  10.5726  10.6466  10.7938  10.9517  11.1344
    11.2551  11.2985  12.1236  12.3600  12.4193  12.4950  12.5408  12.6652
    12.7855  12.8474

     occupation numbers 
     1.0000   1.0000   1.0000   1.0000   1.0000   1.0000   1.0000   1.0000
     1.0000   1.0000   1.0000   1.0000   1.0000   1.0000   1.0000   1.0000
     1.0000   1.0000   1.0000   1.0000   1.0000   1.0000   1.0000   1.0000
     1.0000   1.0000   1.0000   1.0000   1.0000   1.0000   1.0000   1.0000
     1.0000   1.0000   1.0000   1.0000   1.0000   1.0000   1.0000   1.0000
     1.0000   1.0000   1.0000   1.0000   1.0000   1.0000   1.0000   1.0000
     1.0000   1.0000   1.0000   1.0000   1.0000   1.0000   1.0000   1.0000
     1.0000   1.0000   1.0000   1.0000   1.0000   1.0000   1.0000   1.0000
     1.0000   1.0000   1.0000   1.0000   1.0000   1.0000   1.0000   1.0000
     1.0000   1.0000   1.0000   1.0000   1.0000   1.0000   1.0000   1.0000
     1.0000   1.0000   1.0000   1.0000   1.0000   1.0000   1.0000   1.0000
     1.0000   1.0000   1.0000   1.0000   1.0000   1.0000   1.0000   1.0000
     1.0000   1.0000   1.0000   1.0000   1.0000   1.0000   0.0000   0.0000
     0.0000   0.0000   0.0000   0.0000   0.0000   0.0000   0.0000   0.0000
     0.0000   0.0000   0.0000   0.0000   0.0000   0.0000   0.0000   0.0000
     0.0000   0.0000

          k =-0.5229 0.1758 0.1686 (  8432 PWs)   bands (ev):

   -16.8612 -16.8475 -16.8275 -16.7744 -16.7630 -16.7534 -16.7440 -16.7343
   -16.7196 -16.7132 -16.7042 -16.6942 -16.6916 -16.6885 -16.6804 -16.6703
   -16.6657 -16.6590 -16.6532 -16.6402 -16.6285 -16.6219 -16.6137 -16.6081
   -16.6041 -16.5952 -16.5889 -16.5848 -16.5745 -16.5661 -16.5607 -16.5585
   -16.5534 -16.5459 -16.5383 -16.5327 -16.5273 -16.5211 -16.5165 -16.5092
   -16.5079 -16.4997 -16.4924 -16.4891 -16.4822 -16.4727 -16.4709 -16.4655
   -16.4637 -16.4582 -16.4466 -16.4429 -16.4355 -16.4299 -16.4263 -16.4209
   -16.4133 -16.4044 -16.3992 -16.3962 -16.3870 -16.3841 -16.3798 -16.3631
   -16.3556 -16.3504 -16.3437 -16.3365 -16.3239 -16.3196  -3.9918  -3.4808
    -2.9424  -2.6194  -2.4467  -1.8612  -1.4032  -1.2711   0.1058   0.1563
[...]
     0.0000   0.0000

          k = 0.1635 0.1718-0.8711 (  8424 PWs)   bands (ev):

   -16.8619 -16.8485 -16.8301 -16.7738 -16.7638 -16.7534 -16.7430 -16.7342
   -16.7184 -16.7092 -16.7037 -16.6949 -16.6910 -16.6862 -16.6766 -16.6712
   -16.6614 -16.6580 -16.6467 -16.6428 -16.6352 -16.6208 -16.6155 -16.6116
   -16.6000 -16.5942 -16.5890 -16.5850 -16.5799 -16.5704 -16.5630 -16.5561
   -16.5509 -16.5468 -16.5450 -16.5354 -16.5278 -16.5165 -16.5134 -16.5058
   -16.5018 -16.4983 -16.4935 -16.4900 -16.4862 -16.4780 -16.4729 -16.4680
   -16.4589 -16.4550 -16.4478 -16.4426 -16.4403 -16.4313 -16.4227 -16.4164
   -16.4074 -16.4058 -16.3990 -16.3920 -16.3883 -16.3843 -16.3778 -16.3718
   -16.3575 -16.3493 -16.3459 -16.3350 -16.3216 -16.3178  -3.9353  -3.4737
    -2.9850  -2.6804  -2.4509  -1.8871  -1.4815  -1.2451   0.0956   0.3382
     0.4690   1.3846   1.6399   2.0956   2.7498   3.7705   3.9320   4.0132
     4.2108   4.5207   4.6070   4.9448   5.0235   5.2598   5.4232   5.7297
     5.8678   6.0393   6.1443   6.4647   6.7192   7.3333   9.2806   9.5920
     9.6379   9.8544   9.9868  10.1848  10.3880  10.5048  10.6677  10.8507
    11.3336  11.5006  11.6412  12.0050  12.3367  12.5152  12.5762  12.8160
    13.0134  13.1070

     occupation numbers 
     1.0000   1.0000   1.0000   1.0000   1.0000   1.0000   1.0000   1.0000
     1.0000   1.0000   1.0000   1.0000   1.0000   1.0000   1.0000   1.0000
     1.0000   1.0000   1.0000   1.0000   1.0000   1.0000   1.0000   1.0000
     1.0000   1.0000   1.0000   1.0000   1.0000   1.0000   1.0000   1.0000
     1.0000   1.0000   1.0000   1.0000   1.0000   1.0000   1.0000   1.0000
     1.0000   1.0000   1.0000   1.0000   1.0000   1.0000   1.0000   1.0000
     1.0000   1.0000   1.0000   1.0000   1.0000   1.0000   1.0000   1.0000
     1.0000   1.0000   1.0000   1.0000   1.0000   1.0000   1.0000   1.0000
     1.0000   1.0000   1.0000   1.0000   1.0000   1.0000   1.0000   1.0000
     1.0000   1.0000   1.0000   1.0000   1.0000   1.0000   1.0000   1.0000
     1.0000   1.0000   1.0000   1.0000   1.0000   1.0000   1.0000   1.0000
     1.0000   1.0000   1.0000   1.0000   1.0000   1.0000   1.0000   1.0000
     1.0000   1.0000   1.0000   1.0000   1.0000   1.0000   0.0000   0.0000
     0.0000   0.0000   0.0000   0.0000   0.0000   0.0000   0.0000   0.0000
     0.0000   0.0000   0.0000   0.0000   0.0000   0.0000   0.0000   0.0000
     0.0000   0.0000

          k =-0.3568-0.3565-0.3569 (  8454 PWs)   bands (ev):

   -16.8619 -16.8482 -16.8295 -16.7733 -16.7634 -16.7506 -16.7415 -16.7335
   -16.7178 -16.7102 -16.7051 -16.6980 -16.6921 -16.6845 -16.6776 -16.6710
   -16.6646 -16.6585 -16.6504 -16.6416 -16.6389 -16.6249 -16.6143 -16.6110
   -16.5999 -16.5979 -16.5858 -16.5844 -16.5813 -16.5715 -16.5602 -16.5533
   -16.5516 -16.5447 -16.5418 -16.5354 -16.5275 -16.5204 -16.5069 -16.5054
   -16.5028 -16.4976 -16.4882 -16.4863 -16.4844 -16.4831 -16.4731 -16.4686
   -16.4572 -16.4543 -16.4485 -16.4446 -16.4404 -16.4330 -16.4238 -16.4149
   -16.4073 -16.4063 -16.3959 -16.3941 -16.3888 -16.3858 -16.3789 -16.3718
   -16.3571 -16.3535 -16.3446 -16.3346 -16.3204 -16.3177  -3.8961  -3.8437
    -2.3707  -2.3076  -2.1739  -2.1109  -1.9271  -1.7244   0.5220   0.5995
     0.8217   0.8805   1.0731   1.2871   3.4835   3.6808   4.1888   4.2626
     4.3671   4.4439   4.5192   4.6290   5.4906   5.5696   5.6271   5.6325
     5.7324   5.9037   6.8776   7.0388   7.1829   7.4837   8.6121   8.6429
     8.9613   9.1919   9.3405   9.4003   9.4436   9.6691  11.2941  11.4581
    11.7295  11.9471  12.1343  12.3064  12.4563  12.6286  12.7292  12.9056
    13.2888  13.3176

     occupation numbers 
     1.0000   1.0000   1.0000   1.0000   1.0000   1.0000   1.0000   1.0000
     1.0000   1.0000   1.0000   1.0000   1.0000   1.0000   1.0000   1.0000
     1.0000   1.0000   1.0000   1.0000   1.0000   1.0000   1.0000   1.0000
     1.0000   1.0000   1.0000   1.0000   1.0000   1.0000   1.0000   1.0000
     1.0000   1.0000   1.0000   1.0000   1.0000   1.0000   1.0000   1.0000
     1.0000   1.0000   1.0000   1.0000   1.0000   1.0000   1.0000   1.0000
     1.0000   1.0000   1.0000   1.0000   1.0000   1.0000   1.0000   1.0000
     1.0000   1.0000   1.0000   1.0000   1.0000   1.0000   1.0000   1.0000
     1.0000   1.0000   1.0000   1.0000   1.0000   1.0000   1.0000   1.0000
     1.0000   1.0000   1.0000   1.0000   1.0000   1.0000   1.0000   1.0000
     1.0000   1.0000   1.0000   1.0000   1.0000   1.0000   1.0000   1.0000
     1.0000   1.0000   1.0000   1.0000   1.0000   1.0000   1.0000   1.0000
     1.0000   1.0000   1.0000   1.0000   1.0000   1.0000   0.0010   0.0005
     0.0000   0.0000   0.0000   0.0000   0.0000   0.0000   0.0000   0.0000
     0.0000   0.0000   0.0000   0.0000   0.0000   0.0000   0.0000   0.0000
     0.0000   0.0000

     the Fermi energy is     8.1654 ev

!    total energy              =   -3003.68168824 Ry
     Harris-Foulkes estimate   =   -3003.68168821 Ry
     estimated scf accuracy    <          6.7E-11 Ry

     The total energy is the sum of the following terms:

     one-electron contribution =   -2026.84553828 Ry
     hartree contribution      =    1195.80852027 Ry
     xc contribution           =    -815.35452701 Ry
     ewald contribution        =   -1357.28859245 Ry
     smearing contrib. (-TS)   =      -0.00155078 Ry

     convergence has been achieved in  12 iterations

     Forces acting on atoms (Ry/au):

     atom    1 type  1   force =   0.11124408E-01 -0.13685783E-01  0.39502492E-02
     atom    2 type  2   force =   0.11713775E-01 -0.53892920E-01  0.44277967E-02
     atom    3 type  2   force =   0.57199255E-01  0.70897938E-02 -0.13594879E-01
     atom    4 type  2   force =  -0.10579077E-01 -0.50569276E-03 -0.17900107E-01
     atom    5 type  2   force =   0.31210214E-01  0.19066390E-01 -0.23784138E-01
     atom    6 type  2   force =  -0.20161668E-01 -0.11649514E-01 -0.10271832E-01
     atom    7 type  2   force =   0.10851950E-01  0.56139441E-02 -0.30919847E-01
     atom    8 type  2   force =  -0.30100984E-01 -0.64891731E-04  0.31937731E-01
     atom    9 type  2   force =  -0.21392237E-01  0.31795111E-01  0.95723984E-02
     atom   10 type  2   force =  -0.28511454E-01  0.32936865E-01 -0.80054868E-02
     atom   11 type  2   force =   0.20226064E-01 -0.10705132E-01 -0.98848064E-02
     atom   12 type  1   force =  -0.27096794E-01  0.60052572E-02  0.49405972E-01
     atom   13 type  2   force =   0.16697374E-01 -0.32134207E-01  0.13211193E-01
     atom   14 type  2   force =  -0.11725171E-01  0.20261948E-01  0.13865439E-01
     atom   15 type  2   force =  -0.10262840E-02 -0.11961411E-01 -0.21514522E-01
     atom   16 type  2   force =  -0.84293692E-02  0.11830242E-01  0.95048389E-02
     The non-local contrib.  to forces
     atom    1 type  1   force =   0.13432339E-01 -0.28569683E-01 -0.83163634E-02
     atom    2 type  2   force =   0.35198676E-01  0.41746579E-01  0.65941333E-01
     atom    3 type  2   force =  -0.56239273E-01 -0.55320286E-01  0.46252157E-01
     atom    4 type  2   force =   0.20661988E-01  0.29842594E-01 -0.28636702E-01
     atom    5 type  2   force =  -0.19087151E-01 -0.27827467E-01  0.29393931E-01
     atom    6 type  2   force =   0.27308087E-01  0.53754089E-01 -0.40346254E-01
     atom    7 type  2   force =  -0.27358646E-01 -0.15288263E-01 -0.32397110E-01
     atom    8 type  2   force =   0.68268634E-02  0.10083846E-01  0.10822815E-01
     atom    9 type  2   force =  -0.11215451E-02  0.26360604E-01 -0.53906678E-02
     atom   10 type  2   force =   0.16491898E-01  0.38584018E-02 -0.39579846E-01
     atom   11 type  2   force =  -0.22846937E-01 -0.38531194E-01  0.13175842E-01
     atom   12 type  1   force =  -0.98982758E-02  0.31690400E-01  0.39507041E-01
     atom   13 type  2   force =  -0.40316449E-01 -0.49303421E-01 -0.39147812E-01
     atom   14 type  2   force =  -0.52540404E-02 -0.12019989E-02 -0.20742201E-01
     atom   15 type  2   force =  -0.20363310E-01 -0.29616922E-01  0.34199018E-01
     atom   16 type  2   force =   0.36843350E-01 -0.77089534E-02  0.36148464E-02
     The ionic contribution  to forces
     atom    1 type  1   force =  -0.15301075E+00 -0.11713749E+01  0.15415847E+00
     atom    2 type  2   force =  -0.40530250E+01 -0.78034966E+01 -0.58578725E+01
     atom    3 type  2   force =   0.96686864E+01 -0.52442123E+01 -0.57437112E+01
     atom    4 type  2   force =   0.54038264E+01  0.56621278E+01 -0.61616327E+01
     atom    5 type  2   force =   0.86799294E+00  0.63322916E+00 -0.26792031E+01
     atom    6 type  2   force =   0.43495096E+01 -0.77251828E+01  0.59197372E+01
     atom    7 type  2   force =  -0.62045657E+00 -0.12406892E+01 -0.11060469E+01
     atom    8 type  2   force =   0.78170372E+00  0.16088719E+01 -0.12373477E+00
     atom    9 type  2   force =  -0.72759699E+01 -0.56482148E+01  0.71241713E+01
     atom   10 type  2   force =  -0.79726760E+01  0.68014342E+01  0.53453016E+01
     atom   11 type  2   force =   0.56723392E+01  0.46578987E+01  0.50676177E+01
     atom   12 type  1   force =  -0.25973150E+00  0.47410432E+00  0.37939916E+00
     atom   13 type  2   force =  -0.78883683E+00 -0.71444142E-01  0.14023479E+01
     atom   14 type  2   force =   0.74420837E+00  0.17252642E+01  0.26816121E+01
     atom   15 type  2   force =  -0.64149336E+01  0.54440498E+01 -0.66594552E+01
     atom   16 type  2   force =   0.50373672E-01  0.18976348E+01  0.25731100E+00
     The local contribution  to forces
     atom    1 type  1   force =   0.15169088E+00  0.11829779E+01 -0.14242970E+00
     atom    2 type  2   force =   0.40326955E+01  0.77068313E+01  0.57967454E+01
     atom    3 type  2   force =  -0.95514487E+01  0.53048426E+01  0.56830623E+01
     atom    4 type  2   force =  -0.54356301E+01 -0.56924038E+01  0.61720097E+01
     atom    5 type  2   force =  -0.81600750E+00 -0.58455289E+00  0.26227631E+01
     atom    6 type  2   force =  -0.43995321E+01  0.76609561E+01 -0.58904281E+01
     atom    7 type  2   force =   0.65772988E+00  0.12593530E+01  0.11060745E+01
     atom    8 type  2   force =  -0.81982156E+00 -0.16169883E+01  0.14663411E+00
     atom    9 type  2   force =   0.72559249E+01  0.56560292E+01 -0.71085247E+01
     atom   10 type  2   force =   0.79254608E+01 -0.67696701E+01 -0.53154862E+01
     atom   11 type  2   force =  -0.56320487E+01 -0.46335478E+01 -0.50912481E+01
     atom   12 type  1   force =   0.24152832E+00 -0.49697213E+00 -0.36610151E+00
     atom   13 type  2   force =   0.84588098E+00  0.85566270E-01 -0.13492176E+01
     atom   14 type  2   force =  -0.74903086E+00 -0.17013335E+01 -0.26448638E+01
     atom   15 type  2   force =   0.64338445E+01 -0.54289806E+01  0.66031800E+01
     atom   16 type  2   force =  -0.95120291E-01 -0.18753383E+01 -0.25077542E+00
     The core correction contribution to forces
     atom    1 type  1   force =  -0.98914736E-03  0.32812545E-02  0.53759300E-03
     atom    2 type  2   force =  -0.31612118E-02  0.10154830E-02 -0.39240013E-03
     atom    3 type  2   force =  -0.37912329E-02  0.17785375E-02  0.80290245E-03
     atom    4 type  2   force =   0.56366399E-03 -0.66093212E-04  0.35340064E-03
     atom    5 type  2   force =  -0.16818972E-02 -0.17755297E-02  0.32638312E-02
     atom    6 type  2   force =   0.25564960E-02 -0.11873306E-02  0.77198595E-03
     atom    7 type  2   force =   0.92954755E-03  0.22383357E-02  0.14515846E-02
     atom    8 type  2   force =   0.11891868E-02 -0.20316125E-02 -0.17804683E-02
     atom    9 type  2   force =  -0.22941018E-03 -0.23839770E-02 -0.68265393E-03
     atom   10 type  2   force =   0.22072910E-02 -0.26779592E-02  0.17654989E-02
     atom   11 type  2   force =   0.27936620E-02  0.34760627E-02  0.57173913E-03
     atom   12 type  1   force =   0.10036036E-02 -0.28179687E-02 -0.33974822E-02
     atom   13 type  2   force =  -0.22775597E-04  0.30465680E-02 -0.77667636E-03
     atom   14 type  2   force =  -0.16507674E-02 -0.24626656E-02 -0.21424791E-02
     atom   15 type  2   force =   0.41851154E-03  0.25903365E-02  0.55701155E-03
     atom   16 type  2   force =  -0.52877003E-03 -0.27614739E-02 -0.64677638E-03
     The Hubbard contrib.    to forces
     atom    1 type  1   force =   0.00000000E+00  0.00000000E+00  0.00000000E+00
     atom    2 type  2   force =   0.00000000E+00  0.00000000E+00  0.00000000E+00
     atom    3 type  2   force =   0.00000000E+00  0.00000000E+00  0.00000000E+00
     atom    4 type  2   force =   0.00000000E+00  0.00000000E+00  0.00000000E+00
     atom    5 type  2   force =   0.00000000E+00  0.00000000E+00  0.00000000E+00
     atom    6 type  2   force =   0.00000000E+00  0.00000000E+00  0.00000000E+00
     atom    7 type  2   force =   0.00000000E+00  0.00000000E+00  0.00000000E+00
     atom    8 type  2   force =   0.00000000E+00  0.00000000E+00  0.00000000E+00
     atom    9 type  2   force =   0.00000000E+00  0.00000000E+00  0.00000000E+00
     atom   10 type  2   force =   0.00000000E+00  0.00000000E+00  0.00000000E+00
     atom   11 type  2   force =   0.00000000E+00  0.00000000E+00  0.00000000E+00
     atom   12 type  1   force =   0.00000000E+00  0.00000000E+00  0.00000000E+00
     atom   13 type  2   force =   0.00000000E+00  0.00000000E+00  0.00000000E+00
     atom   14 type  2   force =   0.00000000E+00  0.00000000E+00  0.00000000E+00
     atom   15 type  2   force =   0.00000000E+00  0.00000000E+00  0.00000000E+00
     atom   16 type  2   force =   0.00000000E+00  0.00000000E+00  0.00000000E+00
     The SCF correction term to forces
     atom    1 type  1   force =   0.72813756E-06 -0.43555549E-06  0.33844017E-06
     atom    2 type  2   force =   0.54453668E-05  0.10202445E-04  0.61162165E-05
     atom    3 type  2   force =  -0.82623101E-05  0.12294033E-05 -0.98515459E-06
     atom    4 type  2   force =  -0.13666089E-05 -0.63231124E-05  0.63193782E-05
     atom    5 type  2   force =  -0.65337320E-05 -0.69941326E-05 -0.18398380E-05
     atom    6 type  2   force =  -0.41028915E-05  0.10349895E-04 -0.65356757E-05
     atom    7 type  2   force =   0.73727441E-05 -0.78911335E-07 -0.18871663E-05
     atom    8 type  2   force =   0.45055981E-06 -0.76623336E-06 -0.38603177E-05
     atom    9 type  2   force =   0.33531237E-05  0.40066065E-05 -0.81977142E-06
     atom   10 type  2   force =   0.41846750E-05 -0.76954171E-05 -0.63623435E-05
     atom   11 type  2   force =  -0.11478880E-04 -0.10199617E-05 -0.18498318E-05
     atom   12 type  1   force =   0.69723227E-06  0.52538295E-06 -0.11502836E-05
     atom   13 type  2   force =  -0.79093020E-05  0.41650582E-06  0.55120852E-05
     atom   14 type  2   force =   0.17588817E-05 -0.41791163E-05  0.19869672E-05
     atom   15 type  2   force =   0.72324802E-05 -0.40787738E-05  0.46865948E-05
     atom   16 type  2   force =   0.23090560E-05  0.40541553E-05  0.12827394E-05

     Total force =     0.152967     Total SCF correction =     0.000034


     entering subroutine stress ...

          total   stress  (Ry/bohr**3)                   (kbar)     P=    3.98
   0.0000227589   0.0000638499   0.0001054419          3.35      9.39     15.51
   0.0000638499   0.0000520200  -0.0000262511          9.39      7.65     -3.86
   0.0001054419  -0.0000262511   0.0000063083         15.51     -3.86      0.93

     kinetic stress (kbar)   9198.94     -5.92     15.84
                               -5.92   9204.51     18.65
                               15.84     18.65   9195.33

     local   stress (kbar)    831.94  -1405.93    -76.49
                            -1405.93    401.02    618.86
                              -76.49    618.86  -1200.14

     nonloc. stress (kbar)   2851.94      7.47      5.42
                                7.47   2848.74     -8.02
                                5.42     -8.02   2851.99

     hartree stress (kbar)  23967.09    581.05     14.34
                              581.05  24192.77   -142.83
                               14.34   -142.83  24887.22

     exc-cor stress (kbar)  17550.27      0.29      0.07
                                0.29  17550.16     -0.43
                                0.07     -0.43  17550.41

     corecor stress (kbar) -26319.81     -0.61     -0.36
                               -0.61 -26319.57      0.60
                               -0.36      0.60 -26319.64

     ewald   stress (kbar) -28077.02    833.04     56.70
                              833.04 -27869.97   -490.71
                               56.70   -490.71 -26964.24

     hubbard stress (kbar)      0.00      0.00      0.00
                                0.00      0.00      0.00
                                0.00      0.00      0.00

     london  stress (kbar)      0.00      0.00      0.00
                                0.00      0.00      0.00
                                0.00      0.00      0.00

     XDM     stress (kbar)      0.00      0.00      0.00
                                0.00      0.00      0.00
                                0.00      0.00      0.00

     dft-nl  stress (kbar)      0.00      0.00      0.00
                                0.00      0.00      0.00
                                0.00      0.00      0.00



     Writing output data file Si_diamond.scf.in.super.222.replace1660.save

     init_run     :     18.18s CPU     16.82s WALL (       1 calls)
     electrons    :    912.06s CPU    817.16s WALL (       1 calls)
     forces       :      9.13s CPU      7.30s WALL (       1 calls)
     stress       :     17.27s CPU     16.89s WALL (       1 calls)

     Called by init_run:
     wfcinit      :     16.49s CPU     15.13s WALL (       1 calls)
     potinit      :      0.42s CPU      0.43s WALL (       1 calls)

     Called by electrons:
     c_bands      :    831.84s CPU    740.95s WALL (      13 calls)
     sum_band     :     75.37s CPU     71.26s WALL (      13 calls)
     v_of_rho     :      0.55s CPU      0.58s WALL (      13 calls)
     v_h          :      0.03s CPU      0.03s WALL (      13 calls)
     v_xc         :      0.62s CPU      0.65s WALL (      15 calls)
     newd         :      3.83s CPU      3.84s WALL (      13 calls)
     mix_rho      :      0.66s CPU      0.67s WALL (      13 calls)

     Called by c_bands:
     init_us_2    :      2.46s CPU      2.61s WALL (    1044 calls)
     cegterg      :    819.66s CPU    728.30s WALL (     468 calls)

     Called by sum_band:
     sum_band:bec :      1.28s CPU      1.30s WALL (     468 calls)
     addusdens    :      4.09s CPU      4.10s WALL (      13 calls)

     Called by *egterg:
     h_psi        :    296.23s CPU    272.18s WALL (    1733 calls)
     s_psi        :     46.04s CPU     30.23s WALL (    1733 calls)
     g_psi        :      0.62s CPU      0.64s WALL (    1229 calls)
     cdiaghg      :    317.54s CPU    288.03s WALL (    1661 calls)
     cegterg:over :     75.95s CPU     62.33s WALL (    1229 calls)
     cegterg:upda :     30.38s CPU     20.05s WALL (    1229 calls)
     cegterg:last :     18.65s CPU     11.61s WALL (     468 calls)

     Called by h_psi:
     h_psi:vloc   :    186.27s CPU    192.02s WALL (    1733 calls)
     h_psi:vnl    :    109.54s CPU     79.67s WALL (    1733 calls)
     add_vuspsi   :     48.31s CPU     31.99s WALL (    1733 calls)

     General routines
     calbec       :     91.83s CPU     72.21s WALL (    2273 calls)
     fft          :      0.86s CPU      0.90s WALL (     233 calls)
     ffts         :      0.48s CPU      0.49s WALL (     371 calls)
     fftw         :    216.21s CPU    222.48s WALL (  331118 calls)
     interpolate  :      0.13s CPU      0.13s WALL (      26 calls)

     Parallel routines
     fft_scatter  :     96.77s CPU    100.25s WALL (  331722 calls)

     PWSCF        : 15m59.79s CPU    14m22.05s WALL


   This run was terminated on:  19: 1:34   4Apr2018            

=------------------------------------------------------------------------------=
   JOB DONE.
=------------------------------------------------------------------------------=
