
     Program PWSCF v.5.1 starts on  4Apr2018 at 19: 9:55 

     This program is part of the open-source Quantum ESPRESSO suite
     for quantum simulation of materials; please cite
         "P. Giannozzi et al., J. Phys.:Condens. Matter 21 395502 (2009);
          URL http://www.quantum-espresso.org", 
     in publications or presentations arising from this work. More details at
     http://www.quantum-espresso.org/quote

     Parallel version (MPI), running on    16 processors
     R & G space division:  proc/nbgrp/npool/nimage =      16
     Waiting for input...
     Reading input from standard input
Warning: card &IONS ignored
Warning: card   ION_DYNAMICS='BFGS', ignored
Warning: card / ignored
Warning: card &CELL ignored
Warning: card  CELL_DYNAMICS = 'BFGS' ignored
Warning: card / ignored

     Current dimensions of program PWSCF are:
     Max number of different atomic species (ntypx) = 10
     Max number of k-points (npk) =  40000
     Max angular momentum in pseudopotentials (lmaxx) =  3
 kfg - two_fermi_energies  F

     Subspace diagonalization in iterative solution of the eigenvalue problem:
     a serial algorithm will be used


     Parallelization info
     --------------------
     sticks:   dense  smooth     PW     G-vecs:    dense   smooth      PW
     Min         189     131     37                 6802     3972     603
     Max         190     132     38                 6804     3994     605
     Sum        3029    2109    595               108849    63685    9663



     bravais-lattice index     =            0
     lattice parameter (alat)  =    14.867521171  a.u.
     unit-cell volume          =    2278.4791 (a.u.)^3
     number of atoms/cell      =           16
     number of atomic types    =            2
     number of electrons       =       134.00
     number of Kohn-Sham states=           80
     kinetic-energy cutoff     =      35.0000  Ry
     charge density cutoff     =     200.0000  Ry
     convergence threshold     =      1.0E-09
     mixing beta               =       0.3000
     number of iterations used =            8  local-TF  mixing
     Exchange-correlation      = SLA  PW   PSX  PSC ( 1  4 10  8 0)
     A smooth kinetic-energy cutoff is imposed at      34.5000 Ry
     height of the smooth step-function =             800.0000 Ry
     width of the smooth step-function  =               1.0000 Ry


     celldm(1)=  14.867521  celldm(2)=   0.000000  celldm(3)=   0.000000
     celldm(4)=   0.000000  celldm(5)=   0.000000  celldm(6)=   0.000000

     crystal axes: (cart. coord. in units of alat)
               a(1) = (   0.008916992541   0.711838104891   0.702286978143 )  
               a(2) = (   0.700659806482   0.002129105133   0.709074865551 )  
               a(3) = (   0.695753346649   0.713719532466   0.007035564966 )  

     reciprocal axes: (cart. coord. in units 2 pi/alat)
               b(1) = ( -0.729924  0.704461  0.719146 )  
               b(2) = (  0.715734 -0.704668  0.705164 )  
               b(3) = (  0.725864  0.700609 -0.719354 )  


     PseudoPot. # 1 for Si read from file:
     /users/kfg/psuedo/gbrv_1.5/si.pbesol.UPF
     MD5 check sum: ef58ba74faed4df802eb8a9742fc00a8
     Pseudo is Ultrasoft + core correction, Zval =  4.0
     Generated by new atomic code, or converted to UPF format
     Using radial grid of  899 points,  6 beta functions with: 
                l(1) =   0
                l(2) =   0
                l(3) =   1
                l(4) =   1
                l(5) =   2
                l(6) =   2
     Q(r) pseudized with  8 coefficients,  rinner =    0.900   0.900   0.900
                                                       0.900   0.900

     PseudoPot. # 2 for Ge read from file:
     /users/kfg/psuedo/gbrv_1.5/ge.pbesol.UPF
     MD5 check sum: 7bed0412183f5e553a4d27ec7023354d
     Pseudo is Ultrasoft + core correction, Zval = 14.0
     Generated by new atomic code, or converted to UPF format
     Using radial grid of  873 points,  6 beta functions with: 
                l(1) =   0
                l(2) =   0
                l(3) =   1
                l(4) =   1
                l(5) =   2
                l(6) =   2
     Q(r) pseudized with  8 coefficients,  rinner =    1.400   1.400   1.400
                                                       1.400   1.400

     atomic species   valence    mass     pseudopotential
        Si             4.00    28.08550     Si( 1.00)
        Ge            14.00    72.59000     Ge( 1.00)

     No symmetry found


                                    s                        frac. trans.

      isym =  1     identity                                     

 cryst.   s( 1) = (     1          0          0      )
                  (     0          1          0      )
                  (     0          0          1      )

 cart.    s( 1) = (  1.0000000  0.0000000  0.0000000 )
                  (  0.0000000  1.0000000  0.0000000 )
                  (  0.0000000 -0.0000000  1.0000000 )


     point group C_1 (1)    
     there are  1 classes
     the character table:

       E    
A      1.00

     the symmetry operations in each class:
     E        1

   Cartesian axes

     site n.     atom                  positions (alat units)
         1           Si  tau(   1) = (   -0.00577924132    0.00299442989    0.00107035150  )
         2           Ge  tau(   2) = (    0.15894647475    0.20290028292    0.18893839115  )
         3           Ge  tau(   3) = (    0.31351764967    0.38059602170   -0.00691584069  )
         4           Si  tau(   4) = (    0.53010042885    0.52643500933    0.16008301699  )
         5           Si  tau(   5) = (    0.33380586929    0.01527079378    0.34903138875  )
         6           Si  tau(   6) = (    0.51494868896    0.17427626553    0.51987706582  )
         7           Ge  tau(   7) = (    0.70595879217    0.33837171913    0.33325415977  )
         8           Si  tau(   8) = (    0.84794044199    0.54291145972    0.50615478333  )
         9           Si  tau(   9) = (    0.00326872447    0.35096603323    0.38927788159  )
        10           Ge  tau(  10) = (    0.19939668127    0.55084997326    0.54030982803  )
        11           Si  tau(  11) = (    0.39839442681    0.69558916157    0.34917597094  )
        12           Si  tau(  12) = (    0.51552571494    0.89310067277    0.54772197475  )
        13           Ge  tau(  13) = (    0.37954193819    0.37351215809    0.71418368242  )
        14           Si  tau(  14) = (    0.54135211635    0.52932573616    0.92207951810  )
        15           Ge  tau(  15) = (    0.68484771352    0.69638486299    0.72237988895  )
        16           Ge  tau(  16) = (    0.90488430847    0.86494913237    0.85536498191  )

   Crystallographic axes

     site n.     atom                  positions (cryst. coord.)
         1           Si  tau(   1) = (    0.00709760199   -0.00549170659   -0.00286698227  )
         2           Ge  tau(   2) = (    0.16279073046    0.10401857760    0.12161383768  )
         3           Ge  tau(   3) = (    0.03429742379   -0.04867553133    0.49919531086  )
         4           Si  tau(   4) = (    0.09904288982    0.12133363277    0.63844991421  )
         5           Si  tau(   5) = (    0.01810937145    0.47427983111    0.00191960770  )
         6           Si  tau(   6) = (    0.12076499763    0.61235804210    0.12190693945  )
         7           Ge  tau(   7) = (   -0.03726814050    0.50183780794    0.50976906143  )
         8           Si  tau(   8) = (    0.12752705519    0.58124954857    0.63175418428  )
         9           Si  tau(   9) = (    0.52480343071    0.02952968430   -0.03176586474  )
        10           Ge  tau(  10) = (    0.63106935428    0.13555556973    0.14199155745  )
        11           Si  tau(  11) = (    0.45032608881    0.04121115104    0.52533541819  )
        12           Si  tau(  12) = (    0.64675181411    0.12587341611    0.60591040272  )
        13           Ge  tau(  13) = (    0.49969024511    0.51206564434    0.02343127606  )
        14           Si  tau(  14) = (    0.64085313376    0.66468249695    0.10049728742  )
        15           Ge  tau(  15) = (    0.51018567823    0.50884486749    0.46535348597  )
        16           Ge  tau(  16) = (    0.56395832516    0.64132696786    0.64750456361  )

     number of k points=    36  gaussian smearing, width (Ry)=  0.0150
                       cart. coord. in units 2pi/alat
        k(    1) = (   0.0000000   0.0000000   0.0000000), wk =   0.0312500
        k(    2) = (   0.1814661   0.1751523  -0.1798385), wk =   0.0625000
        k(    3) = (  -0.3629322  -0.3503046   0.3596769), wk =   0.0312500
        k(    4) = (   0.1789335  -0.1761671   0.1762910), wk =   0.0625000
        k(    5) = (   0.3603996  -0.0010148  -0.0035474), wk =   0.0625000
        k(    6) = (  -0.1839987  -0.5264717   0.5359680), wk =   0.0625000
        k(    7) = (  -0.0025326  -0.3513194   0.3561295), wk =   0.0625000
        k(    8) = (  -0.3578670   0.3523342  -0.3525821), wk =   0.0312500
        k(    9) = (  -0.1764009   0.5274865  -0.5324206), wk =   0.0625000
        k(   10) = (  -0.7207993   0.0020296   0.0070948), wk =   0.0312500
        k(   11) = (  -0.1824809   0.1761151   0.1797865), wk =   0.0625000
        k(   12) = (  -0.0010148   0.3512674  -0.0000520), wk =   0.0625000
        k(   13) = (  -0.5454132  -0.1741894   0.5394634), wk =   0.0625000
        k(   14) = (  -0.3639470   0.0009629   0.3596249), wk =   0.0625000
        k(   15) = (  -0.0035474  -0.0000520   0.3560775), wk =   0.0625000
        k(   16) = (   0.1779187   0.1751003   0.1762391), wk =   0.0625000
        k(   17) = (  -0.3664796  -0.3503565   0.7157545), wk =   0.0625000
        k(   18) = (  -0.1850135  -0.1752043   0.5359160), wk =   0.0625000
        k(   19) = (  -0.5403480   0.5284493  -0.1727956), wk =   0.0625000
        k(   20) = (  -0.3588819   0.7036016  -0.3526341), wk =   0.0625000
        k(   21) = (  -0.9032802   0.1781448   0.1868813), wk =   0.0625000
        k(   22) = (  -0.7218141   0.3532971   0.0070428), wk =   0.0625000
        k(   23) = (  -0.3614144   0.3522822   0.0034954), wk =   0.0625000
        k(   24) = (  -0.1799483   0.5274345  -0.1763430), wk =   0.0625000
        k(   25) = (  -0.7243467   0.0019777   0.3631724), wk =   0.0625000
        k(   26) = (  -0.5428806   0.1771300   0.1833339), wk =   0.0625000
        k(   27) = (   0.3649619  -0.3522303  -0.3595730), wk =   0.0312500
        k(   28) = (   0.5464280  -0.1770780  -0.5394114), wk =   0.0625000
        k(   29) = (   0.0020296  -0.7025349   0.0001039), wk =   0.0312500
        k(   30) = (   0.5438954  -0.5283974  -0.1832819), wk =   0.0625000
        k(   31) = (   0.7253615  -0.3532451  -0.3631204), wk =   0.0625000
        k(   32) = (   0.1809631  -0.8787020   0.1763950), wk =   0.0625000
        k(   33) = (   0.3624293  -0.7035497  -0.0034435), wk =   0.0625000
        k(   34) = (   0.0070948   0.0001039  -0.7121551), wk =   0.0312500
        k(   35) = (   0.1885609   0.1752562  -0.8919935), wk =   0.0625000
        k(   36) = (  -0.3558374  -0.3502007  -0.3524782), wk =   0.0312500

                       cryst. coord.
        k(    1) = (   0.0000000   0.0000000   0.0000000), wk =   0.0312500
        k(    2) = (   0.0000000   0.0000000   0.2500000), wk =   0.0625000
        k(    3) = (   0.0000000   0.0000000  -0.5000000), wk =   0.0312500
        k(    4) = (   0.0000000   0.2500000   0.0000000), wk =   0.0625000
        k(    5) = (  -0.0000000   0.2500000   0.2500000), wk =   0.0625000
        k(    6) = (  -0.0000000   0.2500000  -0.5000000), wk =   0.0625000
        k(    7) = (   0.0000000   0.2500000  -0.2500000), wk =   0.0625000
        k(    8) = (   0.0000000  -0.5000000  -0.0000000), wk =   0.0312500
        k(    9) = (   0.0000000  -0.5000000   0.2500000), wk =   0.0625000
        k(   10) = (   0.0000000  -0.5000000  -0.5000000), wk =   0.0312500
        k(   11) = (   0.2500000   0.0000000  -0.0000000), wk =   0.0625000
        k(   12) = (   0.2500000  -0.0000000   0.2500000), wk =   0.0625000
        k(   13) = (   0.2500000  -0.0000000  -0.5000000), wk =   0.0625000
        k(   14) = (   0.2500000  -0.0000000  -0.2500000), wk =   0.0625000
        k(   15) = (   0.2500000   0.2500000   0.0000000), wk =   0.0625000
        k(   16) = (   0.2500000   0.2500000   0.2500000), wk =   0.0625000
        k(   17) = (   0.2500000   0.2500000  -0.5000000), wk =   0.0625000
        k(   18) = (   0.2500000   0.2500000  -0.2500000), wk =   0.0625000
        k(   19) = (   0.2500000  -0.5000000   0.0000000), wk =   0.0625000
        k(   20) = (   0.2500000  -0.5000000   0.2500000), wk =   0.0625000
        k(   21) = (   0.2500000  -0.5000000  -0.5000000), wk =   0.0625000
        k(   22) = (   0.2500000  -0.5000000  -0.2500000), wk =   0.0625000
        k(   23) = (   0.2500000  -0.2500000  -0.0000000), wk =   0.0625000
        k(   24) = (   0.2500000  -0.2500000   0.2500000), wk =   0.0625000
        k(   25) = (   0.2500000  -0.2500000  -0.5000000), wk =   0.0625000
        k(   26) = (   0.2500000  -0.2500000  -0.2500000), wk =   0.0625000
        k(   27) = (  -0.5000000   0.0000000   0.0000000), wk =   0.0312500
        k(   28) = (  -0.5000000   0.0000000   0.2500000), wk =   0.0625000
        k(   29) = (  -0.5000000   0.0000000  -0.5000000), wk =   0.0312500
        k(   30) = (  -0.5000000   0.2500000   0.0000000), wk =   0.0625000
        k(   31) = (  -0.5000000   0.2500000   0.2500000), wk =   0.0625000
        k(   32) = (  -0.5000000   0.2500000  -0.5000000), wk =   0.0625000
        k(   33) = (  -0.5000000   0.2500000  -0.2500000), wk =   0.0625000
        k(   34) = (  -0.5000000  -0.5000000  -0.0000000), wk =   0.0312500
        k(   35) = (  -0.5000000  -0.5000000   0.2500000), wk =   0.0625000
        k(   36) = (  -0.5000000  -0.5000000  -0.5000000), wk =   0.0312500

     Dense  grid:   108849 G-vectors     FFT dimensions: (  72,  72,  72)

     Smooth grid:    63685 G-vectors     FFT dimensions: (  60,  60,  60)

     Largest allocated arrays     est. size (Mb)     dimensions
        Kohn-Sham Wavefunctions         0.62 Mb     (     507,   80)
        NL pseudopotentials             2.23 Mb     (     507,  288)
        Each V/rho on FFT grid          0.40 Mb     (   25920)
        Each G-vector array             0.05 Mb     (    6803)
        G-vector shells                 0.05 Mb     (    6724)
     Largest temporary arrays     est. size (Mb)     dimensions
        Auxiliary wavefunctions         2.48 Mb     (     507,  320)
        Each subspace H/S matrix        1.56 Mb     (     320,  320)
        Each <psi_i|beta_j> matrix      0.35 Mb     (     288,   80)
        Arrays for rho mixing           3.16 Mb     (   25920,    8)

     Initial potential from superposition of free atoms

     starting charge  133.98851, renormalised to  134.00000
     Starting wfc are   99 randomized atomic wfcs

     total cpu time spent up to now is       13.7 secs

     Self-consistent Calculation

     iteration #  1     ecut=    35.00 Ry     beta=0.30
     Davidson diagonalization with overlap
     ethr =  1.00E-02,  avg # of iterations =  3.0

     Threshold (ethr) on eigenvalues was too large:
     Diagonalizing with lowered threshold

     Davidson diagonalization with overlap
     ethr =  2.67E-04,  avg # of iterations =  5.0

     total cpu time spent up to now is       98.2 secs

     total energy              =   -1578.30252985 Ry
     Harris-Foulkes estimate   =   -1578.34056995 Ry
     estimated scf accuracy    <       0.35651232 Ry

     iteration #  2     ecut=    35.00 Ry     beta=0.30
     Davidson diagonalization with overlap
     ethr =  2.66E-04,  avg # of iterations =  1.0

     total cpu time spent up to now is      123.8 secs

     total energy              =   -1578.22961259 Ry
     Harris-Foulkes estimate   =   -1578.30461196 Ry
     estimated scf accuracy    <       0.21871158 Ry

     iteration #  3     ecut=    35.00 Ry     beta=0.30
     Davidson diagonalization with overlap
     ethr =  1.63E-04,  avg # of iterations =  2.1

     total cpu time spent up to now is      153.7 secs

     total energy              =   -1578.24573342 Ry
     Harris-Foulkes estimate   =   -1578.24575387 Ry
     estimated scf accuracy    <       0.00288657 Ry

     iteration #  4     ecut=    35.00 Ry     beta=0.30
     Davidson diagonalization with overlap
     ethr =  2.15E-06,  avg # of iterations =  8.8

     total cpu time spent up to now is      229.9 secs

     total energy              =   -1578.24631252 Ry
     Harris-Foulkes estimate   =   -1578.24626704 Ry
     estimated scf accuracy    <       0.00156185 Ry

     iteration #  5     ecut=    35.00 Ry     beta=0.30
     Davidson diagonalization with overlap
     ethr =  1.17E-06,  avg # of iterations =  2.0

     total cpu time spent up to now is      266.7 secs

     total energy              =   -1578.24642584 Ry
     Harris-Foulkes estimate   =   -1578.24644324 Ry
     estimated scf accuracy    <       0.00009084 Ry

     iteration #  6     ecut=    35.00 Ry     beta=0.30
     Davidson diagonalization with overlap
     ethr =  6.78E-08,  avg # of iterations =  2.0

     total cpu time spent up to now is      296.9 secs

     total energy              =   -1578.24642124 Ry
     Harris-Foulkes estimate   =   -1578.24643302 Ry
     estimated scf accuracy    <       0.00003235 Ry

     iteration #  7     ecut=    35.00 Ry     beta=0.30
     Davidson diagonalization with overlap
     ethr =  2.41E-08,  avg # of iterations =  2.1

     total cpu time spent up to now is      329.8 secs

     total energy              =   -1578.24642577 Ry
     Harris-Foulkes estimate   =   -1578.24642549 Ry
     estimated scf accuracy    <       0.00000218 Ry

     iteration #  8     ecut=    35.00 Ry     beta=0.30
     Davidson diagonalization with overlap
     ethr =  1.63E-09,  avg # of iterations =  2.2

     total cpu time spent up to now is      360.3 secs

     total energy              =   -1578.24642585 Ry
     Harris-Foulkes estimate   =   -1578.24642592 Ry
     estimated scf accuracy    <       0.00000115 Ry

     iteration #  9     ecut=    35.00 Ry     beta=0.30
     Davidson diagonalization with overlap
     ethr =  8.60E-10,  avg # of iterations =  2.1

     total cpu time spent up to now is      396.0 secs

     total energy              =   -1578.24642614 Ry
     Harris-Foulkes estimate   =   -1578.24642611 Ry
     estimated scf accuracy    <       0.00000020 Ry

     iteration # 10     ecut=    35.00 Ry     beta=0.30
     Davidson diagonalization with overlap
     ethr =  1.48E-10,  avg # of iterations =  1.1

     total cpu time spent up to now is      422.5 secs

     total energy              =   -1578.24642614 Ry
     Harris-Foulkes estimate   =   -1578.24642615 Ry
     estimated scf accuracy    <       0.00000009 Ry

     iteration # 11     ecut=    35.00 Ry     beta=0.30
     Davidson diagonalization with overlap
     ethr =  6.79E-11,  avg # of iterations =  2.0

     total cpu time spent up to now is      454.8 secs

     total energy              =   -1578.24642618 Ry
     Harris-Foulkes estimate   =   -1578.24642616 Ry
     estimated scf accuracy    <          4.6E-09 Ry

     iteration # 12     ecut=    35.00 Ry     beta=0.30
     Davidson diagonalization with overlap
     ethr =  3.44E-12,  avg # of iterations =  3.0

     total cpu time spent up to now is      495.2 secs

     total energy              =   -1578.24642618 Ry
     Harris-Foulkes estimate   =   -1578.24642618 Ry
     estimated scf accuracy    <          3.6E-09 Ry

     iteration # 13     ecut=    35.00 Ry     beta=0.30
     Davidson diagonalization with overlap
     ethr =  2.71E-12,  avg # of iterations =  2.0

     total cpu time spent up to now is      525.9 secs

     End of self-consistent calculation

          k = 0.0000 0.0000 0.0000 (  7923 PWs)   bands (ev):

   -17.4626 -17.3779 -17.3656 -17.3329 -17.3309 -17.3276 -17.3037 -17.2952
   -17.2910 -17.2748 -17.2627 -17.2623 -17.2562 -17.2482 -17.2421 -17.2169
   -17.2016 -17.1932 -17.1735 -17.1557 -17.1484 -17.1350 -17.1011 -17.0933
   -17.0805 -17.0477 -17.0371 -17.0264 -17.0095 -17.0029 -16.9780 -16.9688
   -16.9653 -16.9546 -16.9162  -5.1791  -3.2266  -2.9791  -2.9037  -2.6015
    -1.4465  -1.3624  -1.2044  -1.0210  -0.9183  -0.6913  -0.3066  -0.1264
     0.1812   0.3031   4.0950   4.1324   4.1853   4.2886   4.3501   4.4830
     5.6027   5.6531   5.8192   5.9042   5.9487   5.9890   6.1234   6.2614
     7.0280   7.0683   7.2235   7.4248   7.5217   7.5825   7.7424   7.8343
     7.9578   8.0855   8.1653   8.4074   8.5152   8.8528   9.5448   9.8237

     occupation numbers 
     1.0000   1.0000   1.0000   1.0000   1.0000   1.0000   1.0000   1.0000
     1.0000   1.0000   1.0000   1.0000   1.0000   1.0000   1.0000   1.0000
     1.0000   1.0000   1.0000   1.0000   1.0000   1.0000   1.0000   1.0000
     1.0000   1.0000   1.0000   1.0000   1.0000   1.0000   1.0000   1.0000
     1.0000   1.0000   1.0000   1.0000   1.0000   1.0000   1.0000   1.0000
     1.0000   1.0000   1.0000   1.0000   1.0000   1.0000   1.0000   1.0000
     1.0000   1.0000   1.0000   1.0000   1.0000   1.0000   1.0000   1.0000
     1.0000   1.0000   1.0000   1.0000   1.0000   1.0000   1.0000   1.0000
     0.9826   0.9665   0.7754   0.2616   0.0951   0.0417   0.0023   0.0003
     0.0000   0.0000   0.0000   0.0000   0.0000   0.0000   0.0000   0.0000

          k = 0.1815 0.1752-0.1798 (  7945 PWs)   bands (ev):

   -17.4626 -17.3778 -17.3656 -17.3329 -17.3309 -17.3276 -17.3037 -17.2952
   -17.2919 -17.2740 -17.2627 -17.2623 -17.2562 -17.2482 -17.2423 -17.2170
   -17.2016 -17.1933 -17.1726 -17.1558 -17.1485 -17.1347 -17.1017 -17.0926
   -17.0806 -17.0476 -17.0365 -17.0271 -17.0095 -17.0027 -16.9775 -16.9689
   -16.9651 -16.9555 -16.9162  -4.9787  -3.5292  -3.1415  -2.8402  -2.6023
    -2.1591  -1.8721  -1.7487  -0.4931  -0.1688  -0.0471   0.1337   0.3877
     0.5037   0.9272   3.5164   3.5933   3.7447   4.2544   4.4203   4.4816
     4.6230   4.7807   4.8832   5.2263   5.5154   5.6969   5.8212   6.0406
     6.1275   6.8442   6.9767   7.6505   7.9456   8.0602   8.1658   8.5320
     8.6782   8.9496   9.0131   9.1414   9.2805   9.3757  10.0486  10.2164

     occupation numbers 
     1.0000   1.0000   1.0000   1.0000   1.0000   1.0000   1.0000   1.0000
     1.0000   1.0000   1.0000   1.0000   1.0000   1.0000   1.0000   1.0000
     1.0000   1.0000   1.0000   1.0000   1.0000   1.0000   1.0000   1.0000
     1.0000   1.0000   1.0000   1.0000   1.0000   1.0000   1.0000   1.0000
     1.0000   1.0000   1.0000   1.0000   1.0000   1.0000   1.0000   1.0000
     1.0000   1.0000   1.0000   1.0000   1.0000   1.0000   1.0000   1.0000
     1.0000   1.0000   1.0000   1.0000   1.0000   1.0000   1.0000   1.0000
     1.0000   1.0000   1.0000   1.0000   1.0000   1.0000   1.0000   1.0000
     1.0000   0.9996   0.9932   0.0138   0.0000   0.0000   0.0000   0.0000
     0.0000   0.0000   0.0000   0.0000   0.0000   0.0000   0.0000   0.0000

          k =-0.3629-0.3503 0.3597 (  7950 PWs)   bands (ev):

   -17.4626 -17.3776 -17.3654 -17.3328 -17.3308 -17.3275 -17.3037 -17.2952
   -17.2926 -17.2732 -17.2627 -17.2623 -17.2561 -17.2482 -17.2424 -17.2171
   -17.2014 -17.1932 -17.1718 -17.1558 -17.1483 -17.1342 -17.1024 -17.0918
   -17.0808 -17.0474 -17.0358 -17.0279 -17.0092 -17.0027 -16.9767 -16.9690
   -16.9650 -16.9563 -16.9161  -4.4308  -4.3555  -3.0061  -2.7389  -2.4981
    -2.3597  -2.2932  -2.2635  -0.0584   0.1933   0.4113   0.5264   0.7960
     0.8347   2.6784   2.9458   3.2487   3.3284   3.4290   3.5462   3.7197
     3.8200   4.8238   4.8351   4.8661   5.0024   5.1214   5.2385   6.2640
     6.3248   6.4173   6.6550   8.0686   8.1971   8.3158   8.4892   8.5906
     8.6132   8.8287   8.9983  10.3843  10.4891  10.8291  10.9000  11.1720

     occupation numbers 
     1.0000   1.0000   1.0000   1.0000   1.0000   1.0000   1.0000   1.0000
     1.0000   1.0000   1.0000   1.0000   1.0000   1.0000   1.0000   1.0000
     1.0000   1.0000   1.0000   1.0000   1.0000   1.0000   1.0000   1.0000
     1.0000   1.0000   1.0000   1.0000   1.0000   1.0000   1.0000   1.0000
     1.0000   1.0000   1.0000   1.0000   1.0000   1.0000   1.0000   1.0000
     1.0000   1.0000   1.0000   1.0000   1.0000   1.0000   1.0000   1.0000
     1.0000   1.0000   1.0000   1.0000   1.0000   1.0000   1.0000   1.0000
     1.0000   1.0000   1.0000   1.0000   1.0000   1.0000   1.0000   1.0000
     1.0000   1.0000   1.0000   0.0000   0.0000   0.0000   0.0000   0.0000
     0.0000   0.0000   0.0000   0.0000   0.0000   0.0000   0.0000   0.0000

          k = 0.1789-0.1762 0.1763 (  7965 PWs)   bands (ev):

   -17.4625 -17.3777 -17.3656 -17.3327 -17.3307 -17.3275 -17.3035 -17.2951
   -17.2909 -17.2748 -17.2625 -17.2622 -17.2562 -17.2481 -17.2420 -17.2169
   -17.2015 -17.1932 -17.1729 -17.1557 -17.1485 -17.1351 -17.1013 -17.0930
   -17.0804 -17.0475 -17.0370 -17.0262 -17.0094 -17.0027 -16.9777 -16.9688
   -16.9652 -16.9546 -16.9161  -4.9861  -3.6263  -2.9775  -2.8323  -2.6467
    -2.1053  -1.9128  -1.6651  -0.4167  -0.1614  -0.1357  -0.0196   0.1947
     0.4830   1.0578   3.5571   3.6662   3.7292   4.2542   4.3608   4.5523
     4.6518   4.7581   5.0271   5.3350   5.5042   5.5760   5.8250   6.0387
     6.1270   6.8350   7.1196   7.7065   7.7714   8.0130   8.0848   8.6364
     8.7662   8.8451   9.0593   9.1403   9.1980   9.3217   9.9838  10.1781

     occupation numbers 
     1.0000   1.0000   1.0000   1.0000   1.0000   1.0000   1.0000   1.0000
     1.0000   1.0000   1.0000   1.0000   1.0000   1.0000   1.0000   1.0000
     1.0000   1.0000   1.0000   1.0000   1.0000   1.0000   1.0000   1.0000
     1.0000   1.0000   1.0000   1.0000   1.0000   1.0000   1.0000   1.0000
     1.0000   1.0000   1.0000   1.0000   1.0000   1.0000   1.0000   1.0000
     1.0000   1.0000   1.0000   1.0000   1.0000   1.0000   1.0000   1.0000
     1.0000   1.0000   1.0000   1.0000   1.0000   1.0000   1.0000   1.0000
     1.0000   1.0000   1.0000   1.0000   1.0000   1.0000   1.0000   1.0000
     1.0000   0.9997   0.9301   0.0048   0.0012   0.0000   0.0000   0.0000
     0.0000   0.0000   0.0000   0.0000   0.0000   0.0000   0.0000   0.0000

          k = 0.3604-0.0010-0.0035 (  7948 PWs)   bands (ev):

   -17.4626 -17.3779 -17.3656 -17.3328 -17.3308 -17.3274 -17.3035 -17.2951
   -17.2917 -17.2740 -17.2628 -17.2623 -17.2561 -17.2484 -17.2422 -17.2169
   -17.2016 -17.1931 -17.1733 -17.1557 -17.1484 -17.1347 -17.1012 -17.0928
   -17.0803 -17.0477 -17.0364 -17.0272 -17.0095 -17.0027 -16.9777 -16.9688
   -16.9651 -16.9553 -16.9161  -4.9113  -3.3661  -3.1859  -3.0113  -2.8661
    -2.6393  -1.2786  -1.1295  -1.0798  -0.7208   0.1852   0.4265   0.6791
     0.8008   1.1386   3.5829   3.6552   3.6969   3.7564   4.3066   4.3725
     4.5585   4.6537   4.7858   4.9121   5.5245   5.5988   5.7349   5.8419
     5.9857   6.4084   6.5632   7.5475   8.2360   8.6184   8.7462   8.7924
     8.9087   9.0227   9.0608   9.2238   9.3778   9.5284  10.2182  10.5968

     occupation numbers 
     1.0000   1.0000   1.0000   1.0000   1.0000   1.0000   1.0000   1.0000
     1.0000   1.0000   1.0000   1.0000   1.0000   1.0000   1.0000   1.0000
     1.0000   1.0000   1.0000   1.0000   1.0000   1.0000   1.0000   1.0000
     1.0000   1.0000   1.0000   1.0000   1.0000   1.0000   1.0000   1.0000
     1.0000   1.0000   1.0000   1.0000   1.0000   1.0000   1.0000   1.0000
     1.0000   1.0000   1.0000   1.0000   1.0000   1.0000   1.0000   1.0000
     1.0000   1.0000   1.0000   1.0000   1.0000   1.0000   1.0000   1.0000
     1.0000   1.0000   1.0000   1.0000   1.0000   1.0000   1.0000   1.0000
     1.0000   1.0000   1.0000   0.0683   0.0000   0.0000   0.0000   0.0000
     0.0000   0.0000   0.0000   0.0000   0.0000   0.0000   0.0000   0.0000

          k =-0.1840-0.5265 0.5360 (  7968 PWs)   bands (ev):

   -17.4625 -17.3778 -17.3655 -17.3327 -17.3307 -17.3274 -17.3035 -17.2951
   -17.2925 -17.2732 -17.2627 -17.2623 -17.2560 -17.2484 -17.2424 -17.2169
   -17.2014 -17.1931 -17.1724 -17.1557 -17.1482 -17.1342 -17.1018 -17.0920
   -17.0805 -17.0474 -17.0357 -17.0280 -17.0094 -17.0026 -16.9771 -16.9688
   -16.9650 -16.9561 -16.9161  -4.4496  -3.9782  -3.4843  -3.1286  -2.8999
    -2.3087  -1.8692  -1.6844  -0.3907  -0.0948   0.2167   0.9256   1.1893
     1.8883   2.1483   2.9117   3.0168   3.1868   3.4609   3.7506   3.8985
     4.1456   4.1913   4.3363   4.7671   4.9840   5.1401   5.2014   5.3534
     5.8806   6.0544   6.3513   8.1896   8.5286   8.9774   9.1811   9.3878
     9.4092   9.7095   9.7368   9.9410  10.2658  10.4596  10.6817  10.9135

     occupation numbers 
     1.0000   1.0000   1.0000   1.0000   1.0000   1.0000   1.0000   1.0000
     1.0000   1.0000   1.0000   1.0000   1.0000   1.0000   1.0000   1.0000
     1.0000   1.0000   1.0000   1.0000   1.0000   1.0000   1.0000   1.0000
     1.0000   1.0000   1.0000   1.0000   1.0000   1.0000   1.0000   1.0000
     1.0000   1.0000   1.0000   1.0000   1.0000   1.0000   1.0000   1.0000
     1.0000   1.0000   1.0000   1.0000   1.0000   1.0000   1.0000   1.0000
     1.0000   1.0000   1.0000   1.0000   1.0000   1.0000   1.0000   1.0000
     1.0000   1.0000   1.0000   1.0000   1.0000   1.0000   1.0000   1.0000
     1.0000   1.0000   1.0000   0.0000   0.0000   0.0000   0.0000   0.0000
     0.0000   0.0000   0.0000   0.0000   0.0000   0.0000   0.0000   0.0000

          k =-0.0025-0.3513 0.3561 (  7962 PWs)   bands (ev):

   -17.4625 -17.3776 -17.3656 -17.3327 -17.3307 -17.3275 -17.3035 -17.2951
   -17.2919 -17.2740 -17.2626 -17.2622 -17.2562 -17.2481 -17.2422 -17.2169
   -17.2014 -17.1932 -17.1720 -17.1557 -17.1485 -17.1347 -17.1020 -17.0923
   -17.0806 -17.0472 -17.0365 -17.0268 -17.0094 -17.0026 -16.9771 -16.9688
   -16.9651 -16.9555 -16.9161  -4.6653  -3.7689  -3.5729  -2.8609  -2.6062
    -2.3952  -2.1732  -1.4603  -0.4835  -0.1216   0.0879   0.7015   0.9840
     1.3916   1.6894   2.7567   3.4147   3.5114   3.7891   3.8562   4.2300
     4.2903   4.3910   4.6236   4.9851   5.0779   5.2226   5.3337   5.4772
     5.6249   5.8853   6.8820   7.9877   8.7084   8.8060   8.9757   9.2280
     9.3817   9.5778   9.6699   9.8708  10.0601  10.2532  10.4142  10.5056

     occupation numbers 
     1.0000   1.0000   1.0000   1.0000   1.0000   1.0000   1.0000   1.0000
     1.0000   1.0000   1.0000   1.0000   1.0000   1.0000   1.0000   1.0000
     1.0000   1.0000   1.0000   1.0000   1.0000   1.0000   1.0000   1.0000
     1.0000   1.0000   1.0000   1.0000   1.0000   1.0000   1.0000   1.0000
     1.0000   1.0000   1.0000   1.0000   1.0000   1.0000   1.0000   1.0000
     1.0000   1.0000   1.0000   1.0000   1.0000   1.0000   1.0000   1.0000
     1.0000   1.0000   1.0000   1.0000   1.0000   1.0000   1.0000   1.0000
     1.0000   1.0000   1.0000   1.0000   1.0000   1.0000   1.0000   1.0000
     1.0000   1.0000   0.9991   0.0000   0.0000   0.0000   0.0000   0.0000
     0.0000   0.0000   0.0000   0.0000   0.0000   0.0000   0.0000   0.0000

          k =-0.3579 0.3523-0.3526 (  7964 PWs)   bands (ev):

   -17.4622 -17.3777 -17.3656 -17.3325 -17.3306 -17.3273 -17.3033 -17.2950
   -17.2913 -17.2747 -17.2626 -17.2622 -17.2563 -17.2481 -17.2419 -17.2168
   -17.2013 -17.1930 -17.1723 -17.1557 -17.1485 -17.1352 -17.1016 -17.0928
   -17.0806 -17.0472 -17.0369 -17.0259 -17.0094 -17.0025 -16.9774 -16.9689
   -16.9653 -16.9545 -16.9160  -4.4706  -4.3801  -2.8445  -2.6471  -2.5800
    -2.5123  -2.3339  -1.9943   0.0208   0.1669   0.1958   0.3950   0.5236
     0.8364   2.7390   2.9697   3.3603   3.3808   3.4866   3.6669   3.7420
     3.9798   4.6058   4.8660   4.9017   4.9634   5.2163   5.3064   6.2171
     6.2575   6.4503   6.8534   8.1351   8.1945   8.3708   8.4204   8.5152
     8.5677   8.7334   9.0126  10.2613  10.4921  10.8573  10.9853  11.1286

     occupation numbers 
     1.0000   1.0000   1.0000   1.0000   1.0000   1.0000   1.0000   1.0000
     1.0000   1.0000   1.0000   1.0000   1.0000   1.0000   1.0000   1.0000
     1.0000   1.0000   1.0000   1.0000   1.0000   1.0000   1.0000   1.0000
     1.0000   1.0000   1.0000   1.0000   1.0000   1.0000   1.0000   1.0000
     1.0000   1.0000   1.0000   1.0000   1.0000   1.0000   1.0000   1.0000
     1.0000   1.0000   1.0000   1.0000   1.0000   1.0000   1.0000   1.0000
     1.0000   1.0000   1.0000   1.0000   1.0000   1.0000   1.0000   1.0000
     1.0000   1.0000   1.0000   1.0000   1.0000   1.0000   1.0000   1.0000
     1.0000   1.0000   0.9996   0.0000   0.0000   0.0000   0.0000   0.0000
     0.0000   0.0000   0.0000   0.0000   0.0000   0.0000   0.0000   0.0000

          k =-0.1764 0.5275-0.5324 (  7956 PWs)   bands (ev):

   -17.4624 -17.3777 -17.3656 -17.3326 -17.3306 -17.3272 -17.3032 -17.2950
   -17.2918 -17.2740 -17.2626 -17.2622 -17.2561 -17.2483 -17.2421 -17.2168
   -17.2014 -17.1928 -17.1726 -17.1556 -17.1484 -17.1347 -17.1014 -17.0925
   -17.0803 -17.0473 -17.0362 -17.0269 -17.0094 -17.0026 -16.9774 -16.9688
   -16.9650 -16.9551 -16.9160  -4.4728  -4.0099  -3.4129  -3.1292  -2.9073
    -2.2657  -1.8717  -1.6272  -0.3788  -0.1418   0.0851   0.8653   1.1737
     1.7421   2.2113   2.8777   3.0694   3.2453   3.5425   3.8086   3.9966
     4.1470   4.2486   4.4524   4.7691   4.8787   5.1083   5.2027   5.3569
     5.8156   5.9707   6.4306   8.1947   8.5726   8.9514   9.1720   9.3271
     9.4668   9.6151   9.8566  10.0244  10.3261  10.4529  10.5681  10.9738

     occupation numbers 
     1.0000   1.0000   1.0000   1.0000   1.0000   1.0000   1.0000   1.0000
     1.0000   1.0000   1.0000   1.0000   1.0000   1.0000   1.0000   1.0000
     1.0000   1.0000   1.0000   1.0000   1.0000   1.0000   1.0000   1.0000
     1.0000   1.0000   1.0000   1.0000   1.0000   1.0000   1.0000   1.0000
     1.0000   1.0000   1.0000   1.0000   1.0000   1.0000   1.0000   1.0000
     1.0000   1.0000   1.0000   1.0000   1.0000   1.0000   1.0000   1.0000
     1.0000   1.0000   1.0000   1.0000   1.0000   1.0000   1.0000   1.0000
     1.0000   1.0000   1.0000   1.0000   1.0000   1.0000   1.0000   1.0000
     1.0000   1.0000   1.0000   0.0000   0.0000   0.0000   0.0000   0.0000
     0.0000   0.0000   0.0000   0.0000   0.0000   0.0000   0.0000   0.0000

          k =-0.7208 0.0020 0.0071 (  7956 PWs)   bands (ev):

   -17.4623 -17.3778 -17.3655 -17.3326 -17.3306 -17.3271 -17.3032 -17.2949
   -17.2922 -17.2731 -17.2626 -17.2623 -17.2558 -17.2484 -17.2423 -17.2167
   -17.2014 -17.1927 -17.1730 -17.1556 -17.1481 -17.1342 -17.1012 -17.0922
   -17.0800 -17.0473 -17.0354 -17.0281 -17.0093 -17.0024 -16.9772 -16.9688
   -16.9649 -16.9557 -16.9159  -4.2042  -4.0397  -3.4275  -3.3116  -3.0969
    -2.8846  -1.2101  -1.0352  -0.9609  -0.6314   0.9606   1.2384   1.5191
     1.5768   2.8336   3.0676   3.0812   3.2336   3.2906   3.3654   3.4479
     3.5811   3.7512   3.7831   4.9610   5.0719   5.1369   5.3954   5.6418
     5.6846   5.9084   6.1512   7.8550   8.1919   8.9316   9.0128   9.2555
     9.4274   9.9292  10.0011  11.1037  11.2765  11.3437  11.4691  11.5416

     occupation numbers 
     1.0000   1.0000   1.0000   1.0000   1.0000   1.0000   1.0000   1.0000
     1.0000   1.0000   1.0000   1.0000   1.0000   1.0000   1.0000   1.0000
     1.0000   1.0000   1.0000   1.0000   1.0000   1.0000   1.0000   1.0000
     1.0000   1.0000   1.0000   1.0000   1.0000   1.0000   1.0000   1.0000
     1.0000   1.0000   1.0000   1.0000   1.0000   1.0000   1.0000   1.0000
     1.0000   1.0000   1.0000   1.0000   1.0000   1.0000   1.0000   1.0000
     1.0000   1.0000   1.0000   1.0000   1.0000   1.0000   1.0000   1.0000
     1.0000   1.0000   1.0000   1.0000   1.0000   1.0000   1.0000   1.0000
     1.0000   1.0000   1.0000   0.0001   0.0000   0.0000   0.0000   0.0000
     0.0000   0.0000   0.0000   0.0000   0.0000   0.0000   0.0000   0.0000

          k =-0.1825 0.1761 0.1798 (  7941 PWs)   bands (ev):

   -17.4626 -17.3779 -17.3657 -17.3328 -17.3307 -17.3275 -17.3036 -17.2951
   -17.2909 -17.2748 -17.2627 -17.2621 -17.2563 -17.2483 -17.2421 -17.2168
   -17.2016 -17.1932 -17.1735 -17.1558 -17.1485 -17.1349 -17.1010 -17.0933
   -17.0804 -17.0478 -17.0367 -17.0272 -17.0095 -17.0027 -16.9780 -16.9687
   -16.9650 -16.9546 -16.9164  -4.9809  -3.5685  -2.9777  -2.8893  -2.6518
    -2.0848  -2.0065  -1.7426  -0.3631  -0.1964  -0.0912   0.0401   0.2330
     0.5858   1.0659   3.5391   3.6692   3.7891   4.2417   4.3060   4.4506
     4.6935   4.7563   4.9793   5.4132   5.4973   5.6064   5.7593   5.9685
     6.1458   6.8448   6.9196   7.6220   7.7578   7.9837   8.1154   8.6631
     8.7895   8.9155   9.0105   9.0692   9.2400   9.3766  10.0223  10.2643

     occupation numbers 
     1.0000   1.0000   1.0000   1.0000   1.0000   1.0000   1.0000   1.0000
     1.0000   1.0000   1.0000   1.0000   1.0000   1.0000   1.0000   1.0000
     1.0000   1.0000   1.0000   1.0000   1.0000   1.0000   1.0000   1.0000
     1.0000   1.0000   1.0000   1.0000   1.0000   1.0000   1.0000   1.0000
     1.0000   1.0000   1.0000   1.0000   1.0000   1.0000   1.0000   1.0000
     1.0000   1.0000   1.0000   1.0000   1.0000   1.0000   1.0000   1.0000
     1.0000   1.0000   1.0000   1.0000   1.0000   1.0000   1.0000   1.0000
     1.0000   1.0000   1.0000   1.0000   1.0000   1.0000   1.0000   1.0000
     1.0000   0.9996   0.9979   0.0225   0.0016   0.0000   0.0000   0.0000
     0.0000   0.0000   0.0000   0.0000   0.0000   0.0000   0.0000   0.0000

          k =-0.0010 0.3513-0.0001 (  7980 PWs)   bands (ev):

   -17.4624 -17.3778 -17.3655 -17.3327 -17.3306 -17.3274 -17.3035 -17.2950
   -17.2917 -17.2739 -17.2625 -17.2620 -17.2560 -17.2482 -17.2421 -17.2168
   -17.2015 -17.1931 -17.1725 -17.1557 -17.1483 -17.1348 -17.1018 -17.0924
   -17.0804 -17.0476 -17.0367 -17.0262 -17.0092 -17.0027 -16.9774 -16.9686
   -16.9654 -16.9554 -16.9160  -4.9232  -3.3719  -3.1361  -3.0546  -2.8176
    -2.7082  -1.2975  -1.0151  -0.9283  -0.7331   0.2143   0.3493   0.5502
     0.7103   1.1015   3.5514   3.6048   3.6572   3.7439   4.3315   4.4155
     4.5206   4.5693   4.6958   4.7534   5.4613   5.8109   5.9087   5.9756
     6.0842   6.4622   6.7750   7.8220   8.2535   8.5562   8.7289   8.8107
     8.9055   9.0429   9.1020   9.2655   9.3961   9.5378  10.2331  10.4230

     occupation numbers 
     1.0000   1.0000   1.0000   1.0000   1.0000   1.0000   1.0000   1.0000
     1.0000   1.0000   1.0000   1.0000   1.0000   1.0000   1.0000   1.0000
     1.0000   1.0000   1.0000   1.0000   1.0000   1.0000   1.0000   1.0000
     1.0000   1.0000   1.0000   1.0000   1.0000   1.0000   1.0000   1.0000
     1.0000   1.0000   1.0000   1.0000   1.0000   1.0000   1.0000   1.0000
     1.0000   1.0000   1.0000   1.0000   1.0000   1.0000   1.0000   1.0000
     1.0000   1.0000   1.0000   1.0000   1.0000   1.0000   1.0000   1.0000
     1.0000   1.0000   1.0000   1.0000   1.0000   1.0000   1.0000   1.0000
     1.0000   1.0000   0.9999   0.0003   0.0000   0.0000   0.0000   0.0000
     0.0000   0.0000   0.0000   0.0000   0.0000   0.0000   0.0000   0.0000

          k =-0.5454-0.1742 0.5395 (  7975 PWs)   bands (ev):

   -17.4625 -17.3775 -17.3653 -17.3326 -17.3306 -17.3273 -17.3035 -17.2949
   -17.2925 -17.2731 -17.2625 -17.2621 -17.2560 -17.2481 -17.2423 -17.2170
   -17.2013 -17.1931 -17.1717 -17.1557 -17.1482 -17.1343 -17.1024 -17.0915
   -17.0805 -17.0474 -17.0361 -17.0270 -17.0091 -17.0027 -16.9767 -16.9686
   -16.9653 -16.9562 -16.9158  -4.4774  -3.9500  -3.5042  -3.1555  -2.8910
    -2.2540  -1.8493  -1.6346  -0.3699  -0.0216   0.1606   0.7892   1.1882
     1.8053   2.1231   2.8103   2.9953   3.2213   3.3991   3.6058   3.8983
     4.1235   4.2670   4.4494   4.7851   4.9312   5.2099   5.3191   5.4237
     5.8723   6.1005   6.4809   8.4664   8.7324   8.9490   9.1396   9.2924
     9.4297   9.6911   9.9292  10.0108  10.3996  10.5745  10.7417  10.8696

     occupation numbers 
     1.0000   1.0000   1.0000   1.0000   1.0000   1.0000   1.0000   1.0000
     1.0000   1.0000   1.0000   1.0000   1.0000   1.0000   1.0000   1.0000
     1.0000   1.0000   1.0000   1.0000   1.0000   1.0000   1.0000   1.0000
     1.0000   1.0000   1.0000   1.0000   1.0000   1.0000   1.0000   1.0000
     1.0000   1.0000   1.0000   1.0000   1.0000   1.0000   1.0000   1.0000
     1.0000   1.0000   1.0000   1.0000   1.0000   1.0000   1.0000   1.0000
     1.0000   1.0000   1.0000   1.0000   1.0000   1.0000   1.0000   1.0000
     1.0000   1.0000   1.0000   1.0000   1.0000   1.0000   1.0000   1.0000
     1.0000   1.0000   1.0000   0.0000   0.0000   0.0000   0.0000   0.0000
     0.0000   0.0000   0.0000   0.0000   0.0000   0.0000   0.0000   0.0000

          k =-0.3639 0.0010 0.3596 (  7969 PWs)   bands (ev):

   -17.4625 -17.3778 -17.3656 -17.3328 -17.3308 -17.3275 -17.3036 -17.2951
   -17.2919 -17.2740 -17.2628 -17.2621 -17.2563 -17.2483 -17.2423 -17.2169
   -17.2015 -17.1932 -17.1726 -17.1558 -17.1484 -17.1346 -17.1018 -17.0924
   -17.0806 -17.0477 -17.0361 -17.0282 -17.0094 -17.0026 -16.9775 -16.9687
   -16.9649 -16.9554 -16.9163  -4.6450  -3.7580  -3.6096  -2.8206  -2.5543
    -2.4302  -2.3005  -1.4208  -0.6358  -0.1398   0.3081   0.6320   1.0431
     1.5743   1.7081   2.7810   3.3867   3.5503   3.6782   3.7824   4.1489
     4.3237   4.3956   4.7459   4.9033   5.0010   5.1632   5.3220   5.5197
     5.5906   5.8251   6.9573   8.1533   8.6711   8.8755   9.0694   9.1853
     9.3510   9.4395   9.5750   9.6959   9.8685  10.1091  10.2447  10.3588

     occupation numbers 
     1.0000   1.0000   1.0000   1.0000   1.0000   1.0000   1.0000   1.0000
     1.0000   1.0000   1.0000   1.0000   1.0000   1.0000   1.0000   1.0000
     1.0000   1.0000   1.0000   1.0000   1.0000   1.0000   1.0000   1.0000
     1.0000   1.0000   1.0000   1.0000   1.0000   1.0000   1.0000   1.0000
     1.0000   1.0000   1.0000   1.0000   1.0000   1.0000   1.0000   1.0000
     1.0000   1.0000   1.0000   1.0000   1.0000   1.0000   1.0000   1.0000
     1.0000   1.0000   1.0000   1.0000   1.0000   1.0000   1.0000   1.0000
     1.0000   1.0000   1.0000   1.0000   1.0000   1.0000   1.0000   1.0000
     1.0000   1.0000   0.9954   0.0000   0.0000   0.0000   0.0000   0.0000
     0.0000   0.0000   0.0000   0.0000   0.0000   0.0000   0.0000   0.0000

          k =-0.0035-0.0001 0.3561 (  7975 PWs)   bands (ev):

   -17.4625 -17.3778 -17.3657 -17.3329 -17.3306 -17.3275 -17.3036 -17.2951
   -17.2911 -17.2748 -17.2627 -17.2620 -17.2563 -17.2482 -17.2421 -17.2168
   -17.2015 -17.1933 -17.1729 -17.1558 -17.1485 -17.1350 -17.1014 -17.0930
   -17.0806 -17.0476 -17.0368 -17.0272 -17.0094 -17.0027 -16.9777 -16.9687
   -16.9651 -16.9545 -16.9164  -4.9193  -3.3673  -3.1171  -3.0419  -2.8634
    -2.6963  -1.2835  -1.0894  -0.9129  -0.7833   0.1942   0.3728   0.5217
     0.7854   1.1831   3.5292   3.5715   3.7097   3.7880   4.3337   4.4797
     4.5522   4.5892   4.6671   4.8058   5.5466   5.7845   5.8546   5.9578
     6.1002   6.3812   6.5649   7.6327   8.2547   8.5869   8.6610   8.7771
     8.8461   9.0038   9.1153   9.2502   9.4163   9.5715  10.1739  10.4484

     occupation numbers 
     1.0000   1.0000   1.0000   1.0000   1.0000   1.0000   1.0000   1.0000
     1.0000   1.0000   1.0000   1.0000   1.0000   1.0000   1.0000   1.0000
     1.0000   1.0000   1.0000   1.0000   1.0000   1.0000   1.0000   1.0000
     1.0000   1.0000   1.0000   1.0000   1.0000   1.0000   1.0000   1.0000
     1.0000   1.0000   1.0000   1.0000   1.0000   1.0000   1.0000   1.0000
     1.0000   1.0000   1.0000   1.0000   1.0000   1.0000   1.0000   1.0000
     1.0000   1.0000   1.0000   1.0000   1.0000   1.0000   1.0000   1.0000
     1.0000   1.0000   1.0000   1.0000   1.0000   1.0000   1.0000   1.0000
     1.0000   1.0000   1.0000   0.0188   0.0000   0.0000   0.0000   0.0000
     0.0000   0.0000   0.0000   0.0000   0.0000   0.0000   0.0000   0.0000

          k = 0.1779 0.1751 0.1762 (  7964 PWs)   bands (ev):

   -17.4625 -17.3779 -17.3655 -17.3328 -17.3306 -17.3274 -17.3035 -17.2950
   -17.2917 -17.2739 -17.2627 -17.2620 -17.2561 -17.2483 -17.2422 -17.2168
   -17.2015 -17.1931 -17.1732 -17.1556 -17.1483 -17.1347 -17.1012 -17.0926
   -17.0804 -17.0479 -17.0367 -17.0264 -17.0093 -17.0027 -16.9777 -16.9686
   -16.9654 -16.9553 -16.9160  -4.9890  -3.6031  -3.0541  -2.8505  -2.5488
    -2.0642  -1.9937  -1.6231  -0.4628  -0.3533  -0.0508   0.0299   0.3598
     0.4737   1.0035   3.5871   3.6084   3.6993   4.2150   4.4547   4.5197
     4.6764   4.7970   4.9055   5.2446   5.4540   5.6791   5.7183   5.9022
     6.3146   6.9230   7.0942   7.7362   7.8513   8.1024   8.1776   8.6619
     8.7332   8.8941   9.0627   9.1476   9.1886   9.3647  10.1373  10.1860

     occupation numbers 
     1.0000   1.0000   1.0000   1.0000   1.0000   1.0000   1.0000   1.0000
     1.0000   1.0000   1.0000   1.0000   1.0000   1.0000   1.0000   1.0000
     1.0000   1.0000   1.0000   1.0000   1.0000   1.0000   1.0000   1.0000
     1.0000   1.0000   1.0000   1.0000   1.0000   1.0000   1.0000   1.0000
     1.0000   1.0000   1.0000   1.0000   1.0000   1.0000   1.0000   1.0000
     1.0000   1.0000   1.0000   1.0000   1.0000   1.0000   1.0000   1.0000
     1.0000   1.0000   1.0000   1.0000   1.0000   1.0000   1.0000   1.0000
     1.0000   1.0000   1.0000   1.0000   1.0000   1.0000   1.0000   1.0000
     1.0000   0.9977   0.9508   0.0026   0.0002   0.0000   0.0000   0.0000
     0.0000   0.0000   0.0000   0.0000   0.0000   0.0000   0.0000   0.0000

          k =-0.3665-0.3504 0.7158 (  7971 PWs)   bands (ev):

   -17.4625 -17.3777 -17.3654 -17.3328 -17.3307 -17.3274 -17.3035 -17.2950
   -17.2924 -17.2731 -17.2627 -17.2620 -17.2559 -17.2483 -17.2423 -17.2169
   -17.2014 -17.1931 -17.1724 -17.1556 -17.1482 -17.1343 -17.1019 -17.0918
   -17.0805 -17.0477 -17.0360 -17.0271 -17.0092 -17.0026 -16.9771 -16.9686
   -16.9652 -16.9560 -16.9159  -4.6645  -3.7902  -3.5626  -2.8986  -2.4917
    -2.4406  -2.1558  -1.4631  -0.6372  -0.1314   0.2600   0.6790   0.9630
     1.4725   1.6580   2.7993   3.4034   3.4950   3.7583   3.8197   3.9803
     4.3403   4.4073   4.7317   4.8979   4.9905   5.1398   5.3126   5.6372
     5.7514   5.8869   7.0013   8.1295   8.6836   8.8273   9.0655   9.2392
     9.4419   9.5762   9.6358   9.7833  10.0266  10.1768  10.3763  10.4076

     occupation numbers 
     1.0000   1.0000   1.0000   1.0000   1.0000   1.0000   1.0000   1.0000
     1.0000   1.0000   1.0000   1.0000   1.0000   1.0000   1.0000   1.0000
     1.0000   1.0000   1.0000   1.0000   1.0000   1.0000   1.0000   1.0000
     1.0000   1.0000   1.0000   1.0000   1.0000   1.0000   1.0000   1.0000
     1.0000   1.0000   1.0000   1.0000   1.0000   1.0000   1.0000   1.0000
     1.0000   1.0000   1.0000   1.0000   1.0000   1.0000   1.0000   1.0000
     1.0000   1.0000   1.0000   1.0000   1.0000   1.0000   1.0000   1.0000
     1.0000   1.0000   1.0000   1.0000   1.0000   1.0000   1.0000   1.0000
     1.0000   1.0000   0.9892   0.0000   0.0000   0.0000   0.0000   0.0000
     0.0000   0.0000   0.0000   0.0000   0.0000   0.0000   0.0000   0.0000

          k =-0.1850-0.1752 0.5359 (  7962 PWs)   bands (ev):

   -17.4624 -17.3776 -17.3655 -17.3329 -17.3306 -17.3275 -17.3036 -17.2950
   -17.2919 -17.2739 -17.2627 -17.2620 -17.2562 -17.2481 -17.2422 -17.2169
   -17.2013 -17.1932 -17.1720 -17.1558 -17.1484 -17.1345 -17.1020 -17.0922
   -17.0807 -17.0474 -17.0361 -17.0280 -17.0093 -17.0025 -16.9770 -16.9687
   -16.9648 -16.9553 -16.9163  -4.4657  -3.9742  -3.4766  -3.1593  -2.8093
    -2.3983  -1.8751  -1.5868  -0.3731  -0.1205   0.1942   0.9259   1.1308
     1.8515   2.1665   2.9129   2.9472   3.1077   3.4532   3.7611   3.8708
     4.1308   4.2383   4.4132   4.7445   4.9626   5.1587   5.3211   5.4035
     5.9075   5.9965   6.5095   8.3305   8.6908   9.0137   9.1581   9.3215
     9.4722   9.5692   9.7154   9.8872  10.2966  10.4096  10.6295  10.8303

     occupation numbers 
     1.0000   1.0000   1.0000   1.0000   1.0000   1.0000   1.0000   1.0000
     1.0000   1.0000   1.0000   1.0000   1.0000   1.0000   1.0000   1.0000
     1.0000   1.0000   1.0000   1.0000   1.0000   1.0000   1.0000   1.0000
     1.0000   1.0000   1.0000   1.0000   1.0000   1.0000   1.0000   1.0000
     1.0000   1.0000   1.0000   1.0000   1.0000   1.0000   1.0000   1.0000
     1.0000   1.0000   1.0000   1.0000   1.0000   1.0000   1.0000   1.0000
     1.0000   1.0000   1.0000   1.0000   1.0000   1.0000   1.0000   1.0000
     1.0000   1.0000   1.0000   1.0000   1.0000   1.0000   1.0000   1.0000
     1.0000   1.0000   1.0000   0.0000   0.0000   0.0000   0.0000   0.0000
     0.0000   0.0000   0.0000   0.0000   0.0000   0.0000   0.0000   0.0000

          k =-0.5403 0.5284-0.1728 (  7976 PWs)   bands (ev):

   -17.4623 -17.3776 -17.3656 -17.3326 -17.3305 -17.3274 -17.3034 -17.2950
   -17.2912 -17.2747 -17.2625 -17.2620 -17.2562 -17.2480 -17.2420 -17.2167
   -17.2013 -17.1931 -17.1722 -17.1556 -17.1485 -17.1349 -17.1015 -17.0927
   -17.0806 -17.0474 -17.0367 -17.0268 -17.0093 -17.0024 -16.9773 -16.9687
   -16.9650 -16.9544 -16.9162  -4.4887  -4.0076  -3.4015  -3.0773  -2.9597
    -2.2919  -1.7990  -1.6318  -0.3277  -0.2063   0.1958   0.8080   0.9643
     1.7547   2.2687   2.8761   3.0758   3.2601   3.4823   3.7266   3.8265
     4.2180   4.2537   4.5287   4.7956   4.8993   5.2189   5.3292   5.3824
     5.8149   6.0203   6.4219   8.2642   8.6169   9.0008   9.0630   9.2771
     9.5098   9.6424   9.7917  10.0093  10.4469  10.6203  10.7466  10.8556

     occupation numbers 
     1.0000   1.0000   1.0000   1.0000   1.0000   1.0000   1.0000   1.0000
     1.0000   1.0000   1.0000   1.0000   1.0000   1.0000   1.0000   1.0000
     1.0000   1.0000   1.0000   1.0000   1.0000   1.0000   1.0000   1.0000
     1.0000   1.0000   1.0000   1.0000   1.0000   1.0000   1.0000   1.0000
     1.0000   1.0000   1.0000   1.0000   1.0000   1.0000   1.0000   1.0000
     1.0000   1.0000   1.0000   1.0000   1.0000   1.0000   1.0000   1.0000
     1.0000   1.0000   1.0000   1.0000   1.0000   1.0000   1.0000   1.0000
     1.0000   1.0000   1.0000   1.0000   1.0000   1.0000   1.0000   1.0000
     1.0000   1.0000   1.0000   0.0000   0.0000   0.0000   0.0000   0.0000
     0.0000   0.0000   0.0000   0.0000   0.0000   0.0000   0.0000   0.0000

          k =-0.3589 0.7036-0.3526 (  7966 PWs)   bands (ev):

   -17.4624 -17.3778 -17.3656 -17.3327 -17.3305 -17.3273 -17.3034 -17.2950
   -17.2917 -17.2739 -17.2626 -17.2620 -17.2562 -17.2483 -17.2422 -17.2169
   -17.2014 -17.1931 -17.1726 -17.1557 -17.1484 -17.1348 -17.1015 -17.0924
   -17.0805 -17.0477 -17.0366 -17.0263 -17.0093 -17.0026 -16.9774 -16.9686
   -16.9654 -16.9552 -16.9160  -4.6757  -3.8071  -3.6089  -2.7134  -2.5950
    -2.4262  -1.9857  -1.6068  -0.5801  -0.1034   0.0678   0.6208   0.8939
     1.4027   1.7550   2.8160   3.4187   3.5163   3.7739   3.8659   4.1460
     4.3284   4.3858   4.8228   4.8824   5.0318   5.1767   5.2512   5.5479
     5.6789   5.9430   7.0911   8.2374   8.5350   8.8331   9.1217   9.2565
     9.3663   9.5379   9.7578   9.8184   9.8843  10.1344  10.2303  10.3621

     occupation numbers 
     1.0000   1.0000   1.0000   1.0000   1.0000   1.0000   1.0000   1.0000
     1.0000   1.0000   1.0000   1.0000   1.0000   1.0000   1.0000   1.0000
     1.0000   1.0000   1.0000   1.0000   1.0000   1.0000   1.0000   1.0000
     1.0000   1.0000   1.0000   1.0000   1.0000   1.0000   1.0000   1.0000
     1.0000   1.0000   1.0000   1.0000   1.0000   1.0000   1.0000   1.0000
     1.0000   1.0000   1.0000   1.0000   1.0000   1.0000   1.0000   1.0000
     1.0000   1.0000   1.0000   1.0000   1.0000   1.0000   1.0000   1.0000
     1.0000   1.0000   1.0000   1.0000   1.0000   1.0000   1.0000   1.0000
     1.0000   1.0000   0.9529   0.0000   0.0000   0.0000   0.0000   0.0000
     0.0000   0.0000   0.0000   0.0000   0.0000   0.0000   0.0000   0.0000

          k =-0.9033 0.1781 0.1869 (  7967 PWs)   bands (ev):

   -17.4623 -17.3778 -17.3655 -17.3328 -17.3305 -17.3273 -17.3034 -17.2949
   -17.2922 -17.2731 -17.2627 -17.2620 -17.2559 -17.2484 -17.2424 -17.2168
   -17.2014 -17.1930 -17.1730 -17.1556 -17.1482 -17.1343 -17.1013 -17.0921
   -17.0803 -17.0478 -17.0359 -17.0272 -17.0093 -17.0024 -16.9773 -16.9686
   -16.9653 -16.9558 -16.9158  -4.4856  -3.9903  -3.4172  -3.1208  -2.9107
    -2.3322  -1.8016  -1.5900  -0.5348  -0.1686   0.3193   0.7513   1.1538
     1.8509   2.2322   2.9756   3.0273   3.1064   3.5341   3.7410   3.8235
     4.1463   4.3869   4.4904   4.6966   4.9204   5.1155   5.2379   5.3074
     5.7114   6.0630   6.5130   8.1460   8.6938   8.9683   9.2064   9.3982
     9.5000   9.6711   9.9427  10.1502  10.3755  10.4972  10.6051  10.8117

     occupation numbers 
     1.0000   1.0000   1.0000   1.0000   1.0000   1.0000   1.0000   1.0000
     1.0000   1.0000   1.0000   1.0000   1.0000   1.0000   1.0000   1.0000
     1.0000   1.0000   1.0000   1.0000   1.0000   1.0000   1.0000   1.0000
     1.0000   1.0000   1.0000   1.0000   1.0000   1.0000   1.0000   1.0000
     1.0000   1.0000   1.0000   1.0000   1.0000   1.0000   1.0000   1.0000
     1.0000   1.0000   1.0000   1.0000   1.0000   1.0000   1.0000   1.0000
     1.0000   1.0000   1.0000   1.0000   1.0000   1.0000   1.0000   1.0000
     1.0000   1.0000   1.0000   1.0000   1.0000   1.0000   1.0000   1.0000
     1.0000   1.0000   1.0000   0.0000   0.0000   0.0000   0.0000   0.0000
     0.0000   0.0000   0.0000   0.0000   0.0000   0.0000   0.0000   0.0000

          k =-0.7218 0.3533 0.0070 (  7987 PWs)   bands (ev):

   -17.4625 -17.3778 -17.3656 -17.3328 -17.3305 -17.3274 -17.3034 -17.2950
   -17.2919 -17.2740 -17.2627 -17.2620 -17.2561 -17.2483 -17.2422 -17.2168
   -17.2014 -17.1930 -17.1726 -17.1557 -17.1484 -17.1346 -17.1015 -17.0925
   -17.0804 -17.0475 -17.0359 -17.0281 -17.0093 -17.0024 -16.9773 -16.9687
   -16.9648 -16.9551 -16.9163  -4.0904  -3.9754  -3.7822  -3.6691  -2.4580
    -2.1816  -1.9942  -1.8724  -0.1213  -0.0064   0.3397   0.4643   2.1817
     2.2925   2.5606   2.6683   2.8195   2.9057   3.0452   3.1984   4.1483
     4.2397   4.3251   4.3917   4.4698   4.5668   4.7281   4.8713   5.5433
     5.7142   5.7976   5.9997   9.0647   9.2062   9.3592   9.4728   9.5971
     9.7722   9.8939  10.0065  10.1368  10.3084  10.5295  10.6770  10.9767

     occupation numbers 
     1.0000   1.0000   1.0000   1.0000   1.0000   1.0000   1.0000   1.0000
     1.0000   1.0000   1.0000   1.0000   1.0000   1.0000   1.0000   1.0000
     1.0000   1.0000   1.0000   1.0000   1.0000   1.0000   1.0000   1.0000
     1.0000   1.0000   1.0000   1.0000   1.0000   1.0000   1.0000   1.0000
     1.0000   1.0000   1.0000   1.0000   1.0000   1.0000   1.0000   1.0000
     1.0000   1.0000   1.0000   1.0000   1.0000   1.0000   1.0000   1.0000
     1.0000   1.0000   1.0000   1.0000   1.0000   1.0000   1.0000   1.0000
     1.0000   1.0000   1.0000   1.0000   1.0000   1.0000   1.0000   1.0000
     1.0000   1.0000   1.0000   0.0000   0.0000   0.0000   0.0000   0.0000
     0.0000   0.0000   0.0000   0.0000   0.0000   0.0000   0.0000   0.0000

          k =-0.3614 0.3523 0.0035 (  7964 PWs)   bands (ev):

   -17.4624 -17.3777 -17.3655 -17.3326 -17.3306 -17.3274 -17.3034 -17.2949
   -17.2910 -17.2748 -17.2626 -17.2621 -17.2561 -17.2482 -17.2419 -17.2168
   -17.2014 -17.1930 -17.1729 -17.1557 -17.1485 -17.1349 -17.1013 -17.0930
   -17.0804 -17.0475 -17.0366 -17.0269 -17.0093 -17.0026 -16.9776 -16.9686
   -16.9650 -16.9545 -16.9162  -4.6632  -3.8368  -3.5025  -2.7646  -2.6737
    -2.3484  -2.2311  -1.5041  -0.4996  -0.0405   0.0240   0.6725   0.8230
     1.6139   1.6867   2.7786   3.4966   3.6055   3.6919   3.7978   4.2194
     4.3814   4.4574   4.6684   4.9506   4.9973   5.1820   5.3086   5.4970
     5.6156   5.8333   6.8713   8.0121   8.6968   8.8194   8.9057   9.2341
     9.3850   9.5646   9.6354   9.7926   9.8846  10.1956  10.2930  10.3357

     occupation numbers 
     1.0000   1.0000   1.0000   1.0000   1.0000   1.0000   1.0000   1.0000
     1.0000   1.0000   1.0000   1.0000   1.0000   1.0000   1.0000   1.0000
     1.0000   1.0000   1.0000   1.0000   1.0000   1.0000   1.0000   1.0000
     1.0000   1.0000   1.0000   1.0000   1.0000   1.0000   1.0000   1.0000
     1.0000   1.0000   1.0000   1.0000   1.0000   1.0000   1.0000   1.0000
     1.0000   1.0000   1.0000   1.0000   1.0000   1.0000   1.0000   1.0000
     1.0000   1.0000   1.0000   1.0000   1.0000   1.0000   1.0000   1.0000
     1.0000   1.0000   1.0000   1.0000   1.0000   1.0000   1.0000   1.0000
     1.0000   1.0000   0.9993   0.0000   0.0000   0.0000   0.0000   0.0000
     0.0000   0.0000   0.0000   0.0000   0.0000   0.0000   0.0000   0.0000

          k =-0.1799 0.5274-0.1763 (  7988 PWs)   bands (ev):

   -17.4624 -17.3777 -17.3655 -17.3326 -17.3306 -17.3274 -17.3035 -17.2949
   -17.2920 -17.2739 -17.2625 -17.2621 -17.2561 -17.2482 -17.2421 -17.2168
   -17.2013 -17.1930 -17.1720 -17.1557 -17.1484 -17.1349 -17.1021 -17.0923
   -17.0806 -17.0473 -17.0367 -17.0261 -17.0092 -17.0027 -16.9771 -16.9687
   -16.9654 -16.9555 -16.9159  -4.4859  -4.0260  -3.4594  -3.0450  -2.8609
    -2.3518  -1.8648  -1.5226  -0.3296  -0.1809   0.1524   0.8118   0.9930
     1.7442   2.2300   2.9046   3.0056   3.1058   3.5676   3.7027   3.8827
     4.1450   4.1854   4.4239   4.6866   4.9938   5.2135   5.3926   5.5005
     5.8796   5.9869   6.6880   8.4836   8.7932   9.0170   9.1562   9.3358
     9.4460   9.5527   9.6766   9.9810  10.1661  10.4750  10.6099  10.9025

     occupation numbers 
     1.0000   1.0000   1.0000   1.0000   1.0000   1.0000   1.0000   1.0000
     1.0000   1.0000   1.0000   1.0000   1.0000   1.0000   1.0000   1.0000
     1.0000   1.0000   1.0000   1.0000   1.0000   1.0000   1.0000   1.0000
     1.0000   1.0000   1.0000   1.0000   1.0000   1.0000   1.0000   1.0000
     1.0000   1.0000   1.0000   1.0000   1.0000   1.0000   1.0000   1.0000
     1.0000   1.0000   1.0000   1.0000   1.0000   1.0000   1.0000   1.0000
     1.0000   1.0000   1.0000   1.0000   1.0000   1.0000   1.0000   1.0000
     1.0000   1.0000   1.0000   1.0000   1.0000   1.0000   1.0000   1.0000
     1.0000   1.0000   1.0000   0.0000   0.0000   0.0000   0.0000   0.0000
     0.0000   0.0000   0.0000   0.0000   0.0000   0.0000   0.0000   0.0000

          k =-0.7243 0.0020 0.3632 (  7963 PWs)   bands (ev):

   -17.4624 -17.3777 -17.3655 -17.3325 -17.3306 -17.3273 -17.3034 -17.2949
   -17.2924 -17.2731 -17.2626 -17.2622 -17.2560 -17.2484 -17.2423 -17.2169
   -17.2014 -17.1929 -17.1724 -17.1557 -17.1482 -17.1343 -17.1019 -17.0918
   -17.0805 -17.0475 -17.0360 -17.0271 -17.0092 -17.0027 -16.9771 -16.9687
   -16.9653 -16.9561 -16.9158  -4.0902  -3.9515  -3.8112  -3.7042  -2.3593
    -2.2031  -2.0649  -1.7813  -0.1877   0.0700   0.3060   0.4511   2.1771
     2.2977   2.4871   2.7079   2.7479   2.8521   3.0553   3.1351   4.0882
     4.2213   4.3599   4.5056   4.5640   4.6084   4.6916   4.8164   5.5291
     5.6633   5.8284   6.1482   9.0372   9.3056   9.4407   9.5335   9.5982
     9.7318   9.8692  10.1077  10.3739  10.4449  10.5498  10.7721  11.0226

     occupation numbers 
     1.0000   1.0000   1.0000   1.0000   1.0000   1.0000   1.0000   1.0000
     1.0000   1.0000   1.0000   1.0000   1.0000   1.0000   1.0000   1.0000
     1.0000   1.0000   1.0000   1.0000   1.0000   1.0000   1.0000   1.0000
     1.0000   1.0000   1.0000   1.0000   1.0000   1.0000   1.0000   1.0000
     1.0000   1.0000   1.0000   1.0000   1.0000   1.0000   1.0000   1.0000
     1.0000   1.0000   1.0000   1.0000   1.0000   1.0000   1.0000   1.0000
     1.0000   1.0000   1.0000   1.0000   1.0000   1.0000   1.0000   1.0000
     1.0000   1.0000   1.0000   1.0000   1.0000   1.0000   1.0000   1.0000
     1.0000   1.0000   1.0000   0.0000   0.0000   0.0000   0.0000   0.0000
     0.0000   0.0000   0.0000   0.0000   0.0000   0.0000   0.0000   0.0000

          k =-0.5429 0.1771 0.1833 (  7965 PWs)   bands (ev):

   -17.4625 -17.3778 -17.3656 -17.3327 -17.3306 -17.3273 -17.3034 -17.2949
   -17.2916 -17.2740 -17.2627 -17.2621 -17.2562 -17.2484 -17.2422 -17.2168
   -17.2015 -17.1928 -17.1733 -17.1557 -17.1484 -17.1346 -17.1011 -17.0927
   -17.0803 -17.0476 -17.0359 -17.0282 -17.0094 -17.0026 -16.9776 -16.9686
   -16.9648 -16.9552 -16.9162  -4.4599  -3.9872  -3.4194  -3.1270  -2.8998
    -2.3961  -1.8525  -1.6558  -0.3974  -0.1010   0.2042   0.8206   1.2087
     1.8334   2.3285   2.9550   2.9808   3.2152   3.5229   3.7722   3.9172
     4.1603   4.2660   4.4687   4.7154   4.7877   5.0739   5.1894   5.3724
     5.8341   5.9052   6.4271   8.2225   8.5934   8.9482   9.1511   9.2822
     9.4080   9.6427   9.8185   9.9785  10.1235  10.3105  10.6032  10.8704

     occupation numbers 
     1.0000   1.0000   1.0000   1.0000   1.0000   1.0000   1.0000   1.0000
     1.0000   1.0000   1.0000   1.0000   1.0000   1.0000   1.0000   1.0000
     1.0000   1.0000   1.0000   1.0000   1.0000   1.0000   1.0000   1.0000
     1.0000   1.0000   1.0000   1.0000   1.0000   1.0000   1.0000   1.0000
     1.0000   1.0000   1.0000   1.0000   1.0000   1.0000   1.0000   1.0000
     1.0000   1.0000   1.0000   1.0000   1.0000   1.0000   1.0000   1.0000
     1.0000   1.0000   1.0000   1.0000   1.0000   1.0000   1.0000   1.0000
     1.0000   1.0000   1.0000   1.0000   1.0000   1.0000   1.0000   1.0000
     1.0000   1.0000   1.0000   0.0000   0.0000   0.0000   0.0000   0.0000
     0.0000   0.0000   0.0000   0.0000   0.0000   0.0000   0.0000   0.0000

          k = 0.3650-0.3522-0.3596 (  7952 PWs)   bands (ev):

   -17.4625 -17.3778 -17.3656 -17.3327 -17.3307 -17.3273 -17.3035 -17.2947
   -17.2909 -17.2748 -17.2628 -17.2618 -17.2564 -17.2484 -17.2420 -17.2168
   -17.2015 -17.1929 -17.1736 -17.1558 -17.1484 -17.1347 -17.1010 -17.0932
   -17.0804 -17.0476 -17.0361 -17.0281 -17.0094 -17.0026 -16.9780 -16.9685
   -16.9648 -16.9544 -16.9164  -4.4895  -4.3011  -2.8293  -2.7446  -2.5690
    -2.4404  -2.3723  -2.2189   0.0444   0.1597   0.3231   0.4131   0.6411
     0.9930   2.8543   3.0890   3.2112   3.3269   3.5395   3.6299   3.7426
     3.9232   4.5925   4.7721   4.9296   5.0040   5.0942   5.1514   6.2018
     6.3154   6.4672   6.5992   7.9462   8.0963   8.3226   8.4751   8.5290
     8.5799   8.6473   9.0321  10.3836  10.4366  10.8023  10.9190  11.0925

     occupation numbers 
     1.0000   1.0000   1.0000   1.0000   1.0000   1.0000   1.0000   1.0000
     1.0000   1.0000   1.0000   1.0000   1.0000   1.0000   1.0000   1.0000
     1.0000   1.0000   1.0000   1.0000   1.0000   1.0000   1.0000   1.0000
     1.0000   1.0000   1.0000   1.0000   1.0000   1.0000   1.0000   1.0000
     1.0000   1.0000   1.0000   1.0000   1.0000   1.0000   1.0000   1.0000
     1.0000   1.0000   1.0000   1.0000   1.0000   1.0000   1.0000   1.0000
     1.0000   1.0000   1.0000   1.0000   1.0000   1.0000   1.0000   1.0000
     1.0000   1.0000   1.0000   1.0000   1.0000   1.0000   1.0000   1.0000
     1.0000   1.0000   1.0000   0.0000   0.0000   0.0000   0.0000   0.0000
     0.0000   0.0000   0.0000   0.0000   0.0000   0.0000   0.0000   0.0000

          k = 0.5464-0.1771-0.5394 (  7973 PWs)   bands (ev):

   -17.4623 -17.3777 -17.3655 -17.3326 -17.3306 -17.3273 -17.3034 -17.2947
   -17.2918 -17.2738 -17.2626 -17.2619 -17.2562 -17.2483 -17.2421 -17.2167
   -17.2013 -17.1929 -17.1726 -17.1557 -17.1482 -17.1345 -17.1018 -17.0923
   -17.0805 -17.0476 -17.0363 -17.0270 -17.0091 -17.0026 -16.9774 -16.9684
   -16.9652 -16.9553 -16.9160  -4.4904  -3.9377  -3.4849  -3.1474  -2.8952
    -2.2550  -1.8845  -1.6303  -0.3027  -0.1514   0.1959   0.7575   1.1530
     1.7728   2.2564   2.8615   2.9782   3.2436   3.5380   3.6984   3.8365
     4.1032   4.1863   4.4958   4.7187   4.9199   5.1864   5.3318   5.4245
     5.8466   6.0206   6.5108   8.3854   8.6089   8.9460   9.1365   9.2587
     9.4768   9.6920   9.8987  10.1586  10.3078  10.4986  10.6978  10.8966

     occupation numbers 
     1.0000   1.0000   1.0000   1.0000   1.0000   1.0000   1.0000   1.0000
     1.0000   1.0000   1.0000   1.0000   1.0000   1.0000   1.0000   1.0000
     1.0000   1.0000   1.0000   1.0000   1.0000   1.0000   1.0000   1.0000
     1.0000   1.0000   1.0000   1.0000   1.0000   1.0000   1.0000   1.0000
     1.0000   1.0000   1.0000   1.0000   1.0000   1.0000   1.0000   1.0000
     1.0000   1.0000   1.0000   1.0000   1.0000   1.0000   1.0000   1.0000
     1.0000   1.0000   1.0000   1.0000   1.0000   1.0000   1.0000   1.0000
     1.0000   1.0000   1.0000   1.0000   1.0000   1.0000   1.0000   1.0000
     1.0000   1.0000   1.0000   0.0000   0.0000   0.0000   0.0000   0.0000
     0.0000   0.0000   0.0000   0.0000   0.0000   0.0000   0.0000   0.0000

          k = 0.0020-0.7025 0.0001 (  7988 PWs)   bands (ev):

   -17.4624 -17.3777 -17.3653 -17.3325 -17.3306 -17.3273 -17.3034 -17.2947
   -17.2925 -17.2730 -17.2625 -17.2619 -17.2559 -17.2483 -17.2422 -17.2169
   -17.2013 -17.1929 -17.1717 -17.1556 -17.1482 -17.1345 -17.1024 -17.0916
   -17.0805 -17.0475 -17.0364 -17.0263 -17.0089 -17.0027 -16.9767 -16.9684
   -16.9655 -16.9562 -16.9156  -4.2522  -4.0772  -3.4521  -3.2185  -3.0462
    -2.8818  -1.2186  -0.9103  -0.8737  -0.6528   0.9596   1.1166   1.2877
     1.5864   2.8168   3.0100   3.0628   3.1342   3.1963   3.3345   3.3850
     3.5100   3.5372   3.6335   5.1569   5.2419   5.3000   5.4860   5.7779
     5.9043   6.0612   6.4358   8.1800   8.3804   9.0935   9.2208   9.3474
     9.6135   9.7761  10.0478  10.9707  11.0742  11.1521  11.2555  11.4111

     occupation numbers 
     1.0000   1.0000   1.0000   1.0000   1.0000   1.0000   1.0000   1.0000
     1.0000   1.0000   1.0000   1.0000   1.0000   1.0000   1.0000   1.0000
     1.0000   1.0000   1.0000   1.0000   1.0000   1.0000   1.0000   1.0000
     1.0000   1.0000   1.0000   1.0000   1.0000   1.0000   1.0000   1.0000
     1.0000   1.0000   1.0000   1.0000   1.0000   1.0000   1.0000   1.0000
     1.0000   1.0000   1.0000   1.0000   1.0000   1.0000   1.0000   1.0000
     1.0000   1.0000   1.0000   1.0000   1.0000   1.0000   1.0000   1.0000
     1.0000   1.0000   1.0000   1.0000   1.0000   1.0000   1.0000   1.0000
     1.0000   1.0000   1.0000   0.0000   0.0000   0.0000   0.0000   0.0000
     0.0000   0.0000   0.0000   0.0000   0.0000   0.0000   0.0000   0.0000

          k = 0.5439-0.5284-0.1833 (  7972 PWs)   bands (ev):

   -17.4625 -17.3777 -17.3655 -17.3328 -17.3305 -17.3275 -17.3035 -17.2948
   -17.2911 -17.2748 -17.2627 -17.2617 -17.2563 -17.2483 -17.2421 -17.2167
   -17.2014 -17.1931 -17.1728 -17.1558 -17.1484 -17.1347 -17.1013 -17.0928
   -17.0805 -17.0476 -17.0362 -17.0281 -17.0093 -17.0025 -16.9776 -16.9685
   -16.9647 -16.9544 -16.9165  -4.4794  -3.9660  -3.4477  -3.0465  -2.9833
    -2.3301  -1.8216  -1.7041  -0.3193  -0.1171   0.1981   0.8285   1.0242
     1.8970   2.2947   2.8939   3.0377   3.1369   3.5611   3.7269   3.8913
     4.0991   4.2398   4.4285   4.7567   4.9048   5.1993   5.2607   5.4421
     5.8164   6.0205   6.3777   8.2111   8.6175   8.9708   9.1777   9.3382
     9.4596   9.5916   9.7157   9.9872  10.2242  10.5040  10.6879  10.7657

     occupation numbers 
     1.0000   1.0000   1.0000   1.0000   1.0000   1.0000   1.0000   1.0000
     1.0000   1.0000   1.0000   1.0000   1.0000   1.0000   1.0000   1.0000
     1.0000   1.0000   1.0000   1.0000   1.0000   1.0000   1.0000   1.0000
     1.0000   1.0000   1.0000   1.0000   1.0000   1.0000   1.0000   1.0000
     1.0000   1.0000   1.0000   1.0000   1.0000   1.0000   1.0000   1.0000
     1.0000   1.0000   1.0000   1.0000   1.0000   1.0000   1.0000   1.0000
     1.0000   1.0000   1.0000   1.0000   1.0000   1.0000   1.0000   1.0000
     1.0000   1.0000   1.0000   1.0000   1.0000   1.0000   1.0000   1.0000
     1.0000   1.0000   1.0000   0.0000   0.0000   0.0000   0.0000   0.0000
     0.0000   0.0000   0.0000   0.0000   0.0000   0.0000   0.0000   0.0000

          k = 0.7254-0.3532-0.3631 (  7970 PWs)   bands (ev):

   -17.4624 -17.3778 -17.3655 -17.3327 -17.3305 -17.3274 -17.3035 -17.2948
   -17.2917 -17.2739 -17.2627 -17.2619 -17.2562 -17.2484 -17.2423 -17.2167
   -17.2014 -17.1931 -17.1732 -17.1557 -17.1482 -17.1346 -17.1012 -17.0926
   -17.0805 -17.0479 -17.0362 -17.0272 -17.0092 -17.0026 -16.9777 -16.9685
   -16.9652 -16.9551 -16.9161  -4.6777  -3.7467  -3.5719  -2.8302  -2.5546
    -2.4614  -2.2197  -1.4275  -0.5134  -0.1066   0.0501   0.5942   1.0363
     1.4650   1.7430   2.7976   3.4295   3.6013   3.7667   3.8100   4.1591
     4.2795   4.4424   4.5758   4.9601   5.0810   5.2324   5.3349   5.4463
     5.6490   5.7688   6.8927   8.0814   8.7156   8.8156   9.0219   9.1118
     9.4271   9.6394   9.6920   9.9354  10.1449  10.2204  10.3044  10.3846

     occupation numbers 
     1.0000   1.0000   1.0000   1.0000   1.0000   1.0000   1.0000   1.0000
     1.0000   1.0000   1.0000   1.0000   1.0000   1.0000   1.0000   1.0000
     1.0000   1.0000   1.0000   1.0000   1.0000   1.0000   1.0000   1.0000
     1.0000   1.0000   1.0000   1.0000   1.0000   1.0000   1.0000   1.0000
     1.0000   1.0000   1.0000   1.0000   1.0000   1.0000   1.0000   1.0000
     1.0000   1.0000   1.0000   1.0000   1.0000   1.0000   1.0000   1.0000
     1.0000   1.0000   1.0000   1.0000   1.0000   1.0000   1.0000   1.0000
     1.0000   1.0000   1.0000   1.0000   1.0000   1.0000   1.0000   1.0000
     1.0000   1.0000   0.9989   0.0000   0.0000   0.0000   0.0000   0.0000
     0.0000   0.0000   0.0000   0.0000   0.0000   0.0000   0.0000   0.0000

          k = 0.1810-0.8787 0.1764 (  7986 PWs)   bands (ev):

   -17.4624 -17.3778 -17.3655 -17.3327 -17.3305 -17.3273 -17.3035 -17.2949
   -17.2924 -17.2731 -17.2626 -17.2619 -17.2560 -17.2484 -17.2424 -17.2169
   -17.2014 -17.1930 -17.1723 -17.1557 -17.1482 -17.1346 -17.1020 -17.0918
   -17.0805 -17.0479 -17.0363 -17.0264 -17.0091 -17.0027 -16.9771 -16.9685
   -16.9656 -16.9561 -16.9158  -4.5023  -3.9864  -3.4924  -3.0500  -2.8671
    -2.3149  -1.8519  -1.5346  -0.4478  -0.1505   0.2514   0.7829   1.0198
     1.7857   2.2200   2.9517   3.0338   3.0810   3.4796   3.6941   3.7439
     4.0877   4.2075   4.3940   4.7018   5.0225   5.2041   5.3489   5.5222
     5.9407   6.1288   6.6930   8.3639   8.6494   9.1159   9.2034   9.4135
     9.5435   9.6851   9.8484  10.1295  10.2141  10.4498  10.6454  10.8487

     occupation numbers 
     1.0000   1.0000   1.0000   1.0000   1.0000   1.0000   1.0000   1.0000
     1.0000   1.0000   1.0000   1.0000   1.0000   1.0000   1.0000   1.0000
     1.0000   1.0000   1.0000   1.0000   1.0000   1.0000   1.0000   1.0000
     1.0000   1.0000   1.0000   1.0000   1.0000   1.0000   1.0000   1.0000
     1.0000   1.0000   1.0000   1.0000   1.0000   1.0000   1.0000   1.0000
     1.0000   1.0000   1.0000   1.0000   1.0000   1.0000   1.0000   1.0000
     1.0000   1.0000   1.0000   1.0000   1.0000   1.0000   1.0000   1.0000
     1.0000   1.0000   1.0000   1.0000   1.0000   1.0000   1.0000   1.0000
     1.0000   1.0000   1.0000   0.0000   0.0000   0.0000   0.0000   0.0000
     0.0000   0.0000   0.0000   0.0000   0.0000   0.0000   0.0000   0.0000

          k = 0.3624-0.7035-0.0034 (  7966 PWs)   bands (ev):

   -17.4624 -17.3776 -17.3654 -17.3327 -17.3305 -17.3274 -17.3035 -17.2948
   -17.2920 -17.2738 -17.2625 -17.2618 -17.2561 -17.2481 -17.2421 -17.2168
   -17.2012 -17.1931 -17.1719 -17.1557 -17.1483 -17.1346 -17.1020 -17.0920
   -17.0805 -17.0476 -17.0363 -17.0270 -17.0091 -17.0026 -16.9770 -16.9684
   -16.9651 -16.9553 -16.9161  -4.0929  -3.9891  -3.8391  -3.6406  -2.3669
    -2.1990  -1.9934  -1.7996  -0.1019   0.0308   0.2327   0.4172   2.0619
     2.3858   2.4629   2.6500   2.7497   2.8519   2.9449   3.1576   4.1555
     4.2612   4.3122   4.4461   4.5268   4.6720   4.8311   4.8909   5.5993
     5.6879   5.9325   6.0411   9.1769   9.2853   9.5126   9.5686   9.6086
     9.7315   9.9220  10.0856  10.3395  10.5001  10.6834  10.7756  11.0254

     occupation numbers 
     1.0000   1.0000   1.0000   1.0000   1.0000   1.0000   1.0000   1.0000
     1.0000   1.0000   1.0000   1.0000   1.0000   1.0000   1.0000   1.0000
     1.0000   1.0000   1.0000   1.0000   1.0000   1.0000   1.0000   1.0000
     1.0000   1.0000   1.0000   1.0000   1.0000   1.0000   1.0000   1.0000
     1.0000   1.0000   1.0000   1.0000   1.0000   1.0000   1.0000   1.0000
     1.0000   1.0000   1.0000   1.0000   1.0000   1.0000   1.0000   1.0000
     1.0000   1.0000   1.0000   1.0000   1.0000   1.0000   1.0000   1.0000
     1.0000   1.0000   1.0000   1.0000   1.0000   1.0000   1.0000   1.0000
     1.0000   1.0000   1.0000   0.0000   0.0000   0.0000   0.0000   0.0000
     0.0000   0.0000   0.0000   0.0000   0.0000   0.0000   0.0000   0.0000

          k = 0.0071 0.0001-0.7122 (  7980 PWs)   bands (ev):

   -17.4623 -17.3776 -17.3655 -17.3328 -17.3304 -17.3274 -17.3035 -17.2948
   -17.2912 -17.2746 -17.2626 -17.2616 -17.2562 -17.2480 -17.2420 -17.2166
   -17.2012 -17.1932 -17.1721 -17.1557 -17.1483 -17.1347 -17.1015 -17.0924
   -17.0806 -17.0474 -17.0362 -17.0280 -17.0092 -17.0023 -16.9772 -16.9684
   -16.9646 -16.9544 -16.9164  -4.2723  -4.0137  -3.4089  -3.2147  -3.1342
    -2.9050  -1.2068  -1.0174  -0.8191  -0.7029   1.0157   1.1160   1.3104
     1.5851   2.9018   2.9713   3.1515   3.2086   3.2325   3.3130   3.4159
     3.4896   3.6333   3.8329   5.1170   5.1846   5.2664   5.4128   5.7180
     5.8875   6.0298   6.0957   7.9964   8.2092   9.0919   9.2099   9.2971
     9.4407   9.7805   9.9007  10.9212  11.1984  11.2779  11.3687  11.4111

     occupation numbers 
     1.0000   1.0000   1.0000   1.0000   1.0000   1.0000   1.0000   1.0000
     1.0000   1.0000   1.0000   1.0000   1.0000   1.0000   1.0000   1.0000
     1.0000   1.0000   1.0000   1.0000   1.0000   1.0000   1.0000   1.0000
     1.0000   1.0000   1.0000   1.0000   1.0000   1.0000   1.0000   1.0000
     1.0000   1.0000   1.0000   1.0000   1.0000   1.0000   1.0000   1.0000
     1.0000   1.0000   1.0000   1.0000   1.0000   1.0000   1.0000   1.0000
     1.0000   1.0000   1.0000   1.0000   1.0000   1.0000   1.0000   1.0000
     1.0000   1.0000   1.0000   1.0000   1.0000   1.0000   1.0000   1.0000
     1.0000   1.0000   1.0000   0.0000   0.0000   0.0000   0.0000   0.0000
     0.0000   0.0000   0.0000   0.0000   0.0000   0.0000   0.0000   0.0000

          k = 0.1886 0.1753-0.8920 (  7979 PWs)   bands (ev):

   -17.4624 -17.3777 -17.3655 -17.3328 -17.3303 -17.3274 -17.3035 -17.2948
   -17.2918 -17.2738 -17.2627 -17.2617 -17.2561 -17.2483 -17.2422 -17.2168
   -17.2013 -17.1931 -17.1726 -17.1556 -17.1482 -17.1346 -17.1015 -17.0922
   -17.0805 -17.0478 -17.0363 -17.0271 -17.0092 -17.0025 -16.9773 -16.9685
   -16.9651 -16.9551 -16.9162  -4.5035  -3.9673  -3.4517  -3.1462  -2.8259
    -2.3207  -1.8906  -1.5133  -0.3746  -0.2852   0.2215   0.8111   1.0981
     1.8527   2.1711   2.9211   3.0119   3.1180   3.5654   3.6943   3.8155
     4.1774   4.2565   4.4765   4.7487   4.9043   5.1425   5.2578   5.4664
     5.9029   6.0550   6.5883   8.2094   8.7272   8.9565   9.1570   9.3833
     9.5119   9.7036   9.9901  10.1579  10.3421  10.4549  10.5523  10.7620

     occupation numbers 
     1.0000   1.0000   1.0000   1.0000   1.0000   1.0000   1.0000   1.0000
     1.0000   1.0000   1.0000   1.0000   1.0000   1.0000   1.0000   1.0000
     1.0000   1.0000   1.0000   1.0000   1.0000   1.0000   1.0000   1.0000
     1.0000   1.0000   1.0000   1.0000   1.0000   1.0000   1.0000   1.0000
     1.0000   1.0000   1.0000   1.0000   1.0000   1.0000   1.0000   1.0000
     1.0000   1.0000   1.0000   1.0000   1.0000   1.0000   1.0000   1.0000
     1.0000   1.0000   1.0000   1.0000   1.0000   1.0000   1.0000   1.0000
     1.0000   1.0000   1.0000   1.0000   1.0000   1.0000   1.0000   1.0000
     1.0000   1.0000   1.0000   0.0000   0.0000   0.0000   0.0000   0.0000
     0.0000   0.0000   0.0000   0.0000   0.0000   0.0000   0.0000   0.0000

          k =-0.3558-0.3502-0.3525 (  7972 PWs)   bands (ev):

   -17.4624 -17.3778 -17.3655 -17.3329 -17.3303 -17.3273 -17.3034 -17.2949
   -17.2921 -17.2731 -17.2627 -17.2618 -17.2560 -17.2483 -17.2425 -17.2168
   -17.2014 -17.1930 -17.1729 -17.1556 -17.1482 -17.1346 -17.1013 -17.0919
   -17.0803 -17.0482 -17.0362 -17.0265 -17.0092 -17.0025 -16.9774 -16.9684
   -16.9656 -16.9559 -16.9157  -4.5315  -4.3105  -2.9385  -2.6225  -2.5376
    -2.5072  -2.2592  -2.0301  -0.1141   0.0011   0.2621   0.4187   0.7830
     0.8914   2.8245   2.8844   3.3151   3.4020   3.4684   3.5351   3.6635
     3.7976   4.6363   4.7941   4.9808   4.9991   5.2383   5.3066   5.9851
     6.4840   6.6951   6.8247   7.9963   8.1742   8.2369   8.3911   8.6903
     8.8854   8.9812   9.2898  10.3482  10.4315  10.7282  10.8964  11.0038

     occupation numbers 
     1.0000   1.0000   1.0000   1.0000   1.0000   1.0000   1.0000   1.0000
     1.0000   1.0000   1.0000   1.0000   1.0000   1.0000   1.0000   1.0000
     1.0000   1.0000   1.0000   1.0000   1.0000   1.0000   1.0000   1.0000
     1.0000   1.0000   1.0000   1.0000   1.0000   1.0000   1.0000   1.0000
     1.0000   1.0000   1.0000   1.0000   1.0000   1.0000   1.0000   1.0000
     1.0000   1.0000   1.0000   1.0000   1.0000   1.0000   1.0000   1.0000
     1.0000   1.0000   1.0000   1.0000   1.0000   1.0000   1.0000   1.0000
     1.0000   1.0000   1.0000   1.0000   1.0000   1.0000   1.0000   1.0000
     1.0000   1.0000   0.9998   0.0000   0.0000   0.0000   0.0000   0.0000
     0.0000   0.0000   0.0000   0.0000   0.0000   0.0000   0.0000   0.0000

     the Fermi energy is     7.3327 ev

!    total energy              =   -1578.24642619 Ry
     Harris-Foulkes estimate   =   -1578.24642618 Ry
     estimated scf accuracy    <          2.0E-10 Ry

     The total energy is the sum of the following terms:

     one-electron contribution =   -1127.76940993 Ry
     hartree contribution      =     668.23683248 Ry
     xc contribution           =    -441.66509713 Ry
     ewald contribution        =    -677.04793782 Ry
     smearing contrib. (-TS)   =      -0.00081379 Ry

     convergence has been achieved in  13 iterations

     Forces acting on atoms (Ry/au):

     atom    1 type  1   force =   0.61758556E-02  0.43661451E-01 -0.17159697E-01
     atom    2 type  2   force =  -0.94080117E-02 -0.42762537E-01 -0.36868135E-01
     atom    3 type  2   force =   0.36445745E-01 -0.10144684E-01 -0.87739742E-02
     atom    4 type  1   force =   0.10898636E-01 -0.38480795E-01 -0.87323144E-03
     atom    5 type  1   force =   0.14375406E-01 -0.26740377E-01  0.40041174E-02
     atom    6 type  1   force =   0.37588808E-01  0.17386232E-01  0.24990085E-01
     atom    7 type  2   force =  -0.91479494E-02 -0.20584404E-01 -0.97308791E-02
     atom    8 type  1   force =  -0.58639533E-02  0.83164222E-02  0.18133301E-01
     atom    9 type  1   force =   0.13303193E-01  0.39259498E-01  0.17808593E-01
     atom   10 type  2   force =  -0.84428001E-02 -0.72033403E-02 -0.23616591E-01
     atom   11 type  1   force =  -0.69762366E-01  0.49488020E-01  0.14597501E-01
     atom   12 type  1   force =  -0.99838854E-02 -0.17372114E-01  0.11530584E-01
     atom   13 type  2   force =  -0.13989423E-02 -0.28300042E-01 -0.71847860E-02
     atom   14 type  1   force =  -0.35062639E-01  0.62626589E-02  0.48342193E-04
     atom   15 type  2   force =   0.15763514E-01  0.18696685E-01 -0.40238913E-01
     atom   16 type  2   force =   0.14519391E-01  0.85173279E-02  0.53333682E-01
     The non-local contrib.  to forces
     atom    1 type  1   force =   0.37789987E-01  0.62577180E-01 -0.10801891E-01
     atom    2 type  2   force =   0.50762279E-01 -0.17654531E-01 -0.50386574E-01
     atom    3 type  2   force =   0.25964857E-01 -0.76489648E-01  0.62616698E-01
     atom    4 type  1   force =  -0.90057924E-02 -0.77635628E-01 -0.24050767E-01
     atom    5 type  1   force =   0.58588034E-03 -0.18624589E-01 -0.28296251E-01
     atom    6 type  1   force =   0.37265969E-01  0.12433107E-01  0.19105718E-01
     atom    7 type  2   force =  -0.27075225E-01  0.74625066E-01  0.40664569E-01
     atom    8 type  1   force =  -0.44170048E-03 -0.72711269E-02  0.23156633E-01
     atom    9 type  1   force =   0.32764555E-01  0.50377067E-01  0.14136655E-01
     atom   10 type  2   force =  -0.21429560E-01 -0.68862802E-01 -0.12957057E-01
     atom   11 type  1   force =  -0.76517730E-01  0.55898884E-01  0.40612935E-01
     atom   12 type  1   force =  -0.16872551E-01 -0.18365830E-01  0.32364223E-01
     atom   13 type  2   force =  -0.19555863E-01 -0.37287886E-02  0.18437643E-01
     atom   14 type  1   force =  -0.32347708E-01  0.11115543E-01 -0.10968399E-01
     atom   15 type  2   force =   0.90213166E-02  0.34755094E-01  0.91449970E-02
     atom   16 type  2   force =  -0.72530196E-01  0.15389406E-01  0.28121941E-01
     The ionic contribution  to forces
     atom    1 type  1   force =  -0.29267892E+01  0.78190722E-01  0.78998248E-01
     atom    2 type  2   force =  -0.54524718E+01 -0.72036270E+01  0.57316575E+01
     atom    3 type  2   force =   0.70488831E+01  0.45892557E+01 -0.70008402E+01
     atom    4 type  1   force =   0.57529205E+00  0.25751657E+01 -0.47437729E+00
     atom    5 type  1   force =   0.14085726E+01 -0.18146486E+01  0.15026942E+01
     atom    6 type  1   force =   0.10169792E+00 -0.35619983E+01 -0.33505974E+00
     atom    7 type  2   force =  -0.49131898E+01  0.45810191E+01  0.49431706E+01
     atom    8 type  1   force =   0.13782448E+01  0.20675427E+01 -0.24562887E+01
     atom    9 type  1   force =  -0.32626459E+01  0.14060676E+00  0.10981559E+01
     atom   10 type  2   force =  -0.71714357E+01  0.63776199E+01 -0.54889079E+01
     atom   11 type  1   force =   0.29229531E+01  0.76264487E+00 -0.28420875E+00
     atom   12 type  1   force =   0.39065644E-01  0.54152143E+00 -0.27278560E+01
     atom   13 type  2   force =   0.99727680E+01  0.20589534E+00  0.17960678E+01
     atom   14 type  1   force =  -0.60826508E+00 -0.14689420E+00  0.46472381E+01
     atom   15 type  2   force =  -0.67706037E+01 -0.30643105E+01 -0.49869405E+01
     atom   16 type  2   force =   0.76579241E+01 -0.61279836E+01  0.39564968E+01
     The local contribution  to forces
     atom    1 type  1   force =   0.28986127E+01 -0.90875837E-01 -0.86203149E-01
     atom    2 type  2   force =   0.53926844E+01  0.71765357E+01 -0.57238149E+01
     atom    3 type  2   force =  -0.70381307E+01 -0.45236091E+01  0.69301269E+01
     atom    4 type  1   force =  -0.55590058E+00 -0.25442613E+01  0.49472748E+00
     atom    5 type  1   force =  -0.13949977E+01  0.18051096E+01 -0.14735671E+01
     atom    6 type  1   force =  -0.98224306E-01  0.35681176E+01  0.34259281E+00
     atom    7 type  2   force =   0.49315724E+01 -0.46790811E+01 -0.49946873E+01
     atom    8 type  1   force =  -0.13845666E+01 -0.20521225E+01  0.24524795E+01
     atom    9 type  1   force =   0.32465165E+01 -0.14735784E+00 -0.10917130E+01
     atom   10 type  2   force =   0.71838968E+01 -0.63168551E+01  0.54752457E+01
     atom   11 type  1   force =  -0.29222544E+01 -0.76409140E+00  0.26165128E+00
     atom   12 type  1   force =  -0.34569387E-01 -0.54206866E+00  0.27109303E+01
     atom   13 type  2   force =  -0.99536681E+01 -0.22937516E+00 -0.18205093E+01
     atom   14 type  1   force =   0.60293529E+00  0.14260348E+00 -0.46357974E+01
     atom   15 type  2   force =   0.67765942E+01  0.30498840E+01  0.49359625E+01
     atom   16 type  2   force =  -0.75698881E+01  0.61195407E+01 -0.39295407E+01
     The core correction contribution to forces
     atom    1 type  1   force =  -0.34405001E-02 -0.62303959E-02  0.84814163E-03
     atom    2 type  2   force =  -0.39817533E-03  0.19797151E-02  0.57006041E-02
     atom    3 type  2   force =  -0.27339539E-03  0.71105094E-03 -0.69114988E-03
     atom    4 type  1   force =   0.51420280E-03  0.82554889E-02  0.28282821E-02
     atom    5 type  1   force =   0.21412135E-03  0.14220219E-02  0.31764711E-02
     atom    6 type  1   force =  -0.31527738E-02 -0.11653531E-02 -0.16471693E-02
     atom    7 type  2   force =  -0.45356228E-03  0.28594844E-02  0.11310804E-02
     atom    8 type  1   force =   0.89940821E-03  0.17088436E-03 -0.12144532E-02
     atom    9 type  1   force =  -0.33338784E-02 -0.43666423E-02 -0.27717399E-02
     atom   10 type  2   force =   0.52507184E-03  0.88457073E-03  0.30029539E-02
     atom   11 type  1   force =   0.60584472E-02 -0.49621135E-02 -0.34603655E-02
     atom   12 type  1   force =   0.23966217E-02  0.15414950E-02 -0.39118183E-02
     atom   13 type  2   force =  -0.93364427E-03 -0.10983050E-02 -0.11808320E-02
     atom   14 type  1   force =   0.26153856E-02 -0.56319078E-03 -0.42433064E-03
     atom   15 type  2   force =   0.75277431E-03 -0.16406819E-02  0.15883351E-02
     atom   16 type  2   force =  -0.98226576E-03  0.15692053E-02 -0.17560120E-02
     The Hubbard contrib.    to forces
     atom    1 type  1   force =   0.00000000E+00  0.00000000E+00  0.00000000E+00
     atom    2 type  2   force =   0.00000000E+00  0.00000000E+00  0.00000000E+00
     atom    3 type  2   force =   0.00000000E+00  0.00000000E+00  0.00000000E+00
     atom    4 type  1   force =   0.00000000E+00  0.00000000E+00  0.00000000E+00
     atom    5 type  1   force =   0.00000000E+00  0.00000000E+00  0.00000000E+00
     atom    6 type  1   force =   0.00000000E+00  0.00000000E+00  0.00000000E+00
     atom    7 type  2   force =   0.00000000E+00  0.00000000E+00  0.00000000E+00
     atom    8 type  1   force =   0.00000000E+00  0.00000000E+00  0.00000000E+00
     atom    9 type  1   force =   0.00000000E+00  0.00000000E+00  0.00000000E+00
     atom   10 type  2   force =   0.00000000E+00  0.00000000E+00  0.00000000E+00
     atom   11 type  1   force =   0.00000000E+00  0.00000000E+00  0.00000000E+00
     atom   12 type  1   force =   0.00000000E+00  0.00000000E+00  0.00000000E+00
     atom   13 type  2   force =   0.00000000E+00  0.00000000E+00  0.00000000E+00
     atom   14 type  1   force =   0.00000000E+00  0.00000000E+00  0.00000000E+00
     atom   15 type  2   force =   0.00000000E+00  0.00000000E+00  0.00000000E+00
     atom   16 type  2   force =   0.00000000E+00  0.00000000E+00  0.00000000E+00
     The SCF correction term to forces
     atom    1 type  1   force =   0.30055019E-05  0.79432605E-06 -0.12446253E-05
     atom    2 type  2   force =   0.15320503E-04  0.45328312E-05 -0.24915967E-04
     atom    3 type  2   force =   0.20080617E-05 -0.11702922E-04  0.13631498E-04
     atom    4 type  1   force =  -0.11228096E-05 -0.40126105E-05 -0.11364939E-05
     atom    5 type  1   force =   0.61931589E-06  0.22483449E-05 -0.33534742E-05
     atom    6 type  1   force =   0.21182222E-05  0.19977831E-06 -0.17269626E-05
     atom    7 type  2   force =  -0.16389851E-05 -0.59139548E-05 -0.10088403E-04
     atom    8 type  1   force =   0.24618928E-06 -0.25938313E-05  0.63576534E-07
     atom    9 type  1   force =   0.20308214E-05  0.11621430E-05  0.61951313E-06
     atom   10 type  2   force =   0.78358716E-06  0.11147138E-04 -0.44592390E-06
     atom   11 type  1   force =  -0.16429322E-05 -0.12050059E-05  0.22010938E-05
     atom   12 type  1   force =  -0.40927981E-05  0.46678084E-06  0.37297920E-05
     atom   13 type  2   force =  -0.91429403E-05  0.78923953E-05 -0.27675190E-06
     atom   14 type  1   force =  -0.40336142E-06  0.20339248E-05  0.14689149E-06
     atom   15 type  2   force =  -0.87065213E-06  0.97273083E-05  0.55107816E-05
     atom   16 type  2   force =  -0.39992421E-05  0.26924333E-05  0.11500914E-04

     Total force =     0.176589     Total SCF correction =     0.000045


     entering subroutine stress ...

          total   stress  (Ry/bohr**3)                   (kbar)     P=   -6.70
   0.0000009994   0.0000139668  -0.0001243595          0.15      2.05    -18.29
   0.0000139668  -0.0000980387  -0.0000302413          2.05    -14.42     -4.45
  -0.0001243595  -0.0000302413  -0.0000396738        -18.29     -4.45     -5.84

     kinetic stress (kbar)   5902.91     -7.08     -8.74
                               -7.08   5880.88     -2.02
                               -8.74     -2.02   5890.43

     local   stress (kbar)  -2691.05  -1555.43    570.11
                            -1555.43  -4791.82    827.84
                              570.11    827.84  -1600.73

     nonloc. stress (kbar)   2417.14      3.21     -6.69
                                3.21   2425.89     -2.28
                               -6.69     -2.28   2424.80

     hartree stress (kbar)  14221.59    698.45   -231.96
                              698.45  15202.55   -349.02
                             -231.96   -349.02  13719.13

     exc-cor stress (kbar)   9747.99      0.07     -0.11
                                0.07   9748.20     -0.12
                               -0.11     -0.12   9748.11

     corecor stress (kbar) -14850.75     -0.45      0.73
                               -0.45 -14851.75      0.04
                                0.73      0.04 -14851.49

     ewald   stress (kbar) -14747.67    863.29   -341.64
                              863.29 -13628.36   -478.89
                             -341.64   -478.89 -15336.09

     hubbard stress (kbar)      0.00      0.00      0.00
                                0.00      0.00      0.00
                                0.00      0.00      0.00

     london  stress (kbar)      0.00      0.00      0.00
                                0.00      0.00      0.00
                                0.00      0.00      0.00

     XDM     stress (kbar)      0.00      0.00      0.00
                                0.00      0.00      0.00
                                0.00      0.00      0.00

     dft-nl  stress (kbar)      0.00      0.00      0.00
                                0.00      0.00      0.00
                                0.00      0.00      0.00



     Writing output data file Si_diamond.scf.in.super.222.replace9429.save

     init_run     :     14.36s CPU     13.41s WALL (       1 calls)
     electrons    :    566.68s CPU    512.22s WALL (       1 calls)
     forces       :      6.72s CPU      5.64s WALL (       1 calls)
     stress       :     10.95s CPU     10.79s WALL (       1 calls)

     Called by init_run:
     wfcinit      :     12.63s CPU     11.65s WALL (       1 calls)
     potinit      :      0.41s CPU      0.43s WALL (       1 calls)

     Called by electrons:
     c_bands      :    503.00s CPU    451.31s WALL (      14 calls)
     sum_band     :     58.78s CPU     55.85s WALL (      14 calls)
     v_of_rho     :      0.61s CPU      0.66s WALL (      14 calls)
     v_h          :      0.04s CPU      0.04s WALL (      14 calls)
     v_xc         :      0.65s CPU      0.71s WALL (      16 calls)
     newd         :      3.80s CPU      3.83s WALL (      14 calls)
     mix_rho      :      0.74s CPU      0.79s WALL (      14 calls)

     Called by c_bands:
     init_us_2    :      2.91s CPU      2.94s WALL (    1116 calls)
     cegterg      :    492.13s CPU    439.71s WALL (     504 calls)

     Called by sum_band:
     sum_band:bec :      0.84s CPU      0.89s WALL (     504 calls)
     addusdens    :      4.30s CPU      4.32s WALL (      14 calls)

     Called by *egterg:
     h_psi        :    227.59s CPU    215.27s WALL (    1926 calls)
     s_psi        :     32.87s CPU     22.71s WALL (    1926 calls)
     g_psi        :      0.42s CPU      0.41s WALL (    1386 calls)
     cdiaghg      :    138.12s CPU    123.14s WALL (    1854 calls)
     cegterg:over :     44.71s CPU     37.96s WALL (    1386 calls)
     cegterg:upda :     19.09s CPU     12.63s WALL (    1386 calls)
     cegterg:last :     12.08s CPU      7.62s WALL (     504 calls)

     Called by h_psi:
     h_psi:vloc   :    145.54s CPU    153.65s WALL (    1926 calls)
     h_psi:vnl    :     81.81s CPU     61.30s WALL (    1926 calls)
     add_vuspsi   :     35.54s CPU     24.46s WALL (    1926 calls)

     General routines
     calbec       :     68.38s CPU     54.71s WALL (    2502 calls)
     fft          :      0.96s CPU      0.97s WALL (     249 calls)
     ffts         :      0.50s CPU      0.55s WALL (     392 calls)
     fftw         :    167.64s CPU    176.50s WALL (  234488 calls)
     interpolate  :      0.11s CPU      0.13s WALL (      28 calls)

     Parallel routines
     fft_scatter  :     80.04s CPU     86.62s WALL (  235129 calls)

     PWSCF        : 10m 0.99s CPU     9m 4.81s WALL


   This run was terminated on:  19:18:59   4Apr2018            

=------------------------------------------------------------------------------=
   JOB DONE.
=------------------------------------------------------------------------------=
