
     Program PWSCF v.5.1 starts on 28Sep2017 at 14:40:52 

     This program is part of the open-source Quantum ESPRESSO suite
     for quantum simulation of materials; please cite
         "P. Giannozzi et al., J. Phys.:Condens. Matter 21 395502 (2009);
          URL http://www.quantum-espresso.org", 
     in publications or presentations arising from this work. More details at
     http://www.quantum-espresso.org/quote

     Parallel version (MPI), running on     8 processors
     R & G space division:  proc/nbgrp/npool/nimage =       8
     Reading input from /tmp/Si_diamond.scf.in.super.222.largdist.b.05.9968/Si_diamond.scf.in.super.222.largdist.b.05.t
Warning: card &IONS ignored
Warning: card   ION_DYNAMICS='BFGS', ignored
Warning: card / ignored
Warning: card &CELL ignored
Warning: card  CELL_DYNAMICS = 'BFGS' ignored
Warning: card / ignored
     Message from routine read_cards :
     DEPRECATED: no units specified in CELL_PARAMETERS card

     Current dimensions of program PWSCF are:
     Max number of different atomic species (ntypx) = 10
     Max number of k-points (npk) =  40000
     Max angular momentum in pseudopotentials (lmaxx) =  3
 kfg - two_fermi_energies  F

     Subspace diagonalization in iterative solution of the eigenvalue problem:
     a serial algorithm will be used


     Parallelization info
     --------------------
     sticks:   dense  smooth     PW     G-vecs:    dense   smooth      PW
     Min         363     256     71                12921     7555    1109
     Max         364     257     73                12925     7568    1110
     Sum        2905    2053    571               103379    60495    8873



     bravais-lattice index     =            0
     lattice parameter (alat)  =    14.515605984  a.u.
     unit-cell volume          =    2162.6713 (a.u.)^3
     number of atoms/cell      =           16
     number of atomic types    =            1
     number of electrons       =        64.00
     number of Kohn-Sham states=           38
     kinetic-energy cutoff     =      35.0000  Ry
     charge density cutoff     =     200.0000  Ry
     convergence threshold     =      1.0E-09
     mixing beta               =       0.3000
     number of iterations used =            8  local-TF  mixing
     Exchange-correlation      = SLA  PW   PSX  PSC ( 1  4 10  8 0)
     A smooth kinetic-energy cutoff is imposed at      34.5000 Ry
     height of the smooth step-function =             800.0000 Ry
     width of the smooth step-function  =               1.0000 Ry


     celldm(1)=  14.515606  celldm(2)=   0.000000  celldm(3)=   0.000000
     celldm(4)=   0.000000  celldm(5)=   0.000000  celldm(6)=   0.000000

     crystal axes: (cart. coord. in units of alat)
               a(1) = (  -0.000000000000   0.707106781187   0.707106781187 )  
               a(2) = (   0.707106781187  -0.000000000000   0.707106781187 )  
               a(3) = (   0.707106781187   0.707106781187   0.000000000000 )  

     reciprocal axes: (cart. coord. in units 2 pi/alat)
               b(1) = ( -0.707107  0.707107  0.707107 )  
               b(2) = (  0.707107 -0.707107  0.707107 )  
               b(3) = (  0.707107  0.707107 -0.707107 )  


     PseudoPot. # 1 for Si read from file:
     /users/kfg/psuedo/gbrv_1.5/si.pbesol.UPF
     MD5 check sum: ef58ba74faed4df802eb8a9742fc00a8
     Pseudo is Ultrasoft + core correction, Zval =  4.0
     Generated by new atomic code, or converted to UPF format
     Using radial grid of  899 points,  6 beta functions with: 
                l(1) =   0
                l(2) =   0
                l(3) =   1
                l(4) =   1
                l(5) =   2
                l(6) =   2
     Q(r) pseudized with  8 coefficients,  rinner =    0.900   0.900   0.900
                                                       0.900   0.900

     atomic species   valence    mass     pseudopotential
        Si             4.00    28.08550     Si( 1.00)

     No symmetry found


                                    s                        frac. trans.

      isym =  1     identity                                     

 cryst.   s( 1) = (     1          0          0      )
                  (     0          1          0      )
                  (     0          0          1      )

 cart.    s( 1) = (  1.0000000  0.0000000  0.0000000 )
                  (  0.0000000  1.0000000  0.0000000 )
                  (  0.0000000  0.0000000  1.0000000 )


     point group C_1 (1)    
     there are  1 classes
     the character table:

       E    
A      1.00

     the symmetry operations in each class:
     E        1

   Cartesian axes

     site n.     atom                  positions (alat units)
         1           Si  tau(   1) = (   -0.01051990290   -0.04393050175    0.03323613472  )
         2           Si  tau(   2) = (    0.17343494562    0.14909480818    0.13009413677  )
         3           Si  tau(   3) = (    0.37697011682    0.32809807098    0.02334011468  )
         4           Si  tau(   4) = (    0.57658281404    0.51321811361    0.13368875794  )
         5           Si  tau(   5) = (    0.38985648504    0.02824670187    0.35028324160  )
         6           Si  tau(   6) = (    0.56536366879    0.19651256945    0.48280731376  )
         7           Si  tau(   7) = (    0.69756557129    0.31970902484    0.39266913209  )
         8           Si  tau(   8) = (    0.88378257348    0.53020960813    0.56132838241  )
         9           Si  tau(   9) = (   -0.04043206508    0.33096520172    0.31792001377  )
        10           Si  tau(  10) = (    0.22196040417    0.50601129294    0.48886668289  )
        11           Si  tau(  11) = (    0.39204524454    0.73038202851    0.37668167752  )
        12           Si  tau(  12) = (    0.55217308460    0.86710757651    0.50348233796  )
        13           Si  tau(  13) = (    0.31504197381    0.35509617579    0.72999612291  )
        14           Si  tau(  14) = (    0.50008474430    0.52662631919    0.88278970434  )
        15           Si  tau(  15) = (    0.70268197316    0.65927121363    0.74034631685  )
        16           Si  tau(  16) = (    0.89236366912    0.88649963447    0.87391209548  )

   Crystallographic axes

     site n.     atom                  positions (cryst. coord.)
         1           Si  tau(   1) = (   -0.00012336477    0.04712635725   -0.06200374660  )
         2           Si  tau(   2) = (    0.07477937006    0.10920152254    0.13607252975  )
         3           Si  tau(   3) = (   -0.01805380166    0.05106170839    0.48205454342  )
         4           Si  tau(   4) = (    0.04972661794    0.13933783667    0.67607339878  )
         5           Si  tau(   5) = (   -0.00800907435    0.50338438530    0.04795594323  )
         6           Si  tau(   6) = (    0.08057921198    0.60221343916    0.19733152892  )
         7           Si  tau(   7) = (    0.01047407975    0.54484393237    0.44166275919  )
         8           Si  tau(   8) = (    0.14690526423    0.64693294711    0.60292435449  )
         9           Si  tau(   9) = (    0.48742092348   -0.03781412826   -0.01936544653  )
        10           Si  tau(  10) = (    0.54653525622    0.14482663692    0.16907277698  )
        11           Si  tau(  11) = (    0.50559440279    0.02711393426    0.52732176764  )
        12           Si  tau(  12) = (    0.57870809024    0.13332346052    0.64756720450  )
        13           Si  tau(  13) = (    0.54450780659    0.48786261091   -0.04232597883  )
        14           Si  tau(  14) = (    0.64299431388    0.60545885871    0.10176776902  )
        15           Si  tau(  15) = (    0.49280785863    0.55419994350    0.43954243297  )
        16           Si  tau(  16) = (    0.61380267021    0.62209566754    0.63989713590  )

     number of k points=    36  gaussian smearing, width (Ry)=  0.0150
                       cart. coord. in units 2pi/alat
        k(    1) = (   0.0000000   0.0000000   0.0000000), wk =   0.0312500
        k(    2) = (   0.1767767   0.1767767  -0.1767767), wk =   0.0625000
        k(    3) = (  -0.3535534  -0.3535534   0.3535534), wk =   0.0312500
        k(    4) = (   0.3535534   0.0000000   0.0000000), wk =   0.0625000
        k(    5) = (  -0.1767767  -0.5303301   0.5303301), wk =   0.0625000
        k(    6) = (   0.0000000  -0.3535534   0.3535534), wk =   0.0625000
        k(    7) = (  -0.7071068   0.0000000   0.0000000), wk =   0.0312500
        k(    8) = (  -0.7071068   0.3535534   0.0000000), wk =   0.0625000
        k(    9) = (  -0.1767767  -0.1767767  -0.1767767), wk =   0.0625000
        k(   10) = (  -0.1767767   0.1767767   0.1767767), wk =   0.0625000
        k(   11) = (   0.1767767  -0.1767767   0.1767767), wk =   0.0625000
        k(   12) = (   0.3535534   0.3535534   0.3535534), wk =   0.0312500
        k(   13) = (   0.3535534  -0.3535534  -0.3535534), wk =   0.0312500
        k(   14) = (  -0.3535534   0.3535534  -0.3535534), wk =   0.0312500
        k(   15) = (   0.0000000   0.3535534   0.0000000), wk =   0.0625000
        k(   16) = (   0.0000000   0.0000000   0.3535534), wk =   0.0625000
        k(   17) = (   0.1767767   0.5303301   0.5303301), wk =   0.0625000
        k(   18) = (   0.1767767  -0.5303301  -0.5303301), wk =   0.0625000
        k(   19) = (  -0.1767767   0.5303301  -0.5303301), wk =   0.0625000
        k(   20) = (  -0.5303301  -0.1767767  -0.5303301), wk =   0.0625000
        k(   21) = (   0.5303301   0.1767767  -0.5303301), wk =   0.0625000
        k(   22) = (  -0.5303301   0.1767767   0.5303301), wk =   0.0625000
        k(   23) = (   0.5303301  -0.1767767   0.5303301), wk =   0.0625000
        k(   24) = (   0.5303301   0.5303301  -0.1767767), wk =   0.0625000
        k(   25) = (  -0.5303301   0.5303301   0.1767767), wk =   0.0625000
        k(   26) = (   0.5303301  -0.5303301   0.1767767), wk =   0.0625000
        k(   27) = (  -0.5303301  -0.5303301  -0.1767767), wk =   0.0625000
        k(   28) = (   0.0000000   0.3535534   0.3535534), wk =   0.0625000
        k(   29) = (  -0.3535534   0.0000000  -0.3535534), wk =   0.0625000
        k(   30) = (   0.3535534   0.0000000  -0.3535534), wk =   0.0625000
        k(   31) = (   0.3535534   0.3535534   0.0000000), wk =   0.0625000
        k(   32) = (  -0.3535534   0.3535534   0.0000000), wk =   0.0625000
        k(   33) = (   0.0000000  -0.7071068   0.0000000), wk =   0.0312500
        k(   34) = (   0.0000000   0.0000000  -0.7071068), wk =   0.0312500
        k(   35) = (   0.3535534  -0.7071068   0.0000000), wk =   0.0625000
        k(   36) = (   0.7071068   0.0000000   0.3535534), wk =   0.0625000

                       cryst. coord.
        k(    1) = (   0.0000000   0.0000000   0.0000000), wk =   0.0312500
        k(    2) = (   0.0000000   0.0000000   0.2500000), wk =   0.0625000
        k(    3) = (   0.0000000   0.0000000  -0.5000000), wk =   0.0312500
        k(    4) = (   0.0000000   0.2500000   0.2500000), wk =   0.0625000
        k(    5) = (   0.0000000   0.2500000  -0.5000000), wk =   0.0625000
        k(    6) = (   0.0000000   0.2500000  -0.2500000), wk =   0.0625000
        k(    7) = (   0.0000000  -0.5000000  -0.5000000), wk =   0.0312500
        k(    8) = (   0.2500000  -0.5000000  -0.2500000), wk =   0.0625000
        k(    9) = (  -0.2500000  -0.2500000  -0.2500000), wk =   0.0625000
        k(   10) = (   0.2500000   0.0000000   0.0000000), wk =   0.0625000
        k(   11) = (   0.0000000   0.2500000   0.0000000), wk =   0.0625000
        k(   12) = (   0.5000000   0.5000000   0.5000000), wk =   0.0312500
        k(   13) = (  -0.5000000   0.0000000   0.0000000), wk =   0.0312500
        k(   14) = (   0.0000000  -0.5000000   0.0000000), wk =   0.0312500
        k(   15) = (   0.2500000   0.0000000   0.2500000), wk =   0.0625000
        k(   16) = (   0.2500000   0.2500000   0.0000000), wk =   0.0625000
        k(   17) = (   0.7500000   0.5000000   0.5000000), wk =   0.0625000
        k(   18) = (  -0.7500000  -0.2500000  -0.2500000), wk =   0.0625000
        k(   19) = (   0.0000000  -0.5000000   0.2500000), wk =   0.0625000
        k(   20) = (  -0.5000000  -0.7500000  -0.5000000), wk =   0.0625000
        k(   21) = (  -0.2500000   0.0000000   0.5000000), wk =   0.0625000
        k(   22) = (   0.5000000   0.0000000  -0.2500000), wk =   0.0625000
        k(   23) = (   0.2500000   0.7500000   0.2500000), wk =   0.0625000
        k(   24) = (   0.2500000   0.2500000   0.7500000), wk =   0.0625000
        k(   25) = (   0.5000000  -0.2500000   0.0000000), wk =   0.0625000
        k(   26) = (  -0.2500000   0.5000000   0.0000000), wk =   0.0625000
        k(   27) = (  -0.5000000  -0.5000000  -0.7500000), wk =   0.0625000
        k(   28) = (   0.5000000   0.2500000   0.2500000), wk =   0.0625000
        k(   29) = (  -0.2500000  -0.5000000  -0.2500000), wk =   0.0625000
        k(   30) = (  -0.2500000   0.0000000   0.2500000), wk =   0.0625000
        k(   31) = (   0.2500000   0.2500000   0.5000000), wk =   0.0625000
        k(   32) = (   0.2500000  -0.2500000   0.0000000), wk =   0.0625000
        k(   33) = (  -0.5000000   0.0000000  -0.5000000), wk =   0.0312500
        k(   34) = (  -0.5000000  -0.5000000   0.0000000), wk =   0.0312500
        k(   35) = (  -0.5000000   0.2500000  -0.2500000), wk =   0.0625000
        k(   36) = (   0.2500000   0.7500000   0.5000000), wk =   0.0625000

     Dense  grid:   103379 G-vectors     FFT dimensions: (  72,  72,  72)

     Smooth grid:    60495 G-vectors     FFT dimensions: (  60,  60,  60)

     Largest allocated arrays     est. size (Mb)     dimensions
        Kohn-Sham Wavefunctions         0.56 Mb     (     974,   38)
        NL pseudopotentials             4.28 Mb     (     974,  288)
        Each V/rho on FFT grid          0.71 Mb     (   46656)
        Each G-vector array             0.10 Mb     (   12923)
        G-vector shells                 0.01 Mb     (     706)
     Largest temporary arrays     est. size (Mb)     dimensions
        Auxiliary wavefunctions         2.26 Mb     (     974,  152)
        Each subspace H/S matrix        0.35 Mb     (     152,  152)
        Each <psi_i|beta_j> matrix      0.17 Mb     (     288,   38)
        Arrays for rho mixing           5.70 Mb     (   46656,    8)

     Initial potential from superposition of free atoms

     starting charge   63.98963, renormalised to   64.00000
     Starting wfc are   64 randomized atomic wfcs

     total cpu time spent up to now is       13.1 secs

     per-process dynamical memory:    36.6 Mb

     Self-consistent Calculation

     iteration #  1     ecut=    35.00 Ry     beta=0.30
     Davidson diagonalization with overlap
     ethr =  1.00E-02,  avg # of iterations =  2.9

     total cpu time spent up to now is       47.4 secs

     total energy              =    -151.38110925 Ry
     Harris-Foulkes estimate   =    -151.52872541 Ry
     estimated scf accuracy    <       1.01434291 Ry

     iteration #  2     ecut=    35.00 Ry     beta=0.30
     Davidson diagonalization with overlap
     ethr =  1.58E-03,  avg # of iterations =  1.0

     negative rho (up, down):  2.412E-04 0.000E+00

     total cpu time spent up to now is       69.7 secs

     total energy              =    -151.12792065 Ry
     Harris-Foulkes estimate   =    -151.40208455 Ry
     estimated scf accuracy    <       0.58367594 Ry

     iteration #  3     ecut=    35.00 Ry     beta=0.30
     Davidson diagonalization with overlap
     ethr =  9.12E-04,  avg # of iterations =  2.2

     negative rho (up, down):  4.872E-07 0.000E+00

     total cpu time spent up to now is       98.4 secs

     total energy              =    -151.24435940 Ry
     Harris-Foulkes estimate   =    -151.25114418 Ry
     estimated scf accuracy    <       0.03944267 Ry

     iteration #  4     ecut=    35.00 Ry     beta=0.30
     Davidson diagonalization with overlap
     ethr =  6.16E-05,  avg # of iterations =  6.8

     total cpu time spent up to now is      135.1 secs

     total energy              =    -151.24085062 Ry
     Harris-Foulkes estimate   =    -151.24746211 Ry
     estimated scf accuracy    <       0.01982443 Ry

     iteration #  5     ecut=    35.00 Ry     beta=0.30
     Davidson diagonalization with overlap
     ethr =  3.10E-05,  avg # of iterations =  2.0

     total cpu time spent up to now is      161.4 secs

     total energy              =    -151.24351394 Ry
     Harris-Foulkes estimate   =    -151.24363616 Ry
     estimated scf accuracy    <       0.00047757 Ry

     iteration #  6     ecut=    35.00 Ry     beta=0.30
     Davidson diagonalization with overlap
     ethr =  7.46E-07,  avg # of iterations =  5.6

     total cpu time spent up to now is      217.2 secs

     total energy              =    -151.24384423 Ry
     Harris-Foulkes estimate   =    -151.24389886 Ry
     estimated scf accuracy    <       0.00042014 Ry

     iteration #  7     ecut=    35.00 Ry     beta=0.30
     Davidson diagonalization with overlap
     ethr =  6.56E-07,  avg # of iterations =  1.0

     total cpu time spent up to now is      240.5 secs

     total energy              =    -151.24382864 Ry
     Harris-Foulkes estimate   =    -151.24386044 Ry
     estimated scf accuracy    <       0.00012045 Ry

     iteration #  8     ecut=    35.00 Ry     beta=0.30
     Davidson diagonalization with overlap
     ethr =  1.88E-07,  avg # of iterations =  2.6

     total cpu time spent up to now is      266.9 secs

     total energy              =    -151.24385376 Ry
     Harris-Foulkes estimate   =    -151.24385597 Ry
     estimated scf accuracy    <       0.00001128 Ry

     iteration #  9     ecut=    35.00 Ry     beta=0.30
     Davidson diagonalization with overlap
     ethr =  1.76E-08,  avg # of iterations =  2.0

     total cpu time spent up to now is      287.9 secs

     total energy              =    -151.24385355 Ry
     Harris-Foulkes estimate   =    -151.24385458 Ry
     estimated scf accuracy    <       0.00000333 Ry

     iteration # 10     ecut=    35.00 Ry     beta=0.30
     Davidson diagonalization with overlap
     ethr =  5.21E-09,  avg # of iterations =  2.4

     total cpu time spent up to now is      313.1 secs

     total energy              =    -151.24385429 Ry
     Harris-Foulkes estimate   =    -151.24385431 Ry
     estimated scf accuracy    <       0.00000022 Ry

     iteration # 11     ecut=    35.00 Ry     beta=0.30
     Davidson diagonalization with overlap
     ethr =  3.40E-10,  avg # of iterations =  2.1

     total cpu time spent up to now is      334.5 secs

     total energy              =    -151.24385427 Ry
     Harris-Foulkes estimate   =    -151.24385431 Ry
     estimated scf accuracy    <       0.00000013 Ry

     iteration # 12     ecut=    35.00 Ry     beta=0.30
     Davidson diagonalization with overlap
     ethr =  1.96E-10,  avg # of iterations =  2.1

     total cpu time spent up to now is      358.7 secs

     total energy              =    -151.24385429 Ry
     Harris-Foulkes estimate   =    -151.24385429 Ry
     estimated scf accuracy    <          4.5E-09 Ry

     iteration # 13     ecut=    35.00 Ry     beta=0.30
     Davidson diagonalization with overlap
     ethr =  7.05E-12,  avg # of iterations =  3.1

     total cpu time spent up to now is      387.0 secs

     total energy              =    -151.24385430 Ry
     Harris-Foulkes estimate   =    -151.24385430 Ry
     estimated scf accuracy    <          2.1E-09 Ry

     iteration # 14     ecut=    35.00 Ry     beta=0.30
     Davidson diagonalization with overlap
     ethr =  3.31E-12,  avg # of iterations =  2.3

     total cpu time spent up to now is      411.2 secs

     total energy              =    -151.24385430 Ry
     Harris-Foulkes estimate   =    -151.24385430 Ry
     estimated scf accuracy    <          1.1E-09 Ry

     iteration # 15     ecut=    35.00 Ry     beta=0.30
     Davidson diagonalization with overlap
     ethr =  1.74E-12,  avg # of iterations =  2.0

     total cpu time spent up to now is      434.2 secs

     End of self-consistent calculation

          k = 0.0000 0.0000 0.0000 (  7631 PWs)   bands (ev):

    -6.2854  -4.6549  -4.5398  -3.8074  -3.7113  -3.1125  -2.5894  -2.0723
    -1.9944  -1.7450  -1.1561  -0.9880  -0.7129  -0.1024   0.1059   2.5175
     2.8528   2.9839   3.1276   3.2669   3.4012   3.6854   3.9234   4.3142
     4.7855   4.9861   5.0282   5.3438   5.4830   5.5524   5.7453   6.0459
     6.1529   6.5051   6.5848   6.6626   6.9902   7.1270

     occupation numbers 
     1.0000   1.0000   1.0000   1.0000   1.0000   1.0000   1.0000   1.0000
     1.0000   1.0000   1.0000   1.0000   1.0000   1.0000   1.0000   1.0000
     1.0000   1.0000   1.0000   1.0000   1.0000   1.0000   1.0000   1.0000
     1.0000   1.0000   1.0000   1.0000   1.0000   1.0000   0.9991   0.8510
     0.6176   0.0161   0.0035   0.0006   0.0000   0.0000

          k = 0.1768 0.1768-0.1768 (  7564 PWs)   bands (ev):

    -6.0931  -4.8403  -4.5219  -4.1820  -3.7684  -3.1706  -3.1086  -2.4184
    -1.3750  -1.1396  -0.8058  -0.3711  -0.1962   0.2479   0.5042   1.7563
     2.1350   2.4264   2.6394   2.9529   3.1640   3.4589   3.6045   3.7917
     4.1256   4.4860   4.7186   4.9373   5.1599   5.6134   6.0102   6.2115
     6.4218   6.8780   6.9848   7.2543   7.3035   7.5439

     occupation numbers 
     1.0000   1.0000   1.0000   1.0000   1.0000   1.0000   1.0000   1.0000
     1.0000   1.0000   1.0000   1.0000   1.0000   1.0000   1.0000   1.0000
     1.0000   1.0000   1.0000   1.0000   1.0000   1.0000   1.0000   1.0000
     1.0000   1.0000   1.0000   1.0000   1.0000   1.0000   0.9010   0.4574
     0.0588   0.0000   0.0000   0.0000   0.0000   0.0000

          k =-0.3536-0.3536 0.3536 (  7570 PWs)   bands (ev):

    -5.5748  -5.5114  -4.4196  -4.3175  -3.8531  -3.4987  -3.0058  -2.7653
    -1.0077  -0.6286  -0.1348   0.1422   0.6155   0.8667   1.2108   1.3046
     1.5202   1.6717   1.8879   2.0181   2.2924   2.7221   3.8273   3.8639
     4.0051   4.0516   4.2166   4.4220   5.2203   5.3620   5.9594   6.0178
     6.9655   7.0457   7.3314   7.5462   7.7497   7.9370

     occupation numbers 
     1.0000   1.0000   1.0000   1.0000   1.0000   1.0000   1.0000   1.0000
     1.0000   1.0000   1.0000   1.0000   1.0000   1.0000   1.0000   1.0000
     1.0000   1.0000   1.0000   1.0000   1.0000   1.0000   1.0000   1.0000
     1.0000   1.0000   1.0000   1.0000   1.0000   1.0000   0.9495   0.8916
     0.0000   0.0000   0.0000   0.0000   0.0000   0.0000

          k = 0.3536 0.0000 0.0000 (  7563 PWs)   bands (ev):

    -6.0525  -4.7972  -4.6756  -3.9454  -3.8820  -3.5739  -3.0341  -1.9874
    -1.5763  -1.1194  -0.7907  -0.5955  -0.1038   0.5229   0.6587   1.8858
     2.3353   2.4632   2.5696   2.9720   3.1102   3.3522   3.4756   3.6925
     4.0750   4.2105   4.7063   4.8325   5.2119   5.4308   5.6296   6.0118
     6.2866   6.6786   6.9418   7.1331   7.2511   7.5727

     occupation numbers 
     1.0000   1.0000   1.0000   1.0000   1.0000   1.0000   1.0000   1.0000
     1.0000   1.0000   1.0000   1.0000   1.0000   1.0000   1.0000   1.0000
     1.0000   1.0000   1.0000   1.0000   1.0000   1.0000   1.0000   1.0000
     1.0000   1.0000   1.0000   1.0000   1.0000   1.0000   1.0000   0.8991
     0.2652   0.0004   0.0000   0.0000   0.0000   0.0000

          k =-0.1768-0.5303 0.5303 (  7554 PWs)   bands (ev):

    -5.6563  -5.1760  -4.8205  -4.1952  -3.9504  -3.7320  -2.9106  -2.3671
    -1.1911  -0.5897  -0.3260   0.2263   0.6008   0.9272   1.3055   1.3912
     1.6291   1.7945   2.0682   2.2183   2.6308   2.9141   3.2150   3.3154
     3.7976   3.9815   4.1122   4.5820   4.6960   5.0774   5.5708   5.8937
     6.9425   7.2814   7.4902   7.7743   8.1009   8.2952

     occupation numbers 
     1.0000   1.0000   1.0000   1.0000   1.0000   1.0000   1.0000   1.0000
     1.0000   1.0000   1.0000   1.0000   1.0000   1.0000   1.0000   1.0000
     1.0000   1.0000   1.0000   1.0000   1.0000   1.0000   1.0000   1.0000
     1.0000   1.0000   1.0000   1.0000   1.0000   1.0000   1.0000   0.9819
     0.0000   0.0000   0.0000   0.0000   0.0000   0.0000

          k = 0.0000-0.3536 0.3536 (  7592 PWs)   bands (ev):

    -5.7963  -5.1821  -4.6405  -4.1859  -3.9939  -3.4295  -2.8597  -2.2828
    -1.5554  -1.0951  -0.4791   0.0593   0.2610   0.9428   1.2493   1.4961
     1.8490   2.1681   2.3164   2.5478   2.9795   3.0630   3.3077   3.6550
     3.8575   4.0087   4.1479   4.4538   4.7707   4.8217   5.2271   6.4510
     6.8038   7.0944   7.3039   7.7082   7.8653   8.0648

     occupation numbers 
     1.0000   1.0000   1.0000   1.0000   1.0000   1.0000   1.0000   1.0000
     1.0000   1.0000   1.0000   1.0000   1.0000   1.0000   1.0000   1.0000
     1.0000   1.0000   1.0000   1.0000   1.0000   1.0000   1.0000   1.0000
     1.0000   1.0000   1.0000   1.0000   1.0000   1.0000   1.0000   0.0386
     0.0000   0.0000   0.0000   0.0000   0.0000   0.0000

          k =-0.7071 0.0000 0.0000 (  7528 PWs)   bands (ev):

    -5.6018  -5.0972  -4.8097  -4.4358  -4.0502  -3.6984  -3.0310  -1.8815
    -1.3951  -0.7450  -0.1382   0.1974   0.6611   0.9348   1.3943   1.7200
     1.9805   2.0123   2.0252   2.1838   2.5033   2.5259   2.7384   2.9254
     3.8043   4.0688   4.5203   4.6036   4.7998   5.1477   5.4119   5.7796
     5.9417   6.9802   7.0304   7.6868   7.9876   8.2623

     occupation numbers 
     1.0000   1.0000   1.0000   1.0000   1.0000   1.0000   1.0000   1.0000
     1.0000   1.0000   1.0000   1.0000   1.0000   1.0000   1.0000   1.0000
     1.0000   1.0000   1.0000   1.0000   1.0000   1.0000   1.0000   1.0000
     1.0000   1.0000   1.0000   1.0000   1.0000   1.0000   1.0000   0.9980
     0.9610   0.0000   0.0000   0.0000   0.0000   0.0000

          k =-0.7071 0.3536 0.0000 (  7564 PWs)   bands (ev):

    -5.3939  -5.3135  -5.0134  -4.4364  -3.9708  -3.3039  -2.7448  -2.5220
    -1.3085  -0.9314  -0.5928   0.2895   0.8456   1.3233   1.4844   1.6375
     1.8091   1.9781   2.2650   2.5088   2.8505   2.9681   3.1308   3.2270
     3.3756   3.5469   3.7237   4.1082   4.3617   4.8911   5.1659   5.5637
     7.0082   7.3432   7.6890   7.8259   8.0651   8.1481

     occupation numbers 
     1.0000   1.0000   1.0000   1.0000   1.0000   1.0000   1.0000   1.0000
     1.0000   1.0000   1.0000   1.0000   1.0000   1.0000   1.0000   1.0000
     1.0000   1.0000   1.0000   1.0000   1.0000   1.0000   1.0000   1.0000
     1.0000   1.0000   1.0000   1.0000   1.0000   1.0000   1.0000   1.0000
     0.0000   0.0000   0.0000   0.0000   0.0000   0.0000

          k =-0.1768-0.1768-0.1768 (  7564 PWs)   bands (ev):

    -6.1019  -4.8929  -4.4882  -4.0224  -3.9347  -3.1205  -2.9814  -2.3393
    -1.6344  -1.1897  -0.9302  -0.4905  -0.1194   0.2815   0.4621   1.8254
     2.2182   2.4695   2.8970   2.9977   3.3126   3.4932   3.6768   4.0152
     4.1426   4.4620   4.8727   4.9285   5.1341   5.4731   5.6336   6.0468
     6.2130   6.7230   6.9586   7.0253   7.1589   7.4330

     occupation numbers 
     1.0000   1.0000   1.0000   1.0000   1.0000   1.0000   1.0000   1.0000
     1.0000   1.0000   1.0000   1.0000   1.0000   1.0000   1.0000   1.0000
     1.0000   1.0000   1.0000   1.0000   1.0000   1.0000   1.0000   1.0000
     1.0000   1.0000   1.0000   1.0000   1.0000   1.0000   1.0000   0.8494
     0.4532   0.0001   0.0000   0.0000   0.0000   0.0000

          k =-0.1768 0.1768 0.1768 (  7564 PWs)   bands (ev):

    -6.1123  -4.9725  -4.5061  -3.9389  -3.7185  -3.1592  -2.9246  -2.3682
    -1.6193  -1.4254  -1.0992  -0.7569  -0.2292   0.2136   0.7583   2.3090
     2.5661   2.7289   2.9756   3.0840   3.3011   3.4957   3.7249   3.9107
     3.9821   4.3584   4.7667   4.9444   5.2475   5.3060   5.5071   5.6924
     6.0478   6.5367   6.7044   6.9638   7.1821   7.4117

     occupation numbers 
     1.0000   1.0000   1.0000   1.0000   1.0000   1.0000   1.0000   1.0000
     1.0000   1.0000   1.0000   1.0000   1.0000   1.0000   1.0000   1.0000
     1.0000   1.0000   1.0000   1.0000   1.0000   1.0000   1.0000   1.0000
     1.0000   1.0000   1.0000   1.0000   1.0000   1.0000   1.0000   0.9998
     0.8478   0.0091   0.0002   0.0000   0.0000   0.0000

          k = 0.1768-0.1768 0.1768 (  7564 PWs)   bands (ev):

    -6.1089  -4.9493  -4.5396  -3.9972  -3.6418  -3.2088  -2.8880  -2.3903
    -1.7107  -1.3249  -1.0971  -0.6820  -0.1930   0.2433   0.6942   2.3481
     2.4250   2.7093   2.8839   3.1363   3.3183   3.5088   3.6445   3.8361
     4.1819   4.2856   4.5677   4.8000   5.2050   5.2663   5.7737   5.9626
     6.1600   6.5670   6.8373   7.0422   7.2528   7.2866

     occupation numbers 
     1.0000   1.0000   1.0000   1.0000   1.0000   1.0000   1.0000   1.0000
     1.0000   1.0000   1.0000   1.0000   1.0000   1.0000   1.0000   1.0000
     1.0000   1.0000   1.0000   1.0000   1.0000   1.0000   1.0000   1.0000
     1.0000   1.0000   1.0000   1.0000   1.0000   1.0000   0.9983   0.9472
     0.5987   0.0051   0.0000   0.0000   0.0000   0.0000

          k = 0.3536 0.3536 0.3536 (  7570 PWs)   bands (ev):

    -5.6857  -5.4382  -4.4277  -4.0903  -4.0631  -3.4710  -2.9584  -2.3324
    -1.7059  -0.6277  -0.4013  -0.1154   0.4119   0.8403   1.2345   1.6305
     1.6822   1.9213   2.0771   2.2467   2.8158   3.0955   3.5407   3.8231
     3.9636   4.1686   4.3167   4.6377   5.0711   5.3051   5.5410   6.1343
     6.4645   6.6070   6.8369   7.2928   7.5355   7.7224

     occupation numbers 
     1.0000   1.0000   1.0000   1.0000   1.0000   1.0000   1.0000   1.0000
     1.0000   1.0000   1.0000   1.0000   1.0000   1.0000   1.0000   1.0000
     1.0000   1.0000   1.0000   1.0000   1.0000   1.0000   1.0000   1.0000
     1.0000   1.0000   1.0000   1.0000   1.0000   1.0000   1.0000   0.6657
     0.0314   0.0022   0.0000   0.0000   0.0000   0.0000

          k = 0.3536-0.3536-0.3536 (  7570 PWs)   bands (ev):

    -5.7076  -5.5214  -4.4322  -4.1212  -3.6456  -3.2828  -3.0345  -2.6025
    -1.3910  -1.1501  -0.9166  -0.5105   0.1444   0.5029   2.0589   2.1988
     2.3987   2.4157   2.5582   2.8265   3.1134   3.1955   3.2681   3.3199
     3.6750   3.9041   4.1910   4.4488   4.8769   5.0969   5.3609   5.8191
     6.2554   6.3972   6.6971   7.1058   7.2595   7.3933

     occupation numbers 
     1.0000   1.0000   1.0000   1.0000   1.0000   1.0000   1.0000   1.0000
     1.0000   1.0000   1.0000   1.0000   1.0000   1.0000   1.0000   1.0000
     1.0000   1.0000   1.0000   1.0000   1.0000   1.0000   1.0000   1.0000
     1.0000   1.0000   1.0000   1.0000   1.0000   1.0000   1.0000   0.9955
     0.3403   0.0817   0.0003   0.0000   0.0000   0.0000

          k =-0.3536 0.3536-0.3536 (  7570 PWs)   bands (ev):

    -5.6680  -5.5474  -4.4041  -4.2345  -3.5500  -3.3680  -2.9652  -2.6563
    -1.4876  -1.0771  -0.7880  -0.4159   0.0825   0.6829   1.7988   2.1631
     2.2652   2.4676   2.6884   2.8293   2.9588   3.1435   3.1930   3.3422
     3.4752   3.9157   4.1314   4.4302   4.7812   5.1227   5.8725   5.9294
     6.3267   6.6510   6.7688   7.0003   7.3573   7.4440

     occupation numbers 
     1.0000   1.0000   1.0000   1.0000   1.0000   1.0000   1.0000   1.0000
     1.0000   1.0000   1.0000   1.0000   1.0000   1.0000   1.0000   1.0000
     1.0000   1.0000   1.0000   1.0000   1.0000   1.0000   1.0000   1.0000
     1.0000   1.0000   1.0000   1.0000   1.0000   1.0000   0.9875   0.9677
     0.1827   0.0008   0.0000   0.0000   0.0000   0.0000

          k = 0.0000 0.3536 0.0000 (  7563 PWs)   bands (ev):

    -6.0331  -4.8613  -4.5610  -4.2750  -3.8982  -3.2905  -2.8340  -2.0298
    -1.8121  -1.1946  -0.8082  -0.4265   0.1101   0.4283   0.5655   1.7993
     2.1822   2.3290   2.7390   2.8612   3.0864   3.3902   3.6350   3.7533
     3.9800   4.4054   4.6245   4.9422   5.1858   5.5490   5.6502   5.9476
     6.4743   6.6345   6.9433   7.2770   7.3685   7.5651

     occupation numbers 
     1.0000   1.0000   1.0000   1.0000   1.0000   1.0000   1.0000   1.0000
     1.0000   1.0000   1.0000   1.0000   1.0000   1.0000   1.0000   1.0000
     1.0000   1.0000   1.0000   1.0000   1.0000   1.0000   1.0000   1.0000
     1.0000   1.0000   1.0000   1.0000   1.0000   1.0000   0.9999   0.9574
     0.0269   0.0012   0.0000   0.0000   0.0000   0.0000

          k = 0.0000 0.0000 0.3536 (  7563 PWs)   bands (ev):

    -6.0483  -4.7568  -4.6368  -4.3422  -3.8496  -3.3246  -2.5408  -1.9844
    -1.7790  -1.6598  -0.9500  -0.6158   0.0710   0.4295   1.0178   2.2082
     2.3587   2.5260   2.6879   2.8517   3.1738   3.3355   3.4795   3.6418
     4.0117   4.2116   4.6116   4.7683   5.0418   5.2219   5.5525   5.7725
     6.2053   6.6976   7.0230   7.1888   7.3789   7.6479

     occupation numbers 
     1.0000   1.0000   1.0000   1.0000   1.0000   1.0000   1.0000   1.0000
     1.0000   1.0000   1.0000   1.0000   1.0000   1.0000   1.0000   1.0000
     1.0000   1.0000   1.0000   1.0000   1.0000   1.0000   1.0000   1.0000
     1.0000   1.0000   1.0000   1.0000   1.0000   1.0000   1.0000   0.9983
     0.4745   0.0003   0.0000   0.0000   0.0000   0.0000

          k = 0.1768 0.5303 0.5303 (  7554 PWs)   bands (ev):

    -5.6798  -5.2195  -4.6565  -4.3850  -3.9109  -3.5821  -3.0028  -2.0600
    -1.6299  -0.5166  -0.3704  -0.1202   0.5664   1.0282   1.2708   1.5186
     1.6438   1.9480   2.1677   2.3722   2.8433   3.0071   3.2638   3.4518
     3.6971   3.8868   4.2442   4.3526   4.8845   5.2878   5.4008   6.0129
     6.1407   6.9759   7.1925   7.4370   7.8446   8.1825

     occupation numbers 
     1.0000   1.0000   1.0000   1.0000   1.0000   1.0000   1.0000   1.0000
     1.0000   1.0000   1.0000   1.0000   1.0000   1.0000   1.0000   1.0000
     1.0000   1.0000   1.0000   1.0000   1.0000   1.0000   1.0000   1.0000
     1.0000   1.0000   1.0000   1.0000   1.0000   1.0000   1.0000   0.8977
     0.6492   0.0000   0.0000   0.0000   0.0000   0.0000

          k = 0.1768-0.5303-0.5303 (  7554 PWs)   bands (ev):

    -5.7015  -5.2671  -4.6645  -4.2926  -3.8463  -3.5038  -3.0012  -2.0809
    -1.6354  -0.9066  -0.5464  -0.3153   0.4695   0.9216   1.6847   1.8425
     2.0417   2.1170   2.3031   2.5776   2.8592   3.0619   3.2432   3.4825
     3.5455   3.8955   4.0654   4.4154   4.7594   4.9615   5.2427   5.7063
     6.2314   6.7854   7.1947   7.5758   7.7981   8.1482

     occupation numbers 
     1.0000   1.0000   1.0000   1.0000   1.0000   1.0000   1.0000   1.0000
     1.0000   1.0000   1.0000   1.0000   1.0000   1.0000   1.0000   1.0000
     1.0000   1.0000   1.0000   1.0000   1.0000   1.0000   1.0000   1.0000
     1.0000   1.0000   1.0000   1.0000   1.0000   1.0000   1.0000   0.9997
     0.4032   0.0000   0.0000   0.0000   0.0000   0.0000

          k =-0.1768 0.5303-0.5303 (  7554 PWs)   bands (ev):

    -5.6995  -5.2184  -4.7936  -4.1477  -3.8191  -3.7288  -2.7145  -2.3540
    -1.4424  -1.1292  -0.5330   0.0041   0.4899   0.9506   1.4147   1.7559
     1.9681   2.1607   2.3606   2.5755   2.9147   3.1807   3.3197   3.4028
     3.5380   3.8162   4.0755   4.2191   4.5139   4.8416   5.2192   6.2052
     6.7302   7.0226   7.2382   7.4319   7.7991   7.9578

     occupation numbers 
     1.0000   1.0000   1.0000   1.0000   1.0000   1.0000   1.0000   1.0000
     1.0000   1.0000   1.0000   1.0000   1.0000   1.0000   1.0000   1.0000
     1.0000   1.0000   1.0000   1.0000   1.0000   1.0000   1.0000   1.0000
     1.0000   1.0000   1.0000   1.0000   1.0000   1.0000   1.0000   0.4748
     0.0001   0.0000   0.0000   0.0000   0.0000   0.0000

          k =-0.5303-0.1768-0.5303 (  7554 PWs)   bands (ev):

    -5.6266  -5.2380  -4.7367  -4.4100  -4.0716  -3.3402  -2.8429  -2.0995
    -1.7171  -0.8076  -0.2899   0.0371   0.7255   0.9898   1.2752   1.4956
     1.6368   1.7648   2.1847   2.3763   2.7613   2.9703   3.1811   3.4046
     3.7128   4.0916   4.2565   4.5871   4.8339   5.1106   5.4054   6.2158
     6.4509   6.9279   7.1384   7.5159   7.8223   8.1184

     occupation numbers 
     1.0000   1.0000   1.0000   1.0000   1.0000   1.0000   1.0000   1.0000
     1.0000   1.0000   1.0000   1.0000   1.0000   1.0000   1.0000   1.0000
     1.0000   1.0000   1.0000   1.0000   1.0000   1.0000   1.0000   1.0000
     1.0000   1.0000   1.0000   1.0000   1.0000   1.0000   1.0000   0.4455
     0.0387   0.0000   0.0000   0.0000   0.0000   0.0000

          k = 0.5303 0.1768-0.5303 (  7554 PWs)   bands (ev):

    -5.5897  -5.2388  -4.7885  -4.4455  -3.9757  -3.4391  -2.8327  -2.4090
    -1.2178  -0.8280  -0.2182   0.3421   0.6221   1.0107   1.2440   1.4372
     1.5361   1.7549   1.9966   2.0899   2.5569   2.9711   3.1118   3.4318
     3.8929   4.0686   4.2606   4.4783   4.6991   5.0950   5.6023   5.9879
     7.0350   7.3432   7.5176   7.6821   7.9862   8.2814

     occupation numbers 
     1.0000   1.0000   1.0000   1.0000   1.0000   1.0000   1.0000   1.0000
     1.0000   1.0000   1.0000   1.0000   1.0000   1.0000   1.0000   1.0000
     1.0000   1.0000   1.0000   1.0000   1.0000   1.0000   1.0000   1.0000
     1.0000   1.0000   1.0000   1.0000   1.0000   1.0000   1.0000   0.9254
     0.0000   0.0000   0.0000   0.0000   0.0000   0.0000

          k =-0.5303 0.1768 0.5303 (  7554 PWs)   bands (ev):

    -5.6558  -5.2705  -4.7290  -4.4173  -3.8996  -3.2831  -2.7962  -2.2562
    -1.6327  -1.0868  -0.5656  -0.1397   0.6416   0.7862   1.5754   1.7263
     1.9511   2.1631   2.3902   2.5870   2.8731   3.0501   3.1690   3.3860
     3.7232   4.0607   4.1483   4.3934   4.4835   4.9333   5.2625   5.7809
     6.7926   7.0465   7.2031   7.5412   7.6983   7.9224

     occupation numbers 
     1.0000   1.0000   1.0000   1.0000   1.0000   1.0000   1.0000   1.0000
     1.0000   1.0000   1.0000   1.0000   1.0000   1.0000   1.0000   1.0000
     1.0000   1.0000   1.0000   1.0000   1.0000   1.0000   1.0000   1.0000
     1.0000   1.0000   1.0000   1.0000   1.0000   1.0000   1.0000   0.9980
     0.0000   0.0000   0.0000   0.0000   0.0000   0.0000

          k = 0.5303-0.1768 0.5303 (  7554 PWs)   bands (ev):

    -5.6371  -5.2886  -4.7000  -4.4813  -3.8367  -3.3449  -2.8056  -2.2400
    -1.6162  -0.9792  -0.7606   0.0952   0.6300   0.8204   1.5713   1.7980
     1.8628   2.0647   2.3505   2.5506   2.6485   2.9670   3.2224   3.4030
     3.7626   3.9582   4.2628   4.4740   4.6400   4.7684   5.4608   6.0575
     6.5004   6.8278   7.1079   7.6031   7.7494   7.9539

     occupation numbers 
     1.0000   1.0000   1.0000   1.0000   1.0000   1.0000   1.0000   1.0000
     1.0000   1.0000   1.0000   1.0000   1.0000   1.0000   1.0000   1.0000
     1.0000   1.0000   1.0000   1.0000   1.0000   1.0000   1.0000   1.0000
     1.0000   1.0000   1.0000   1.0000   1.0000   1.0000   1.0000   0.8315
     0.0175   0.0000   0.0000   0.0000   0.0000   0.0000

          k = 0.5303 0.5303-0.1768 (  7554 PWs)   bands (ev):

    -5.6386  -5.1769  -4.7608  -4.5025  -4.0521  -3.0564  -2.9466  -2.4987
    -1.2237  -0.9931  -0.7275   0.4750   0.8162   1.0372   1.3754   1.6086
     1.6787   1.8688   2.1234   2.3652   2.6305   2.8989   3.2088   3.4423
     3.5968   3.7002   4.1574   4.3612   4.5687   4.9806   5.3128   6.0705
     7.0047   7.3343   7.6338   7.8034   8.1356   8.2764

     occupation numbers 
     1.0000   1.0000   1.0000   1.0000   1.0000   1.0000   1.0000   1.0000
     1.0000   1.0000   1.0000   1.0000   1.0000   1.0000   1.0000   1.0000
     1.0000   1.0000   1.0000   1.0000   1.0000   1.0000   1.0000   1.0000
     1.0000   1.0000   1.0000   1.0000   1.0000   1.0000   1.0000   0.8078
     0.0000   0.0000   0.0000   0.0000   0.0000   0.0000

          k =-0.5303 0.5303 0.1768 (  7554 PWs)   bands (ev):

    -5.6795  -5.2597  -4.7729  -4.3423  -3.8607  -3.2453  -2.8237  -2.2607
    -1.5837  -1.2885  -0.6404  -0.2207   0.1668   1.3959   1.7176   2.0692
     2.1250   2.2182   2.4348   2.6820   2.8646   2.9943   3.1598   3.2985
     3.6091   3.8374   4.0647   4.4334   4.6881   4.7854   5.1303   5.3272
     6.2787   6.6970   7.0315   7.5094   7.9026   7.9986

     occupation numbers 
     1.0000   1.0000   1.0000   1.0000   1.0000   1.0000   1.0000   1.0000
     1.0000   1.0000   1.0000   1.0000   1.0000   1.0000   1.0000   1.0000
     1.0000   1.0000   1.0000   1.0000   1.0000   1.0000   1.0000   1.0000
     1.0000   1.0000   1.0000   1.0000   1.0000   1.0000   1.0000   1.0000
     0.2834   0.0003   0.0000   0.0000   0.0000   0.0000

          k = 0.5303-0.5303 0.1768 (  7554 PWs)   bands (ev):

    -5.6657  -5.2668  -4.7652  -4.3908  -3.8146  -3.2873  -2.8332  -2.1966
    -1.6881  -1.2245  -0.6009  -0.2404   0.3231   1.4140   1.6639   1.9023
     2.0572   2.2258   2.4636   2.6679   2.8158   2.9903   3.1660   3.3035
     3.6049   3.9506   4.0237   4.3762   4.5624   4.7473   4.9657   5.7633
     6.3674   6.7054   7.1690   7.4821   7.8031   8.1895

     occupation numbers 
     1.0000   1.0000   1.0000   1.0000   1.0000   1.0000   1.0000   1.0000
     1.0000   1.0000   1.0000   1.0000   1.0000   1.0000   1.0000   1.0000
     1.0000   1.0000   1.0000   1.0000   1.0000   1.0000   1.0000   1.0000
     1.0000   1.0000   1.0000   1.0000   1.0000   1.0000   1.0000   0.9986
     0.1175   0.0002   0.0000   0.0000   0.0000   0.0000

          k =-0.5303-0.5303-0.1768 (  7554 PWs)   bands (ev):

    -5.6703  -5.1726  -4.7472  -4.4373  -4.1216  -3.0459  -2.7573  -2.4792
    -1.4902  -1.0196  -0.8811   0.5375   0.6646   1.0393   1.2934   1.5576
     1.6920   1.8969   2.4608   2.7689   2.9006   3.0211   3.2126   3.4270
     3.5520   3.7956   4.0836   4.2173   4.5639   4.7245   5.1956   6.3027
     6.8451   7.0134   7.5210   7.5602   7.7770   8.1032

     occupation numbers 
     1.0000   1.0000   1.0000   1.0000   1.0000   1.0000   1.0000   1.0000
     1.0000   1.0000   1.0000   1.0000   1.0000   1.0000   1.0000   1.0000
     1.0000   1.0000   1.0000   1.0000   1.0000   1.0000   1.0000   1.0000
     1.0000   1.0000   1.0000   1.0000   1.0000   1.0000   1.0000   0.2299
     0.0000   0.0000   0.0000   0.0000   0.0000   0.0000

          k = 0.0000 0.3536 0.3536 (  7592 PWs)   bands (ev):

    -5.8207  -5.2115  -4.4926  -4.2919  -4.0274  -3.2448  -2.8011  -2.3226
    -1.7098  -1.1196  -0.5653  -0.2841   0.3043   0.7982   1.2571   1.6369
     1.9616   2.4098   2.6044   2.7649   3.0121   3.1406   3.4744   3.6488
     3.8789   3.9514   4.1367   4.4509   4.7969   4.9542   5.3391   5.8037
     6.3375   6.6895   6.9911   7.5283   7.7200   8.0095

     occupation numbers 
     1.0000   1.0000   1.0000   1.0000   1.0000   1.0000   1.0000   1.0000
     1.0000   1.0000   1.0000   1.0000   1.0000   1.0000   1.0000   1.0000
     1.0000   1.0000   1.0000   1.0000   1.0000   1.0000   1.0000   1.0000
     1.0000   1.0000   1.0000   1.0000   1.0000   1.0000   1.0000   0.9967
     0.1635   0.0003   0.0000   0.0000   0.0000   0.0000

          k =-0.3536 0.0000-0.3536 (  7592 PWs)   bands (ev):

    -5.8319  -5.0346  -4.8331  -4.2263  -3.8408  -3.3937  -2.6925  -2.3886
    -1.5937  -1.1442  -0.9114   0.2693   0.3778   0.6042   1.1823   1.6273
     2.0711   2.1866   2.5057   2.8696   2.9366   3.1552   3.5065   3.6283
     3.8061   3.9233   4.1372   4.3602   4.7377   5.0036   5.3391   6.1897
     6.4425   6.8880   7.1821   7.3254   7.5196   7.8352

     occupation numbers 
     1.0000   1.0000   1.0000   1.0000   1.0000   1.0000   1.0000   1.0000
     1.0000   1.0000   1.0000   1.0000   1.0000   1.0000   1.0000   1.0000
     1.0000   1.0000   1.0000   1.0000   1.0000   1.0000   1.0000   1.0000
     1.0000   1.0000   1.0000   1.0000   1.0000   1.0000   1.0000   0.5175
     0.0438   0.0000   0.0000   0.0000   0.0000   0.0000

          k = 0.3536 0.0000-0.3536 (  7592 PWs)   bands (ev):

    -5.8211  -5.0355  -4.8288  -4.2511  -3.7843  -3.4152  -2.9911  -2.1976
    -1.5206  -1.1203  -0.6314  -0.0444   0.3594   0.7783   1.3794   1.6799
     1.9058   2.0710   2.3969   2.6367   2.9493   3.1058   3.3425   3.5197
     3.7104   3.9674   4.3253   4.4412   4.7347   5.0510   5.2834   6.0742
     6.6761   7.0388   7.4979   7.6738   7.8115   7.9280

     occupation numbers 
     1.0000   1.0000   1.0000   1.0000   1.0000   1.0000   1.0000   1.0000
     1.0000   1.0000   1.0000   1.0000   1.0000   1.0000   1.0000   1.0000
     1.0000   1.0000   1.0000   1.0000   1.0000   1.0000   1.0000   1.0000
     1.0000   1.0000   1.0000   1.0000   1.0000   1.0000   1.0000   0.8008
     0.0004   0.0000   0.0000   0.0000   0.0000   0.0000

          k = 0.3536 0.3536 0.0000 (  7592 PWs)   bands (ev):

    -5.7859  -5.0861  -4.7601  -4.2036  -3.9841  -3.4883  -2.9742  -2.1840
    -1.6360  -0.7280  -0.2392   0.2233   0.4773   0.7142   1.0317   1.2652
     1.5567   1.9028   2.2302   2.5662   2.9132   3.0093   3.2155   3.6635
     3.9442   4.0852   4.2747   4.5254   4.6836   4.9897   5.4053   6.5925
     7.0688   7.3087   7.3600   7.6261   7.8002   8.0591

     occupation numbers 
     1.0000   1.0000   1.0000   1.0000   1.0000   1.0000   1.0000   1.0000
     1.0000   1.0000   1.0000   1.0000   1.0000   1.0000   1.0000   1.0000
     1.0000   1.0000   1.0000   1.0000   1.0000   1.0000   1.0000   1.0000
     1.0000   1.0000   1.0000   1.0000   1.0000   1.0000   1.0000   0.0030
     0.0000   0.0000   0.0000   0.0000   0.0000   0.0000

          k =-0.3536 0.3536 0.0000 (  7592 PWs)   bands (ev):

    -5.8364  -5.1369  -4.8579  -4.0652  -3.6128  -3.2843  -2.9154  -2.5434
    -1.6445  -1.2245  -0.6999  -0.2920  -0.0063   0.8723   1.4083   1.7778
     2.4152   2.5039   2.8286   2.9795   3.1725   3.2319   3.3605   3.4891
     3.6624   3.8376   4.2282   4.4653   4.6415   4.9373   5.1111   5.4010
     6.1808   6.8907   6.9808   7.3979   7.5314   7.7069

     occupation numbers 
     1.0000   1.0000   1.0000   1.0000   1.0000   1.0000   1.0000   1.0000
     1.0000   1.0000   1.0000   1.0000   1.0000   1.0000   1.0000   1.0000
     1.0000   1.0000   1.0000   1.0000   1.0000   1.0000   1.0000   1.0000
     1.0000   1.0000   1.0000   1.0000   1.0000   1.0000   1.0000   1.0000
     0.5420   0.0000   0.0000   0.0000   0.0000   0.0000

          k = 0.0000-0.7071 0.0000 (  7528 PWs)   bands (ev):

    -5.3991  -5.2159  -4.9788  -4.5604  -4.1356  -3.4202  -2.7631  -1.7983
    -1.6915  -0.9334  -0.0950   0.3913   0.5006   1.1915   1.4349   1.7578
     1.8690   1.9650   2.0135   2.1675   2.2443   2.2976   2.7003   2.8530
     4.0808   4.3568   4.4582   4.5701   4.8814   5.2231   5.4230   5.9688
     6.3029   6.7272   7.3730   7.6640   7.8311   8.1059

     occupation numbers 
     1.0000   1.0000   1.0000   1.0000   1.0000   1.0000   1.0000   1.0000
     1.0000   1.0000   1.0000   1.0000   1.0000   1.0000   1.0000   1.0000
     1.0000   1.0000   1.0000   1.0000   1.0000   1.0000   1.0000   1.0000
     1.0000   1.0000   1.0000   1.0000   1.0000   1.0000   1.0000   0.9423
     0.2296   0.0001   0.0000   0.0000   0.0000   0.0000

          k = 0.0000 0.0000-0.7071 (  7528 PWs)   bands (ev):

    -5.5213  -5.1576  -4.8360  -4.6955  -3.9786  -3.4720  -2.4974  -1.8893
    -1.6298  -1.5368  -0.4273  -0.0884   1.1766   1.3679   1.7210   1.9080
     2.0048   2.0878   2.2123   2.2905   2.4828   2.7015   2.8368   3.2106
     3.3468   3.8563   4.2786   4.3183   4.5630   4.7286   5.1707   5.6674
     6.2402   6.6651   7.1978   7.4053   8.0839   8.5893

     occupation numbers 
     1.0000   1.0000   1.0000   1.0000   1.0000   1.0000   1.0000   1.0000
     1.0000   1.0000   1.0000   1.0000   1.0000   1.0000   1.0000   1.0000
     1.0000   1.0000   1.0000   1.0000   1.0000   1.0000   1.0000   1.0000
     1.0000   1.0000   1.0000   1.0000   1.0000   1.0000   1.0000   0.9999
     0.3797   0.0006   0.0000   0.0000   0.0000   0.0000

          k = 0.3536-0.7071 0.0000 (  7564 PWs)   bands (ev):

    -5.3535  -5.1993  -5.0179  -4.8412  -3.7000  -3.2460  -2.7677  -2.4695
    -1.2423  -1.1066  -0.7060   0.4227   0.9116   1.3037   1.5339   1.6588
     1.8082   1.9136   2.1643   2.3492   2.6753   2.8158   3.1585   3.2863
     3.6103   3.6652   3.9751   4.1447   4.3407   4.7452   5.0235   5.8196
     7.1096   7.3525   7.6652   7.7866   7.9390   8.2285

     occupation numbers 
     1.0000   1.0000   1.0000   1.0000   1.0000   1.0000   1.0000   1.0000
     1.0000   1.0000   1.0000   1.0000   1.0000   1.0000   1.0000   1.0000
     1.0000   1.0000   1.0000   1.0000   1.0000   1.0000   1.0000   1.0000
     1.0000   1.0000   1.0000   1.0000   1.0000   1.0000   1.0000   0.9955
     0.0000   0.0000   0.0000   0.0000   0.0000   0.0000

          k = 0.7071 0.0000 0.3536 (  7564 PWs)   bands (ev):

    -5.4061  -5.2263  -5.0608  -4.4452  -3.9969  -3.4747  -2.7451  -2.3786
    -1.2802  -0.6579  -0.3810   0.0655   0.9863   1.1714   1.3304   1.5623
     1.6523   1.8420   2.0232   2.2170   2.7129   2.9669   3.1475   3.4349
     3.5474   3.7543   3.9174   4.1306   4.5248   5.0208   5.4100   5.6875
     6.9446   7.2779   7.6787   7.7240   8.1944   8.4060

     occupation numbers 
     1.0000   1.0000   1.0000   1.0000   1.0000   1.0000   1.0000   1.0000
     1.0000   1.0000   1.0000   1.0000   1.0000   1.0000   1.0000   1.0000
     1.0000   1.0000   1.0000   1.0000   1.0000   1.0000   1.0000   1.0000
     1.0000   1.0000   1.0000   1.0000   1.0000   1.0000   1.0000   0.9998
     0.0000   0.0000   0.0000   0.0000   0.0000   0.0000

     the Fermi energy is     6.1960 ev

!    total energy              =    -151.24385430 Ry
     Harris-Foulkes estimate   =    -151.24385430 Ry
     estimated scf accuracy    <          4.2E-11 Ry

     The total energy is the sum of the following terms:

     one-electron contribution =      37.11037755 Ry
     hartree contribution      =      10.44685705 Ry
     xc contribution           =     -68.63560965 Ry
     ewald contribution        =    -130.15903795 Ry
     smearing contrib. (-TS)   =      -0.00644129 Ry

     convergence has been achieved in  15 iterations

     Forces acting on atoms (Ry/au):

     atom    1 type  1   force =   0.48182134E+00  0.57848651E+00 -0.49599078E+00
     atom    2 type  1   force =   0.13565743E-01  0.36821641E-01  0.11349343E+00
     atom    3 type  1   force =  -0.14274948E-01  0.18938520E-01 -0.10145357E+00
     atom    4 type  1   force =  -0.49257628E+00 -0.59034051E+00  0.48413087E+00
     atom    5 type  1   force =  -0.15437840E+00 -0.67770206E-01 -0.12729684E-01
     atom    6 type  1   force =  -0.87191867E+00 -0.79954031E+00  0.70593430E+00
     atom    7 type  1   force =   0.95141340E+00  0.88085804E+00 -0.63514862E+00
     atom    8 type  1   force =   0.78474691E-01 -0.49374145E-01 -0.70410103E-01
     atom    9 type  1   force =   0.15317615E+00  0.45113981E-01 -0.40941461E-01
     atom   10 type  1   force =  -0.78282469E-01 -0.88501188E-02  0.81915432E-03
     atom   11 type  1   force =  -0.26353762E+00 -0.21585084E+00 -0.25362946E+00
     atom   12 type  1   force =   0.19136933E+00  0.13500450E+00  0.32316727E+00
     atom   13 type  1   force =   0.11029581E+00  0.10747845E+00 -0.15694596E+00
     atom   14 type  1   force =  -0.42389734E-01 -0.26354224E-01  0.33213045E-01
     atom   15 type  1   force =   0.44960657E-01  0.12928997E+00 -0.48147619E-01
     atom   16 type  1   force =  -0.10771901E+00 -0.17391127E+00  0.15463919E+00
     The non-local contrib.  to forces
     atom    1 type  1   force =   0.42228755E+00  0.50245623E+00 -0.44497009E+00
     atom    2 type  1   force =   0.18899634E-01  0.38280873E-01  0.88976572E-01
     atom    3 type  1   force =   0.76274988E-02  0.32306299E-02 -0.54028530E-01
     atom    4 type  1   force =  -0.45357311E+00 -0.50708992E+00  0.42603158E+00
     atom    5 type  1   force =  -0.17443422E+00 -0.78964352E-01  0.11969392E-01
     atom    6 type  1   force =  -0.67644141E+00 -0.60260548E+00  0.61346964E+00
     atom    7 type  1   force =   0.75848928E+00  0.70031619E+00 -0.48806492E+00
     atom    8 type  1   force =   0.92727028E-01 -0.35967973E-01 -0.10834130E+00
     atom    9 type  1   force =   0.17909748E+00  0.62696239E-01 -0.34927810E-01
     atom   10 type  1   force =  -0.84463431E-01 -0.95904948E-02 -0.29696491E-01
     atom   11 type  1   force =  -0.26738757E+00 -0.23948000E+00 -0.28964112E+00
     atom   12 type  1   force =   0.22897253E+00  0.12688144E+00  0.35536906E+00
     atom   13 type  1   force =   0.13561874E+00  0.99704222E-01 -0.15109629E+00
     atom   14 type  1   force =  -0.50586745E-01 -0.34071017E-01  0.76347401E-02
     atom   15 type  1   force =   0.12794181E-01  0.18061205E+00 -0.12650158E-01
     atom   16 type  1   force =  -0.11924038E+00 -0.19995243E+00  0.13649686E+00
     The ionic contribution  to forces
     atom    1 type  1   force =   0.52301829E+00  0.97315627E+00 -0.13057026E+01
     atom    2 type  1   force =  -0.29703657E-01  0.18270881E+00  0.24216907E+00
     atom    3 type  1   force =  -0.70532654E-01  0.20993847E+00 -0.15508627E+00
     atom    4 type  1   force =  -0.98370375E+00 -0.87194393E+00  0.81639423E+00
     atom    5 type  1   force =  -0.84327800E+00 -0.22357460E+00  0.56102492E+00
     atom    6 type  1   force =  -0.13454613E+01 -0.12510244E+01  0.17253916E+01
     atom    7 type  1   force =   0.16133626E+01  0.15302971E+01 -0.78801922E+00
     atom    8 type  1   force =   0.65013933E+00  0.26932148E+00 -0.45257733E+00
     atom    9 type  1   force =   0.76733402E+00  0.30143223E+00  0.50377404E-01
     atom   10 type  1   force =  -0.47354720E+00 -0.15780816E+00 -0.57934124E+00
     atom   11 type  1   force =  -0.73925423E+00 -0.68593894E+00 -0.71823911E+00
     atom   12 type  1   force =   0.85990649E+00  0.29909256E+00  0.97032362E+00
     atom   13 type  1   force =   0.16617655E+00 -0.16463423E+00 -0.63156069E+00
     atom   14 type  1   force =  -0.27105965E+00 -0.68080166E-01  0.18743232E+00
     atom   15 type  1   force =   0.35762293E+00  0.38581934E+00 -0.45031525E-01
     atom   16 type  1   force =  -0.18101980E+00 -0.72876183E+00  0.12244477E+00
     The local contribution  to forces
     atom    1 type  1   force =  -0.42933342E+00 -0.85515130E+00  0.12150138E+01
     atom    2 type  1   force =   0.25647349E-01 -0.18087938E+00 -0.21006206E+00
     atom    3 type  1   force =   0.49801411E-01 -0.19412831E+00  0.10292950E+00
     atom    4 type  1   force =   0.90719519E+00  0.74566430E+00 -0.72077667E+00
     atom    5 type  1   force =   0.84696418E+00  0.22835006E+00 -0.58396342E+00
     atom    6 type  1   force =   0.10958399E+01  0.10056824E+01 -0.15795506E+01
     atom    7 type  1   force =  -0.13580244E+01 -0.12914059E+01  0.60013615E+00
     atom    8 type  1   force =  -0.65482113E+00 -0.28552926E+00  0.47974660E+00
     atom    9 type  1   force =  -0.77695191E+00 -0.31303835E+00 -0.60285684E-01
     atom   10 type  1   force =   0.47138986E+00  0.15749113E+00  0.60578170E+00
     atom   11 type  1   force =   0.72031699E+00  0.68889706E+00  0.72836034E+00
     atom   12 type  1   force =  -0.87615735E+00 -0.28006673E+00 -0.96958505E+00
     atom   13 type  1   force =  -0.17942698E+00  0.18040610E+00  0.61176235E+00
     atom   14 type  1   force =   0.27315924E+00  0.72917686E-01 -0.16108101E+00
     atom   15 type  1   force =  -0.32483340E+00 -0.42121012E+00  0.91575070E-02
     atom   16 type  1   force =   0.18122194E+00  0.73647301E+00 -0.91672957E-01
     The core correction contribution to forces
     atom    1 type  1   force =  -0.34151248E-01 -0.41975301E-01  0.39668942E-01
     atom    2 type  1   force =  -0.12777137E-02 -0.32890383E-02 -0.75911121E-02
     atom    3 type  1   force =  -0.11716737E-02 -0.10182502E-03  0.47319271E-02
     atom    4 type  1   force =   0.37505783E-01  0.43030391E-01 -0.37518880E-01
     atom    5 type  1   force =   0.16369138E-01  0.64185148E-02 -0.17616116E-02
     atom    6 type  1   force =   0.54143731E-01  0.48406727E-01 -0.53375598E-01
     atom    7 type  1   force =  -0.62413211E-01 -0.58347942E-01  0.40798841E-01
     atom    8 type  1   force =  -0.95705293E-02  0.28010793E-02  0.10762486E-01
     atom    9 type  1   force =  -0.16303471E-01 -0.59761968E-02  0.38938149E-02
     atom   10 type  1   force =   0.83386502E-02  0.10584275E-02  0.40756157E-02
     atom   11 type  1   force =   0.22786859E-01  0.20670643E-01  0.25890063E-01
     atom   12 type  1   force =  -0.21353363E-01 -0.10903095E-01 -0.32940123E-01
     atom   13 type  1   force =  -0.12072637E-01 -0.79967417E-02  0.13949058E-01
     atom   14 type  1   force =   0.60966567E-02  0.28794314E-02 -0.77382943E-03
     atom   15 type  1   force =  -0.62286695E-03 -0.15931706E-01  0.37626239E-03
     atom   16 type  1   force =   0.11319669E-01  0.18329994E-01 -0.12629342E-01
     The Hubbard contrib.    to forces
     atom    1 type  1   force =   0.00000000E+00  0.00000000E+00  0.00000000E+00
     atom    2 type  1   force =   0.00000000E+00  0.00000000E+00  0.00000000E+00
     atom    3 type  1   force =   0.00000000E+00  0.00000000E+00  0.00000000E+00
     atom    4 type  1   force =   0.00000000E+00  0.00000000E+00  0.00000000E+00
     atom    5 type  1   force =   0.00000000E+00  0.00000000E+00  0.00000000E+00
     atom    6 type  1   force =   0.00000000E+00  0.00000000E+00  0.00000000E+00
     atom    7 type  1   force =   0.00000000E+00  0.00000000E+00  0.00000000E+00
     atom    8 type  1   force =   0.00000000E+00  0.00000000E+00  0.00000000E+00
     atom    9 type  1   force =   0.00000000E+00  0.00000000E+00  0.00000000E+00
     atom   10 type  1   force =   0.00000000E+00  0.00000000E+00  0.00000000E+00
     atom   11 type  1   force =   0.00000000E+00  0.00000000E+00  0.00000000E+00
     atom   12 type  1   force =   0.00000000E+00  0.00000000E+00  0.00000000E+00
     atom   13 type  1   force =   0.00000000E+00  0.00000000E+00  0.00000000E+00
     atom   14 type  1   force =   0.00000000E+00  0.00000000E+00  0.00000000E+00
     atom   15 type  1   force =   0.00000000E+00  0.00000000E+00  0.00000000E+00
     atom   16 type  1   force =   0.00000000E+00  0.00000000E+00  0.00000000E+00
     The SCF correction term to forces
     atom    1 type  1   force =   0.13406876E-06  0.74099542E-06 -0.86397171E-06
     atom    2 type  1   force =   0.93809327E-07  0.50264439E-06  0.93957650E-06
     atom    3 type  1   force =   0.43198865E-06 -0.31939191E-06 -0.21175426E-06
     atom    4 type  1   force =  -0.43245714E-06 -0.12298835E-05  0.59270563E-06
     atom    5 type  1   force =   0.45812026E-06  0.30044343E-06  0.10183495E-05
     atom    6 type  1   force =   0.30676290E-06  0.50635683E-06 -0.72880320E-06
     atom    7 type  1   force =  -0.91789335E-06 -0.11995556E-05  0.51291888E-06
     atom    8 type  1   force =  -0.41848527E-07  0.65542619E-06 -0.57842787E-06
     atom    9 type  1   force =  -0.31740648E-08  0.18439564E-06  0.79499582E-06
     atom   10 type  1   force =  -0.38583169E-06 -0.89470452E-06 -0.44749909E-06
     atom   11 type  1   force =   0.28468243E-06  0.52560422E-06  0.34588534E-06
     atom   12 type  1   force =   0.98590583E-06  0.45200096E-06 -0.26263800E-06
     atom   13 type  1   force =   0.10599252E-06 -0.77921504E-06 -0.40162335E-06
     atom   14 type  1   force =   0.72720606E-06 -0.31989048E-07  0.79955418E-06
     atom   15 type  1   force =  -0.22640030E-06  0.53989496E-06  0.27640688E-06
     atom   16 type  1   force =  -0.47962847E-06  0.10392344E-06 -0.15565635E-06

     Total force =     2.489960     Total SCF correction =     0.000004


     entering subroutine stress ...

          total   stress  (Ry/bohr**3)                   (kbar)     P=  190.17
   0.0014393329   0.0018320543  -0.0008407831        211.73    269.50   -123.68
   0.0018320543   0.0016540408  -0.0008889907        269.50    243.32   -130.78
  -0.0008407831  -0.0008889907   0.0007849609       -123.68   -130.78    115.47

     kinetic stress (kbar)   2245.49    -45.67     -2.51
                              -45.67   2246.64      2.79
                               -2.51      2.79   2259.17

     local   stress (kbar)   -476.47   -952.84    150.36
                             -952.84   -638.55    284.16
                              150.36    284.16   -111.06

     nonloc. stress (kbar)   2085.90    134.57    -31.77
                              134.57   2097.10    -43.87
                              -31.77    -43.87   2026.54

     hartree stress (kbar)    239.08    116.17    -20.78
                              116.17    276.35    -38.13
                              -20.78    -38.13    195.17

     exc-cor stress (kbar)    993.61      1.16     -0.19
                                1.16    993.75     -0.34
                               -0.19     -0.34    993.14

     corecor stress (kbar)  -2002.27    -14.55      2.97
                              -14.55  -2003.60      4.49
                                2.97      4.49  -1996.04

     ewald   stress (kbar)  -2873.61   1030.67   -221.76
                             1030.67  -2728.37   -339.87
                             -221.76   -339.87  -3251.45

     hubbard stress (kbar)      0.00      0.00      0.00
                                0.00      0.00      0.00
                                0.00      0.00      0.00

     london  stress (kbar)      0.00      0.00      0.00
                                0.00      0.00      0.00
                                0.00      0.00      0.00

     XDM     stress (kbar)      0.00      0.00      0.00
                                0.00      0.00      0.00
                                0.00      0.00      0.00

     dft-nl  stress (kbar)      0.00      0.00      0.00
                                0.00      0.00      0.00
                                0.00      0.00      0.00



     Writing output data file Si_diamond.scf.in.super.222.largdist.b.055.save

     init_run     :     13.96s CPU     12.97s WALL (       1 calls)
     electrons    :    471.90s CPU    421.17s WALL (       1 calls)
     forces       :      7.49s CPU      5.58s WALL (       1 calls)
     stress       :     13.04s CPU     12.62s WALL (       1 calls)

     Called by init_run:
     wfcinit      :     12.99s CPU     11.98s WALL (       1 calls)
     potinit      :      0.12s CPU      0.13s WALL (       1 calls)

     Called by electrons:
     c_bands      :    398.13s CPU    352.34s WALL (      15 calls)
     sum_band     :     62.97s CPU     57.98s WALL (      15 calls)
     v_of_rho     :      1.34s CPU      1.36s WALL (      16 calls)
     v_h          :      0.07s CPU      0.08s WALL (      16 calls)
     v_xc         :      1.42s CPU      1.43s WALL (      18 calls)
     newd         :      8.77s CPU      8.79s WALL (      16 calls)
     mix_rho      :      1.14s CPU      1.15s WALL (      15 calls)

     Called by c_bands:
     init_us_2    :      5.80s CPU      6.07s WALL (    1188 calls)
     cegterg      :    375.24s CPU    328.82s WALL (     540 calls)

     Called by sum_band:
     sum_band:bec :      0.63s CPU      0.67s WALL (     540 calls)
     addusdens    :      8.90s CPU      8.94s WALL (      15 calls)

     Called by *egterg:
     h_psi        :    246.32s CPU    223.26s WALL (    2024 calls)
     s_psi        :     34.52s CPU     22.49s WALL (    2024 calls)
     g_psi        :      1.05s CPU      0.99s WALL (    1448 calls)
     cdiaghg      :     27.61s CPU     27.73s WALL (    1988 calls)
     cegterg:over :     31.72s CPU     27.35s WALL (    1448 calls)
     cegterg:upda :     16.41s CPU     10.98s WALL (    1448 calls)
     cegterg:last :      6.65s CPU      4.05s WALL (     543 calls)

     Called by h_psi:
     h_psi:vloc   :    165.64s CPU    167.13s WALL (    2024 calls)
     h_psi:vnl    :     80.18s CPU     55.63s WALL (    2024 calls)
     add_vuspsi   :     33.91s CPU     22.54s WALL (    2024 calls)

     General routines
     calbec       :     67.12s CPU     47.69s WALL (    2636 calls)
     fft          :      1.22s CPU      1.23s WALL (     277 calls)
     ffts         :      0.64s CPU      0.64s WALL (     307 calls)
     fftw         :    174.45s CPU    175.87s WALL (  129140 calls)
     interpolate  :      0.26s CPU      0.26s WALL (      31 calls)

     Parallel routines
     fft_scatter  :     72.20s CPU     72.63s WALL (  129724 calls)

     PWSCF        :  8m27.71s CPU     7m33.97s WALL


   This run was terminated on:  14:48:26  28Sep2017            

=------------------------------------------------------------------------------=
   JOB DONE.
=------------------------------------------------------------------------------=
