
     Program PWSCF v.5.1 starts on  4Apr2018 at 18:29: 6 

     This program is part of the open-source Quantum ESPRESSO suite
     for quantum simulation of materials; please cite
         "P. Giannozzi et al., J. Phys.:Condens. Matter 21 395502 (2009);
          URL http://www.quantum-espresso.org", 
     in publications or presentations arising from this work. More details at
     http://www.quantum-espresso.org/quote

     Parallel version (MPI), running on    16 processors
     R & G space division:  proc/nbgrp/npool/nimage =      16
     Waiting for input...
     Reading input from standard input
Warning: card &IONS ignored
Warning: card   ION_DYNAMICS='BFGS', ignored
Warning: card / ignored
Warning: card &CELL ignored
Warning: card  CELL_DYNAMICS = 'BFGS' ignored
Warning: card / ignored

     Current dimensions of program PWSCF are:
     Max number of different atomic species (ntypx) = 10
     Max number of k-points (npk) =  40000
     Max angular momentum in pseudopotentials (lmaxx) =  3
 kfg - two_fermi_energies  F

     Subspace diagonalization in iterative solution of the eigenvalue problem:
     a serial algorithm will be used


     Parallelization info
     --------------------
     sticks:   dense  smooth     PW     G-vecs:    dense   smooth      PW
     Min         184     129     36                 6785     3970     604
     Max         185     130     37                 6788     3992     607
     Sum        2957    2075    589               108591    63673    9691



     bravais-lattice index     =            0
     lattice parameter (alat)  =    14.765030611  a.u.
     unit-cell volume          =    2274.0650 (a.u.)^3
     number of atoms/cell      =           16
     number of atomic types    =            2
     number of electrons       =       154.00
     number of Kohn-Sham states=           92
     kinetic-energy cutoff     =      35.0000  Ry
     charge density cutoff     =     200.0000  Ry
     convergence threshold     =      1.0E-09
     mixing beta               =       0.3000
     number of iterations used =            8  local-TF  mixing
     Exchange-correlation      = SLA  PW   PSX  PSC ( 1  4 10  8 0)
     A smooth kinetic-energy cutoff is imposed at      34.5000 Ry
     height of the smooth step-function =             800.0000 Ry
     width of the smooth step-function  =               1.0000 Ry


     celldm(1)=  14.765031  celldm(2)=   0.000000  celldm(3)=   0.000000
     celldm(4)=   0.000000  celldm(5)=   0.000000  celldm(6)=   0.000000

     crystal axes: (cart. coord. in units of alat)
               a(1) = (  -0.001020392593   0.702169178043   0.712009413003 )  
               a(2) = (   0.686317396055  -0.005142750573   0.716131770983 )  
               a(3) = (   0.693572134608   0.713546274576  -0.012397489126 )  

     reciprocal axes: (cart. coord. in units 2 pi/alat)
               b(1) = ( -0.723204  0.715091  0.698231 )  
               b(2) = (  0.731453 -0.698983  0.690371 )  
               b(3) = (  0.716945  0.692723 -0.682122 )  


     PseudoPot. # 1 for Si read from file:
     /users/kfg/psuedo/gbrv_1.5/si.pbesol.UPF
     MD5 check sum: ef58ba74faed4df802eb8a9742fc00a8
     Pseudo is Ultrasoft + core correction, Zval =  4.0
     Generated by new atomic code, or converted to UPF format
     Using radial grid of  899 points,  6 beta functions with: 
                l(1) =   0
                l(2) =   0
                l(3) =   1
                l(4) =   1
                l(5) =   2
                l(6) =   2
     Q(r) pseudized with  8 coefficients,  rinner =    0.900   0.900   0.900
                                                       0.900   0.900

     PseudoPot. # 2 for Ge read from file:
     /users/kfg/psuedo/gbrv_1.5/ge.pbesol.UPF
     MD5 check sum: 7bed0412183f5e553a4d27ec7023354d
     Pseudo is Ultrasoft + core correction, Zval = 14.0
     Generated by new atomic code, or converted to UPF format
     Using radial grid of  873 points,  6 beta functions with: 
                l(1) =   0
                l(2) =   0
                l(3) =   1
                l(4) =   1
                l(5) =   2
                l(6) =   2
     Q(r) pseudized with  8 coefficients,  rinner =    1.400   1.400   1.400
                                                       1.400   1.400

     atomic species   valence    mass     pseudopotential
        Si             4.00    28.08550     Si( 1.00)
        Ge            14.00    72.59000     Ge( 1.00)

     No symmetry found


                                    s                        frac. trans.

      isym =  1     identity                                     

 cryst.   s( 1) = (     1          0          0      )
                  (     0          1          0      )
                  (     0          0          1      )

 cart.    s( 1) = (  1.0000000  0.0000000  0.0000000 )
                  ( -0.0000000  1.0000000  0.0000000 )
                  (  0.0000000  0.0000000  1.0000000 )


     point group C_1 (1)    
     there are  1 classes
     the character table:

       E    
A      1.00

     the symmetry operations in each class:
     E        1

   Cartesian axes

     site n.     atom                  positions (alat units)
         1           Si  tau(   1) = (   -0.02573753527    0.02385475694    0.00463517989  )
         2           Si  tau(   2) = (    0.16871938098    0.16696122011    0.18506861994  )
         3           Si  tau(   3) = (    0.35665259042    0.33786573917    0.00341974256  )
         4           Ge  tau(   4) = (    0.53675964207    0.52888001511    0.17933187392  )
         5           Si  tau(   5) = (    0.36074549191   -0.00817045408    0.35563665646  )
         6           Si  tau(   6) = (    0.50148903706    0.18161149657    0.53684812991  )
         7           Ge  tau(   7) = (    0.70018982508    0.35303369511    0.36655247172  )
         8           Ge  tau(   8) = (    0.89670528956    0.52183620124    0.53439004602  )
         9           Ge  tau(   9) = (   -0.01485071637    0.34477115783    0.35613065855  )
        10           Ge  tau(  10) = (    0.15370608892    0.54239038952    0.55274713920  )
        11           Ge  tau(  11) = (    0.31447862005    0.69305868487    0.34564424765  )
        12           Ge  tau(  12) = (    0.51375795835    0.88048192363    0.51100017111  )
        13           Si  tau(  13) = (    0.33046194949    0.35591481380    0.71696917996  )
        14           Ge  tau(  14) = (    0.53192027341    0.53291839764    0.86561529575  )
        15           Ge  tau(  15) = (    0.70749564097    0.70895883098    0.68243708925  )
        16           Si  tau(  16) = (    0.86185215373    0.88849664180    0.88229197241  )

   Crystallographic axes

     site n.     atom                  positions (cryst. coord.)
         1           Si  tau(   1) = (    0.03890825501   -0.03229986545   -0.00508941154  )
         2           Si  tau(   2) = (    0.12659454182    0.13447324427    0.11038106412  )
         3           Si  tau(   3) = (   -0.01394010484    0.02707316382    0.48741517411  )
         4           Ge  tau(   4) = (    0.11522561154    0.14674191112    0.62886853340  )
         5           Si  tau(   5) = (   -0.01841886265    0.51510050245    0.01038718474  )
         6           Si  tau(   6) = (    0.14203365522    0.61049658251    0.11915060916  )
         7           Ge  tau(   7) = (    0.00200920436    0.51844856054    0.49651880752  )
         8           Ge  tau(   8) = (    0.09778693492    0.66007049431    0.63985732069  )
         9           Ge  tau(   9) = (    0.50594439139   -0.00598948259   -0.01474074268  )
        10           Ge  tau(  10) = (    0.66264285973    0.11490773073    0.10888423348  )
        11           Ge  tau(  11) = (    0.50950740919   -0.01578704419    0.46979027046  )
        12           Ge  tau(  12) = (    0.61486905305    0.11312770393    0.62970213652  )
        13           Si  tau(  13) = (    0.51613007219    0.48791362061   -0.00558701916  )
        14           Ge  tau(  14) = (    0.60079755543    0.61416939008    0.16006725286  )
        15           Ge  tau(  15) = (    0.47180497769    0.49308441061    0.53284242562  )
        16           Si  tau(  16) = (    0.62810444595    0.61846907725    0.63155216070  )

     number of k points=    36  gaussian smearing, width (Ry)=  0.0150
                       cart. coord. in units 2pi/alat
        k(    1) = (   0.0000000   0.0000000   0.0000000), wk =   0.0312500
        k(    2) = (   0.1792363   0.1731809  -0.1705306), wk =   0.0625000
        k(    3) = (  -0.3584726  -0.3463617   0.3410611), wk =   0.0312500
        k(    4) = (   0.1828632  -0.1747457   0.1725927), wk =   0.0625000
        k(    5) = (   0.3620995  -0.0015648   0.0020621), wk =   0.0625000
        k(    6) = (  -0.1756093  -0.5211074   0.5136538), wk =   0.0625000
        k(    7) = (   0.0036269  -0.3479265   0.3431233), wk =   0.0625000
        k(    8) = (  -0.3657265   0.3494914  -0.3451854), wk =   0.0312500
        k(    9) = (  -0.1864902   0.5226722  -0.5157159), wk =   0.0625000
        k(   10) = (  -0.7241990   0.0031296  -0.0041242), wk =   0.0312500
        k(   11) = (  -0.1808011   0.1787728   0.1745577), wk =   0.0625000
        k(   12) = (  -0.0015648   0.3519537   0.0040272), wk =   0.0625000
        k(   13) = (  -0.5392737  -0.1675889   0.5156189), wk =   0.0625000
        k(   14) = (  -0.3600374   0.0055920   0.3450883), wk =   0.0625000
        k(   15) = (   0.0020621   0.0040272   0.3471504), wk =   0.0625000
        k(   16) = (   0.1812984   0.1772080   0.1766198), wk =   0.0625000
        k(   17) = (  -0.3564105  -0.3423346   0.6882115), wk =   0.0625000
        k(   18) = (  -0.1771742  -0.1691537   0.5176810), wk =   0.0625000
        k(   19) = (  -0.5465276   0.5282642  -0.1706277), wk =   0.0625000
        k(   20) = (  -0.3672913   0.7014450  -0.3411582), wk =   0.0625000
        k(   21) = (  -0.9050001   0.1819025   0.1704335), wk =   0.0625000
        k(   22) = (  -0.7257639   0.3550833  -0.0000971), wk =   0.0625000
        k(   23) = (  -0.3636643   0.3535185   0.0019650), wk =   0.0625000
        k(   24) = (  -0.1844281   0.5266994  -0.1685655), wk =   0.0625000
        k(   25) = (  -0.7221369   0.0071568   0.3430262), wk =   0.0625000
        k(   26) = (  -0.5429006   0.1803377   0.1724956), wk =   0.0625000
        k(   27) = (   0.3616022  -0.3575457  -0.3491154), wk =   0.0312500
        k(   28) = (   0.5408385  -0.1843648  -0.5196460), wk =   0.0625000
        k(   29) = (   0.0031296  -0.7039074  -0.0080543), wk =   0.0312500
        k(   30) = (   0.5444654  -0.5322913  -0.1765228), wk =   0.0625000
        k(   31) = (   0.7237017  -0.3591105  -0.3470533), wk =   0.0625000
        k(   32) = (   0.1859929  -0.8786531   0.1645384), wk =   0.0625000
        k(   33) = (   0.3652292  -0.7054722  -0.0059922), wk =   0.0625000
        k(   34) = (  -0.0041242  -0.0080543  -0.6943008), wk =   0.0312500
        k(   35) = (   0.1751120   0.1651265  -0.8648314), wk =   0.0625000
        k(   36) = (  -0.3625968  -0.3544160  -0.3532397), wk =   0.0312500

                       cryst. coord.
        k(    1) = (   0.0000000   0.0000000   0.0000000), wk =   0.0312500
        k(    2) = (  -0.0000000  -0.0000000   0.2500000), wk =   0.0625000
        k(    3) = (   0.0000000   0.0000000  -0.5000000), wk =   0.0312500
        k(    4) = (   0.0000000   0.2500000  -0.0000000), wk =   0.0625000
        k(    5) = (  -0.0000000   0.2500000   0.2500000), wk =   0.0625000
        k(    6) = (   0.0000000   0.2500000  -0.5000000), wk =   0.0625000
        k(    7) = (   0.0000000   0.2500000  -0.2500000), wk =   0.0625000
        k(    8) = (  -0.0000000  -0.5000000   0.0000000), wk =   0.0312500
        k(    9) = (   0.0000000  -0.5000000   0.2500000), wk =   0.0625000
        k(   10) = (   0.0000000  -0.5000000  -0.5000000), wk =   0.0312500
        k(   11) = (   0.2500000   0.0000000   0.0000000), wk =   0.0625000
        k(   12) = (   0.2500000  -0.0000000   0.2500000), wk =   0.0625000
        k(   13) = (   0.2500000   0.0000000  -0.5000000), wk =   0.0625000
        k(   14) = (   0.2500000   0.0000000  -0.2500000), wk =   0.0625000
        k(   15) = (   0.2500000   0.2500000   0.0000000), wk =   0.0625000
        k(   16) = (   0.2500000   0.2500000   0.2500000), wk =   0.0625000
        k(   17) = (   0.2500000   0.2500000  -0.5000000), wk =   0.0625000
        k(   18) = (   0.2500000   0.2500000  -0.2500000), wk =   0.0625000
        k(   19) = (   0.2500000  -0.5000000  -0.0000000), wk =   0.0625000
        k(   20) = (   0.2500000  -0.5000000   0.2500000), wk =   0.0625000
        k(   21) = (   0.2500000  -0.5000000  -0.5000000), wk =   0.0625000
        k(   22) = (   0.2500000  -0.5000000  -0.2500000), wk =   0.0625000
        k(   23) = (   0.2500000  -0.2500000  -0.0000000), wk =   0.0625000
        k(   24) = (   0.2500000  -0.2500000   0.2500000), wk =   0.0625000
        k(   25) = (   0.2500000  -0.2500000  -0.5000000), wk =   0.0625000
        k(   26) = (   0.2500000  -0.2500000  -0.2500000), wk =   0.0625000
        k(   27) = (  -0.5000000   0.0000000  -0.0000000), wk =   0.0312500
        k(   28) = (  -0.5000000   0.0000000   0.2500000), wk =   0.0625000
        k(   29) = (  -0.5000000   0.0000000  -0.5000000), wk =   0.0312500
        k(   30) = (  -0.5000000   0.2500000   0.0000000), wk =   0.0625000
        k(   31) = (  -0.5000000   0.2500000   0.2500000), wk =   0.0625000
        k(   32) = (  -0.5000000   0.2500000  -0.5000000), wk =   0.0625000
        k(   33) = (  -0.5000000   0.2500000  -0.2500000), wk =   0.0625000
        k(   34) = (  -0.5000000  -0.5000000  -0.0000000), wk =   0.0312500
        k(   35) = (  -0.5000000  -0.5000000   0.2500000), wk =   0.0625000
        k(   36) = (  -0.5000000  -0.5000000  -0.5000000), wk =   0.0312500

     Dense  grid:   108591 G-vectors     FFT dimensions: (  72,  72,  72)

     Smooth grid:    63673 G-vectors     FFT dimensions: (  60,  60,  60)

     Largest allocated arrays     est. size (Mb)     dimensions
        Kohn-Sham Wavefunctions         0.71 Mb     (     505,   92)
        NL pseudopotentials             2.22 Mb     (     505,  288)
        Each V/rho on FFT grid          0.40 Mb     (   25920)
        Each G-vector array             0.05 Mb     (    6787)
        G-vector shells                 0.05 Mb     (    6593)
     Largest temporary arrays     est. size (Mb)     dimensions
        Auxiliary wavefunctions         2.84 Mb     (     505,  368)
        Each subspace H/S matrix        2.07 Mb     (     368,  368)
        Each <psi_i|beta_j> matrix      0.40 Mb     (     288,   92)
        Arrays for rho mixing           3.16 Mb     (   25920,    8)

     Check: negative/imaginary core charge=   -0.000001    0.000000

     Initial potential from superposition of free atoms

     starting charge  153.98819, renormalised to  154.00000
     Starting wfc are  109 randomized atomic wfcs

     total cpu time spent up to now is       12.9 secs

     Self-consistent Calculation

     iteration #  1     ecut=    35.00 Ry     beta=0.30
     Davidson diagonalization with overlap
     ethr =  1.00E-02,  avg # of iterations =  3.1

     Threshold (ethr) on eigenvalues was too large:
     Diagonalizing with lowered threshold

     Davidson diagonalization with overlap
     ethr =  2.22E-04,  avg # of iterations =  6.1

     total cpu time spent up to now is      116.0 secs

     total energy              =   -1985.57953008 Ry
     Harris-Foulkes estimate   =   -1985.61621025 Ry
     estimated scf accuracy    <       0.34330468 Ry

     iteration #  2     ecut=    35.00 Ry     beta=0.30
     Davidson diagonalization with overlap
     ethr =  2.23E-04,  avg # of iterations =  1.0

     total cpu time spent up to now is      142.6 secs

     total energy              =   -1985.51031958 Ry
     Harris-Foulkes estimate   =   -1985.58122716 Ry
     estimated scf accuracy    <       0.21007229 Ry

     iteration #  3     ecut=    35.00 Ry     beta=0.30
     Davidson diagonalization with overlap
     ethr =  1.36E-04,  avg # of iterations =  2.0

     total cpu time spent up to now is      176.0 secs

     total energy              =   -1985.52439785 Ry
     Harris-Foulkes estimate   =   -1985.52435868 Ry
     estimated scf accuracy    <       0.00266767 Ry

     iteration #  4     ecut=    35.00 Ry     beta=0.30
     Davidson diagonalization with overlap
     ethr =  1.73E-06,  avg # of iterations =  7.9

     total cpu time spent up to now is      257.0 secs

     total energy              =   -1985.52484756 Ry
     Harris-Foulkes estimate   =   -1985.52485656 Ry
     estimated scf accuracy    <       0.00118284 Ry

     iteration #  5     ecut=    35.00 Ry     beta=0.30
     Davidson diagonalization with overlap
     ethr =  7.68E-07,  avg # of iterations =  2.0

     total cpu time spent up to now is      291.9 secs

     total energy              =   -1985.52494028 Ry
     Harris-Foulkes estimate   =   -1985.52495779 Ry
     estimated scf accuracy    <       0.00008246 Ry

     iteration #  6     ecut=    35.00 Ry     beta=0.30
     Davidson diagonalization with overlap
     ethr =  5.35E-08,  avg # of iterations =  1.8

     total cpu time spent up to now is      322.0 secs

     total energy              =   -1985.52493682 Ry
     Harris-Foulkes estimate   =   -1985.52494512 Ry
     estimated scf accuracy    <       0.00002173 Ry

     iteration #  7     ecut=    35.00 Ry     beta=0.30
     Davidson diagonalization with overlap
     ethr =  1.41E-08,  avg # of iterations =  2.1

     total cpu time spent up to now is      356.7 secs

     total energy              =   -1985.52494013 Ry
     Harris-Foulkes estimate   =   -1985.52493965 Ry
     estimated scf accuracy    <       0.00000217 Ry

     iteration #  8     ecut=    35.00 Ry     beta=0.30
     Davidson diagonalization with overlap
     ethr =  1.41E-09,  avg # of iterations =  2.0

     total cpu time spent up to now is      390.3 secs

     total energy              =   -1985.52494020 Ry
     Harris-Foulkes estimate   =   -1985.52494034 Ry
     estimated scf accuracy    <       0.00000086 Ry

     iteration #  9     ecut=    35.00 Ry     beta=0.30
     Davidson diagonalization with overlap
     ethr =  5.60E-10,  avg # of iterations =  2.0

     total cpu time spent up to now is      431.7 secs

     total energy              =   -1985.52494046 Ry
     Harris-Foulkes estimate   =   -1985.52494040 Ry
     estimated scf accuracy    <       0.00000012 Ry

     iteration # 10     ecut=    35.00 Ry     beta=0.30
     Davidson diagonalization with overlap
     ethr =  7.78E-11,  avg # of iterations =  2.0

     total cpu time spent up to now is      465.7 secs

     total energy              =   -1985.52494050 Ry
     Harris-Foulkes estimate   =   -1985.52494047 Ry
     estimated scf accuracy    <       0.00000003 Ry

     iteration # 11     ecut=    35.00 Ry     beta=0.30
     Davidson diagonalization with overlap
     ethr =  1.98E-11,  avg # of iterations =  2.1

     total cpu time spent up to now is      504.2 secs

     total energy              =   -1985.52494052 Ry
     Harris-Foulkes estimate   =   -1985.52494050 Ry
     estimated scf accuracy    <          3.2E-09 Ry

     iteration # 12     ecut=    35.00 Ry     beta=0.30
     Davidson diagonalization with overlap
     ethr =  2.09E-12,  avg # of iterations =  2.0

     total cpu time spent up to now is      536.0 secs

     total energy              =   -1985.52494053 Ry
     Harris-Foulkes estimate   =   -1985.52494052 Ry
     estimated scf accuracy    <          1.6E-09 Ry

     iteration # 13     ecut=    35.00 Ry     beta=0.30
     Davidson diagonalization with overlap
     ethr =  1.05E-12,  avg # of iterations =  2.0

     total cpu time spent up to now is      575.4 secs

     End of self-consistent calculation

          k = 0.0000 0.0000 0.0000 (  7933 PWs)   bands (ev):

   -17.0407 -16.9983 -16.9799 -16.9739 -16.9562 -16.9448 -16.9234 -16.9063
   -16.9014 -16.8960 -16.8907 -16.8734 -16.8648 -16.8532 -16.8466 -16.8328
   -16.8302 -16.8183 -16.8123 -16.8057 -16.7987 -16.7817 -16.7806 -16.7770
   -16.7650 -16.7570 -16.7476 -16.7457 -16.7397 -16.7296 -16.7205 -16.7135
   -16.6975 -16.6949 -16.6828 -16.6737 -16.6697 -16.6606 -16.6550 -16.6477
   -16.6381 -16.6223 -16.6075 -16.5961 -16.5591  -4.9410  -2.9372  -2.8316
    -2.5882  -2.2956  -1.2432  -1.0446  -0.9616  -0.7236  -0.5083  -0.4174
     0.0576   0.1600   0.4512   0.5783   4.2662   4.5804   4.6573   4.7591
     4.7698   4.8630   5.9373   6.0049   6.2377   6.3566   6.3875   6.4611
     6.6527   6.7508   7.2832   7.6575   7.7658   7.8700   7.9716   8.0730
     8.1171   8.2954   8.4913   8.5192   8.6289   8.7147   8.7786   9.2234
    10.1345  10.2943  10.3432  10.8814

     occupation numbers 
     1.0000   1.0000   1.0000   1.0000   1.0000   1.0000   1.0000   1.0000
     1.0000   1.0000   1.0000   1.0000   1.0000   1.0000   1.0000   1.0000
     1.0000   1.0000   1.0000   1.0000   1.0000   1.0000   1.0000   1.0000
     1.0000   1.0000   1.0000   1.0000   1.0000   1.0000   1.0000   1.0000
     1.0000   1.0000   1.0000   1.0000   1.0000   1.0000   1.0000   1.0000
     1.0000   1.0000   1.0000   1.0000   1.0000   1.0000   1.0000   1.0000
     1.0000   1.0000   1.0000   1.0000   1.0000   1.0000   1.0000   1.0000
     1.0000   1.0000   1.0000   1.0000   1.0000   1.0000   1.0000   1.0000
     1.0000   1.0000   1.0000   1.0000   1.0000   1.0000   1.0000   1.0000
     1.0000   1.0000   0.9997   0.8081   0.5477   0.2737   0.0958   0.0223
     0.0103   0.0002   0.0000   0.0000   0.0000   0.0000   0.0000   0.0000
     0.0000   0.0000   0.0000   0.0000

          k = 0.1792 0.1732-0.1705 (  7936 PWs)   bands (ev):

   -17.0408 -16.9987 -16.9837 -16.9773 -16.9526 -16.9452 -16.9249 -16.9063
   -16.9012 -16.8986 -16.8888 -16.8770 -16.8539 -16.8515 -16.8439 -16.8339
   -16.8202 -16.8182 -16.8119 -16.8045 -16.7964 -16.7865 -16.7783 -16.7755
   -16.7665 -16.7582 -16.7502 -16.7441 -16.7379 -16.7308 -16.7220 -16.7134
   -16.7003 -16.6964 -16.6845 -16.6796 -16.6693 -16.6624 -16.6582 -16.6466
   -16.6407 -16.6210 -16.6103 -16.5866 -16.5566  -4.7513  -3.3378  -2.7782
    -2.6709  -2.2080  -1.8782  -1.7148  -1.2851  -0.1309   0.0189   0.3009
     0.4381   0.5534   0.7790   1.1785   3.8198   4.0172   4.1088   4.7284
     4.8628   4.9162   4.9788   5.0462   5.2604   5.4800   5.9845   6.0990
     6.1463   6.6207   6.7228   7.4804   7.5894   8.3015   8.5047   8.6188
     8.7719   8.9662   9.1859   9.2793   9.3756   9.5469   9.7034   9.8663
    10.5682  10.7216  10.9131  10.9913

     occupation numbers 
     1.0000   1.0000   1.0000   1.0000   1.0000   1.0000   1.0000   1.0000
     1.0000   1.0000   1.0000   1.0000   1.0000   1.0000   1.0000   1.0000
     1.0000   1.0000   1.0000   1.0000   1.0000   1.0000   1.0000   1.0000
     1.0000   1.0000   1.0000   1.0000   1.0000   1.0000   1.0000   1.0000
     1.0000   1.0000   1.0000   1.0000   1.0000   1.0000   1.0000   1.0000
     1.0000   1.0000   1.0000   1.0000   1.0000   1.0000   1.0000   1.0000
     1.0000   1.0000   1.0000   1.0000   1.0000   1.0000   1.0000   1.0000
     1.0000   1.0000   1.0000   1.0000   1.0000   1.0000   1.0000   1.0000
     1.0000   1.0000   1.0000   1.0000   1.0000   1.0000   1.0000   1.0000
     1.0000   1.0000   1.0000   0.9820   0.9103   0.0002   0.0000   0.0000
     0.0000   0.0000   0.0000   0.0000   0.0000   0.0000   0.0000   0.0000
     0.0000   0.0000   0.0000   0.0000

          k =-0.3585-0.3464 0.3411 (  7978 PWs)   bands (ev):

   -17.0410 -16.9991 -16.9877 -16.9783 -16.9521 -16.9453 -16.9252 -16.9056
   -16.9015 -16.8989 -16.8879 -16.8795 -16.8528 -16.8438 -16.8399 -16.8342
   -16.8193 -16.8116 -16.8059 -16.8041 -16.7952 -16.7905 -16.7773 -16.7730
   -16.7679 -16.7628 -16.7521 -16.7422 -16.7370 -16.7313 -16.7246 -16.7137
   -16.7038 -16.6935 -16.6912 -16.6832 -16.6698 -16.6653 -16.6594 -16.6488
   -16.6406 -16.6190 -16.6109 -16.5801 -16.5544  -4.3084  -4.0412  -2.5891
    -2.5322  -2.2868  -2.2283  -1.9303  -1.7443   0.3492   0.4269   0.5642
     0.8134   0.9474   1.1113   2.9591   3.2116   3.6883   3.7305   3.8110
     3.9030   3.9319   4.0169   5.2323   5.3165   5.3922   5.4510   5.5858
     5.6427   6.8634   6.9557   7.0755   7.1703   8.6546   8.8474   8.9937
     9.0132   9.1848   9.2648   9.3961   9.6774  11.0312  11.0673  11.1302
    11.3905  11.4698  11.5923  11.7609

     occupation numbers 
     1.0000   1.0000   1.0000   1.0000   1.0000   1.0000   1.0000   1.0000
     1.0000   1.0000   1.0000   1.0000   1.0000   1.0000   1.0000   1.0000
     1.0000   1.0000   1.0000   1.0000   1.0000   1.0000   1.0000   1.0000
     1.0000   1.0000   1.0000   1.0000   1.0000   1.0000   1.0000   1.0000
     1.0000   1.0000   1.0000   1.0000   1.0000   1.0000   1.0000   1.0000
     1.0000   1.0000   1.0000   1.0000   1.0000   1.0000   1.0000   1.0000
     1.0000   1.0000   1.0000   1.0000   1.0000   1.0000   1.0000   1.0000
     1.0000   1.0000   1.0000   1.0000   1.0000   1.0000   1.0000   1.0000
     1.0000   1.0000   1.0000   1.0000   1.0000   1.0000   1.0000   1.0000
     1.0000   1.0000   1.0000   1.0000   1.0000   0.0000   0.0000   0.0000
     0.0000   0.0000   0.0000   0.0000   0.0000   0.0000   0.0000   0.0000
     0.0000   0.0000   0.0000   0.0000

          k = 0.1829-0.1747 0.1726 (  7917 PWs)   bands (ev):

   -17.0412 -16.9988 -16.9830 -16.9775 -16.9532 -16.9416 -16.9243 -16.9057
   -16.9013 -16.8996 -16.8878 -16.8768 -16.8569 -16.8515 -16.8452 -16.8321
   -16.8277 -16.8198 -16.8097 -16.8045 -16.7978 -16.7835 -16.7800 -16.7769
   -16.7668 -16.7574 -16.7504 -16.7432 -16.7382 -16.7307 -16.7204 -16.7145
   -16.6993 -16.6953 -16.6836 -16.6794 -16.6699 -16.6620 -16.6553 -16.6477
   -16.6379 -16.6183 -16.6075 -16.5950 -16.5575  -4.7425  -3.3325  -2.7775
    -2.6215  -2.2927  -1.8933  -1.6773  -1.3947  -0.1535   0.1144   0.2873
     0.4224   0.6601   0.7210   1.2552   3.8018   4.1232   4.1648   4.7429
     4.8085   4.8606   4.9231   5.0162   5.3944   5.6402   5.9664   6.1073
     6.2019   6.4091   6.5981   7.2789   7.6253   8.2134   8.3924   8.5372
     8.6355   9.0082   9.1444   9.3303   9.4074   9.6372   9.7695   9.8540
    10.4818  10.6982  10.9044  10.9980

     occupation numbers 
     1.0000   1.0000   1.0000   1.0000   1.0000   1.0000   1.0000   1.0000
     1.0000   1.0000   1.0000   1.0000   1.0000   1.0000   1.0000   1.0000
     1.0000   1.0000   1.0000   1.0000   1.0000   1.0000   1.0000   1.0000
     1.0000   1.0000   1.0000   1.0000   1.0000   1.0000   1.0000   1.0000
     1.0000   1.0000   1.0000   1.0000   1.0000   1.0000   1.0000   1.0000
     1.0000   1.0000   1.0000   1.0000   1.0000   1.0000   1.0000   1.0000
     1.0000   1.0000   1.0000   1.0000   1.0000   1.0000   1.0000   1.0000
     1.0000   1.0000   1.0000   1.0000   1.0000   1.0000   1.0000   1.0000
     1.0000   1.0000   1.0000   1.0000   1.0000   1.0000   1.0000   1.0000
     1.0000   1.0000   1.0000   0.9998   0.8630   0.0014   0.0000   0.0000
     0.0000   0.0000   0.0000   0.0000   0.0000   0.0000   0.0000   0.0000
     0.0000   0.0000   0.0000   0.0000

          k = 0.3621-0.0016 0.0021 (  7950 PWs)   bands (ev):

   -17.0414 -16.9985 -16.9797 -16.9750 -16.9560 -16.9471 -16.9240 -16.9055
   -16.9011 -16.8953 -16.8894 -16.8745 -16.8635 -16.8527 -16.8442 -16.8353
   -16.8208 -16.8188 -16.8131 -16.8043 -16.7977 -16.7851 -16.7806 -16.7764
   -16.7649 -16.7558 -16.7484 -16.7450 -16.7412 -16.7307 -16.7207 -16.7131
   -16.6993 -16.6942 -16.6812 -16.6744 -16.6672 -16.6614 -16.6557 -16.6476
   -16.6421 -16.6245 -16.6122 -16.5881 -16.5582  -4.6687  -3.0894  -2.9903
    -2.7566  -2.5608  -2.3333  -1.0267  -0.9429  -0.7047  -0.5150   0.5857
     0.7433   0.9610   1.1335   1.4891   4.0083   4.0886   4.1421   4.1731
     4.5330   4.8916   5.0216   5.1074   5.2018   5.2983   5.8733   5.9164
     6.0922   6.2791   6.3840   6.5775   7.0725   7.8309   8.8563   8.9663
     9.1083   9.3316   9.4606   9.5771   9.6337   9.7154   9.7982   9.9354
    10.7652  11.1174  11.1449  11.3016

     occupation numbers 
     1.0000   1.0000   1.0000   1.0000   1.0000   1.0000   1.0000   1.0000
     1.0000   1.0000   1.0000   1.0000   1.0000   1.0000   1.0000   1.0000
     1.0000   1.0000   1.0000   1.0000   1.0000   1.0000   1.0000   1.0000
     1.0000   1.0000   1.0000   1.0000   1.0000   1.0000   1.0000   1.0000
     1.0000   1.0000   1.0000   1.0000   1.0000   1.0000   1.0000   1.0000
     1.0000   1.0000   1.0000   1.0000   1.0000   1.0000   1.0000   1.0000
     1.0000   1.0000   1.0000   1.0000   1.0000   1.0000   1.0000   1.0000
     1.0000   1.0000   1.0000   1.0000   1.0000   1.0000   1.0000   1.0000
     1.0000   1.0000   1.0000   1.0000   1.0000   1.0000   1.0000   1.0000
     1.0000   1.0000   1.0000   1.0000   1.0000   0.3704   0.0000   0.0000
     0.0000   0.0000   0.0000   0.0000   0.0000   0.0000   0.0000   0.0000
     0.0000   0.0000   0.0000   0.0000

          k =-0.1756-0.5211 0.5137 (  7944 PWs)   bands (ev):

   -17.0414 -16.9989 -16.9843 -16.9773 -16.9524 -16.9480 -16.9251 -16.9053
   -16.9010 -16.8977 -16.8881 -16.8778 -16.8540 -16.8502 -16.8411 -16.8348
   -16.8202 -16.8131 -16.8071 -16.8035 -16.7966 -16.7902 -16.7799 -16.7746
   -16.7664 -16.7582 -16.7508 -16.7426 -16.7408 -16.7319 -16.7221 -16.7131
   -16.7018 -16.6930 -16.6853 -16.6795 -16.6685 -16.6636 -16.6591 -16.6491
   -16.6417 -16.6218 -16.6127 -16.5815 -16.5558  -4.2451  -3.7350  -3.1583
    -2.8868  -2.6081  -2.0074  -1.6707  -1.3059  -0.1474   0.1878   0.4386
     1.2359   1.5833   2.1496   2.4090   3.3381   3.3990   3.5312   3.8172
     4.1921   4.2532   4.5627   4.6550   4.7644   5.2412   5.3433   5.4489
     5.5678   5.6826   6.3626   6.4280   6.9880   8.6394   9.2053   9.5269
     9.8028   9.9447  10.0511  10.2139  10.2660  10.3997  10.6899  10.8234
    11.0696  11.4066  11.7395  11.8436

     occupation numbers 
     1.0000   1.0000   1.0000   1.0000   1.0000   1.0000   1.0000   1.0000
     1.0000   1.0000   1.0000   1.0000   1.0000   1.0000   1.0000   1.0000
     1.0000   1.0000   1.0000   1.0000   1.0000   1.0000   1.0000   1.0000
     1.0000   1.0000   1.0000   1.0000   1.0000   1.0000   1.0000   1.0000
     1.0000   1.0000   1.0000   1.0000   1.0000   1.0000   1.0000   1.0000
     1.0000   1.0000   1.0000   1.0000   1.0000   1.0000   1.0000   1.0000
     1.0000   1.0000   1.0000   1.0000   1.0000   1.0000   1.0000   1.0000
     1.0000   1.0000   1.0000   1.0000   1.0000   1.0000   1.0000   1.0000
     1.0000   1.0000   1.0000   1.0000   1.0000   1.0000   1.0000   1.0000
     1.0000   1.0000   1.0000   1.0000   1.0000   0.0000   0.0000   0.0000
     0.0000   0.0000   0.0000   0.0000   0.0000   0.0000   0.0000   0.0000
     0.0000   0.0000   0.0000   0.0000

          k = 0.0036-0.3479 0.3431 (  7952 PWs)   bands (ev):

   -17.0412 -16.9994 -16.9874 -16.9783 -16.9523 -16.9426 -16.9251 -16.9050
   -16.9015 -16.8997 -16.8866 -16.8798 -16.8534 -16.8473 -16.8411 -16.8329
   -16.8204 -16.8178 -16.8081 -16.8038 -16.7936 -16.7875 -16.7783 -16.7755
   -16.7688 -16.7609 -16.7521 -16.7419 -16.7366 -16.7318 -16.7226 -16.7146
   -16.7029 -16.6974 -16.6863 -16.6833 -16.6699 -16.6634 -16.6583 -16.6468
   -16.6404 -16.6173 -16.6108 -16.5855 -16.5552  -4.4427  -3.5242  -3.2734
    -2.6112  -2.3017  -2.2182  -1.8509  -1.1599  -0.1835   0.2012   0.5165
     0.9637   1.2859   1.6709   1.8961   3.1456   3.7597   3.7986   4.2263
     4.2638   4.3603   4.6802   4.7234   5.0822   5.3639   5.4875   5.6653
     5.8803   6.0209   6.1022   6.1692   7.5318   8.6626   9.3053   9.5063
     9.5643   9.7661   9.9227  10.0732  10.1608  10.4213  10.6303  10.7877
    10.9482  11.0386  11.0807  11.2985

     occupation numbers 
     1.0000   1.0000   1.0000   1.0000   1.0000   1.0000   1.0000   1.0000
     1.0000   1.0000   1.0000   1.0000   1.0000   1.0000   1.0000   1.0000
     1.0000   1.0000   1.0000   1.0000   1.0000   1.0000   1.0000   1.0000
     1.0000   1.0000   1.0000   1.0000   1.0000   1.0000   1.0000   1.0000
     1.0000   1.0000   1.0000   1.0000   1.0000   1.0000   1.0000   1.0000
     1.0000   1.0000   1.0000   1.0000   1.0000   1.0000   1.0000   1.0000
     1.0000   1.0000   1.0000   1.0000   1.0000   1.0000   1.0000   1.0000
     1.0000   1.0000   1.0000   1.0000   1.0000   1.0000   1.0000   1.0000
     1.0000   1.0000   1.0000   1.0000   1.0000   1.0000   1.0000   1.0000
     1.0000   1.0000   1.0000   1.0000   0.9592   0.0000   0.0000   0.0000
     0.0000   0.0000   0.0000   0.0000   0.0000   0.0000   0.0000   0.0000
     0.0000   0.0000   0.0000   0.0000

          k =-0.3657 0.3495-0.3452 (  7936 PWs)   bands (ev):

   -17.0418 -16.9996 -16.9871 -16.9783 -16.9523 -16.9398 -16.9248 -16.9041
   -16.9014 -16.9007 -16.8853 -16.8800 -16.8555 -16.8496 -16.8427 -16.8309
   -16.8257 -16.8207 -16.8070 -16.8030 -16.7942 -16.7840 -16.7825 -16.7767
   -16.7684 -16.7598 -16.7520 -16.7413 -16.7361 -16.7322 -16.7217 -16.7157
   -16.7026 -16.6959 -16.6862 -16.6826 -16.6692 -16.6631 -16.6554 -16.6487
   -16.6377 -16.6157 -16.6075 -16.5936 -16.5561  -4.2008  -4.1290  -2.6021
    -2.4929  -2.2470  -2.1883  -2.0949  -1.8420   0.2768   0.4788   0.6920
     0.8788   0.9905   1.0552   3.0788   3.3010   3.6859   3.7768   3.7888
     3.9258   4.0736   4.1563   5.1559   5.2312   5.3171   5.3689   5.5978
     5.6336   6.6568   6.7661   6.8990   7.2686   8.5897   8.8010   8.8948
     8.9494   9.0249   9.2054   9.2504   9.5208  10.8890  11.0447  11.2025
    11.2830  11.5317  11.6718  12.0267

     occupation numbers 
     1.0000   1.0000   1.0000   1.0000   1.0000   1.0000   1.0000   1.0000
     1.0000   1.0000   1.0000   1.0000   1.0000   1.0000   1.0000   1.0000
     1.0000   1.0000   1.0000   1.0000   1.0000   1.0000   1.0000   1.0000
     1.0000   1.0000   1.0000   1.0000   1.0000   1.0000   1.0000   1.0000
     1.0000   1.0000   1.0000   1.0000   1.0000   1.0000   1.0000   1.0000
     1.0000   1.0000   1.0000   1.0000   1.0000   1.0000   1.0000   1.0000
     1.0000   1.0000   1.0000   1.0000   1.0000   1.0000   1.0000   1.0000
     1.0000   1.0000   1.0000   1.0000   1.0000   1.0000   1.0000   1.0000
     1.0000   1.0000   1.0000   1.0000   1.0000   1.0000   1.0000   1.0000
     1.0000   1.0000   1.0000   1.0000   0.9998   0.0000   0.0000   0.0000
     0.0000   0.0000   0.0000   0.0000   0.0000   0.0000   0.0000   0.0000
     0.0000   0.0000   0.0000   0.0000

          k =-0.1865 0.5227-0.5157 (  7959 PWs)   bands (ev):

   -17.0419 -16.9991 -16.9835 -16.9775 -16.9537 -16.9439 -16.9246 -16.9046
   -16.9011 -16.8986 -16.8871 -16.8780 -16.8556 -16.8511 -16.8424 -16.8344
   -16.8215 -16.8177 -16.8104 -16.8037 -16.7965 -16.7859 -16.7815 -16.7761
   -16.7665 -16.7566 -16.7514 -16.7427 -16.7402 -16.7317 -16.7207 -16.7141
   -16.7008 -16.6934 -16.6847 -16.6782 -16.6698 -16.6625 -16.6564 -16.6475
   -16.6413 -16.6197 -16.6126 -16.5871 -16.5568  -4.2070  -3.7765  -3.1355
    -2.9024  -2.5881  -2.0406  -1.7008  -1.3440  -0.1454   0.2183   0.4419
     1.3061   1.5808   2.0911   2.5319   3.3116   3.3912   3.6229   3.9171
     4.1913   4.3062   4.4744   4.6409   4.8254   5.1717   5.3010   5.4153
     5.5167   5.7728   6.2035   6.3405   6.9933   8.6749   9.2072   9.4950
     9.7419   9.7830   9.9639  10.1038  10.2354  10.4674  10.5532  10.7442
    10.7762  11.3023  11.6704  11.9712

     occupation numbers 
     1.0000   1.0000   1.0000   1.0000   1.0000   1.0000   1.0000   1.0000
     1.0000   1.0000   1.0000   1.0000   1.0000   1.0000   1.0000   1.0000
     1.0000   1.0000   1.0000   1.0000   1.0000   1.0000   1.0000   1.0000
     1.0000   1.0000   1.0000   1.0000   1.0000   1.0000   1.0000   1.0000
     1.0000   1.0000   1.0000   1.0000   1.0000   1.0000   1.0000   1.0000
     1.0000   1.0000   1.0000   1.0000   1.0000   1.0000   1.0000   1.0000
     1.0000   1.0000   1.0000   1.0000   1.0000   1.0000   1.0000   1.0000
     1.0000   1.0000   1.0000   1.0000   1.0000   1.0000   1.0000   1.0000
     1.0000   1.0000   1.0000   1.0000   1.0000   1.0000   1.0000   1.0000
     1.0000   1.0000   1.0000   1.0000   1.0000   0.0000   0.0000   0.0000
     0.0000   0.0000   0.0000   0.0000   0.0000   0.0000   0.0000   0.0000
     0.0000   0.0000   0.0000   0.0000

          k =-0.7242 0.0031-0.0041 (  7960 PWs)   bands (ev):

   -17.0419 -16.9985 -16.9797 -16.9758 -16.9551 -16.9502 -16.9243 -16.9046
   -16.9008 -16.8945 -16.8881 -16.8752 -16.8627 -16.8521 -16.8422 -16.8358
   -16.8212 -16.8141 -16.8075 -16.8035 -16.7968 -16.7898 -16.7811 -16.7759
   -16.7651 -16.7557 -16.7487 -16.7453 -16.7421 -16.7314 -16.7203 -16.7130
   -16.7010 -16.6929 -16.6800 -16.6747 -16.6637 -16.6615 -16.6600 -16.6491
   -16.6440 -16.6256 -16.6146 -16.5827 -16.5575  -3.9869  -3.7291  -3.1746
    -3.0767  -2.8794  -2.5562  -0.9442  -0.8608  -0.6237  -0.4071   1.3532
     1.5560   1.7446   2.0271   3.3550   3.5015   3.5713   3.6370   3.6627
     3.7828   3.9242   3.9580   4.0845   4.1386   5.2985   5.3880   5.6166
     5.7328   5.8857   5.9881   6.2864   6.4529   8.3006   8.3949   9.3013
     9.4231   9.7613   9.8629  10.4823  10.6377  11.8610  11.9467  11.9826
    12.1237  12.1821  12.2666  12.3104

     occupation numbers 
     1.0000   1.0000   1.0000   1.0000   1.0000   1.0000   1.0000   1.0000
     1.0000   1.0000   1.0000   1.0000   1.0000   1.0000   1.0000   1.0000
     1.0000   1.0000   1.0000   1.0000   1.0000   1.0000   1.0000   1.0000
     1.0000   1.0000   1.0000   1.0000   1.0000   1.0000   1.0000   1.0000
     1.0000   1.0000   1.0000   1.0000   1.0000   1.0000   1.0000   1.0000
     1.0000   1.0000   1.0000   1.0000   1.0000   1.0000   1.0000   1.0000
     1.0000   1.0000   1.0000   1.0000   1.0000   1.0000   1.0000   1.0000
     1.0000   1.0000   1.0000   1.0000   1.0000   1.0000   1.0000   1.0000
     1.0000   1.0000   1.0000   1.0000   1.0000   1.0000   1.0000   1.0000
     1.0000   1.0000   1.0000   1.0000   1.0000   0.0002   0.0000   0.0000
     0.0000   0.0000   0.0000   0.0000   0.0000   0.0000   0.0000   0.0000
     0.0000   0.0000   0.0000   0.0000

          k =-0.1808 0.1788 0.1746 (  7958 PWs)   bands (ev):

   -17.0412 -16.9982 -16.9796 -16.9742 -16.9561 -16.9447 -16.9227 -16.9062
   -16.9012 -16.8960 -16.8897 -16.8738 -16.8645 -16.8532 -16.8464 -16.8329
   -16.8298 -16.8193 -16.8121 -16.8056 -16.7987 -16.7814 -16.7805 -16.7767
   -16.7651 -16.7564 -16.7481 -16.7453 -16.7399 -16.7291 -16.7200 -16.7140
   -16.6966 -16.6950 -16.6827 -16.6729 -16.6692 -16.6607 -16.6546 -16.6470
   -16.6383 -16.6226 -16.6083 -16.5963 -16.5590  -4.7429  -3.3334  -2.7634
    -2.5335  -2.3982  -1.8697  -1.6607  -1.4694  -0.0494   0.0424   0.3148
     0.4096   0.4716   0.7817   1.3876   4.0069   4.0855   4.1816   4.4522
     4.8640   4.9054   5.0961   5.1943   5.3685   5.6688   5.8363   6.0844
     6.1652   6.2357   6.7120   7.0589   7.6407   7.9450   8.2970   8.4642
     8.6239   9.0008   9.2515   9.4268   9.5557   9.5743   9.6577   9.8502
    10.5541  10.7644  10.9729  11.1248

     occupation numbers 
     1.0000   1.0000   1.0000   1.0000   1.0000   1.0000   1.0000   1.0000
     1.0000   1.0000   1.0000   1.0000   1.0000   1.0000   1.0000   1.0000
     1.0000   1.0000   1.0000   1.0000   1.0000   1.0000   1.0000   1.0000
     1.0000   1.0000   1.0000   1.0000   1.0000   1.0000   1.0000   1.0000
     1.0000   1.0000   1.0000   1.0000   1.0000   1.0000   1.0000   1.0000
     1.0000   1.0000   1.0000   1.0000   1.0000   1.0000   1.0000   1.0000
     1.0000   1.0000   1.0000   1.0000   1.0000   1.0000   1.0000   1.0000
     1.0000   1.0000   1.0000   1.0000   1.0000   1.0000   1.0000   1.0000
     1.0000   1.0000   1.0000   1.0000   1.0000   1.0000   1.0000   1.0000
     1.0000   1.0000   1.0000   1.0000   0.8382   0.1311   0.0002   0.0000
     0.0000   0.0000   0.0000   0.0000   0.0000   0.0000   0.0000   0.0000
     0.0000   0.0000   0.0000   0.0000

          k =-0.0016 0.3520 0.0040 (  7943 PWs)   bands (ev):

   -17.0412 -16.9986 -16.9839 -16.9775 -16.9525 -16.9448 -16.9243 -16.9066
   -16.9013 -16.8991 -16.8884 -16.8774 -16.8541 -16.8515 -16.8443 -16.8340
   -16.8202 -16.8184 -16.8119 -16.8047 -16.7962 -16.7865 -16.7780 -16.7762
   -16.7666 -16.7579 -16.7501 -16.7439 -16.7382 -16.7307 -16.7222 -16.7144
   -16.7010 -16.6961 -16.6845 -16.6791 -16.6689 -16.6626 -16.6586 -16.6466
   -16.6408 -16.6212 -16.6101 -16.5868 -16.5566  -4.6795  -3.0922  -2.9229
    -2.8227  -2.5372  -2.3943  -1.0698  -0.7627  -0.5699  -0.4735   0.5348
     0.6651   0.8292   1.0754   1.4259   3.8140   4.0908   4.1706   4.2236
     4.7515   4.7959   4.8636   4.9943   5.0852   5.1549   5.8551   6.1596
     6.2415   6.3645   6.5825   6.8106   7.0900   8.1890   8.8561   8.9721
     9.1547   9.3390   9.3591   9.4662   9.6379   9.7395   9.8305  10.0173
    10.6272  11.0660  11.1107  11.2685

     occupation numbers 
     1.0000   1.0000   1.0000   1.0000   1.0000   1.0000   1.0000   1.0000
     1.0000   1.0000   1.0000   1.0000   1.0000   1.0000   1.0000   1.0000
     1.0000   1.0000   1.0000   1.0000   1.0000   1.0000   1.0000   1.0000
     1.0000   1.0000   1.0000   1.0000   1.0000   1.0000   1.0000   1.0000
     1.0000   1.0000   1.0000   1.0000   1.0000   1.0000   1.0000   1.0000
     1.0000   1.0000   1.0000   1.0000   1.0000   1.0000   1.0000   1.0000
     1.0000   1.0000   1.0000   1.0000   1.0000   1.0000   1.0000   1.0000
     1.0000   1.0000   1.0000   1.0000   1.0000   1.0000   1.0000   1.0000
     1.0000   1.0000   1.0000   1.0000   1.0000   1.0000   1.0000   1.0000
     1.0000   1.0000   1.0000   1.0000   1.0000   0.0025   0.0000   0.0000
     0.0000   0.0000   0.0000   0.0000   0.0000   0.0000   0.0000   0.0000
     0.0000   0.0000   0.0000   0.0000

          k =-0.5393-0.1676 0.5156 (  7954 PWs)   bands (ev):

   -17.0412 -16.9991 -16.9881 -16.9784 -16.9521 -16.9452 -16.9247 -16.9060
   -16.9014 -16.8992 -16.8877 -16.8799 -16.8526 -16.8445 -16.8403 -16.8340
   -16.8194 -16.8118 -16.8061 -16.8040 -16.7952 -16.7903 -16.7772 -16.7732
   -16.7684 -16.7624 -16.7517 -16.7422 -16.7373 -16.7313 -16.7248 -16.7145
   -16.7044 -16.6933 -16.6906 -16.6827 -16.6700 -16.6648 -16.6601 -16.6490
   -16.6405 -16.6190 -16.6110 -16.5802 -16.5545  -4.2611  -3.7259  -3.1921
    -2.8618  -2.6462  -1.9395  -1.6312  -1.2812  -0.0600   0.1802   0.4616
     1.1175   1.4299   2.0805   2.4527   3.2848   3.3825   3.4892   3.7681
     4.0557   4.2097   4.5919   4.6540   4.7413   5.2635   5.3645   5.5804
     5.7389   5.8261   6.4091   6.4997   7.0128   8.8223   9.3651   9.7303
     9.8265   9.9491  10.0655  10.1972  10.3869  10.5607  10.8216  10.9697
    11.0889  11.3211  11.4962  11.6300

     occupation numbers 
     1.0000   1.0000   1.0000   1.0000   1.0000   1.0000   1.0000   1.0000
     1.0000   1.0000   1.0000   1.0000   1.0000   1.0000   1.0000   1.0000
     1.0000   1.0000   1.0000   1.0000   1.0000   1.0000   1.0000   1.0000
     1.0000   1.0000   1.0000   1.0000   1.0000   1.0000   1.0000   1.0000
     1.0000   1.0000   1.0000   1.0000   1.0000   1.0000   1.0000   1.0000
     1.0000   1.0000   1.0000   1.0000   1.0000   1.0000   1.0000   1.0000
     1.0000   1.0000   1.0000   1.0000   1.0000   1.0000   1.0000   1.0000
     1.0000   1.0000   1.0000   1.0000   1.0000   1.0000   1.0000   1.0000
     1.0000   1.0000   1.0000   1.0000   1.0000   1.0000   1.0000   1.0000
     1.0000   1.0000   1.0000   1.0000   1.0000   0.0000   0.0000   0.0000
     0.0000   0.0000   0.0000   0.0000   0.0000   0.0000   0.0000   0.0000
     0.0000   0.0000   0.0000   0.0000

          k =-0.3600 0.0056 0.3451 (  7946 PWs)   bands (ev):

   -17.0413 -16.9986 -16.9838 -16.9772 -16.9526 -16.9451 -16.9243 -16.9062
   -16.9010 -16.8984 -16.8881 -16.8773 -16.8536 -16.8515 -16.8440 -16.8337
   -16.8202 -16.8193 -16.8118 -16.8044 -16.7960 -16.7861 -16.7788 -16.7748
   -16.7662 -16.7578 -16.7504 -16.7439 -16.7380 -16.7303 -16.7215 -16.7139
   -16.7001 -16.6961 -16.6843 -16.6788 -16.6690 -16.6625 -16.6574 -16.6462
   -16.6407 -16.6211 -16.6112 -16.5866 -16.5565  -4.4339  -3.5328  -3.3131
    -2.5535  -2.3305  -2.1529  -1.8337  -1.2255  -0.2901   0.1905   0.5638
     0.9199   1.2611   1.7166   2.0333   3.1738   3.8225   3.9380   4.0495
     4.2124   4.4367   4.6731   4.8254   5.2048   5.2847   5.4330   5.4634
     5.7688   6.0123   6.0821   6.3054   7.5311   8.7716   9.0245   9.3491
     9.6168   9.7663   9.9840  10.0137  10.1748  10.2814  10.4032  10.6353
    10.8572  10.8987  11.0062  11.3004

     occupation numbers 
     1.0000   1.0000   1.0000   1.0000   1.0000   1.0000   1.0000   1.0000
     1.0000   1.0000   1.0000   1.0000   1.0000   1.0000   1.0000   1.0000
     1.0000   1.0000   1.0000   1.0000   1.0000   1.0000   1.0000   1.0000
     1.0000   1.0000   1.0000   1.0000   1.0000   1.0000   1.0000   1.0000
     1.0000   1.0000   1.0000   1.0000   1.0000   1.0000   1.0000   1.0000
     1.0000   1.0000   1.0000   1.0000   1.0000   1.0000   1.0000   1.0000
     1.0000   1.0000   1.0000   1.0000   1.0000   1.0000   1.0000   1.0000
     1.0000   1.0000   1.0000   1.0000   1.0000   1.0000   1.0000   1.0000
     1.0000   1.0000   1.0000   1.0000   1.0000   1.0000   1.0000   1.0000
     1.0000   1.0000   1.0000   1.0000   0.9596   0.0000   0.0000   0.0000
     0.0000   0.0000   0.0000   0.0000   0.0000   0.0000   0.0000   0.0000
     0.0000   0.0000   0.0000   0.0000

          k = 0.0021 0.0040 0.3472 (  7951 PWs)   bands (ev):

   -17.0412 -16.9987 -16.9828 -16.9771 -16.9533 -16.9419 -16.9239 -16.9057
   -16.9012 -16.8992 -16.8883 -16.8773 -16.8569 -16.8520 -16.8452 -16.8320
   -16.8275 -16.8195 -16.8097 -16.8044 -16.7979 -16.7832 -16.7797 -16.7765
   -16.7664 -16.7573 -16.7505 -16.7434 -16.7380 -16.7312 -16.7201 -16.7143
   -16.6992 -16.6956 -16.6835 -16.6795 -16.6704 -16.6617 -16.6550 -16.6473
   -16.6375 -16.6182 -16.6080 -16.5948 -16.5573  -4.6879  -3.0668  -2.9520
    -2.7918  -2.6073  -2.3371  -1.0207  -0.7745  -0.5533  -0.4725   0.5051
     0.6557   0.9429   1.0532   1.2568   3.8321   4.0586   4.0994   4.2015
     4.6633   4.7639   4.8851   5.0308   5.0833   5.1557   5.7193   6.2564
     6.3941   6.4564   6.6913   7.0064   7.0406   8.2828   8.8160   9.0352
     9.1327   9.3216   9.3758   9.4895   9.5974   9.7520   9.8686   9.9705
    10.6134  10.9585  11.0749  11.1305

     occupation numbers 
     1.0000   1.0000   1.0000   1.0000   1.0000   1.0000   1.0000   1.0000
     1.0000   1.0000   1.0000   1.0000   1.0000   1.0000   1.0000   1.0000
     1.0000   1.0000   1.0000   1.0000   1.0000   1.0000   1.0000   1.0000
     1.0000   1.0000   1.0000   1.0000   1.0000   1.0000   1.0000   1.0000
     1.0000   1.0000   1.0000   1.0000   1.0000   1.0000   1.0000   1.0000
     1.0000   1.0000   1.0000   1.0000   1.0000   1.0000   1.0000   1.0000
     1.0000   1.0000   1.0000   1.0000   1.0000   1.0000   1.0000   1.0000
     1.0000   1.0000   1.0000   1.0000   1.0000   1.0000   1.0000   1.0000
     1.0000   1.0000   1.0000   1.0000   1.0000   1.0000   1.0000   1.0000
     1.0000   1.0000   1.0000   1.0000   1.0000   0.0003   0.0000   0.0000
     0.0000   0.0000   0.0000   0.0000   0.0000   0.0000   0.0000   0.0000
     0.0000   0.0000   0.0000   0.0000

          k = 0.1813 0.1772 0.1766 (  7957 PWs)   bands (ev):

   -17.0412 -16.9983 -16.9798 -16.9746 -16.9560 -16.9471 -16.9236 -16.9057
   -16.9011 -16.8952 -16.8905 -16.8751 -16.8637 -16.8530 -16.8443 -16.8354
   -16.8206 -16.8176 -16.8130 -16.8042 -16.7977 -16.7852 -16.7800 -16.7768
   -16.7647 -16.7559 -16.7477 -16.7449 -16.7412 -16.7314 -16.7207 -16.7132
   -16.7001 -16.6938 -16.6816 -16.6749 -16.6674 -16.6616 -16.6560 -16.6475
   -16.6419 -16.6247 -16.6109 -16.5881 -16.5581  -4.7425  -3.3308  -2.8394
    -2.5268  -2.2940  -1.9152  -1.6346  -1.4113  -0.0846  -0.0045   0.2144
     0.3636   0.5445   0.7233   1.4797   4.0800   4.1257   4.1763   4.4579
     4.7598   5.0032   5.2118   5.2774   5.3793   5.6427   5.8880   6.0402
     6.0791   6.2370   6.7008   7.0480   7.5123   7.9147   8.2302   8.3887
     8.6267   9.0641   9.1606   9.4116   9.5226   9.6127   9.6882   9.8051
    10.6019  10.7662  11.0361  11.0744

     occupation numbers 
     1.0000   1.0000   1.0000   1.0000   1.0000   1.0000   1.0000   1.0000
     1.0000   1.0000   1.0000   1.0000   1.0000   1.0000   1.0000   1.0000
     1.0000   1.0000   1.0000   1.0000   1.0000   1.0000   1.0000   1.0000
     1.0000   1.0000   1.0000   1.0000   1.0000   1.0000   1.0000   1.0000
     1.0000   1.0000   1.0000   1.0000   1.0000   1.0000   1.0000   1.0000
     1.0000   1.0000   1.0000   1.0000   1.0000   1.0000   1.0000   1.0000
     1.0000   1.0000   1.0000   1.0000   1.0000   1.0000   1.0000   1.0000
     1.0000   1.0000   1.0000   1.0000   1.0000   1.0000   1.0000   1.0000
     1.0000   1.0000   1.0000   1.0000   1.0000   1.0000   1.0000   1.0000
     1.0000   1.0000   1.0000   1.0000   0.9697   0.1810   0.0010   0.0000
     0.0000   0.0000   0.0000   0.0000   0.0000   0.0000   0.0000   0.0000
     0.0000   0.0000   0.0000   0.0000

          k =-0.3564-0.3423 0.6882 (  7954 PWs)   bands (ev):

   -17.0413 -16.9988 -16.9841 -16.9773 -16.9525 -16.9479 -16.9247 -16.9057
   -16.9011 -16.8979 -16.8890 -16.8784 -16.8544 -16.8507 -16.8411 -16.8348
   -16.8190 -16.8131 -16.8072 -16.8036 -16.7967 -16.7904 -16.7792 -16.7748
   -16.7664 -16.7577 -16.7505 -16.7425 -16.7410 -16.7324 -16.7224 -16.7133
   -16.7023 -16.6930 -16.6854 -16.6801 -16.6691 -16.6636 -16.6594 -16.6494
   -16.6413 -16.6220 -16.6117 -16.5815 -16.5558  -4.4265  -3.5553  -3.3369
    -2.5820  -2.2194  -2.1051  -1.8354  -1.2920  -0.2945   0.1891   0.4674
     0.8914   1.2299   1.7137   2.1259   3.1982   3.9081   3.9683   4.0740
     4.1553   4.4786   4.7711   4.8063   5.2127   5.3268   5.3863   5.4249
     5.7722   5.9531   6.0391   6.3656   7.4947   8.7901   9.0711   9.3152
     9.5921   9.7263   9.8204  10.0071  10.1247  10.1920  10.3360  10.6008
    10.7182  10.9331  10.9645  11.1690

     occupation numbers 
     1.0000   1.0000   1.0000   1.0000   1.0000   1.0000   1.0000   1.0000
     1.0000   1.0000   1.0000   1.0000   1.0000   1.0000   1.0000   1.0000
     1.0000   1.0000   1.0000   1.0000   1.0000   1.0000   1.0000   1.0000
     1.0000   1.0000   1.0000   1.0000   1.0000   1.0000   1.0000   1.0000
     1.0000   1.0000   1.0000   1.0000   1.0000   1.0000   1.0000   1.0000
     1.0000   1.0000   1.0000   1.0000   1.0000   1.0000   1.0000   1.0000
     1.0000   1.0000   1.0000   1.0000   1.0000   1.0000   1.0000   1.0000
     1.0000   1.0000   1.0000   1.0000   1.0000   1.0000   1.0000   1.0000
     1.0000   1.0000   1.0000   1.0000   1.0000   1.0000   1.0000   1.0000
     1.0000   1.0000   1.0000   1.0000   0.9772   0.0000   0.0000   0.0000
     0.0000   0.0000   0.0000   0.0000   0.0000   0.0000   0.0000   0.0000
     0.0000   0.0000   0.0000   0.0000

          k =-0.1772-0.1692 0.5177 (  7957 PWs)   bands (ev):

   -17.0413 -16.9993 -16.9869 -16.9780 -16.9523 -16.9426 -16.9247 -16.9050
   -16.9015 -16.8995 -16.8869 -16.8802 -16.8538 -16.8471 -16.8410 -16.8327
   -16.8201 -16.8181 -16.8081 -16.8038 -16.7938 -16.7871 -16.7777 -16.7753
   -16.7682 -16.7609 -16.7521 -16.7421 -16.7366 -16.7317 -16.7223 -16.7143
   -16.7028 -16.6977 -16.6866 -16.6834 -16.6705 -16.6631 -16.6577 -16.6464
   -16.6401 -16.6174 -16.6108 -16.5854 -16.5550  -4.2798  -3.7053  -3.2265
    -2.8873  -2.5311  -2.0135  -1.6123  -1.2386  -0.0859   0.1599   0.5732
     1.0676   1.3332   2.1379   2.3838   3.2443   3.4078   3.4537   3.7641
     3.9761   4.0764   4.5808   4.6425   4.7929   5.2806   5.4701   5.7228
     5.7614   5.8580   6.4819   6.5522   7.0252   8.9610   9.3200   9.6342
     9.7765   9.9741  10.0839  10.3008  10.3633  10.5605  10.8436  11.0219
    11.1654  11.3671  11.5932  11.6410

     occupation numbers 
     1.0000   1.0000   1.0000   1.0000   1.0000   1.0000   1.0000   1.0000
     1.0000   1.0000   1.0000   1.0000   1.0000   1.0000   1.0000   1.0000
     1.0000   1.0000   1.0000   1.0000   1.0000   1.0000   1.0000   1.0000
     1.0000   1.0000   1.0000   1.0000   1.0000   1.0000   1.0000   1.0000
     1.0000   1.0000   1.0000   1.0000   1.0000   1.0000   1.0000   1.0000
     1.0000   1.0000   1.0000   1.0000   1.0000   1.0000   1.0000   1.0000
     1.0000   1.0000   1.0000   1.0000   1.0000   1.0000   1.0000   1.0000
     1.0000   1.0000   1.0000   1.0000   1.0000   1.0000   1.0000   1.0000
     1.0000   1.0000   1.0000   1.0000   1.0000   1.0000   1.0000   1.0000
     1.0000   1.0000   1.0000   1.0000   1.0000   0.0000   0.0000   0.0000
     0.0000   0.0000   0.0000   0.0000   0.0000   0.0000   0.0000   0.0000
     0.0000   0.0000   0.0000   0.0000

          k =-0.5465 0.5283-0.1706 (  7949 PWs)   bands (ev):

   -17.0417 -16.9995 -16.9866 -16.9781 -16.9522 -16.9399 -16.9244 -16.9041
   -16.9012 -16.9006 -16.8854 -16.8804 -16.8557 -16.8495 -16.8428 -16.8310
   -16.8252 -16.8206 -16.8070 -16.8030 -16.7942 -16.7836 -16.7820 -16.7764
   -16.7678 -16.7598 -16.7520 -16.7416 -16.7359 -16.7324 -16.7213 -16.7153
   -16.7027 -16.6964 -16.6862 -16.6824 -16.6697 -16.6624 -16.6552 -16.6481
   -16.6373 -16.6156 -16.6079 -16.5934 -16.5559  -4.2516  -3.7266  -3.2220
    -2.8290  -2.6550  -1.9429  -1.5727  -1.3870   0.0104   0.1661   0.4628
     1.1268   1.4072   2.0657   2.4865   3.2697   3.4208   3.4906   3.8141
     3.9952   4.1639   4.5681   4.6507   4.8563   5.1246   5.4109   5.5903
     5.8300   5.9417   6.3034   6.4272   7.0352   8.8942   9.3062   9.6070
     9.7607   9.8260   9.9349  10.2929  10.3850  10.5857  10.8831  11.0393
    11.0902  11.3263  11.4434  11.6228

     occupation numbers 
     1.0000   1.0000   1.0000   1.0000   1.0000   1.0000   1.0000   1.0000
     1.0000   1.0000   1.0000   1.0000   1.0000   1.0000   1.0000   1.0000
     1.0000   1.0000   1.0000   1.0000   1.0000   1.0000   1.0000   1.0000
     1.0000   1.0000   1.0000   1.0000   1.0000   1.0000   1.0000   1.0000
     1.0000   1.0000   1.0000   1.0000   1.0000   1.0000   1.0000   1.0000
     1.0000   1.0000   1.0000   1.0000   1.0000   1.0000   1.0000   1.0000
     1.0000   1.0000   1.0000   1.0000   1.0000   1.0000   1.0000   1.0000
     1.0000   1.0000   1.0000   1.0000   1.0000   1.0000   1.0000   1.0000
     1.0000   1.0000   1.0000   1.0000   1.0000   1.0000   1.0000   1.0000
     1.0000   1.0000   1.0000   1.0000   1.0000   0.0000   0.0000   0.0000
     0.0000   0.0000   0.0000   0.0000   0.0000   0.0000   0.0000   0.0000
     0.0000   0.0000   0.0000   0.0000

          k =-0.3673 0.7014-0.3412 (  7960 PWs)   bands (ev):

   -17.0417 -16.9988 -16.9834 -16.9774 -16.9537 -16.9438 -16.9242 -16.9048
   -16.9011 -16.8989 -16.8879 -16.8785 -16.8560 -16.8514 -16.8422 -16.8340
   -16.8207 -16.8174 -16.8103 -16.8032 -16.7969 -16.7861 -16.7813 -16.7756
   -16.7665 -16.7563 -16.7506 -16.7427 -16.7400 -16.7323 -16.7209 -16.7143
   -16.7012 -16.6930 -16.6846 -16.6785 -16.6705 -16.6626 -16.6565 -16.6474
   -16.6410 -16.6197 -16.6114 -16.5871 -16.5567  -4.4149  -3.5192  -3.3665
    -2.5577  -2.2125  -2.1641  -1.9219  -1.2738  -0.2334   0.1635   0.5054
     0.8926   1.1714   1.8374   2.1327   3.2308   3.8327   3.9759   4.1398
     4.2459   4.6062   4.6814   4.9046   5.0624   5.3268   5.4225   5.5570
     5.6801   5.9010   6.0699   6.1309   7.2841   8.5933   9.0544   9.3020
     9.5130   9.7254   9.8245   9.9784  10.0633  10.2930  10.5588  10.6728
    10.7750  10.8744  11.0429  11.1459

     occupation numbers 
     1.0000   1.0000   1.0000   1.0000   1.0000   1.0000   1.0000   1.0000
     1.0000   1.0000   1.0000   1.0000   1.0000   1.0000   1.0000   1.0000
     1.0000   1.0000   1.0000   1.0000   1.0000   1.0000   1.0000   1.0000
     1.0000   1.0000   1.0000   1.0000   1.0000   1.0000   1.0000   1.0000
     1.0000   1.0000   1.0000   1.0000   1.0000   1.0000   1.0000   1.0000
     1.0000   1.0000   1.0000   1.0000   1.0000   1.0000   1.0000   1.0000
     1.0000   1.0000   1.0000   1.0000   1.0000   1.0000   1.0000   1.0000
     1.0000   1.0000   1.0000   1.0000   1.0000   1.0000   1.0000   1.0000
     1.0000   1.0000   1.0000   1.0000   1.0000   1.0000   1.0000   1.0000
     1.0000   1.0000   1.0000   1.0000   0.9997   0.0000   0.0000   0.0000
     0.0000   0.0000   0.0000   0.0000   0.0000   0.0000   0.0000   0.0000
     0.0000   0.0000   0.0000   0.0000

          k =-0.9050 0.1819 0.1704 (  7961 PWs)   bands (ev):

   -17.0418 -16.9985 -16.9797 -16.9756 -16.9551 -16.9501 -16.9240 -16.9047
   -16.9009 -16.8946 -16.8891 -16.8759 -16.8631 -16.8524 -16.8423 -16.8360
   -16.8200 -16.8140 -16.8076 -16.8034 -16.7970 -16.7900 -16.7806 -16.7762
   -16.7649 -16.7553 -16.7483 -16.7454 -16.7424 -16.7321 -16.7206 -16.7132
   -16.7016 -16.6926 -16.6804 -16.6751 -16.6644 -16.6616 -16.6598 -16.6494
   -16.6435 -16.6259 -16.6135 -16.5828 -16.5574  -4.2187  -3.7450  -3.1623
    -2.8296  -2.7082  -1.9656  -1.6019  -1.4416  -0.0703   0.0404   0.5613
     1.1916   1.2639   2.2094   2.7611   3.4080   3.4468   3.7070   4.0468
     4.2416   4.3467   4.5683   4.6443   4.9335   4.9894   5.3117   5.3501
     5.6529   5.7623   5.9547   6.3415   6.5492   8.4501   8.8837   9.2575
     9.5111   9.8882  10.0355  10.2195  10.3665  10.6209  10.8663  11.0225
    11.1315  11.3726  11.5702  11.9591

     occupation numbers 
     1.0000   1.0000   1.0000   1.0000   1.0000   1.0000   1.0000   1.0000
     1.0000   1.0000   1.0000   1.0000   1.0000   1.0000   1.0000   1.0000
     1.0000   1.0000   1.0000   1.0000   1.0000   1.0000   1.0000   1.0000
     1.0000   1.0000   1.0000   1.0000   1.0000   1.0000   1.0000   1.0000
     1.0000   1.0000   1.0000   1.0000   1.0000   1.0000   1.0000   1.0000
     1.0000   1.0000   1.0000   1.0000   1.0000   1.0000   1.0000   1.0000
     1.0000   1.0000   1.0000   1.0000   1.0000   1.0000   1.0000   1.0000
     1.0000   1.0000   1.0000   1.0000   1.0000   1.0000   1.0000   1.0000
     1.0000   1.0000   1.0000   1.0000   1.0000   1.0000   1.0000   1.0000
     1.0000   1.0000   1.0000   1.0000   1.0000   0.0000   0.0000   0.0000
     0.0000   0.0000   0.0000   0.0000   0.0000   0.0000   0.0000   0.0000
     0.0000   0.0000   0.0000   0.0000

          k =-0.7258 0.3551-0.0001 (  7946 PWs)   bands (ev):

   -17.0419 -16.9990 -16.9832 -16.9772 -16.9537 -16.9441 -16.9243 -16.9047
   -16.9010 -16.8983 -16.8876 -16.8784 -16.8559 -16.8514 -16.8423 -16.8342
   -16.8211 -16.8177 -16.8103 -16.8039 -16.7965 -16.7856 -16.7810 -16.7759
   -16.7663 -16.7562 -16.7518 -16.7425 -16.7403 -16.7317 -16.7205 -16.7139
   -16.7008 -16.6937 -16.6846 -16.6785 -16.6702 -16.6622 -16.6559 -16.6472
   -16.6411 -16.6198 -16.6126 -16.5870 -16.5566  -3.8840  -3.7224  -3.5382
    -3.3773  -2.1215  -1.8995  -1.7246  -1.6308   0.1015   0.4168   0.5763
     0.7337   2.5369   2.6926   2.8587   2.9638   3.2031   3.3037   3.3754
     3.4898   4.5469   4.6120   4.7593   4.8700   4.9610   5.0298   5.1084
     5.1958   5.8842   6.0780   6.2992   6.4443   9.4860   9.6401   9.8288
    10.0477  10.2008  10.2661  10.5191  10.6261  10.7393  10.8915  11.1393
    11.1956  11.6500  11.7391  11.8338

     occupation numbers 
     1.0000   1.0000   1.0000   1.0000   1.0000   1.0000   1.0000   1.0000
     1.0000   1.0000   1.0000   1.0000   1.0000   1.0000   1.0000   1.0000
     1.0000   1.0000   1.0000   1.0000   1.0000   1.0000   1.0000   1.0000
     1.0000   1.0000   1.0000   1.0000   1.0000   1.0000   1.0000   1.0000
     1.0000   1.0000   1.0000   1.0000   1.0000   1.0000   1.0000   1.0000
     1.0000   1.0000   1.0000   1.0000   1.0000   1.0000   1.0000   1.0000
     1.0000   1.0000   1.0000   1.0000   1.0000   1.0000   1.0000   1.0000
     1.0000   1.0000   1.0000   1.0000   1.0000   1.0000   1.0000   1.0000
     1.0000   1.0000   1.0000   1.0000   1.0000   1.0000   1.0000   1.0000
     1.0000   1.0000   1.0000   1.0000   1.0000   0.0000   0.0000   0.0000
     0.0000   0.0000   0.0000   0.0000   0.0000   0.0000   0.0000   0.0000
     0.0000   0.0000   0.0000   0.0000

          k =-0.3637 0.3535 0.0020 (  7947 PWs)   bands (ev):

   -17.0417 -16.9988 -16.9830 -16.9775 -16.9531 -16.9416 -16.9237 -16.9056
   -16.9012 -16.8994 -16.8872 -16.8770 -16.8570 -16.8515 -16.8453 -16.8323
   -16.8272 -16.8210 -16.8096 -16.8047 -16.7974 -16.7833 -16.7798 -16.7770
   -16.7665 -16.7569 -16.7510 -16.7430 -16.7384 -16.7302 -16.7201 -16.7150
   -16.6993 -16.6951 -16.6834 -16.6789 -16.6690 -16.6621 -16.6551 -16.6472
   -16.6381 -16.6187 -16.6082 -16.5952 -16.5574  -4.4080  -3.5980  -3.2779
    -2.4852  -2.3051  -2.1721  -1.9789  -1.1902  -0.3459   0.2116   0.5187
     1.0598   1.2001   1.8433   2.0376   3.1985   3.8482   3.9417   4.0469
     4.2348   4.5584   4.6186   4.8661   5.1916   5.2649   5.3809   5.5547
     5.6004   5.8893   6.0788   6.2814   7.5041   8.7363   9.0989   9.3457
     9.5044   9.7814   9.8429   9.8926  10.0382  10.1921  10.4397  10.5852
    10.6881  10.9018  10.9851  11.1414

     occupation numbers 
     1.0000   1.0000   1.0000   1.0000   1.0000   1.0000   1.0000   1.0000
     1.0000   1.0000   1.0000   1.0000   1.0000   1.0000   1.0000   1.0000
     1.0000   1.0000   1.0000   1.0000   1.0000   1.0000   1.0000   1.0000
     1.0000   1.0000   1.0000   1.0000   1.0000   1.0000   1.0000   1.0000
     1.0000   1.0000   1.0000   1.0000   1.0000   1.0000   1.0000   1.0000
     1.0000   1.0000   1.0000   1.0000   1.0000   1.0000   1.0000   1.0000
     1.0000   1.0000   1.0000   1.0000   1.0000   1.0000   1.0000   1.0000
     1.0000   1.0000   1.0000   1.0000   1.0000   1.0000   1.0000   1.0000
     1.0000   1.0000   1.0000   1.0000   1.0000   1.0000   1.0000   1.0000
     1.0000   1.0000   1.0000   1.0000   0.9734   0.0000   0.0000   0.0000
     0.0000   0.0000   0.0000   0.0000   0.0000   0.0000   0.0000   0.0000
     0.0000   0.0000   0.0000   0.0000

          k =-0.1844 0.5267-0.1686 (  7943 PWs)   bands (ev):

   -17.0416 -16.9993 -16.9876 -16.9783 -16.9523 -16.9423 -16.9245 -16.9052
   -16.9014 -16.9000 -16.8865 -16.8802 -16.8533 -16.8478 -16.8412 -16.8328
   -16.8208 -16.8175 -16.8081 -16.8039 -16.7934 -16.7875 -16.7782 -16.7754
   -16.7692 -16.7606 -16.7516 -16.7418 -16.7368 -16.7318 -16.7229 -16.7154
   -16.7032 -16.6970 -16.6859 -16.6831 -16.6697 -16.6634 -16.6588 -16.6467
   -16.6405 -16.6173 -16.6106 -16.5857 -16.5552  -4.2316  -3.7396  -3.2168
    -2.8742  -2.5833  -2.0273  -1.6172  -1.3296  -0.0530   0.2117   0.5496
     1.0643   1.3382   2.2290   2.4940   3.3158   3.4060   3.4695   3.9304
     4.0039   4.1753   4.5684   4.6623   4.8187   5.2480   5.2752   5.6143
     5.6778   5.9196   6.2403   6.5249   6.7806   8.8066   9.1698   9.5558
     9.7473   9.8678   9.9985  10.2469  10.3838  10.6111  10.8650  11.0515
    11.2233  11.3385  11.4775  11.6130

     occupation numbers 
     1.0000   1.0000   1.0000   1.0000   1.0000   1.0000   1.0000   1.0000
     1.0000   1.0000   1.0000   1.0000   1.0000   1.0000   1.0000   1.0000
     1.0000   1.0000   1.0000   1.0000   1.0000   1.0000   1.0000   1.0000
     1.0000   1.0000   1.0000   1.0000   1.0000   1.0000   1.0000   1.0000
     1.0000   1.0000   1.0000   1.0000   1.0000   1.0000   1.0000   1.0000
     1.0000   1.0000   1.0000   1.0000   1.0000   1.0000   1.0000   1.0000
     1.0000   1.0000   1.0000   1.0000   1.0000   1.0000   1.0000   1.0000
     1.0000   1.0000   1.0000   1.0000   1.0000   1.0000   1.0000   1.0000
     1.0000   1.0000   1.0000   1.0000   1.0000   1.0000   1.0000   1.0000
     1.0000   1.0000   1.0000   1.0000   1.0000   0.0000   0.0000   0.0000
     0.0000   0.0000   0.0000   0.0000   0.0000   0.0000   0.0000   0.0000
     0.0000   0.0000   0.0000   0.0000

          k =-0.7221 0.0072 0.3430 (  7961 PWs)   bands (ev):

   -17.0418 -16.9988 -16.9845 -16.9775 -16.9523 -16.9476 -16.9245 -16.9055
   -16.9009 -16.8982 -16.8876 -16.8782 -16.8541 -16.8502 -16.8415 -16.8348
   -16.8203 -16.8131 -16.8073 -16.8035 -16.7966 -16.7900 -16.7799 -16.7747
   -16.7666 -16.7578 -16.7504 -16.7426 -16.7407 -16.7324 -16.7221 -16.7140
   -16.7022 -16.6923 -16.6852 -16.6789 -16.6688 -16.6630 -16.6597 -16.6494
   -16.6415 -16.6219 -16.6127 -16.5816 -16.5559  -3.8353  -3.7103  -3.6071
    -3.3559  -2.1207  -1.9557  -1.7324  -1.6412   0.2595   0.3544   0.5002
     0.7535   2.5096   2.7132   2.9147   3.0220   3.2386   3.3696   3.4274
     3.5169   4.5428   4.6389   4.7247   4.8238   4.8669   5.0287   5.0660
     5.1316   5.8616   6.0697   6.2445   6.4134   9.5341   9.5922   9.7816
     9.9384  10.0838  10.3450  10.4424  10.5677  10.7175  10.8384  10.9835
    11.0387  11.5713  11.7703  11.9775

     occupation numbers 
     1.0000   1.0000   1.0000   1.0000   1.0000   1.0000   1.0000   1.0000
     1.0000   1.0000   1.0000   1.0000   1.0000   1.0000   1.0000   1.0000
     1.0000   1.0000   1.0000   1.0000   1.0000   1.0000   1.0000   1.0000
     1.0000   1.0000   1.0000   1.0000   1.0000   1.0000   1.0000   1.0000
     1.0000   1.0000   1.0000   1.0000   1.0000   1.0000   1.0000   1.0000
     1.0000   1.0000   1.0000   1.0000   1.0000   1.0000   1.0000   1.0000
     1.0000   1.0000   1.0000   1.0000   1.0000   1.0000   1.0000   1.0000
     1.0000   1.0000   1.0000   1.0000   1.0000   1.0000   1.0000   1.0000
     1.0000   1.0000   1.0000   1.0000   1.0000   1.0000   1.0000   1.0000
     1.0000   1.0000   1.0000   1.0000   1.0000   0.0000   0.0000   0.0000
     0.0000   0.0000   0.0000   0.0000   0.0000   0.0000   0.0000   0.0000
     0.0000   0.0000   0.0000   0.0000

          k =-0.5429 0.1803 0.1725 (  7958 PWs)   bands (ev):

   -17.0419 -16.9984 -16.9796 -16.9753 -16.9559 -16.9471 -16.9234 -16.9054
   -16.9010 -16.8953 -16.8884 -16.8749 -16.8634 -16.8528 -16.8442 -16.8353
   -16.8211 -16.8191 -16.8129 -16.8045 -16.7976 -16.7849 -16.7805 -16.7761
   -16.7650 -16.7554 -16.7487 -16.7445 -16.7416 -16.7304 -16.7203 -16.7137
   -16.6988 -16.6943 -16.6811 -16.6736 -16.6669 -16.6612 -16.6553 -16.6472
   -16.6423 -16.6246 -16.6131 -16.5882 -16.5582  -4.2219  -3.7394  -3.1368
    -2.8482  -2.7061  -2.0042  -1.6172  -1.4485  -0.0375   0.0463   0.6524
     1.1716   1.3064   2.2526   2.7010   3.3931   3.4232   3.6243   4.0249
     4.1843   4.2554   4.5741   4.6378   4.8853   5.0144   5.3060   5.3502
     5.6608   5.8083   6.0058   6.4492   6.5634   8.4802   8.8155   9.3448
     9.5342   9.8609  10.0873  10.3105  10.4208  10.5322  10.9094  11.0995
    11.2182  11.3776  11.6669  11.9072

     occupation numbers 
     1.0000   1.0000   1.0000   1.0000   1.0000   1.0000   1.0000   1.0000
     1.0000   1.0000   1.0000   1.0000   1.0000   1.0000   1.0000   1.0000
     1.0000   1.0000   1.0000   1.0000   1.0000   1.0000   1.0000   1.0000
     1.0000   1.0000   1.0000   1.0000   1.0000   1.0000   1.0000   1.0000
     1.0000   1.0000   1.0000   1.0000   1.0000   1.0000   1.0000   1.0000
     1.0000   1.0000   1.0000   1.0000   1.0000   1.0000   1.0000   1.0000
     1.0000   1.0000   1.0000   1.0000   1.0000   1.0000   1.0000   1.0000
     1.0000   1.0000   1.0000   1.0000   1.0000   1.0000   1.0000   1.0000
     1.0000   1.0000   1.0000   1.0000   1.0000   1.0000   1.0000   1.0000
     1.0000   1.0000   1.0000   1.0000   1.0000   0.0000   0.0000   0.0000
     0.0000   0.0000   0.0000   0.0000   0.0000   0.0000   0.0000   0.0000
     0.0000   0.0000   0.0000   0.0000

          k = 0.3616-0.3575-0.3491 (  7974 PWs)   bands (ev):

   -17.0416 -16.9982 -16.9795 -16.9745 -16.9559 -16.9446 -16.9221 -16.9062
   -16.9010 -16.8960 -16.8888 -16.8740 -16.8643 -16.8532 -16.8463 -16.8331
   -16.8293 -16.8205 -16.8120 -16.8055 -16.7987 -16.7812 -16.7806 -16.7760
   -16.7650 -16.7557 -16.7486 -16.7447 -16.7403 -16.7286 -16.7196 -16.7145
   -16.6958 -16.6952 -16.6824 -16.6722 -16.6687 -16.6606 -16.6543 -16.6465
   -16.6384 -16.6227 -16.6091 -16.5965 -16.5589  -4.2501  -4.0672  -2.5488
    -2.4368  -2.2753  -2.2712  -2.0959  -1.8894   0.3521   0.4563   0.6718
     0.7418   1.0048   1.0458   3.2792   3.3990   3.8213   3.8655   3.8976
     3.9549   4.0844   4.2822   4.9138   4.9956   5.2840   5.4625   5.4866
     5.7077   6.4569   6.5839   6.8947   7.3315   8.4362   8.6379   8.7227
     8.8114   8.8643   9.1304   9.1968   9.5355  10.8711  11.1445  11.2650
    11.5829  11.8488  11.8944  11.9456

     occupation numbers 
     1.0000   1.0000   1.0000   1.0000   1.0000   1.0000   1.0000   1.0000
     1.0000   1.0000   1.0000   1.0000   1.0000   1.0000   1.0000   1.0000
     1.0000   1.0000   1.0000   1.0000   1.0000   1.0000   1.0000   1.0000
     1.0000   1.0000   1.0000   1.0000   1.0000   1.0000   1.0000   1.0000
     1.0000   1.0000   1.0000   1.0000   1.0000   1.0000   1.0000   1.0000
     1.0000   1.0000   1.0000   1.0000   1.0000   1.0000   1.0000   1.0000
     1.0000   1.0000   1.0000   1.0000   1.0000   1.0000   1.0000   1.0000
     1.0000   1.0000   1.0000   1.0000   1.0000   1.0000   1.0000   1.0000
     1.0000   1.0000   1.0000   1.0000   1.0000   1.0000   1.0000   1.0000
     1.0000   1.0000   1.0000   1.0000   0.9991   0.0000   0.0000   0.0000
     0.0000   0.0000   0.0000   0.0000   0.0000   0.0000   0.0000   0.0000
     0.0000   0.0000   0.0000   0.0000

          k = 0.5408-0.1844-0.5196 (  7948 PWs)   bands (ev):

   -17.0416 -16.9985 -16.9840 -16.9774 -16.9525 -16.9447 -16.9237 -16.9064
   -16.9010 -16.8989 -16.8876 -16.8775 -16.8539 -16.8515 -16.8443 -16.8339
   -16.8202 -16.8193 -16.8118 -16.8046 -16.7959 -16.7861 -16.7785 -16.7753
   -16.7663 -16.7575 -16.7502 -16.7438 -16.7383 -16.7302 -16.7217 -16.7148
   -16.7008 -16.6958 -16.6843 -16.6783 -16.6686 -16.6625 -16.6580 -16.6463
   -16.6408 -16.6214 -16.6109 -16.5869 -16.5565  -4.2305  -3.7544  -3.1681
    -2.8649  -2.6159  -2.0446  -1.6138  -1.3401  -0.0542   0.2341   0.3911
     1.1436   1.4610   2.0454   2.6210   3.3591   3.4378   3.5904   3.9974
     4.0303   4.3093   4.3668   4.6735   4.8447   5.0400   5.2915   5.5763
     5.6632   5.8871   6.0784   6.4581   7.0628   8.8241   9.3426   9.4358
     9.6511   9.7202   9.8276   9.9940  10.2122  10.5407  10.6707  10.8250
    11.1285  11.2568  11.6865  11.8903

     occupation numbers 
     1.0000   1.0000   1.0000   1.0000   1.0000   1.0000   1.0000   1.0000
     1.0000   1.0000   1.0000   1.0000   1.0000   1.0000   1.0000   1.0000
     1.0000   1.0000   1.0000   1.0000   1.0000   1.0000   1.0000   1.0000
     1.0000   1.0000   1.0000   1.0000   1.0000   1.0000   1.0000   1.0000
     1.0000   1.0000   1.0000   1.0000   1.0000   1.0000   1.0000   1.0000
     1.0000   1.0000   1.0000   1.0000   1.0000   1.0000   1.0000   1.0000
     1.0000   1.0000   1.0000   1.0000   1.0000   1.0000   1.0000   1.0000
     1.0000   1.0000   1.0000   1.0000   1.0000   1.0000   1.0000   1.0000
     1.0000   1.0000   1.0000   1.0000   1.0000   1.0000   1.0000   1.0000
     1.0000   1.0000   1.0000   1.0000   1.0000   0.0000   0.0000   0.0000
     0.0000   0.0000   0.0000   0.0000   0.0000   0.0000   0.0000   0.0000
     0.0000   0.0000   0.0000   0.0000

          k = 0.0031-0.7039-0.0081 (  7948 PWs)   bands (ev):

   -17.0416 -16.9989 -16.9883 -16.9785 -16.9521 -16.9451 -16.9241 -16.9062
   -16.9014 -16.8996 -16.8874 -16.8802 -16.8523 -16.8452 -16.8406 -16.8337
   -16.8193 -16.8118 -16.8064 -16.8038 -16.7951 -16.7901 -16.7770 -16.7734
   -16.7688 -16.7621 -16.7513 -16.7423 -16.7375 -16.7314 -16.7251 -16.7153
   -16.7049 -16.6931 -16.6900 -16.6822 -16.6701 -16.6641 -16.6606 -16.6494
   -16.6402 -16.6189 -16.6111 -16.5803 -16.5546  -3.9855  -3.8227  -3.1883
    -3.0089  -2.8611  -2.5108  -0.9896  -0.6010  -0.5849  -0.4235   1.2757
     1.4586   1.6181   1.8808   3.2611   3.4808   3.5462   3.5934   3.7084
     3.7237   3.7413   3.8154   3.9111   4.0008   5.4807   5.5393   5.7522
     5.9146   6.1659   6.3010   6.4276   6.5291   8.4819   8.8280   9.5880
     9.7583   9.8344  10.1366  10.4018  10.5021  11.3249  11.5351  11.7049
    11.8178  12.0438  12.0721  12.2080

     occupation numbers 
     1.0000   1.0000   1.0000   1.0000   1.0000   1.0000   1.0000   1.0000
     1.0000   1.0000   1.0000   1.0000   1.0000   1.0000   1.0000   1.0000
     1.0000   1.0000   1.0000   1.0000   1.0000   1.0000   1.0000   1.0000
     1.0000   1.0000   1.0000   1.0000   1.0000   1.0000   1.0000   1.0000
     1.0000   1.0000   1.0000   1.0000   1.0000   1.0000   1.0000   1.0000
     1.0000   1.0000   1.0000   1.0000   1.0000   1.0000   1.0000   1.0000
     1.0000   1.0000   1.0000   1.0000   1.0000   1.0000   1.0000   1.0000
     1.0000   1.0000   1.0000   1.0000   1.0000   1.0000   1.0000   1.0000
     1.0000   1.0000   1.0000   1.0000   1.0000   1.0000   1.0000   1.0000
     1.0000   1.0000   1.0000   1.0000   1.0000   0.0000   0.0000   0.0000
     0.0000   0.0000   0.0000   0.0000   0.0000   0.0000   0.0000   0.0000
     0.0000   0.0000   0.0000   0.0000

          k = 0.5445-0.5323-0.1765 (  7965 PWs)   bands (ev):

   -17.0417 -16.9987 -16.9827 -16.9770 -16.9532 -16.9418 -16.9233 -16.9056
   -16.9010 -16.8990 -16.8878 -16.8774 -16.8569 -16.8519 -16.8452 -16.8323
   -16.8270 -16.8206 -16.8096 -16.8047 -16.7975 -16.7829 -16.7796 -16.7763
   -16.7663 -16.7568 -16.7511 -16.7431 -16.7383 -16.7308 -16.7197 -16.7148
   -16.6991 -16.6954 -16.6834 -16.6790 -16.6695 -16.6617 -16.6548 -16.6468
   -16.6378 -16.6185 -16.6087 -16.5949 -16.5572  -4.2580  -3.7062  -3.2251
    -2.8358  -2.6442  -1.9498  -1.5621  -1.4285   0.0105   0.2116   0.3842
     1.1132   1.4246   2.0211   2.5877   3.3517   3.4408   3.4929   3.9538
     4.0378   4.1850   4.4043   4.7150   4.9191   5.0550   5.3864   5.5329
     5.7661   5.9176   6.1509   6.5023   7.0207   8.9338   9.2183   9.3680
     9.5495   9.8328   9.9154   9.9628  10.4260  10.5940  10.8304  11.1459
    11.2378  11.3726  11.5383  11.7669

     occupation numbers 
     1.0000   1.0000   1.0000   1.0000   1.0000   1.0000   1.0000   1.0000
     1.0000   1.0000   1.0000   1.0000   1.0000   1.0000   1.0000   1.0000
     1.0000   1.0000   1.0000   1.0000   1.0000   1.0000   1.0000   1.0000
     1.0000   1.0000   1.0000   1.0000   1.0000   1.0000   1.0000   1.0000
     1.0000   1.0000   1.0000   1.0000   1.0000   1.0000   1.0000   1.0000
     1.0000   1.0000   1.0000   1.0000   1.0000   1.0000   1.0000   1.0000
     1.0000   1.0000   1.0000   1.0000   1.0000   1.0000   1.0000   1.0000
     1.0000   1.0000   1.0000   1.0000   1.0000   1.0000   1.0000   1.0000
     1.0000   1.0000   1.0000   1.0000   1.0000   1.0000   1.0000   1.0000
     1.0000   1.0000   1.0000   1.0000   1.0000   0.0000   0.0000   0.0000
     0.0000   0.0000   0.0000   0.0000   0.0000   0.0000   0.0000   0.0000
     0.0000   0.0000   0.0000   0.0000

          k = 0.7237-0.3591-0.3471 (  7957 PWs)   bands (ev):

   -17.0417 -16.9982 -16.9796 -16.9750 -16.9558 -16.9470 -16.9230 -16.9056
   -16.9011 -16.8953 -16.8894 -16.8754 -16.8636 -16.8531 -16.8442 -16.8355
   -16.8207 -16.8183 -16.8129 -16.8045 -16.7977 -16.7849 -16.7798 -16.7766
   -16.7647 -16.7554 -16.7481 -16.7444 -16.7415 -16.7312 -16.7203 -16.7140
   -16.6995 -16.6939 -16.6813 -16.6740 -16.6671 -16.6614 -16.6556 -16.6471
   -16.6421 -16.6249 -16.6118 -16.5883 -16.5581  -4.4268  -3.5325  -3.2670
    -2.5149  -2.3813  -2.1769  -1.9499  -1.2222  -0.0195   0.1657   0.2437
     0.9379   1.1213   1.9541   2.0827   3.2828   3.9227   4.0067   4.2315
     4.2893   4.7290   4.7434   4.8235   4.8781   5.4013   5.4378   5.5602
     5.6725   5.7742   5.8684   6.2220   7.0247   8.2149   9.1746   9.2673
     9.4097   9.6259   9.7319  10.0077  10.2407  10.4882  10.7019  10.8403
    10.9027  11.0983  11.1484  11.2465

     occupation numbers 
     1.0000   1.0000   1.0000   1.0000   1.0000   1.0000   1.0000   1.0000
     1.0000   1.0000   1.0000   1.0000   1.0000   1.0000   1.0000   1.0000
     1.0000   1.0000   1.0000   1.0000   1.0000   1.0000   1.0000   1.0000
     1.0000   1.0000   1.0000   1.0000   1.0000   1.0000   1.0000   1.0000
     1.0000   1.0000   1.0000   1.0000   1.0000   1.0000   1.0000   1.0000
     1.0000   1.0000   1.0000   1.0000   1.0000   1.0000   1.0000   1.0000
     1.0000   1.0000   1.0000   1.0000   1.0000   1.0000   1.0000   1.0000
     1.0000   1.0000   1.0000   1.0000   1.0000   1.0000   1.0000   1.0000
     1.0000   1.0000   1.0000   1.0000   1.0000   1.0000   1.0000   1.0000
     1.0000   1.0000   1.0000   1.0000   1.0000   0.0014   0.0000   0.0000
     0.0000   0.0000   0.0000   0.0000   0.0000   0.0000   0.0000   0.0000
     0.0000   0.0000   0.0000   0.0000

          k = 0.1860-0.8787 0.1645 (  7948 PWs)   bands (ev):

   -17.0416 -16.9985 -16.9842 -16.9774 -16.9523 -16.9475 -16.9240 -16.9057
   -16.9011 -16.8983 -16.8884 -16.8786 -16.8544 -16.8505 -16.8415 -16.8345
   -16.8190 -16.8131 -16.8073 -16.8034 -16.7966 -16.7902 -16.7790 -16.7749
   -16.7667 -16.7572 -16.7500 -16.7424 -16.7408 -16.7327 -16.7223 -16.7142
   -16.7027 -16.6922 -16.6851 -16.6793 -16.6692 -16.6628 -16.6598 -16.6495
   -16.6411 -16.6219 -16.6117 -16.5816 -16.5558  -4.2363  -3.7230  -3.2275
    -2.8987  -2.5596  -1.9831  -1.6182  -1.3448  -0.0526   0.1563   0.4602
     1.0333   1.3353   2.0901   2.7019   3.3985   3.5040   3.5611   4.0272
     4.1296   4.2450   4.4437   4.7154   4.8893   5.1040   5.2718   5.6059
     5.6544   5.8149   6.0895   6.4388   6.8007   8.7772   9.1780   9.3847
     9.4374   9.6002   9.9011  10.0865  10.2995  10.6254  10.8346  11.0399
    11.2139  11.4242  11.6744  11.8365

     occupation numbers 
     1.0000   1.0000   1.0000   1.0000   1.0000   1.0000   1.0000   1.0000
     1.0000   1.0000   1.0000   1.0000   1.0000   1.0000   1.0000   1.0000
     1.0000   1.0000   1.0000   1.0000   1.0000   1.0000   1.0000   1.0000
     1.0000   1.0000   1.0000   1.0000   1.0000   1.0000   1.0000   1.0000
     1.0000   1.0000   1.0000   1.0000   1.0000   1.0000   1.0000   1.0000
     1.0000   1.0000   1.0000   1.0000   1.0000   1.0000   1.0000   1.0000
     1.0000   1.0000   1.0000   1.0000   1.0000   1.0000   1.0000   1.0000
     1.0000   1.0000   1.0000   1.0000   1.0000   1.0000   1.0000   1.0000
     1.0000   1.0000   1.0000   1.0000   1.0000   1.0000   1.0000   1.0000
     1.0000   1.0000   1.0000   1.0000   1.0000   0.0000   0.0000   0.0000
     0.0000   0.0000   0.0000   0.0000   0.0000   0.0000   0.0000   0.0000
     0.0000   0.0000   0.0000   0.0000

          k = 0.3652-0.7055-0.0060 (  7951 PWs)   bands (ev):

   -17.0416 -16.9991 -16.9872 -16.9781 -16.9523 -16.9423 -16.9240 -16.9052
   -16.9013 -16.8999 -16.8867 -16.8804 -16.8537 -16.8475 -16.8412 -16.8324
   -16.8206 -16.8176 -16.8080 -16.8039 -16.7936 -16.7870 -16.7777 -16.7751
   -16.7685 -16.7605 -16.7516 -16.7419 -16.7367 -16.7317 -16.7225 -16.7151
   -16.7031 -16.6971 -16.6862 -16.6831 -16.6702 -16.6629 -16.6582 -16.6462
   -16.6402 -16.6174 -16.6105 -16.5856 -16.5550  -3.8772  -3.7129  -3.5799
    -3.4165  -2.0396  -1.8762  -1.7054  -1.5774   0.2370   0.3208   0.5159
     0.6506   2.3817   2.6913   2.8359   3.0111   3.1207   3.2484   3.3196
     3.3496   4.5613   4.6969   4.8029   4.9012   4.9757   5.1201   5.1496
     5.2663   6.0991   6.1190   6.2859   6.4280   9.7238   9.8973  10.0215
    10.1806  10.2279  10.3019  10.4936  10.7000  10.9499  10.9698  11.1828
    11.2268  11.4108  11.5900  11.7593

     occupation numbers 
     1.0000   1.0000   1.0000   1.0000   1.0000   1.0000   1.0000   1.0000
     1.0000   1.0000   1.0000   1.0000   1.0000   1.0000   1.0000   1.0000
     1.0000   1.0000   1.0000   1.0000   1.0000   1.0000   1.0000   1.0000
     1.0000   1.0000   1.0000   1.0000   1.0000   1.0000   1.0000   1.0000
     1.0000   1.0000   1.0000   1.0000   1.0000   1.0000   1.0000   1.0000
     1.0000   1.0000   1.0000   1.0000   1.0000   1.0000   1.0000   1.0000
     1.0000   1.0000   1.0000   1.0000   1.0000   1.0000   1.0000   1.0000
     1.0000   1.0000   1.0000   1.0000   1.0000   1.0000   1.0000   1.0000
     1.0000   1.0000   1.0000   1.0000   1.0000   1.0000   1.0000   1.0000
     1.0000   1.0000   1.0000   1.0000   1.0000   0.0000   0.0000   0.0000
     0.0000   0.0000   0.0000   0.0000   0.0000   0.0000   0.0000   0.0000
     0.0000   0.0000   0.0000   0.0000

[...]
     3.6844   3.7542   3.8068   3.8784   3.8983   5.6475   5.6675   5.8045
     5.9772   6.2642   6.3970   6.5493   6.6639   8.6661   8.8582   9.7087
     9.8511   9.9461  10.1858  10.3687  10.4408  11.2028  11.5036  11.6980
    11.8142  11.8514  11.8948  12.0486

     occupation numbers 
     1.0000   1.0000   1.0000   1.0000   1.0000   1.0000   1.0000   1.0000
     1.0000   1.0000   1.0000   1.0000   1.0000   1.0000   1.0000   1.0000
     1.0000   1.0000   1.0000   1.0000   1.0000   1.0000   1.0000   1.0000
     1.0000   1.0000   1.0000   1.0000   1.0000   1.0000   1.0000   1.0000
     1.0000   1.0000   1.0000   1.0000   1.0000   1.0000   1.0000   1.0000
     1.0000   1.0000   1.0000   1.0000   1.0000   1.0000   1.0000   1.0000
     1.0000   1.0000   1.0000   1.0000   1.0000   1.0000   1.0000   1.0000
     1.0000   1.0000   1.0000   1.0000   1.0000   1.0000   1.0000   1.0000
     1.0000   1.0000   1.0000   1.0000   1.0000   1.0000   1.0000   1.0000
     1.0000   1.0000   1.0000   1.0000   1.0000   0.0000   0.0000   0.0000
     0.0000   0.0000   0.0000   0.0000   0.0000   0.0000   0.0000   0.0000
     0.0000   0.0000   0.0000   0.0000

          k = 0.1751 0.1651-0.8648 (  7952 PWs)   bands (ev):

   -17.0417 -16.9988 -16.9832 -16.9772 -16.9537 -16.9441 -16.9239 -16.9050
   -16.9010 -16.8985 -16.8884 -16.8790 -16.8562 -16.8518 -16.8422 -16.8340
   -16.8204 -16.8174 -16.8103 -16.8035 -16.7970 -16.7858 -16.7808 -16.7756
   -16.7664 -16.7560 -16.7510 -16.7425 -16.7402 -16.7325 -16.7207 -16.7141
   -16.7013 -16.6934 -16.6846 -16.6792 -16.6709 -16.6623 -16.6561 -16.6471
   -16.6408 -16.6199 -16.6114 -16.5871 -16.5565  -4.2487  -3.7370  -3.2126
    -2.9050  -2.4872  -2.0351  -1.6411  -1.2741  -0.1138   0.2318   0.3871
     1.0813   1.3711   1.9967   2.6693   3.3103   3.5218   3.6481   3.9449
     4.0459   4.2791   4.4143   4.5982   4.8536   4.9678   5.4569   5.6776
     5.7313   5.8990   6.0998   6.5035   7.0291   8.9394   9.2664   9.4001
     9.5087   9.6897   9.8839   9.9955  10.2422  10.4312  10.6463  11.0769
    11.2041  11.3196  11.4507  11.8563

     occupation numbers 
     1.0000   1.0000   1.0000   1.0000   1.0000   1.0000   1.0000   1.0000
     1.0000   1.0000   1.0000   1.0000   1.0000   1.0000   1.0000   1.0000
     1.0000   1.0000   1.0000   1.0000   1.0000   1.0000   1.0000   1.0000
     1.0000   1.0000   1.0000   1.0000   1.0000   1.0000   1.0000   1.0000
     1.0000   1.0000   1.0000   1.0000   1.0000   1.0000   1.0000   1.0000
     1.0000   1.0000   1.0000   1.0000   1.0000   1.0000   1.0000   1.0000
     1.0000   1.0000   1.0000   1.0000   1.0000   1.0000   1.0000   1.0000
     1.0000   1.0000   1.0000   1.0000   1.0000   1.0000   1.0000   1.0000
     1.0000   1.0000   1.0000   1.0000   1.0000   1.0000   1.0000   1.0000
     1.0000   1.0000   1.0000   1.0000   1.0000   0.0000   0.0000   0.0000
     0.0000   0.0000   0.0000   0.0000   0.0000   0.0000   0.0000   0.0000
     0.0000   0.0000   0.0000   0.0000

          k =-0.3626-0.3544-0.3532 (  7974 PWs)   bands (ev):

   -17.0415 -16.9982 -16.9796 -16.9753 -16.9551 -16.9499 -16.9235 -16.9049
   -16.9008 -16.8946 -16.8901 -16.8763 -16.8633 -16.8526 -16.8423 -16.8358
   -16.8189 -16.8139 -16.8076 -16.8030 -16.7970 -16.7901 -16.7797 -16.7765
   -16.7647 -16.7551 -16.7477 -16.7453 -16.7423 -16.7327 -16.7207 -16.7134
   -16.7022 -16.6922 -16.6809 -16.6754 -16.6651 -16.6618 -16.6595 -16.6495
   -16.6430 -16.6259 -16.6124 -16.5827 -16.5573  -4.2295  -4.0954  -2.6273
    -2.4305  -2.3621  -2.1053  -2.0108  -1.8832   0.3201   0.4216   0.4686
     0.7280   0.9645   1.0702   3.3905   3.4321   3.8064   3.8607   3.9820
     4.1536   4.2475   4.3574   4.8791   5.0864   5.2496   5.3530   5.4480
     5.6451   6.3853   6.5784   6.9784   7.1483   8.3295   8.5772   8.7318
     8.7474   8.8646   9.0257   9.1937   9.3899  10.9167  11.0204  11.3517
    11.4739  11.7356  11.9085  11.9756

     occupation numbers 
     1.0000   1.0000   1.0000   1.0000   1.0000   1.0000   1.0000   1.0000
     1.0000   1.0000   1.0000   1.0000   1.0000   1.0000   1.0000   1.0000
     1.0000   1.0000   1.0000   1.0000   1.0000   1.0000   1.0000   1.0000
     1.0000   1.0000   1.0000   1.0000   1.0000   1.0000   1.0000   1.0000
     1.0000   1.0000   1.0000   1.0000   1.0000   1.0000   1.0000   1.0000
     1.0000   1.0000   1.0000   1.0000   1.0000   1.0000   1.0000   1.0000
     1.0000   1.0000   1.0000   1.0000   1.0000   1.0000   1.0000   1.0000
     1.0000   1.0000   1.0000   1.0000   1.0000   1.0000   1.0000   1.0000
     1.0000   1.0000   1.0000   1.0000   1.0000   1.0000   1.0000   1.0000
     1.0000   1.0000   1.0000   1.0000   1.0000   0.0001   0.0000   0.0000
     0.0000   0.0000   0.0000   0.0000   0.0000   0.0000   0.0000   0.0000
     0.0000   0.0000   0.0000   0.0000

     the Fermi energy is     7.7831 ev

!    total energy              =   -1985.52494055 Ry
     Harris-Foulkes estimate   =   -1985.52494054 Ry
     estimated scf accuracy    <          6.6E-11 Ry

     The total energy is the sum of the following terms:

     one-electron contribution =   -1450.32149885 Ry
     hartree contribution      =     852.68191283 Ry
     xc contribution           =    -548.61696701 Ry
     ewald contribution        =    -839.26670573 Ry
     smearing contrib. (-TS)   =      -0.00168179 Ry

     convergence has been achieved in  13 iterations

     Forces acting on atoms (Ry/au):

     atom    1 type  1   force =   0.29882716E-01 -0.27324701E-01  0.25806273E-01
     atom    2 type  1   force =   0.20028447E-01  0.10984759E-01 -0.18933729E-02
     atom    3 type  1   force =   0.59151012E-02  0.47213705E-02  0.29893474E-01
     atom    4 type  2   force =  -0.54795146E-01  0.99973122E-02 -0.18251446E-01
     atom    5 type  1   force =  -0.19654804E-01  0.18056870E-02 -0.25791596E-01
     atom    6 type  1   force =  -0.40071219E-02  0.24138591E-01 -0.11001880E-01
     atom    7 type  2   force =  -0.76752965E-03 -0.14467903E-01  0.34197170E-02
     atom    8 type  2   force =   0.61140691E-02 -0.15343674E-03 -0.98838116E-02
     atom    9 type  2   force =   0.49366773E-01  0.47612791E-01 -0.21855896E-01
     atom   10 type  2   force =  -0.30937480E-01 -0.32387524E-01 -0.11249652E-01
     atom   11 type  2   force =   0.57590425E-01  0.13396704E-01 -0.15862496E-01
     atom   12 type  2   force =  -0.42307584E-01 -0.39941155E-01  0.19617908E-01
     atom   13 type  1   force =   0.11151963E-01  0.76197068E-03 -0.11814945E-02
     atom   14 type  2   force =  -0.15402883E-01 -0.11391407E-01  0.27352348E-01
     atom   15 type  2   force =  -0.21487941E-02  0.22463551E-01  0.19005282E-01
     atom   16 type  1   force =  -0.10028151E-01 -0.10216609E-01 -0.81233569E-02
     The non-local contrib.  to forces
     atom    1 type  1   force =   0.12067110E-02 -0.45919859E-01  0.25488626E-01
     atom    2 type  1   force =   0.35367322E-01  0.11387236E-01 -0.17343932E-02
     atom    3 type  1   force =  -0.16105361E-01  0.69165008E-02  0.26593929E-01
     atom    4 type  2   force =   0.12755264E-01  0.26136958E-01  0.20040257E-01
     atom    5 type  1   force =  -0.26130246E-01 -0.16569356E-01 -0.14342208E-01
     atom    6 type  1   force =   0.16587411E-01  0.48169183E-01 -0.25903353E-01
     atom    7 type  2   force =  -0.68237968E-01  0.10785497E-01  0.97042727E-02
     atom    8 type  2   force =  -0.64620108E-01  0.33851556E-01 -0.50430105E-01
     atom    9 type  2   force =  -0.32398775E-01  0.10509282E-01  0.73275956E-02
     atom   10 type  2   force =   0.58467199E-01 -0.44878833E-02 -0.60715185E-01
     atom   11 type  2   force =   0.80064345E-02  0.34932502E-02  0.51622777E-01
     atom   12 type  2   force =   0.89462870E-01  0.25590241E-02  0.14267339E-01
     atom   13 type  1   force =  -0.19220123E-02  0.56953568E-02 -0.95514304E-02
     atom   14 type  2   force =   0.11363402E-01  0.16295269E-01  0.25357345E-01
     atom   15 type  2   force =  -0.56050181E-01 -0.71856958E-01  0.39267641E-01
     atom   16 type  1   force =  -0.71836713E-03 -0.46237641E-02 -0.48641480E-02
     The ionic contribution  to forces
     atom    1 type  1   force =  -0.56306672E+00  0.35246564E+01 -0.24212497E+00
     atom    2 type  1   force =   0.21623541E+01 -0.16244055E+01 -0.14532042E+01
     atom    3 type  1   force =  -0.17964153E+01 -0.19658379E+01  0.31517791E+01
     atom    4 type  2   force =   0.81477506E+00  0.58328928E+00 -0.11042183E+02
     atom    5 type  1   force =  -0.98897281E-01  0.36745812E+01 -0.19759664E+00
     atom    6 type  1   force =  -0.18212471E+01 -0.15003282E+01  0.11943845E+01
     atom    7 type  2   force =  -0.26456876E+01 -0.12253235E+02  0.90037581E+00
     atom    8 type  2   force =   0.12717854E+02  0.84950254E+00 -0.63321808E+00
     atom    9 type  2   force =   0.74018144E+01 -0.29083546E+01 -0.70676445E+01
     atom   10 type  2   force =  -0.20716266E+01 -0.20440062E+00  0.12841496E+02
     atom   11 type  2   force =  -0.49412169E+01  0.29198225E+01 -0.69516054E+01
     atom   12 type  2   force =  -0.61451621E+01  0.39161936E+01  0.54659009E+01
     atom   13 type  1   force =   0.16413615E+00 -0.33668449E+01 -0.34672568E-01
     atom   14 type  2   force =  -0.10908094E+02 -0.50359358E+00  0.91646906E+00
     atom   15 type  2   force =   0.61545656E+01  0.67427803E+01  0.52638433E+01
     atom   16 type  1   force =   0.15759141E+01  0.21161745E+01 -0.21119995E+01
     The local contribution  to forces
     atom    1 type  1   force =   0.59098423E+00 -0.35094510E+01  0.24472556E+00
     atom    2 type  1   force =  -0.21743478E+01  0.16247994E+01  0.14533309E+01
     atom    3 type  1   force =   0.18172544E+01  0.19636988E+01 -0.31451953E+01
     atom    4 type  2   force =  -0.88289090E+00 -0.59756373E+00  0.11004268E+02
     atom    5 type  1   force =   0.10337707E+00 -0.36581890E+01  0.18442233E+00
     atom    6 type  1   force =   0.18015855E+01  0.14812250E+01 -0.11822853E+01
     atom    7 type  2   force =   0.27109287E+01  0.12227174E+02 -0.90297399E+00
     atom    8 type  2   force =  -0.12645797E+02 -0.88290716E+00  0.67190348E+00
     atom    9 type  2   force =  -0.73183837E+01  0.29510511E+01  0.70378375E+01
     atom   10 type  2   force =   0.19807170E+01  0.17462150E+00 -0.12793175E+02
     atom   11 type  2   force =   0.49929638E+01 -0.29125036E+01  0.68836080E+01
     atom   12 type  2   force =   0.60120077E+01 -0.39632440E+01 -0.54610123E+01
     atom   13 type  1   force =  -0.15145992E+00  0.33625403E+01  0.42453067E-01
     atom   14 type  2   force =   0.10884247E+02  0.47685683E+00 -0.91444551E+00
     atom   15 type  2   force =  -0.61020856E+01 -0.66483697E+01 -0.52844720E+01
     atom   16 type  1   force =  -0.15854262E+01 -0.21220192E+01  0.21082169E+01
     The core correction contribution to forces
     atom    1 type  1   force =   0.75989107E-03  0.33911519E-02 -0.22830731E-02
     atom    2 type  1   force =  -0.33450080E-02 -0.79632477E-03 -0.28601302E-03
     atom    3 type  1   force =   0.11811149E-02 -0.56364335E-04 -0.32830178E-02
     atom    4 type  2   force =   0.56870225E-03 -0.18609212E-02 -0.38172549E-03
     atom    5 type  1   force =   0.19963091E-02  0.19845388E-02  0.17241960E-02
     atom    6 type  1   force =  -0.93321126E-03 -0.49262685E-02  0.28030753E-02
     atom    7 type  2   force =   0.22203420E-02  0.79771478E-03 -0.36810393E-02
     atom    8 type  2   force =  -0.13119570E-02 -0.59867583E-03  0.18570919E-02
     atom    9 type  2   force =  -0.16560709E-02 -0.55925649E-02  0.61676993E-03
     atom   10 type  2   force =   0.15058852E-02  0.18784707E-02  0.11545789E-02
     atom   11 type  2   force =  -0.21654214E-02  0.25817648E-02  0.51168109E-03
     atom   12 type  2   force =   0.13796738E-02  0.45507717E-02  0.46124096E-03
     atom   13 type  1   force =   0.39877737E-03 -0.62873351E-03  0.58873988E-03
     atom   14 type  2   force =  -0.29296831E-02 -0.95312407E-03 -0.28494794E-04
     atom   15 type  2   force =   0.14191959E-02 -0.86420500E-04  0.36792943E-03
     atom   16 type  1   force =   0.20369034E-03  0.25325812E-03  0.52255828E-03
     The Hubbard contrib.    to forces
     atom    1 type  1   force =   0.00000000E+00  0.00000000E+00  0.00000000E+00
     atom    2 type  1   force =   0.00000000E+00  0.00000000E+00  0.00000000E+00
     atom    3 type  1   force =   0.00000000E+00  0.00000000E+00  0.00000000E+00
     atom    4 type  2   force =   0.00000000E+00  0.00000000E+00  0.00000000E+00
     atom    5 type  1   force =   0.00000000E+00  0.00000000E+00  0.00000000E+00
     atom    6 type  1   force =   0.00000000E+00  0.00000000E+00  0.00000000E+00
     atom    7 type  2   force =   0.00000000E+00  0.00000000E+00  0.00000000E+00
     atom    8 type  2   force =   0.00000000E+00  0.00000000E+00  0.00000000E+00
     atom    9 type  2   force =   0.00000000E+00  0.00000000E+00  0.00000000E+00
     atom   10 type  2   force =   0.00000000E+00  0.00000000E+00  0.00000000E+00
     atom   11 type  2   force =   0.00000000E+00  0.00000000E+00  0.00000000E+00
     atom   12 type  2   force =   0.00000000E+00  0.00000000E+00  0.00000000E+00
     atom   13 type  1   force =   0.00000000E+00  0.00000000E+00  0.00000000E+00
     atom   14 type  2   force =   0.00000000E+00  0.00000000E+00  0.00000000E+00
     atom   15 type  2   force =   0.00000000E+00  0.00000000E+00  0.00000000E+00
     atom   16 type  1   force =   0.00000000E+00  0.00000000E+00  0.00000000E+00
     The SCF correction term to forces
     atom    1 type  1   force =  -0.95266769E-06 -0.10920892E-05  0.53651583E-07
     atom    2 type  1   force =   0.22243225E-06  0.26328510E-06  0.23148074E-06
     atom    3 type  1   force =   0.68636468E-06  0.57247566E-06 -0.13998744E-05
     atom    4 type  2   force =  -0.28308847E-05 -0.40166204E-05  0.47528760E-05
     atom    5 type  1   force =  -0.21418235E-06 -0.14745397E-05  0.65050920E-06
     atom    6 type  1   force =   0.76772499E-06 -0.82945807E-06 -0.91985598E-06
     atom    7 type  2   force =   0.94439898E-05  0.10188065E-04 -0.54178234E-05
     atom    8 type  2   force =  -0.98981306E-05 -0.14358408E-05  0.37238914E-05
     atom    9 type  2   force =  -0.86400443E-05 -0.20078408E-06  0.67063964E-05
     atom   10 type  2   force =  -0.50912514E-06  0.12606767E-05 -0.10098099E-04
     atom   11 type  2   force =   0.29991858E-05  0.30267130E-05  0.41043015E-06
     atom   12 type  2   force =   0.47788347E-05 -0.29205151E-06  0.67868267E-06
     atom   13 type  1   force =  -0.58769278E-06  0.15217297E-06  0.62069650E-06
     atom   14 type  2   force =   0.10446161E-04  0.34627407E-05 -0.12027223E-06
     atom   15 type  2   force =   0.26416713E-05 -0.34469057E-05 -0.16156841E-05
     atom   16 type  1   force =  -0.93126577E-06 -0.11720305E-05  0.75492359E-06

     Total force =     0.162984     Total SCF correction =     0.000028


     entering subroutine stress ...

          total   stress  (Ry/bohr**3)                   (kbar)     P=   10.68
   0.0001622599  -0.0000520817   0.0000191592         23.87     -7.66      2.82
  -0.0000520817   0.0000676091  -0.0000106695         -7.66      9.95     -1.57
   0.0000191592  -0.0000106695  -0.0000121009          2.82     -1.57     -1.78

     kinetic stress (kbar)   7036.54     -3.68     13.24
                               -3.68   7012.66     25.58
                               13.24     25.58   6996.94

     local   stress (kbar)  -3848.59   -352.64  -3367.74
                             -352.64  -2461.44   2454.81
                            -3367.74   2454.81  -4454.88

     nonloc. stress (kbar)   2596.08     -3.81     -2.31
                               -3.81   2604.74     -6.70
                               -2.31     -6.70   2610.52

     hartree stress (kbar)  18597.13    183.62   1729.82
                              183.62  17809.22  -1006.32
                             1729.82  -1006.32  18752.06

     exc-cor stress (kbar)  12282.80     -0.10     -0.25
                               -0.10  12283.18     -0.47
                               -0.25     -0.47  12283.35

     corecor stress (kbar) -18591.92      0.26     -0.01
                                0.26 -18592.60      0.43
                               -0.01      0.43 -18593.15

     ewald   stress (kbar) -18048.17    168.68   1630.07
                              168.68 -18645.82  -1468.89
                             1630.07  -1468.89 -17596.62

     hubbard stress (kbar)      0.00      0.00      0.00
                                0.00      0.00      0.00
                                0.00      0.00      0.00

     london  stress (kbar)      0.00      0.00      0.00
                                0.00      0.00      0.00
                                0.00      0.00      0.00

     XDM     stress (kbar)      0.00      0.00      0.00
                                0.00      0.00      0.00
                                0.00      0.00      0.00

     dft-nl  stress (kbar)      0.00      0.00      0.00
                                0.00      0.00      0.00
                                0.00      0.00      0.00



     Writing output data file Si_diamond.scf.in.super.222.replace4912.save

     init_run     :     13.96s CPU     12.61s WALL (       1 calls)
     electrons    :    642.39s CPU    562.53s WALL (       1 calls)
     forces       :      7.26s CPU      5.96s WALL (       1 calls)
     stress       :     13.47s CPU     13.31s WALL (       1 calls)

     Called by init_run:
     wfcinit      :     12.46s CPU     11.10s WALL (       1 calls)
     potinit      :      0.38s CPU      0.39s WALL (       1 calls)

     Called by electrons:
     c_bands      :    579.95s CPU    503.96s WALL (      14 calls)
     sum_band     :     58.37s CPU     54.39s WALL (      14 calls)
     v_of_rho     :      0.52s CPU      0.55s WALL (      14 calls)
     v_h          :      0.02s CPU      0.03s WALL (      14 calls)
     v_xc         :      0.58s CPU      0.61s WALL (      16 calls)
     newd         :      3.14s CPU      3.17s WALL (      14 calls)
     mix_rho      :      0.57s CPU      0.62s WALL (      14 calls)

     Called by c_bands:
     init_us_2    :      2.45s CPU      2.64s WALL (    1116 calls)
     cegterg      :    570.04s CPU    493.45s WALL (     504 calls)

     Called by sum_band:
     sum_band:bec :      1.15s CPU      1.15s WALL (     504 calls)
     addusdens    :      3.59s CPU      3.62s WALL (      14 calls)

     Called by *egterg:
     h_psi        :    234.86s CPU    214.97s WALL (    1914 calls)
     s_psi        :     36.73s CPU     24.76s WALL (    1914 calls)
     g_psi        :      0.57s CPU      0.52s WALL (    1374 calls)
     cdiaghg      :    181.47s CPU    159.47s WALL (    1842 calls)
     cegterg:over :     52.16s CPU     41.96s WALL (    1374 calls)
     cegterg:upda :     23.41s CPU     14.81s WALL (    1374 calls)
     cegterg:last :     14.59s CPU      8.97s WALL (     504 calls)

     Called by h_psi:
     h_psi:vloc   :    142.08s CPU    148.60s WALL (    1914 calls)
     h_psi:vnl    :     92.45s CPU     66.04s WALL (    1914 calls)
     add_vuspsi   :     41.40s CPU     27.50s WALL (    1914 calls)

     General routines
     calbec       :     75.74s CPU     57.78s WALL (    2490 calls)
     fft          :      0.64s CPU      0.66s WALL (     249 calls)
     ffts         :      0.42s CPU      0.46s WALL (     392 calls)
     fftw         :    163.41s CPU    170.44s WALL (  270974 calls)
     interpolate  :      0.13s CPU      0.12s WALL (      28 calls)

     Parallel routines
     fft_scatter  :     73.66s CPU     78.81s WALL (  271615 calls)

     PWSCF        : 11m19.98s CPU     9m57.84s WALL


   This run was terminated on:  18:39: 4   4Apr2018            

=------------------------------------------------------------------------------=
   JOB DONE.
=------------------------------------------------------------------------------=
