
     Program PWSCF v.5.1 starts on  4Apr2018 at 19:26:52 

     This program is part of the open-source Quantum ESPRESSO suite
     for quantum simulation of materials; please cite
         "P. Giannozzi et al., J. Phys.:Condens. Matter 21 395502 (2009);
          URL http://www.quantum-espresso.org", 
     in publications or presentations arising from this work. More details at
     http://www.quantum-espresso.org/quote

     Parallel version (MPI), running on    16 processors
     R & G space division:  proc/nbgrp/npool/nimage =      16
     Waiting for input...
     Reading input from standard input
Warning: card &IONS ignored
Warning: card   ION_DYNAMICS='BFGS', ignored
Warning: card / ignored
Warning: card &CELL ignored
Warning: card  CELL_DYNAMICS = 'BFGS' ignored
Warning: card / ignored

     Current dimensions of program PWSCF are:
     Max number of different atomic species (ntypx) = 10
     Max number of k-points (npk) =  40000
     Max angular momentum in pseudopotentials (lmaxx) =  3
 kfg - two_fermi_energies  F

     Subspace diagonalization in iterative solution of the eigenvalue problem:
     a serial algorithm will be used


     Parallelization info
     --------------------
     sticks:   dense  smooth     PW     G-vecs:    dense   smooth      PW
     Min         192     134     37                 6810     3974     602
     Max         193     135     38                 6812     3996     605
     Sum        3077    2151    605               108977    63817    9657



     bravais-lattice index     =            0
     lattice parameter (alat)  =    14.945559191  a.u.
     unit-cell volume          =    2281.5658 (a.u.)^3
     number of atoms/cell      =           16
     number of atomic types    =            2
     number of electrons       =       144.00
     number of Kohn-Sham states=           86
     kinetic-energy cutoff     =      35.0000  Ry
     charge density cutoff     =     200.0000  Ry
     convergence threshold     =      1.0E-09
     mixing beta               =       0.3000
     number of iterations used =            8  local-TF  mixing
     Exchange-correlation      = SLA  PW   PSX  PSC ( 1  4 10  8 0)
     A smooth kinetic-energy cutoff is imposed at      34.5000 Ry
     height of the smooth step-function =             800.0000 Ry
     width of the smooth step-function  =               1.0000 Ry


     celldm(1)=  14.945559  celldm(2)=   0.000000  celldm(3)=   0.000000
     celldm(4)=   0.000000  celldm(5)=   0.000000  celldm(6)=   0.000000

     crystal axes: (cart. coord. in units of alat)
               a(1) = (   0.008283079290   0.705065581130   0.709093729279 )  
               a(2) = (   0.706462282311   0.000367124416   0.717009684153 )  
               a(3) = (   0.688926272373   0.695445526067   0.017903134353 )  

     reciprocal axes: (cart. coord. in units 2 pi/alat)
               b(1) = ( -0.729602  0.704266  0.718509 )  
               b(2) = (  0.703087 -0.714575  0.702303 )  
               b(3) = (  0.739323  0.724297 -0.728818 )  


     PseudoPot. # 1 for Si read from file:
     /users/kfg/psuedo/gbrv_1.5/si.pbesol.UPF
     MD5 check sum: ef58ba74faed4df802eb8a9742fc00a8
     Pseudo is Ultrasoft + core correction, Zval =  4.0
     Generated by new atomic code, or converted to UPF format
     Using radial grid of  899 points,  6 beta functions with: 
                l(1) =   0
                l(2) =   0
                l(3) =   1
                l(4) =   1
                l(5) =   2
                l(6) =   2
     Q(r) pseudized with  8 coefficients,  rinner =    0.900   0.900   0.900
                                                       0.900   0.900

     PseudoPot. # 2 for Ge read from file:
     /users/kfg/psuedo/gbrv_1.5/ge.pbesol.UPF
     MD5 check sum: 7bed0412183f5e553a4d27ec7023354d
     Pseudo is Ultrasoft + core correction, Zval = 14.0
     Generated by new atomic code, or converted to UPF format
     Using radial grid of  873 points,  6 beta functions with: 
                l(1) =   0
                l(2) =   0
                l(3) =   1
                l(4) =   1
                l(5) =   2
                l(6) =   2
     Q(r) pseudized with  8 coefficients,  rinner =    1.400   1.400   1.400
                                                       1.400   1.400

     atomic species   valence    mass     pseudopotential
        Si             4.00    28.08550     Si( 1.00)
        Ge            14.00    72.59000     Ge( 1.00)

     No symmetry found


                                    s                        frac. trans.

      isym =  1     identity                                     

 cryst.   s( 1) = (     1          0          0      )
                  (     0          1          0      )
                  (     0          0          1      )

 cart.    s( 1) = (  1.0000000 -0.0000000  0.0000000 )
                  (  0.0000000  1.0000000  0.0000000 )
                  ( -0.0000000 -0.0000000  1.0000000 )


     point group C_1 (1)    
     there are  1 classes
     the character table:

       E    
A      1.00

     the symmetry operations in each class:
     E        1

   Cartesian axes

     site n.     atom                  positions (alat units)
         1           Ge  tau(   1) = (   -0.00957329231    0.00056580587   -0.00689020146  )
         2           Ge  tau(   2) = (    0.16840510821    0.20388526574    0.14975707135  )
         3           Ge  tau(   3) = (    0.36580831061    0.36722432173    0.00358128931  )
         4           Ge  tau(   4) = (    0.54412072611    0.50217408622    0.21208283035  )
         5           Si  tau(   5) = (    0.34608852335    0.03595199849    0.35511983665  )
         6           Si  tau(   6) = (    0.52707322044    0.16269505888    0.52882562761  )
         7           Ge  tau(   7) = (    0.73447553802    0.33993361685    0.38289073338  )
         8           Si  tau(   8) = (    0.88577023593    0.55459731825    0.56691657756  )
         9           Ge  tau(   9) = (   -0.00288706920    0.36089430950    0.35526893562  )
        10           Si  tau(  10) = (    0.17456542095    0.51630377800    0.53893250372  )
        11           Si  tau(  11) = (    0.35829717370    0.69271831846    0.37437212274  )
        12           Si  tau(  12) = (    0.52421532628    0.87589011060    0.53644153959  )
        13           Ge  tau(  13) = (    0.34515544927    0.33812652823    0.70641577715  )
        14           Si  tau(  14) = (    0.49949918039    0.52872782262    0.90227296243  )
        15           Si  tau(  15) = (    0.68057964340    0.68944954426    0.72117882403  )
        16           Ge  tau(  16) = (    0.87676467473    0.83525327436    0.89286630890  )

   Crystallographic axes

     site n.     atom                  positions (cryst. coord.)
         1           Ge  tau(   1) = (    0.00243250025   -0.01197417478   -0.00164624011  )
         2           Ge  tau(   2) = (    0.12832243600    0.07788684966    0.16303352946  )
         3           Ge  tau(   3) = (   -0.00569779366   -0.00269939108    0.53381985652  )
         4           Ge  tau(   4) = (    0.10905576144    0.17266919335    0.61143427543  )
         5           Si  tau(   5) = (    0.02796958899    0.46704157724    0.02309331358  )
         6           Si  tau(   6) = (    0.10999269743    0.62571614970    0.12209910754  )
         7           Ge  tau(   7) = (   -0.02136088478    0.54239708712    0.51016981342  )
         8           Si  tau(   8) = (    0.15165862752    0.62461890025    0.64338429149  )
         9           Ge  tau(   9) = (    0.51153562994   -0.01040954342    0.00033354864  )
        10           Si  tau(  10) = (    0.62347935535    0.13229065087    0.11023347479  )
        11           Si  tau(  11) = (    0.49543296118    0.01983721564    0.49378174735  )
        12           Si  tau(  12) = (    0.61982862505    0.11942385782    0.63100044650  )
        13           Ge  tau(  13) = (    0.49387063136    0.49717532332   -0.01476345779  )
        14           Si  tau(  14) = (    0.65622015960    0.60704446292    0.09465401837  )
        15           Si  tau(  15) = (    0.50717659257    0.49232893294    0.47692598038  )
        16           Ge  tau(  16) = (    0.59008311176    0.64665290846    0.60244629447  )

     number of k points=    36  gaussian smearing, width (Ry)=  0.0150
                       cart. coord. in units 2pi/alat
        k(    1) = (   0.0000000   0.0000000   0.0000000), wk =   0.0312500
        k(    2) = (   0.1848308   0.1810742  -0.1822046), wk =   0.0625000
        k(    3) = (  -0.3696616  -0.3621484   0.3644092), wk =   0.0312500
        k(    4) = (   0.1757716  -0.1786438   0.1755758), wk =   0.0625000
        k(    5) = (   0.3606025   0.0024303  -0.0066288), wk =   0.0625000
        k(    6) = (  -0.1938900  -0.5407922   0.5399850), wk =   0.0625000
        k(    7) = (  -0.0090592  -0.3597180   0.3577804), wk =   0.0625000
        k(    8) = (  -0.3515433   0.3572877  -0.3511516), wk =   0.0312500
        k(    9) = (  -0.1667125   0.5383619  -0.5333562), wk =   0.0625000
        k(   10) = (  -0.7212049  -0.0048607   0.0132576), wk =   0.0312500
        k(   11) = (  -0.1824005   0.1760664   0.1796272), wk =   0.0625000
        k(   12) = (   0.0024303   0.3571406  -0.0025775), wk =   0.0625000
        k(   13) = (  -0.5520621  -0.1860820   0.5440364), wk =   0.0625000
        k(   14) = (  -0.3672313  -0.0050078   0.3618318), wk =   0.0625000
        k(   15) = (  -0.0066288  -0.0025775   0.3552029), wk =   0.0625000
        k(   16) = (   0.1782020   0.1784967   0.1729983), wk =   0.0625000
        k(   17) = (  -0.3762904  -0.3647258   0.7196122), wk =   0.0625000
        k(   18) = (  -0.1914596  -0.1836516   0.5374076), wk =   0.0625000
        k(   19) = (  -0.5339438   0.5333541  -0.1715244), wk =   0.0625000
        k(   20) = (  -0.3491129   0.7144283  -0.3537290), wk =   0.0625000
        k(   21) = (  -0.9036054   0.1712057   0.1928848), wk =   0.0625000
        k(   22) = (  -0.7187746   0.3522799   0.0106802), wk =   0.0625000
        k(   23) = (  -0.3581721   0.3547102   0.0040514), wk =   0.0625000
        k(   24) = (  -0.1733413   0.5357844  -0.1781533), wk =   0.0625000
        k(   25) = (  -0.7278337  -0.0074381   0.3684606), wk =   0.0625000
        k(   26) = (  -0.5430029   0.1736360   0.1862560), wk =   0.0625000
        k(   27) = (   0.3648009  -0.3521328  -0.3592543), wk =   0.0312500
        k(   28) = (   0.5496317  -0.1710586  -0.5414589), wk =   0.0625000
        k(   29) = (  -0.0048607  -0.7142812   0.0051549), wk =   0.0312500
        k(   30) = (   0.5405726  -0.5307766  -0.1836785), wk =   0.0625000
        k(   31) = (   0.7254034  -0.3497024  -0.3658831), wk =   0.0625000
        k(   32) = (   0.1709110  -0.8929250   0.1807307), wk =   0.0625000
        k(   33) = (   0.3557418  -0.7118508  -0.0014739), wk =   0.0625000
        k(   34) = (   0.0132576   0.0051549  -0.7104059), wk =   0.0312500
        k(   35) = (   0.1980884   0.1862291  -0.8926105), wk =   0.0625000
        k(   36) = (  -0.3564040  -0.3569935  -0.3459967), wk =   0.0312500

                       cryst. coord.
        k(    1) = (   0.0000000   0.0000000   0.0000000), wk =   0.0312500
        k(    2) = (   0.0000000   0.0000000   0.2500000), wk =   0.0625000
        k(    3) = (   0.0000000   0.0000000  -0.5000000), wk =   0.0312500
        k(    4) = (   0.0000000   0.2500000   0.0000000), wk =   0.0625000
        k(    5) = (   0.0000000   0.2500000   0.2500000), wk =   0.0625000
        k(    6) = (   0.0000000   0.2500000  -0.5000000), wk =   0.0625000
        k(    7) = (  -0.0000000   0.2500000  -0.2500000), wk =   0.0625000
        k(    8) = (   0.0000000  -0.5000000  -0.0000000), wk =   0.0312500
        k(    9) = (   0.0000000  -0.5000000   0.2500000), wk =   0.0625000
        k(   10) = (  -0.0000000  -0.5000000  -0.5000000), wk =   0.0312500
        k(   11) = (   0.2500000   0.0000000  -0.0000000), wk =   0.0625000
        k(   12) = (   0.2500000  -0.0000000   0.2500000), wk =   0.0625000
        k(   13) = (   0.2500000  -0.0000000  -0.5000000), wk =   0.0625000
        k(   14) = (   0.2500000   0.0000000  -0.2500000), wk =   0.0625000
        k(   15) = (   0.2500000   0.2500000   0.0000000), wk =   0.0625000
        k(   16) = (   0.2500000   0.2500000   0.2500000), wk =   0.0625000
        k(   17) = (   0.2500000   0.2500000  -0.5000000), wk =   0.0625000
        k(   18) = (   0.2500000   0.2500000  -0.2500000), wk =   0.0625000
        k(   19) = (   0.2500000  -0.5000000  -0.0000000), wk =   0.0625000
        k(   20) = (   0.2500000  -0.5000000   0.2500000), wk =   0.0625000
        k(   21) = (   0.2500000  -0.5000000  -0.5000000), wk =   0.0625000
        k(   22) = (   0.2500000  -0.5000000  -0.2500000), wk =   0.0625000
        k(   23) = (   0.2500000  -0.2500000  -0.0000000), wk =   0.0625000
        k(   24) = (   0.2500000  -0.2500000   0.2500000), wk =   0.0625000
        k(   25) = (   0.2500000  -0.2500000  -0.5000000), wk =   0.0625000
        k(   26) = (   0.2500000  -0.2500000  -0.2500000), wk =   0.0625000
        k(   27) = (  -0.5000000   0.0000000   0.0000000), wk =   0.0312500
        k(   28) = (  -0.5000000   0.0000000   0.2500000), wk =   0.0625000
        k(   29) = (  -0.5000000   0.0000000  -0.5000000), wk =   0.0312500
        k(   30) = (  -0.5000000   0.2500000   0.0000000), wk =   0.0625000
        k(   31) = (  -0.5000000   0.2500000   0.2500000), wk =   0.0625000
        k(   32) = (  -0.5000000   0.2500000  -0.5000000), wk =   0.0625000
        k(   33) = (  -0.5000000   0.2500000  -0.2500000), wk =   0.0625000
        k(   34) = (  -0.5000000  -0.5000000  -0.0000000), wk =   0.0312500
        k(   35) = (  -0.5000000  -0.5000000   0.2500000), wk =   0.0625000
        k(   36) = (  -0.5000000  -0.5000000  -0.5000000), wk =   0.0312500

     Dense  grid:   108977 G-vectors     FFT dimensions: (  72,  72,  72)

     Smooth grid:    63817 G-vectors     FFT dimensions: (  60,  60,  60)

     Largest allocated arrays     est. size (Mb)     dimensions
        Kohn-Sham Wavefunctions         0.67 Mb     (     512,   86)
        NL pseudopotentials             2.25 Mb     (     512,  288)
        Each V/rho on FFT grid          0.40 Mb     (   25920)
        Each G-vector array             0.05 Mb     (    6811)
        G-vector shells                 0.05 Mb     (    6721)
     Largest temporary arrays     est. size (Mb)     dimensions
        Auxiliary wavefunctions         2.69 Mb     (     512,  344)
        Each subspace H/S matrix        1.81 Mb     (     344,  344)
        Each <psi_i|beta_j> matrix      0.38 Mb     (     288,   86)
        Arrays for rho mixing           3.16 Mb     (   25920,    8)

     Check: negative/imaginary core charge=   -0.000001    0.000000

     Initial potential from superposition of free atoms

     starting charge  143.98835, renormalised to  144.00000
     Starting wfc are  104 randomized atomic wfcs

     total cpu time spent up to now is       15.0 secs

     Self-consistent Calculation

     iteration #  1     ecut=    35.00 Ry     beta=0.30
     Davidson diagonalization with overlap
     ethr =  1.00E-02,  avg # of iterations =  3.0

     Threshold (ethr) on eigenvalues was too large:
     Diagonalizing with lowered threshold

     Davidson diagonalization with overlap
     ethr =  2.43E-04,  avg # of iterations =  5.9

     total cpu time spent up to now is      111.4 secs

     total energy              =   -1781.93516205 Ry
     Harris-Foulkes estimate   =   -1781.97268681 Ry
     estimated scf accuracy    <       0.35083829 Ry

     iteration #  2     ecut=    35.00 Ry     beta=0.30
     Davidson diagonalization with overlap
     ethr =  2.44E-04,  avg # of iterations =  1.0

     total cpu time spent up to now is      153.4 secs

     total energy              =   -1781.86358022 Ry
     Harris-Foulkes estimate   =   -1781.93707422 Ry
     estimated scf accuracy    <       0.21487695 Ry

     iteration #  3     ecut=    35.00 Ry     beta=0.30
     Davidson diagonalization with overlap
     ethr =  1.49E-04,  avg # of iterations =  2.1

     total cpu time spent up to now is      185.2 secs

     total energy              =   -1781.87910105 Ry
     Harris-Foulkes estimate   =   -1781.87910780 Ry
     estimated scf accuracy    <       0.00276695 Ry

     iteration #  4     ecut=    35.00 Ry     beta=0.30
     Davidson diagonalization with overlap
     ethr =  1.92E-06,  avg # of iterations =  8.8

     total cpu time spent up to now is      265.5 secs

     total energy              =   -1781.87960928 Ry
     Harris-Foulkes estimate   =   -1781.87956709 Ry
     estimated scf accuracy    <       0.00137323 Ry

     iteration #  5     ecut=    35.00 Ry     beta=0.30
     Davidson diagonalization with overlap
     ethr =  9.54E-07,  avg # of iterations =  2.0

     total cpu time spent up to now is      300.4 secs

     total energy              =   -1781.87971614 Ry
     Harris-Foulkes estimate   =   -1781.87972799 Ry
     estimated scf accuracy    <       0.00007297 Ry

     iteration #  6     ecut=    35.00 Ry     beta=0.30
     Davidson diagonalization with overlap
     ethr =  5.07E-08,  avg # of iterations =  2.0

     total cpu time spent up to now is      331.1 secs

     total energy              =   -1781.87971243 Ry
     Harris-Foulkes estimate   =   -1781.87972163 Ry
     estimated scf accuracy    <       0.00002491 Ry

     iteration #  7     ecut=    35.00 Ry     beta=0.30
     Davidson diagonalization with overlap
     ethr =  1.73E-08,  avg # of iterations =  2.0

     total cpu time spent up to now is      366.1 secs

     total energy              =   -1781.87971617 Ry
     Harris-Foulkes estimate   =   -1781.87971571 Ry
     estimated scf accuracy    <       0.00000153 Ry

     iteration #  8     ecut=    35.00 Ry     beta=0.30
     Davidson diagonalization with overlap
     ethr =  1.06E-09,  avg # of iterations =  2.2

     total cpu time spent up to now is      400.4 secs

     total energy              =   -1781.87971632 Ry
     Harris-Foulkes estimate   =   -1781.87971633 Ry
     estimated scf accuracy    <       0.00000055 Ry

     iteration #  9     ecut=    35.00 Ry     beta=0.30
     Davidson diagonalization with overlap
     ethr =  3.79E-10,  avg # of iterations =  2.1

     total cpu time spent up to now is      441.4 secs

     total energy              =   -1781.87971652 Ry
     Harris-Foulkes estimate   =   -1781.87971645 Ry
     estimated scf accuracy    <       0.00000007 Ry

     iteration # 10     ecut=    35.00 Ry     beta=0.30
     Davidson diagonalization with overlap
     ethr =  4.56E-11,  avg # of iterations =  1.4

     total cpu time spent up to now is      469.6 secs

     total energy              =   -1781.87971655 Ry
     Harris-Foulkes estimate   =   -1781.87971652 Ry
     estimated scf accuracy    <       0.00000003 Ry

     iteration # 11     ecut=    35.00 Ry     beta=0.30
     Davidson diagonalization with overlap
     ethr =  1.98E-11,  avg # of iterations =  2.2

     total cpu time spent up to now is      503.6 secs

     total energy              =   -1781.87971657 Ry
     Harris-Foulkes estimate   =   -1781.87971655 Ry
     estimated scf accuracy    <          3.8E-09 Ry

     iteration # 12     ecut=    35.00 Ry     beta=0.30
     Davidson diagonalization with overlap
     ethr =  2.62E-12,  avg # of iterations =  1.2

     total cpu time spent up to now is      530.5 secs

     total energy              =   -1781.87971658 Ry
     Harris-Foulkes estimate   =   -1781.87971657 Ry
     estimated scf accuracy    <          2.1E-09 Ry

     iteration # 13     ecut=    35.00 Ry     beta=0.30
     Davidson diagonalization with overlap
     ethr =  1.48E-12,  avg # of iterations =  2.1

     total cpu time spent up to now is      564.6 secs

     End of self-consistent calculation

          k = 0.0000 0.0000 0.0000 (  7963 PWs)   bands (ev):

   -17.3033 -17.2200 -17.1971 -17.1722 -17.1573 -17.1490 -17.1391 -17.1294
   -17.1115 -17.0893 -17.0718 -17.0636 -17.0569 -17.0487 -17.0421 -17.0315
   -17.0254 -17.0194 -17.0120 -17.0073 -16.9952 -16.9861 -16.9808 -16.9756
   -16.9704 -16.9674 -16.9581 -16.9511 -16.9383 -16.9356 -16.9308 -16.9180
   -16.9071 -16.9002 -16.8980 -16.8903 -16.8713 -16.8563 -16.8502 -16.8170
    -5.0791  -3.1783  -2.8770  -2.7047  -2.5050  -1.4249  -1.1873  -1.1218
    -0.8342  -0.7086  -0.5474  -0.2394   0.0204   0.2705   0.4774   4.1386
     4.3034   4.4067   4.4968   4.5728   4.6804   5.6550   5.9124   6.0477
     6.0990   6.1703   6.2497   6.3062   6.4942   7.0372   7.3212   7.3711
     7.5871   7.6967   7.8227   7.8621   8.0749   8.1245   8.3365   8.3827
     8.5784   8.7136   8.9486   9.7683  10.0486  10.2381

     occupation numbers 
     1.0000   1.0000   1.0000   1.0000   1.0000   1.0000   1.0000   1.0000
     1.0000   1.0000   1.0000   1.0000   1.0000   1.0000   1.0000   1.0000
     1.0000   1.0000   1.0000   1.0000   1.0000   1.0000   1.0000   1.0000
     1.0000   1.0000   1.0000   1.0000   1.0000   1.0000   1.0000   1.0000
     1.0000   1.0000   1.0000   1.0000   1.0000   1.0000   1.0000   1.0000
     1.0000   1.0000   1.0000   1.0000   1.0000   1.0000   1.0000   1.0000
     1.0000   1.0000   1.0000   1.0000   1.0000   1.0000   1.0000   1.0000
     1.0000   1.0000   1.0000   1.0000   1.0000   1.0000   1.0000   1.0000
     1.0000   1.0000   1.0000   1.0000   1.0000   0.9996   0.9209   0.8567
     0.3332   0.1170   0.0195   0.0097   0.0001   0.0000   0.0000   0.0000
     0.0000   0.0000   0.0000   0.0000   0.0000   0.0000

          k = 0.1848 0.1811-0.1822 (  7960 PWs)   bands (ev):

   -17.3045 -17.2247 -17.1951 -17.1707 -17.1563 -17.1487 -17.1396 -17.1255
   -17.1092 -17.0895 -17.0723 -17.0644 -17.0560 -17.0486 -17.0422 -17.0299
   -17.0255 -17.0171 -17.0119 -17.0078 -16.9983 -16.9867 -16.9804 -16.9757
   -16.9713 -16.9676 -16.9596 -16.9557 -16.9387 -16.9376 -16.9355 -16.9173
   -16.9049 -16.8984 -16.8956 -16.8897 -16.8722 -16.8559 -16.8482 -16.8172
    -4.8723  -3.3750  -3.0541  -2.7948  -2.4783  -2.0918  -1.8410  -1.4852
    -0.3017  -0.0720   0.0658   0.1747   0.4593   0.6150   1.3193   3.8110
     3.9162   3.9972   4.3318   4.4905   4.5843   4.9176   5.0176   5.1803
     5.5144   5.6437   5.7684   5.9144   6.0944   6.3072   6.8347   7.1700
     7.6689   7.8738   8.0303   8.2415   8.7654   8.8679   9.1721   9.3392
     9.3960   9.5470   9.7220  10.2679  10.4341  10.7317

     occupation numbers 
     1.0000   1.0000   1.0000   1.0000   1.0000   1.0000   1.0000   1.0000
     1.0000   1.0000   1.0000   1.0000   1.0000   1.0000   1.0000   1.0000
     1.0000   1.0000   1.0000   1.0000   1.0000   1.0000   1.0000   1.0000
     1.0000   1.0000   1.0000   1.0000   1.0000   1.0000   1.0000   1.0000
     1.0000   1.0000   1.0000   1.0000   1.0000   1.0000   1.0000   1.0000
     1.0000   1.0000   1.0000   1.0000   1.0000   1.0000   1.0000   1.0000
     1.0000   1.0000   1.0000   1.0000   1.0000   1.0000   1.0000   1.0000
     1.0000   1.0000   1.0000   1.0000   1.0000   1.0000   1.0000   1.0000
     1.0000   1.0000   1.0000   1.0000   1.0000   1.0000   1.0000   0.9930
     0.1592   0.0078   0.0002   0.0000   0.0000   0.0000   0.0000   0.0000
     0.0000   0.0000   0.0000   0.0000   0.0000   0.0000

          k =-0.3697-0.3621 0.3644 (  7964 PWs)   bands (ev):

   -17.3055 -17.2283 -17.1939 -17.1694 -17.1554 -17.1476 -17.1407 -17.1201
   -17.1057 -17.0912 -17.0725 -17.0648 -17.0555 -17.0484 -17.0422 -17.0275
   -17.0255 -17.0127 -17.0106 -17.0080 -17.0051 -16.9871 -16.9804 -16.9757
   -16.9715 -16.9678 -16.9618 -16.9602 -16.9407 -16.9389 -16.9357 -16.9185
   -16.9024 -16.8971 -16.8931 -16.8890 -16.8728 -16.8553 -16.8465 -16.8174
    -4.3238  -4.2071  -2.8455  -2.6985  -2.6131  -2.3483  -2.1112  -1.9555
     0.0962   0.3845   0.4356   0.5959   0.9000   0.9701   3.2551   3.2979
     3.5129   3.5980   3.7604   3.8797   3.9236   4.0214   4.7732   4.8789
     5.0627   5.0874   5.1368   5.2716   6.2982   6.3622   6.5826   6.7196
     8.1425   8.2158   8.3381   8.4788   8.5592   8.7563   8.8912   8.9744
    10.6007  10.7484  11.0140  11.1614  11.6064  11.8844

     occupation numbers 
     1.0000   1.0000   1.0000   1.0000   1.0000   1.0000   1.0000   1.0000
     1.0000   1.0000   1.0000   1.0000   1.0000   1.0000   1.0000   1.0000
     1.0000   1.0000   1.0000   1.0000   1.0000   1.0000   1.0000   1.0000
     1.0000   1.0000   1.0000   1.0000   1.0000   1.0000   1.0000   1.0000
     1.0000   1.0000   1.0000   1.0000   1.0000   1.0000   1.0000   1.0000
     1.0000   1.0000   1.0000   1.0000   1.0000   1.0000   1.0000   1.0000
     1.0000   1.0000   1.0000   1.0000   1.0000   1.0000   1.0000   1.0000
     1.0000   1.0000   1.0000   1.0000   1.0000   1.0000   1.0000   1.0000
     1.0000   1.0000   1.0000   1.0000   1.0000   1.0000   1.0000   1.0000
     0.0000   0.0000   0.0000   0.0000   0.0000   0.0000   0.0000   0.0000
     0.0000   0.0000   0.0000   0.0000   0.0000   0.0000

          k = 0.1758-0.1786 0.1756 (  7969 PWs)   bands (ev):

   -17.3032 -17.2200 -17.1972 -17.1722 -17.1578 -17.1488 -17.1390 -17.1293
   -17.1115 -17.0887 -17.0715 -17.0636 -17.0568 -17.0485 -17.0423 -17.0312
   -17.0249 -17.0192 -17.0118 -17.0071 -16.9950 -16.9861 -16.9805 -16.9757
   -16.9711 -16.9676 -16.9580 -16.9519 -16.9383 -16.9356 -16.9311 -16.9177
   -16.9062 -16.8998 -16.8973 -16.8903 -16.8711 -16.8565 -16.8504 -16.8175
    -4.8928  -3.5581  -2.8068  -2.6952  -2.5269  -1.9261  -1.8124  -1.6827
    -0.1752  -0.1100   0.0159   0.1894   0.3342   0.6173   1.1197   3.6431
     3.8442   3.9198   4.4032   4.5755   4.7460   4.9065   4.9339   5.0572
     5.4043   5.6112   5.8840   5.9308   6.2511   6.5480   7.0155   7.3667
     7.6834   8.0428   8.4026   8.4710   8.7411   8.9532   9.1310   9.2425
     9.3376   9.4062   9.5245  10.4139  10.4928  10.5459

     occupation numbers 
     1.0000   1.0000   1.0000   1.0000   1.0000   1.0000   1.0000   1.0000
     1.0000   1.0000   1.0000   1.0000   1.0000   1.0000   1.0000   1.0000
     1.0000   1.0000   1.0000   1.0000   1.0000   1.0000   1.0000   1.0000
     1.0000   1.0000   1.0000   1.0000   1.0000   1.0000   1.0000   1.0000
     1.0000   1.0000   1.0000   1.0000   1.0000   1.0000   1.0000   1.0000
     1.0000   1.0000   1.0000   1.0000   1.0000   1.0000   1.0000   1.0000
     1.0000   1.0000   1.0000   1.0000   1.0000   1.0000   1.0000   1.0000
     1.0000   1.0000   1.0000   1.0000   1.0000   1.0000   1.0000   1.0000
     1.0000   1.0000   1.0000   1.0000   1.0000   1.0000   0.9998   0.8635
     0.1360   0.0002   0.0000   0.0000   0.0000   0.0000   0.0000   0.0000
     0.0000   0.0000   0.0000   0.0000   0.0000   0.0000

          k = 0.3606 0.0024-0.0066 (  7945 PWs)   bands (ev):

   -17.3045 -17.2246 -17.1952 -17.1707 -17.1565 -17.1485 -17.1394 -17.1254
   -17.1084 -17.0893 -17.0719 -17.0644 -17.0560 -17.0487 -17.0424 -17.0296
   -17.0251 -17.0171 -17.0119 -17.0083 -16.9984 -16.9867 -16.9802 -16.9756
   -16.9712 -16.9674 -16.9595 -16.9550 -16.9387 -16.9370 -16.9354 -16.9174
   -16.9046 -16.8989 -16.8966 -16.8896 -16.8716 -16.8561 -16.8478 -16.8171
    -4.8139  -3.2814  -3.0649  -2.9457  -2.6426  -2.5975  -1.1436  -0.9800
    -0.8023  -0.6833   0.3222   0.5072   0.6773   0.9374   1.3634   3.6489
     3.8288   3.8987   4.0009   4.5459   4.5937   4.6580   4.8164   4.9509
     5.0427   5.6608   5.8438   6.0667   6.1247   6.2185   6.5693   6.7100
     7.6992   8.4634   8.6579   8.8458   9.0134   9.1149   9.2736   9.3858
     9.4977   9.6050   9.7438  10.3559  10.6262  10.8559

     occupation numbers 
     1.0000   1.0000   1.0000   1.0000   1.0000   1.0000   1.0000   1.0000
     1.0000   1.0000   1.0000   1.0000   1.0000   1.0000   1.0000   1.0000
     1.0000   1.0000   1.0000   1.0000   1.0000   1.0000   1.0000   1.0000
     1.0000   1.0000   1.0000   1.0000   1.0000   1.0000   1.0000   1.0000
     1.0000   1.0000   1.0000   1.0000   1.0000   1.0000   1.0000   1.0000
     1.0000   1.0000   1.0000   1.0000   1.0000   1.0000   1.0000   1.0000
     1.0000   1.0000   1.0000   1.0000   1.0000   1.0000   1.0000   1.0000
     1.0000   1.0000   1.0000   1.0000   1.0000   1.0000   1.0000   1.0000
     1.0000   1.0000   1.0000   1.0000   1.0000   1.0000   1.0000   1.0000
     0.1136   0.0000   0.0000   0.0000   0.0000   0.0000   0.0000   0.0000
     0.0000   0.0000   0.0000   0.0000   0.0000   0.0000

          k =-0.1939-0.5408 0.5400 (  7980 PWs)   bands (ev):

   -17.3056 -17.2284 -17.1942 -17.1695 -17.1558 -17.1473 -17.1409 -17.1200
   -17.1051 -17.0912 -17.0725 -17.0648 -17.0556 -17.0487 -17.0425 -17.0274
   -17.0250 -17.0128 -17.0110 -17.0082 -17.0052 -16.9870 -16.9803 -16.9758
   -16.9715 -16.9674 -16.9621 -16.9595 -16.9402 -16.9390 -16.9357 -16.9186
   -16.9024 -16.8972 -16.8946 -16.8889 -16.8721 -16.8556 -16.8461 -16.8174
    -4.3359  -3.8637  -3.3879  -2.9818  -2.8872  -2.1870  -1.6950  -1.5781
    -0.1389  -0.0553   0.3345   0.9367   1.2207   2.0205   2.5725   3.1266
     3.2376   3.4390   3.7785   3.8799   4.0871   4.2651   4.4170   4.6838
     4.8520   4.9916   5.3394   5.4546   5.4830   5.8802   6.1048   6.5483
     8.3478   8.6577   8.9798   9.2760   9.3922   9.6420   9.7184   9.9014
    10.2773  10.4654  10.7249  10.8497  11.0341  11.1952

     occupation numbers 
     1.0000   1.0000   1.0000   1.0000   1.0000   1.0000   1.0000   1.0000
     1.0000   1.0000   1.0000   1.0000   1.0000   1.0000   1.0000   1.0000
     1.0000   1.0000   1.0000   1.0000   1.0000   1.0000   1.0000   1.0000
     1.0000   1.0000   1.0000   1.0000   1.0000   1.0000   1.0000   1.0000
     1.0000   1.0000   1.0000   1.0000   1.0000   1.0000   1.0000   1.0000
     1.0000   1.0000   1.0000   1.0000   1.0000   1.0000   1.0000   1.0000
     1.0000   1.0000   1.0000   1.0000   1.0000   1.0000   1.0000   1.0000
     1.0000   1.0000   1.0000   1.0000   1.0000   1.0000   1.0000   1.0000
     1.0000   1.0000   1.0000   1.0000   1.0000   1.0000   1.0000   1.0000
     0.0000   0.0000   0.0000   0.0000   0.0000   0.0000   0.0000   0.0000
     0.0000   0.0000   0.0000   0.0000   0.0000   0.0000

          k =-0.0091-0.3597 0.3578 (  7970 PWs)   bands (ev):

   -17.3045 -17.2247 -17.1951 -17.1706 -17.1568 -17.1480 -17.1396 -17.1254
   -17.1091 -17.0888 -17.0722 -17.0641 -17.0558 -17.0484 -17.0423 -17.0297
   -17.0248 -17.0169 -17.0117 -17.0074 -16.9981 -16.9868 -16.9802 -16.9758
   -16.9715 -16.9675 -16.9597 -16.9561 -16.9388 -16.9376 -16.9356 -16.9171
   -16.9037 -16.8982 -16.8943 -16.8897 -16.8719 -16.8558 -16.8486 -16.8177
    -4.5655  -3.6532  -3.4805  -2.6413  -2.5487  -2.2551  -2.1718  -1.3321
    -0.3687   0.0296   0.2646   0.7678   0.9910   1.7005   1.9281   3.0214
     3.7078   3.7863   3.8517   3.9764   4.3907   4.4677   4.5941   4.7947
     5.0360   5.1906   5.3806   5.5628   5.6473   5.8511   5.9172   7.0892
     8.0234   8.6863   8.9963   9.1362   9.4235   9.5307   9.8413   9.9974
    10.0962  10.2722  10.4313  10.5640  10.6834  10.8063

     occupation numbers 
     1.0000   1.0000   1.0000   1.0000   1.0000   1.0000   1.0000   1.0000
     1.0000   1.0000   1.0000   1.0000   1.0000   1.0000   1.0000   1.0000
     1.0000   1.0000   1.0000   1.0000   1.0000   1.0000   1.0000   1.0000
     1.0000   1.0000   1.0000   1.0000   1.0000   1.0000   1.0000   1.0000
     1.0000   1.0000   1.0000   1.0000   1.0000   1.0000   1.0000   1.0000
     1.0000   1.0000   1.0000   1.0000   1.0000   1.0000   1.0000   1.0000
     1.0000   1.0000   1.0000   1.0000   1.0000   1.0000   1.0000   1.0000
     1.0000   1.0000   1.0000   1.0000   1.0000   1.0000   1.0000   1.0000
     1.0000   1.0000   1.0000   1.0000   1.0000   1.0000   1.0000   0.9987
     0.0003   0.0000   0.0000   0.0000   0.0000   0.0000   0.0000   0.0000
     0.0000   0.0000   0.0000   0.0000   0.0000   0.0000

          k =-0.3515 0.3573-0.3512 (  7992 PWs)   bands (ev):

   -17.3032 -17.2200 -17.1972 -17.1721 -17.1583 -17.1487 -17.1390 -17.1292
   -17.1118 -17.0883 -17.0711 -17.0637 -17.0567 -17.0484 -17.0425 -17.0311
   -17.0245 -17.0192 -17.0117 -17.0069 -16.9948 -16.9860 -16.9803 -16.9760
   -16.9717 -16.9679 -16.9581 -16.9527 -16.9383 -16.9356 -16.9314 -16.9175
   -16.9056 -16.8993 -16.8961 -16.8903 -16.8709 -16.8569 -16.8506 -16.8181
    -4.4574  -4.2115  -2.6691  -2.5392  -2.4003  -2.2758  -2.2272  -2.1092
     0.1384   0.2236   0.4145   0.6135   0.6756   0.9953   2.8803   3.0225
     3.5541   3.6118   3.6374   3.7203   3.8142   3.8916   4.9132   4.9940
     5.2008   5.2315   5.3866   5.4132   6.4885   6.6008   6.8610   6.9305
     7.9536   8.3843   8.6781   8.8037   8.9303   8.9696   9.1285   9.3308
    10.8326  10.8568  10.9563  11.1101  11.2107  11.2423

     occupation numbers 
     1.0000   1.0000   1.0000   1.0000   1.0000   1.0000   1.0000   1.0000
     1.0000   1.0000   1.0000   1.0000   1.0000   1.0000   1.0000   1.0000
     1.0000   1.0000   1.0000   1.0000   1.0000   1.0000   1.0000   1.0000
     1.0000   1.0000   1.0000   1.0000   1.0000   1.0000   1.0000   1.0000
     1.0000   1.0000   1.0000   1.0000   1.0000   1.0000   1.0000   1.0000
     1.0000   1.0000   1.0000   1.0000   1.0000   1.0000   1.0000   1.0000
     1.0000   1.0000   1.0000   1.0000   1.0000   1.0000   1.0000   1.0000
     1.0000   1.0000   1.0000   1.0000   1.0000   1.0000   1.0000   1.0000
     1.0000   1.0000   1.0000   1.0000   1.0000   1.0000   1.0000   1.0000
     0.0015   0.0000   0.0000   0.0000   0.0000   0.0000   0.0000   0.0000
     0.0000   0.0000   0.0000   0.0000   0.0000   0.0000

          k =-0.1667 0.5384-0.5334 (  7974 PWs)   bands (ev):

   -17.3045 -17.2246 -17.1952 -17.1706 -17.1570 -17.1479 -17.1395 -17.1253
   -17.1086 -17.0887 -17.0719 -17.0641 -17.0558 -17.0486 -17.0426 -17.0295
   -17.0245 -17.0170 -17.0118 -17.0080 -16.9982 -16.9867 -16.9801 -16.9758
   -16.9714 -16.9675 -16.9597 -16.9556 -16.9388 -16.9371 -16.9356 -16.9172
   -16.9033 -16.8987 -16.8958 -16.8895 -16.8713 -16.8561 -16.8483 -16.8177
    -4.4060  -3.8865  -3.3192  -2.9188  -2.8558  -2.1393  -1.6542  -1.6099
    -0.1754  -0.0885   0.3367   0.9101   1.1452   2.0281   2.3464   3.0745
     3.2067   3.2785   3.6897   3.9044   4.0449   4.3993   4.4665   4.7060
     4.9892   5.1975   5.2977   5.4294   5.5036   5.9941   6.2471   6.6111
     8.2006   8.7143   9.2096   9.4563   9.6410   9.8453  10.0103  10.2235
    10.4398  10.7349  10.7873  10.9736  11.0733  11.2134

     occupation numbers 
     1.0000   1.0000   1.0000   1.0000   1.0000   1.0000   1.0000   1.0000
     1.0000   1.0000   1.0000   1.0000   1.0000   1.0000   1.0000   1.0000
     1.0000   1.0000   1.0000   1.0000   1.0000   1.0000   1.0000   1.0000
     1.0000   1.0000   1.0000   1.0000   1.0000   1.0000   1.0000   1.0000
     1.0000   1.0000   1.0000   1.0000   1.0000   1.0000   1.0000   1.0000
     1.0000   1.0000   1.0000   1.0000   1.0000   1.0000   1.0000   1.0000
     1.0000   1.0000   1.0000   1.0000   1.0000   1.0000   1.0000   1.0000
     1.0000   1.0000   1.0000   1.0000   1.0000   1.0000   1.0000   1.0000
     1.0000   1.0000   1.0000   1.0000   1.0000   1.0000   1.0000   1.0000
     0.0000   0.0000   0.0000   0.0000   0.0000   0.0000   0.0000   0.0000
     0.0000   0.0000   0.0000   0.0000   0.0000   0.0000

          k =-0.7212-0.0049 0.0133 (  7982 PWs)   bands (ev):

   -17.3057 -17.2285 -17.1942 -17.1695 -17.1561 -17.1469 -17.1409 -17.1199
   -17.1045 -17.0911 -17.0724 -17.0645 -17.0556 -17.0487 -17.0426 -17.0274
   -17.0244 -17.0128 -17.0113 -17.0083 -17.0053 -16.9870 -16.9803 -16.9758
   -16.9715 -16.9670 -16.9622 -16.9588 -16.9396 -16.9389 -16.9357 -16.9187
   -16.9023 -16.8976 -16.8960 -16.8887 -16.8714 -16.8558 -16.8458 -16.8173
    -4.0532  -4.0260  -3.3495  -3.1430  -2.9758  -2.7506  -1.0788  -0.9156
    -0.6998  -0.6005   1.1563   1.2402   1.4371   1.7915   3.0965   3.2830
     3.3479   3.3712   3.4506   3.5015   3.6512   3.7464   3.7598   3.8546
     5.2543   5.4258   5.5077   5.5367   5.8019   5.9920   6.1539   6.1647
     8.1450   8.3034   9.1494   9.2989   9.5011   9.6551  10.0110  10.1629
    11.2374  11.4026  11.5270  11.6047  11.7098  11.8697

     occupation numbers 
     1.0000   1.0000   1.0000   1.0000   1.0000   1.0000   1.0000   1.0000
     1.0000   1.0000   1.0000   1.0000   1.0000   1.0000   1.0000   1.0000
     1.0000   1.0000   1.0000   1.0000   1.0000   1.0000   1.0000   1.0000
     1.0000   1.0000   1.0000   1.0000   1.0000   1.0000   1.0000   1.0000
     1.0000   1.0000   1.0000   1.0000   1.0000   1.0000   1.0000   1.0000
     1.0000   1.0000   1.0000   1.0000   1.0000   1.0000   1.0000   1.0000
     1.0000   1.0000   1.0000   1.0000   1.0000   1.0000   1.0000   1.0000
     1.0000   1.0000   1.0000   1.0000   1.0000   1.0000   1.0000   1.0000
     1.0000   1.0000   1.0000   1.0000   1.0000   1.0000   1.0000   1.0000
     0.0000   0.0000   0.0000   0.0000   0.0000   0.0000   0.0000   0.0000
     0.0000   0.0000   0.0000   0.0000   0.0000   0.0000

          k =-0.1824 0.1761 0.1796 (  7987 PWs)   bands (ev):

   -17.3035 -17.2199 -17.1977 -17.1722 -17.1574 -17.1489 -17.1381 -17.1296
   -17.1111 -17.0892 -17.0719 -17.0641 -17.0566 -17.0487 -17.0422 -17.0311
   -17.0249 -17.0189 -17.0125 -17.0072 -16.9960 -16.9869 -16.9799 -16.9756
   -16.9702 -16.9667 -16.9577 -16.9511 -16.9386 -16.9358 -16.9309 -16.9179
   -16.9076 -16.9004 -16.8981 -16.8898 -16.8708 -16.8567 -16.8500 -16.8171
    -4.8838  -3.4824  -3.0077  -2.6364  -2.4888  -2.0823  -1.7780  -1.5280
    -0.3012  -0.1075   0.0496   0.1530   0.4025   0.5866   1.2343   3.7494
     3.8407   4.0066   4.3409   4.6153   4.6897   4.8646   5.0484   5.1306
     5.4608   5.6257   5.8763   5.9496   6.1010   6.3607   6.8508   7.2167
     7.7913   8.1131   8.2045   8.3670   8.6879   8.8996   9.0970   9.2284
     9.3856   9.4539   9.5901  10.2858  10.4065  10.6417

     occupation numbers 
     1.0000   1.0000   1.0000   1.0000   1.0000   1.0000   1.0000   1.0000
     1.0000   1.0000   1.0000   1.0000   1.0000   1.0000   1.0000   1.0000
     1.0000   1.0000   1.0000   1.0000   1.0000   1.0000   1.0000   1.0000
     1.0000   1.0000   1.0000   1.0000   1.0000   1.0000   1.0000   1.0000
     1.0000   1.0000   1.0000   1.0000   1.0000   1.0000   1.0000   1.0000
     1.0000   1.0000   1.0000   1.0000   1.0000   1.0000   1.0000   1.0000
     1.0000   1.0000   1.0000   1.0000   1.0000   1.0000   1.0000   1.0000
     1.0000   1.0000   1.0000   1.0000   1.0000   1.0000   1.0000   1.0000
     1.0000   1.0000   1.0000   1.0000   1.0000   1.0000   1.0000   0.9837
     0.0325   0.0000   0.0000   0.0000   0.0000   0.0000   0.0000   0.0000
     0.0000   0.0000   0.0000   0.0000   0.0000   0.0000

          k = 0.0024 0.3571-0.0026 (  7980 PWs)   bands (ev):

   -17.3042 -17.2247 -17.1949 -17.1705 -17.1565 -17.1485 -17.1404 -17.1252
   -17.1086 -17.0891 -17.0720 -17.0639 -17.0546 -17.0485 -17.0425 -17.0308
   -17.0251 -17.0173 -17.0119 -17.0076 -16.9989 -16.9867 -16.9804 -16.9756
   -16.9712 -16.9669 -16.9599 -16.9553 -16.9382 -16.9373 -16.9355 -16.9170
   -16.9047 -16.8984 -16.8958 -16.8900 -16.8715 -16.8559 -16.8479 -16.8173
    -4.8212  -3.3261  -3.0223  -2.8984  -2.7008  -2.5278  -1.3452  -0.9711
    -0.7074  -0.5752   0.2798   0.5021   0.8031   0.9251   1.2071   3.7203
     3.8348   3.8922   3.9550   4.3893   4.6144   4.7387   4.8424   4.9232
     4.9691   5.6371   5.7881   5.9527   6.1831   6.3406   6.4198   6.9723
     7.7903   8.5468   8.7569   8.8172   8.9965   9.1682   9.3199   9.3746
     9.4571   9.6148   9.7759  10.4601  10.7322  10.8757

     occupation numbers 
     1.0000   1.0000   1.0000   1.0000   1.0000   1.0000   1.0000   1.0000
     1.0000   1.0000   1.0000   1.0000   1.0000   1.0000   1.0000   1.0000
     1.0000   1.0000   1.0000   1.0000   1.0000   1.0000   1.0000   1.0000
     1.0000   1.0000   1.0000   1.0000   1.0000   1.0000   1.0000   1.0000
     1.0000   1.0000   1.0000   1.0000   1.0000   1.0000   1.0000   1.0000
     1.0000   1.0000   1.0000   1.0000   1.0000   1.0000   1.0000   1.0000
     1.0000   1.0000   1.0000   1.0000   1.0000   1.0000   1.0000   1.0000
     1.0000   1.0000   1.0000   1.0000   1.0000   1.0000   1.0000   1.0000
     1.0000   1.0000   1.0000   1.0000   1.0000   1.0000   1.0000   0.9999
     0.0330   0.0000   0.0000   0.0000   0.0000   0.0000   0.0000   0.0000
     0.0000   0.0000   0.0000   0.0000   0.0000   0.0000

          k =-0.5521-0.1861 0.5440 (  7975 PWs)   bands (ev):

   -17.3053 -17.2285 -17.1936 -17.1693 -17.1555 -17.1476 -17.1413 -17.1201
   -17.1054 -17.0906 -17.0723 -17.0643 -17.0543 -17.0484 -17.0424 -17.0284
   -17.0252 -17.0131 -17.0104 -17.0077 -17.0052 -16.9875 -16.9803 -16.9756
   -16.9717 -16.9669 -16.9623 -16.9595 -16.9406 -16.9384 -16.9356 -16.9183
   -16.9024 -16.8970 -16.8933 -16.8893 -16.8721 -16.8552 -16.8462 -16.8175
    -4.3638  -3.8241  -3.3860  -3.1268  -2.6813  -2.1929  -1.9032  -1.4076
    -0.2628   0.1129   0.3333   0.8227   1.2810   1.9898   2.5524   3.1726
     3.2531   3.3643   3.7342   3.8989   4.0036   4.3272   4.4117   4.6715
     4.8852   4.9493   5.2513   5.4681   5.7010   5.8315   6.2013   6.3894
     8.3505   8.7159   9.0690   9.2097   9.2656   9.6336   9.8818  10.1915
    10.2496  10.5842  10.8888  10.9917  11.2577  11.4336

     occupation numbers 
     1.0000   1.0000   1.0000   1.0000   1.0000   1.0000   1.0000   1.0000
     1.0000   1.0000   1.0000   1.0000   1.0000   1.0000   1.0000   1.0000
     1.0000   1.0000   1.0000   1.0000   1.0000   1.0000   1.0000   1.0000
     1.0000   1.0000   1.0000   1.0000   1.0000   1.0000   1.0000   1.0000
     1.0000   1.0000   1.0000   1.0000   1.0000   1.0000   1.0000   1.0000
     1.0000   1.0000   1.0000   1.0000   1.0000   1.0000   1.0000   1.0000
     1.0000   1.0000   1.0000   1.0000   1.0000   1.0000   1.0000   1.0000
     1.0000   1.0000   1.0000   1.0000   1.0000   1.0000   1.0000   1.0000
     1.0000   1.0000   1.0000   1.0000   1.0000   1.0000   1.0000   1.0000
     0.0000   0.0000   0.0000   0.0000   0.0000   0.0000   0.0000   0.0000
     0.0000   0.0000   0.0000   0.0000   0.0000   0.0000

          k =-0.3672-0.0050 0.3618 (  7969 PWs)   bands (ev):

   -17.3047 -17.2248 -17.1956 -17.1706 -17.1564 -17.1485 -17.1388 -17.1254
   -17.1087 -17.0896 -17.0724 -17.0648 -17.0556 -17.0487 -17.0422 -17.0295
   -17.0251 -17.0164 -17.0125 -17.0075 -16.9991 -16.9877 -16.9798 -16.9757
   -16.9709 -16.9667 -16.9593 -16.9557 -16.9391 -16.9376 -16.9355 -16.9177
   -16.9048 -16.8985 -16.8958 -16.8893 -16.8717 -16.8561 -16.8482 -16.8174
    -4.5403  -3.7005  -3.4058  -2.7946  -2.5503  -2.3372  -1.9841  -1.3428
    -0.3264  -0.0739   0.2554   0.6617   1.1529   1.6903   2.0265   3.0443
     3.7079   3.7822   3.9479   3.9921   4.5232   4.5311   4.6342   4.6765
     5.1297   5.1716   5.3979   5.4348   5.5711   5.6939   5.8745   6.8645
     8.1229   8.9050   8.9425   9.0624   9.3580   9.4129   9.7070   9.9542
    10.1230  10.1614  10.3873  10.4673  10.5458  10.7229

     occupation numbers 
     1.0000   1.0000   1.0000   1.0000   1.0000   1.0000   1.0000   1.0000
     1.0000   1.0000   1.0000   1.0000   1.0000   1.0000   1.0000   1.0000
     1.0000   1.0000   1.0000   1.0000   1.0000   1.0000   1.0000   1.0000
     1.0000   1.0000   1.0000   1.0000   1.0000   1.0000   1.0000   1.0000
     1.0000   1.0000   1.0000   1.0000   1.0000   1.0000   1.0000   1.0000
     1.0000   1.0000   1.0000   1.0000   1.0000   1.0000   1.0000   1.0000
     1.0000   1.0000   1.0000   1.0000   1.0000   1.0000   1.0000   1.0000
     1.0000   1.0000   1.0000   1.0000   1.0000   1.0000   1.0000   1.0000
     1.0000   1.0000   1.0000   1.0000   1.0000   1.0000   1.0000   1.0000
     0.0000   0.0000   0.0000   0.0000   0.0000   0.0000   0.0000   0.0000
     0.0000   0.0000   0.0000   0.0000   0.0000   0.0000

          k =-0.0066-0.0026 0.3552 (  7968 PWs)   bands (ev):

   -17.3035 -17.2200 -17.1977 -17.1720 -17.1574 -17.1488 -17.1381 -17.1296
   -17.1118 -17.0885 -17.0721 -17.0642 -17.0566 -17.0485 -17.0419 -17.0312
   -17.0252 -17.0188 -17.0124 -17.0067 -16.9958 -16.9867 -16.9800 -16.9758
   -16.9706 -16.9663 -16.9574 -16.9518 -16.9386 -16.9358 -16.9311 -16.9176
   -16.9066 -16.8998 -16.8974 -16.8898 -16.8717 -16.8565 -16.8508 -16.8173
    -4.8223  -3.2802  -3.0572  -2.8732  -2.7673  -2.5471  -1.1781  -0.9562
    -0.8289  -0.5538   0.2765   0.5000   0.7651   0.9476   1.1754   3.6733
     3.7780   3.9120   4.0265   4.4176   4.6359   4.6712   4.8114   4.8907
     4.9420   5.6034   5.8892   6.0295   6.2215   6.3455   6.6157   6.7594
     7.9575   8.5012   8.6757   8.8880   8.9868   9.1867   9.3493   9.4238
     9.4943   9.5979   9.6715  10.3501  10.6889  10.8549

     occupation numbers 
     1.0000   1.0000   1.0000   1.0000   1.0000   1.0000   1.0000   1.0000
     1.0000   1.0000   1.0000   1.0000   1.0000   1.0000   1.0000   1.0000
     1.0000   1.0000   1.0000   1.0000   1.0000   1.0000   1.0000   1.0000
     1.0000   1.0000   1.0000   1.0000   1.0000   1.0000   1.0000   1.0000
     1.0000   1.0000   1.0000   1.0000   1.0000   1.0000   1.0000   1.0000
     1.0000   1.0000   1.0000   1.0000   1.0000   1.0000   1.0000   1.0000
     1.0000   1.0000   1.0000   1.0000   1.0000   1.0000   1.0000   1.0000
     1.0000   1.0000   1.0000   1.0000   1.0000   1.0000   1.0000   1.0000
     1.0000   1.0000   1.0000   1.0000   1.0000   1.0000   1.0000   1.0000
     0.0014   0.0000   0.0000   0.0000   0.0000   0.0000   0.0000   0.0000
     0.0000   0.0000   0.0000   0.0000   0.0000   0.0000

          k = 0.1782 0.1785 0.1730 (  7968 PWs)   bands (ev):

   -17.3043 -17.2248 -17.1950 -17.1707 -17.1561 -17.1486 -17.1405 -17.1252
   -17.1086 -17.0889 -17.0720 -17.0642 -17.0547 -17.0487 -17.0423 -17.0307
   -17.0255 -17.0174 -17.0121 -17.0082 -16.9989 -16.9865 -16.9804 -16.9756
   -16.9710 -16.9665 -16.9594 -16.9546 -16.9384 -16.9367 -16.9353 -16.9172
   -16.9045 -16.8990 -16.8968 -16.8899 -16.8722 -16.8558 -16.8479 -16.8169
    -4.8898  -3.5137  -2.9368  -2.6874  -2.4963  -1.9883  -1.8059  -1.5690
    -0.3308  -0.0490   0.0831   0.2614   0.3680   0.6993   0.9901   3.6131
     3.7247   3.9190   4.4947   4.6359   4.6698   4.7891   4.9438   5.0068
     5.3019   5.7030   5.8242   6.0502   6.3087   6.4245   7.0522   7.4278
     8.0497   8.2041   8.4467   8.5146   8.7411   8.8967   8.9445   9.0678
     9.3357   9.4685   9.6646  10.1943  10.5120  10.6121

     occupation numbers 
     1.0000   1.0000   1.0000   1.0000   1.0000   1.0000   1.0000   1.0000
     1.0000   1.0000   1.0000   1.0000   1.0000   1.0000   1.0000   1.0000
     1.0000   1.0000   1.0000   1.0000   1.0000   1.0000   1.0000   1.0000
     1.0000   1.0000   1.0000   1.0000   1.0000   1.0000   1.0000   1.0000
     1.0000   1.0000   1.0000   1.0000   1.0000   1.0000   1.0000   1.0000
     1.0000   1.0000   1.0000   1.0000   1.0000   1.0000   1.0000   1.0000
     1.0000   1.0000   1.0000   1.0000   1.0000   1.0000   1.0000   1.0000
     1.0000   1.0000   1.0000   1.0000   1.0000   1.0000   1.0000   1.0000
     1.0000   1.0000   1.0000   1.0000   1.0000   1.0000   0.9995   0.7494
     0.0001   0.0000   0.0000   0.0000   0.0000   0.0000   0.0000   0.0000
     0.0000   0.0000   0.0000   0.0000   0.0000   0.0000

          k =-0.3763-0.3647 0.7196 (  7959 PWs)   bands (ev):

   -17.3054 -17.2286 -17.1939 -17.1696 -17.1552 -17.1477 -17.1415 -17.1202
   -17.1055 -17.0907 -17.0722 -17.0647 -17.0546 -17.0488 -17.0425 -17.0284
   -17.0258 -17.0133 -17.0107 -17.0082 -17.0056 -16.9877 -16.9803 -16.9757
   -16.9718 -16.9667 -16.9617 -16.9591 -16.9400 -16.9384 -16.9357 -16.9185
   -16.9025 -16.8971 -16.8949 -16.8893 -16.8727 -16.8554 -16.8462 -16.8172
    -4.5522  -3.6896  -3.4315  -2.8036  -2.4852  -2.3301  -1.9984  -1.3279
    -0.4430  -0.0146   0.3202   0.8319   1.1649   1.5216   1.9935   2.9850
     3.5872   3.6582   3.8779   3.9916   4.3208   4.4644   4.6263   4.8755
     5.0909   5.2026   5.3491   5.4553   5.5642   5.8398   6.0826   7.1701
     8.3836   8.8560   9.0527   9.1266   9.4658   9.5916   9.6894   9.8529
    10.0272  10.0968  10.4222  10.4619  10.6005  10.8310

     occupation numbers 
     1.0000   1.0000   1.0000   1.0000   1.0000   1.0000   1.0000   1.0000
     1.0000   1.0000   1.0000   1.0000   1.0000   1.0000   1.0000   1.0000
     1.0000   1.0000   1.0000   1.0000   1.0000   1.0000   1.0000   1.0000
     1.0000   1.0000   1.0000   1.0000   1.0000   1.0000   1.0000   1.0000
     1.0000   1.0000   1.0000   1.0000   1.0000   1.0000   1.0000   1.0000
     1.0000   1.0000   1.0000   1.0000   1.0000   1.0000   1.0000   1.0000
     1.0000   1.0000   1.0000   1.0000   1.0000   1.0000   1.0000   1.0000
     1.0000   1.0000   1.0000   1.0000   1.0000   1.0000   1.0000   1.0000
     1.0000   1.0000   1.0000   1.0000   1.0000   1.0000   1.0000   0.9930
     0.0000   0.0000   0.0000   0.0000   0.0000   0.0000   0.0000   0.0000
     0.0000   0.0000   0.0000   0.0000   0.0000   0.0000

          k =-0.1915-0.1837 0.5374 (  7971 PWs)   bands (ev):

   -17.3046 -17.2248 -17.1957 -17.1706 -17.1564 -17.1481 -17.1389 -17.1254
   -17.1093 -17.0889 -17.0725 -17.0649 -17.0555 -17.0485 -17.0420 -17.0295
   -17.0254 -17.0164 -17.0124 -17.0070 -16.9988 -16.9877 -16.9797 -16.9759
   -16.9711 -16.9666 -16.9591 -16.9560 -16.9393 -16.9376 -16.9356 -16.9176
   -16.9039 -16.8982 -16.8946 -16.8894 -16.8725 -16.8559 -16.8490 -16.8176
    -4.3603  -3.8358  -3.3720  -3.0929  -2.7923  -2.1504  -1.7949  -1.4743
    -0.2088   0.0585   0.2305   0.9736   1.3324   1.8501   2.5308   3.2003
     3.2488   3.3047   3.7965   3.9463   4.0423   4.2482   4.3594   4.5998
     4.7370   5.1033   5.3254   5.4607   5.5929   5.9361   6.1381   6.6244
     8.5400   8.9645   9.1750   9.1981   9.3493   9.4796   9.6946   9.9693
    10.1888  10.3703  10.6303  10.9857  11.1399  11.2399

     occupation numbers 
     1.0000   1.0000   1.0000   1.0000   1.0000   1.0000   1.0000   1.0000
     1.0000   1.0000   1.0000   1.0000   1.0000   1.0000   1.0000   1.0000
     1.0000   1.0000   1.0000   1.0000   1.0000   1.0000   1.0000   1.0000
     1.0000   1.0000   1.0000   1.0000   1.0000   1.0000   1.0000   1.0000
     1.0000   1.0000   1.0000   1.0000   1.0000   1.0000   1.0000   1.0000
     1.0000   1.0000   1.0000   1.0000   1.0000   1.0000   1.0000   1.0000
     1.0000   1.0000   1.0000   1.0000   1.0000   1.0000   1.0000   1.0000
     1.0000   1.0000   1.0000   1.0000   1.0000   1.0000   1.0000   1.0000
     1.0000   1.0000   1.0000   1.0000   1.0000   1.0000   1.0000   1.0000
     0.0000   0.0000   0.0000   0.0000   0.0000   0.0000   0.0000   0.0000
     0.0000   0.0000   0.0000   0.0000   0.0000   0.0000

          k =-0.5339 0.5334-0.1715 (  7994 PWs)   bands (ev):

   -17.3035 -17.2200 -17.1977 -17.1720 -17.1579 -17.1486 -17.1381 -17.1294
   -17.1120 -17.0880 -17.0718 -17.0641 -17.0565 -17.0484 -17.0422 -17.0310
   -17.0247 -17.0187 -17.0122 -17.0065 -16.9957 -16.9866 -16.9798 -16.9759
   -16.9714 -16.9666 -16.9574 -16.9526 -16.9386 -16.9357 -16.9313 -16.9174
   -16.9060 -16.8992 -16.8963 -16.8898 -16.8713 -16.8568 -16.8510 -16.8180
    -4.4173  -3.8946  -3.3391  -2.8724  -2.7889  -2.2404  -1.6940  -1.5273
    -0.2063  -0.0123   0.3768   0.7916   1.2209   1.9608   2.3094   3.1347
     3.1790   3.3346   3.6708   3.7499   4.0275   4.2230   4.4433   4.6341
     5.0540   5.0804   5.3711   5.5549   5.6510   6.0593   6.3522   6.6543
     8.5365   8.8571   9.3053   9.4521   9.6404   9.7644   9.8647  10.1139
    10.4003  10.4813  10.7025  10.9051  11.0695  11.2672

     occupation numbers 
     1.0000   1.0000   1.0000   1.0000   1.0000   1.0000   1.0000   1.0000
     1.0000   1.0000   1.0000   1.0000   1.0000   1.0000   1.0000   1.0000
     1.0000   1.0000   1.0000   1.0000   1.0000   1.0000   1.0000   1.0000
     1.0000   1.0000   1.0000   1.0000   1.0000   1.0000   1.0000   1.0000
     1.0000   1.0000   1.0000   1.0000   1.0000   1.0000   1.0000   1.0000
     1.0000   1.0000   1.0000   1.0000   1.0000   1.0000   1.0000   1.0000
     1.0000   1.0000   1.0000   1.0000   1.0000   1.0000   1.0000   1.0000
     1.0000   1.0000   1.0000   1.0000   1.0000   1.0000   1.0000   1.0000
     1.0000   1.0000   1.0000   1.0000   1.0000   1.0000   1.0000   1.0000
     0.0000   0.0000   0.0000   0.0000   0.0000   0.0000   0.0000   0.0000
     0.0000   0.0000   0.0000   0.0000   0.0000   0.0000

          k =-0.3491 0.7144-0.3537 (  7993 PWs)   bands (ev):

   -17.3043 -17.2248 -17.1950 -17.1707 -17.1566 -17.1483 -17.1403 -17.1252
   -17.1087 -17.0885 -17.0716 -17.0642 -17.0546 -17.0486 -17.0424 -17.0305
   -17.0250 -17.0174 -17.0119 -17.0079 -16.9988 -16.9865 -16.9802 -16.9757
   -16.9716 -16.9668 -16.9595 -16.9553 -16.9384 -16.9370 -16.9354 -16.9170
   -16.9033 -16.8989 -16.8959 -16.8899 -16.8720 -16.8557 -16.8484 -16.8175
    -4.5942  -3.7486  -3.3985  -2.6347  -2.4586  -2.2269  -2.0755  -1.4320
    -0.4069   0.1371   0.1936   0.7912   1.1336   1.5042   1.7138   2.8919
     3.5835   3.7156   3.8679   3.9422   4.1970   4.4304   4.6049   5.0458
     5.1334   5.1896   5.3809   5.5727   5.6776   5.9431   6.1312   7.3952
     8.5949   8.9322   9.1994   9.3461   9.4855   9.6195   9.7630   9.8940
    10.0108  10.1941  10.5221  10.6154  10.6922  10.7450

     occupation numbers 
     1.0000   1.0000   1.0000   1.0000   1.0000   1.0000   1.0000   1.0000
     1.0000   1.0000   1.0000   1.0000   1.0000   1.0000   1.0000   1.0000
     1.0000   1.0000   1.0000   1.0000   1.0000   1.0000   1.0000   1.0000
     1.0000   1.0000   1.0000   1.0000   1.0000   1.0000   1.0000   1.0000
     1.0000   1.0000   1.0000   1.0000   1.0000   1.0000   1.0000   1.0000
     1.0000   1.0000   1.0000   1.0000   1.0000   1.0000   1.0000   1.0000
     1.0000   1.0000   1.0000   1.0000   1.0000   1.0000   1.0000   1.0000
     1.0000   1.0000   1.0000   1.0000   1.0000   1.0000   1.0000   1.0000
     1.0000   1.0000   1.0000   1.0000   1.0000   1.0000   1.0000   0.8156
     0.0000   0.0000   0.0000   0.0000   0.0000   0.0000   0.0000   0.0000
     0.0000   0.0000   0.0000   0.0000   0.0000   0.0000

          k =-0.9036 0.1712 0.1929 (  7969 PWs)   bands (ev):

   -17.3055 -17.2286 -17.1941 -17.1697 -17.1556 -17.1473 -17.1415 -17.1201
   -17.1048 -17.0907 -17.0721 -17.0646 -17.0545 -17.0488 -17.0426 -17.0284
   -17.0251 -17.0133 -17.0111 -17.0082 -17.0056 -16.9876 -16.9803 -16.9759
   -16.9719 -16.9662 -16.9621 -16.9584 -16.9395 -16.9383 -16.9357 -16.9187
   -16.9024 -16.8973 -16.8961 -16.8891 -16.8720 -16.8556 -16.8459 -16.8171
    -4.3896  -3.8930  -3.3478  -2.9624  -2.7766  -2.2145  -1.7000  -1.5157
    -0.2028  -0.0730   0.3479   1.0074   1.2245   2.0336   2.2626   3.0682
     3.1897   3.2270   3.6343   3.8313   4.0076   4.3026   4.4677   4.5927
     5.0051   5.1609   5.3443   5.5038   5.6216   6.0632   6.2808   6.6812
     8.5220   8.9776   9.1928   9.4579   9.6535   9.7668   9.8573  10.0408
    10.3457  10.4791  10.6485  10.7503  11.0761  11.2524

     occupation numbers 
     1.0000   1.0000   1.0000   1.0000   1.0000   1.0000   1.0000   1.0000
     1.0000   1.0000   1.0000   1.0000   1.0000   1.0000   1.0000   1.0000
     1.0000   1.0000   1.0000   1.0000   1.0000   1.0000   1.0000   1.0000
     1.0000   1.0000   1.0000   1.0000   1.0000   1.0000   1.0000   1.0000
     1.0000   1.0000   1.0000   1.0000   1.0000   1.0000   1.0000   1.0000
     1.0000   1.0000   1.0000   1.0000   1.0000   1.0000   1.0000   1.0000
     1.0000   1.0000   1.0000   1.0000   1.0000   1.0000   1.0000   1.0000
     1.0000   1.0000   1.0000   1.0000   1.0000   1.0000   1.0000   1.0000
     1.0000   1.0000   1.0000   1.0000   1.0000   1.0000   1.0000   1.0000
     0.0000   0.0000   0.0000   0.0000   0.0000   0.0000   0.0000   0.0000
     0.0000   0.0000   0.0000   0.0000   0.0000   0.0000

          k =-0.7188 0.3523 0.0107 (  7974 PWs)   bands (ev):

   -17.3047 -17.2248 -17.1958 -17.1706 -17.1567 -17.1478 -17.1390 -17.1252
   -17.1089 -17.0886 -17.0727 -17.0647 -17.0556 -17.0486 -17.0423 -17.0293
   -17.0248 -17.0164 -17.0126 -17.0076 -16.9989 -16.9878 -16.9797 -16.9759
   -16.9709 -16.9665 -16.9591 -16.9554 -16.9394 -16.9371 -16.9356 -16.9178
   -16.9035 -16.8986 -16.8961 -16.8891 -16.8718 -16.8562 -16.8485 -16.8176
    -4.0289  -3.8381  -3.6481  -3.6171  -2.2339  -2.1022  -1.9186  -1.6941
     0.0591   0.1727   0.3744   0.5208   2.1972   2.5873   2.6804   2.8113
     3.0274   3.0982   3.1246   3.2376   4.3629   4.4673   4.5270   4.6564
     4.7110   4.8178   4.8535   4.9690   5.8071   5.9542   5.9931   6.1019
     9.2088   9.4738   9.6717   9.7304   9.8658   9.9730  10.1597  10.3104
    10.4905  10.6371  10.7770  10.9128  11.3058  11.4069

     occupation numbers 
     1.0000   1.0000   1.0000   1.0000   1.0000   1.0000   1.0000   1.0000
     1.0000   1.0000   1.0000   1.0000   1.0000   1.0000   1.0000   1.0000
     1.0000   1.0000   1.0000   1.0000   1.0000   1.0000   1.0000   1.0000
     1.0000   1.0000   1.0000   1.0000   1.0000   1.0000   1.0000   1.0000
     1.0000   1.0000   1.0000   1.0000   1.0000   1.0000   1.0000   1.0000
     1.0000   1.0000   1.0000   1.0000   1.0000   1.0000   1.0000   1.0000
     1.0000   1.0000   1.0000   1.0000   1.0000   1.0000   1.0000   1.0000
     1.0000   1.0000   1.0000   1.0000   1.0000   1.0000   1.0000   1.0000
     1.0000   1.0000   1.0000   1.0000   1.0000   1.0000   1.0000   1.0000
     0.0000   0.0000   0.0000   0.0000   0.0000   0.0000   0.0000   0.0000
     0.0000   0.0000   0.0000   0.0000   0.0000   0.0000

          k =-0.3582 0.3547 0.0041 (  7991 PWs)   bands (ev):

   -17.3035 -17.2199 -17.1977 -17.1720 -17.1579 -17.1487 -17.1380 -17.1294
   -17.1112 -17.0886 -17.0716 -17.0639 -17.0565 -17.0485 -17.0425 -17.0308
   -17.0244 -17.0187 -17.0123 -17.0070 -16.9959 -16.9868 -16.9797 -16.9757
   -16.9708 -16.9669 -16.9576 -16.9519 -16.9387 -16.9357 -16.9311 -16.9176
   -16.9067 -16.8996 -16.8975 -16.8897 -16.8705 -16.8568 -16.8503 -16.8176
    -4.5814  -3.7253  -3.4525  -2.5695  -2.4779  -2.2286  -2.1179  -1.4318
    -0.3412  -0.0734   0.3121   0.7222   0.9857   1.5634   1.9101   2.9695
     3.6178   3.8069   3.8988   4.0411   4.3341   4.4429   4.6992   4.9049
     5.0284   5.2191   5.4087   5.5187   5.7115   5.8047   6.0302   7.1279
     8.4255   8.7222   9.0873   9.1952   9.3879   9.6736   9.7253   9.8758
    10.0355  10.1811  10.3549  10.5641  10.6854  10.7787

     occupation numbers 
     1.0000   1.0000   1.0000   1.0000   1.0000   1.0000   1.0000   1.0000
     1.0000   1.0000   1.0000   1.0000   1.0000   1.0000   1.0000   1.0000
     1.0000   1.0000   1.0000   1.0000   1.0000   1.0000   1.0000   1.0000
     1.0000   1.0000   1.0000   1.0000   1.0000   1.0000   1.0000   1.0000
     1.0000   1.0000   1.0000   1.0000   1.0000   1.0000   1.0000   1.0000
     1.0000   1.0000   1.0000   1.0000   1.0000   1.0000   1.0000   1.0000
     1.0000   1.0000   1.0000   1.0000   1.0000   1.0000   1.0000   1.0000
     1.0000   1.0000   1.0000   1.0000   1.0000   1.0000   1.0000   1.0000
     1.0000   1.0000   1.0000   1.0000   1.0000   1.0000   1.0000   0.9970
     0.0000   0.0000   0.0000   0.0000   0.0000   0.0000   0.0000   0.0000
     0.0000   0.0000   0.0000   0.0000   0.0000   0.0000

          k =-0.1733 0.5358-0.1782 (  7999 PWs)   bands (ev):

   -17.3042 -17.2248 -17.1949 -17.1706 -17.1569 -17.1482 -17.1404 -17.1252
   -17.1087 -17.0886 -17.0716 -17.0639 -17.0545 -17.0483 -17.0426 -17.0305
   -17.0246 -17.0172 -17.0117 -17.0073 -16.9988 -16.9866 -16.9802 -16.9757
   -16.9717 -16.9671 -16.9599 -16.9559 -16.9384 -16.9376 -16.9355 -16.9168
   -16.9037 -16.8983 -16.8946 -16.8900 -16.8713 -16.8557 -16.8483 -16.8178
    -4.4113  -3.9225  -3.2961  -2.9290  -2.7268  -2.2125  -1.7751  -1.5317
    -0.1068  -0.0356   0.1361   1.0244   1.3370   1.8218   2.3133   3.0926
     3.2215   3.2885   3.7613   3.8409   3.9975   4.2976   4.4610   4.5886
     4.8385   5.1350   5.2977   5.4666   5.6468   5.9579   6.4126   6.8865
     8.5608   9.0686   9.1683   9.3949   9.6651   9.7050   9.8447   9.9834
    10.1943  10.4009  10.4822  10.7285  11.1239  11.3313

     occupation numbers 
     1.0000   1.0000   1.0000   1.0000   1.0000   1.0000   1.0000   1.0000
     1.0000   1.0000   1.0000   1.0000   1.0000   1.0000   1.0000   1.0000
     1.0000   1.0000   1.0000   1.0000   1.0000   1.0000   1.0000   1.0000
     1.0000   1.0000   1.0000   1.0000   1.0000   1.0000   1.0000   1.0000
     1.0000   1.0000   1.0000   1.0000   1.0000   1.0000   1.0000   1.0000
     1.0000   1.0000   1.0000   1.0000   1.0000   1.0000   1.0000   1.0000
     1.0000   1.0000   1.0000   1.0000   1.0000   1.0000   1.0000   1.0000
     1.0000   1.0000   1.0000   1.0000   1.0000   1.0000   1.0000   1.0000
     1.0000   1.0000   1.0000   1.0000   1.0000   1.0000   1.0000   1.0000
     0.0000   0.0000   0.0000   0.0000   0.0000   0.0000   0.0000   0.0000
     0.0000   0.0000   0.0000   0.0000   0.0000   0.0000

          k =-0.7278-0.0074 0.3685 (  7986 PWs)   bands (ev):

   -17.3053 -17.2284 -17.1938 -17.1694 -17.1558 -17.1472 -17.1414 -17.1200
   -17.1048 -17.0906 -17.0723 -17.0642 -17.0545 -17.0486 -17.0426 -17.0283
   -17.0246 -17.0131 -17.0107 -17.0079 -17.0053 -16.9874 -16.9803 -16.9758
   -16.9717 -16.9664 -16.9626 -16.9589 -16.9401 -16.9383 -16.9356 -16.9185
   -16.9024 -16.8972 -16.8947 -16.8890 -16.8715 -16.8555 -16.8459 -16.8174
    -4.0188  -3.8237  -3.7916  -3.4690  -2.2797  -2.0465  -1.9318  -1.7576
     0.1444   0.1835   0.3361   0.4834   2.3698   2.4557   2.6572   2.8066
     3.0566   3.1009   3.1677   3.2521   4.3314   4.4724   4.5309   4.6219
     4.6844   4.8071   4.8867   4.9862   5.7572   5.8355   5.9602   6.2252
     9.2620   9.3647   9.5578   9.6864   9.8714   9.9029  10.0868  10.2215
    10.4659  10.5994  10.8974  11.0174  11.3292  11.4832

     occupation numbers 
     1.0000   1.0000   1.0000   1.0000   1.0000   1.0000   1.0000   1.0000
     1.0000   1.0000   1.0000   1.0000   1.0000   1.0000   1.0000   1.0000
     1.0000   1.0000   1.0000   1.0000   1.0000   1.0000   1.0000   1.0000
     1.0000   1.0000   1.0000   1.0000   1.0000   1.0000   1.0000   1.0000
     1.0000   1.0000   1.0000   1.0000   1.0000   1.0000   1.0000   1.0000
     1.0000   1.0000   1.0000   1.0000   1.0000   1.0000   1.0000   1.0000
     1.0000   1.0000   1.0000   1.0000   1.0000   1.0000   1.0000   1.0000
     1.0000   1.0000   1.0000   1.0000   1.0000   1.0000   1.0000   1.0000
     1.0000   1.0000   1.0000   1.0000   1.0000   1.0000   1.0000   1.0000
     0.0000   0.0000   0.0000   0.0000   0.0000   0.0000   0.0000   0.0000
     0.0000   0.0000   0.0000   0.0000   0.0000   0.0000

          k =-0.5430 0.1736 0.1863 (  7973 PWs)   bands (ev):

   -17.3046 -17.2246 -17.1957 -17.1705 -17.1568 -17.1481 -17.1388 -17.1252
   -17.1081 -17.0892 -17.0724 -17.0645 -17.0555 -17.0487 -17.0425 -17.0293
   -17.0244 -17.0164 -17.0125 -17.0079 -16.9990 -16.9878 -16.9797 -16.9755
   -16.9707 -16.9664 -16.9592 -16.9550 -16.9392 -16.9368 -16.9356 -16.9178
   -16.9046 -16.8989 -16.8968 -16.8891 -16.8710 -16.8564 -16.8477 -16.8172
    -4.3669  -3.9058  -3.3395  -2.9905  -2.7771  -2.1990  -1.7344  -1.5036
    -0.1689  -0.0537   0.1968   1.0292   1.2029   1.8832   2.4745   3.1178
     3.2529   3.3769   3.8199   3.9794   4.0642   4.2273   4.4239   4.6349
     4.8553   5.2008   5.3003   5.4443   5.5534   5.8797   6.2017   6.6059
     8.5287   8.9929   9.0472   9.3464   9.4175   9.5304   9.8374   9.9812
    10.1169  10.3261  10.4520  10.6980  11.0910  11.2606

     occupation numbers 
     1.0000   1.0000   1.0000   1.0000   1.0000   1.0000   1.0000   1.0000
     1.0000   1.0000   1.0000   1.0000   1.0000   1.0000   1.0000   1.0000
     1.0000   1.0000   1.0000   1.0000   1.0000   1.0000   1.0000   1.0000
     1.0000   1.0000   1.0000   1.0000   1.0000   1.0000   1.0000   1.0000
     1.0000   1.0000   1.0000   1.0000   1.0000   1.0000   1.0000   1.0000
     1.0000   1.0000   1.0000   1.0000   1.0000   1.0000   1.0000   1.0000
     1.0000   1.0000   1.0000   1.0000   1.0000   1.0000   1.0000   1.0000
     1.0000   1.0000   1.0000   1.0000   1.0000   1.0000   1.0000   1.0000
     1.0000   1.0000   1.0000   1.0000   1.0000   1.0000   1.0000   1.0000
     0.0000   0.0000   0.0000   0.0000   0.0000   0.0000   0.0000   0.0000
     0.0000   0.0000   0.0000   0.0000   0.0000   0.0000

          k = 0.3648-0.3521-0.3593 (  7966 PWs)   bands (ev):

   -17.3037 -17.2198 -17.1982 -17.1720 -17.1577 -17.1488 -17.1371 -17.1298
   -17.1107 -17.0892 -17.0721 -17.0644 -17.0563 -17.0487 -17.0424 -17.0308
   -17.0244 -17.0184 -17.0128 -17.0071 -16.9970 -16.9875 -16.9793 -16.9756
   -16.9700 -16.9659 -16.9573 -16.9511 -16.9393 -16.9359 -16.9311 -16.9178
   -16.9081 -16.9006 -16.8981 -16.8894 -16.8704 -16.8570 -16.8499 -16.8172
    -4.3981  -4.2159  -2.7854  -2.6574  -2.4162  -2.3253  -2.2049  -1.9234
     0.1168   0.1916   0.4930   0.5562   0.6821   0.9746   2.9996   3.1845
     3.5655   3.6616   3.7363   3.8909   3.9233   4.0387   4.7919   4.8680
     5.1354   5.1923   5.2579   5.3907   6.3189   6.4753   6.6147   6.8570
     8.1837   8.3605   8.6057   8.6230   8.7755   8.8433   8.9783   9.0232
    10.6185  10.6757  10.8173  11.2252  11.3019  11.4299

     occupation numbers 
     1.0000   1.0000   1.0000   1.0000   1.0000   1.0000   1.0000   1.0000
     1.0000   1.0000   1.0000   1.0000   1.0000   1.0000   1.0000   1.0000
     1.0000   1.0000   1.0000   1.0000   1.0000   1.0000   1.0000   1.0000
     1.0000   1.0000   1.0000   1.0000   1.0000   1.0000   1.0000   1.0000
     1.0000   1.0000   1.0000   1.0000   1.0000   1.0000   1.0000   1.0000
     1.0000   1.0000   1.0000   1.0000   1.0000   1.0000   1.0000   1.0000
     1.0000   1.0000   1.0000   1.0000   1.0000   1.0000   1.0000   1.0000
     1.0000   1.0000   1.0000   1.0000   1.0000   1.0000   1.0000   1.0000
     1.0000   1.0000   1.0000   1.0000   1.0000   1.0000   1.0000   1.0000
     0.0000   0.0000   0.0000   0.0000   0.0000   0.0000   0.0000   0.0000
     0.0000   0.0000   0.0000   0.0000   0.0000   0.0000

          k = 0.5496-0.1711-0.5415 (  7986 PWs)   bands (ev):

   -17.3043 -17.2247 -17.1954 -17.1704 -17.1567 -17.1483 -17.1397 -17.1251
   -17.1082 -17.0892 -17.0721 -17.0642 -17.0544 -17.0486 -17.0425 -17.0303
   -17.0245 -17.0166 -17.0124 -17.0073 -16.9996 -16.9876 -16.9798 -16.9755
   -16.9710 -16.9660 -16.9597 -16.9552 -16.9384 -16.9373 -16.9356 -16.9174
   -16.9046 -16.8985 -16.8959 -16.8894 -16.8711 -16.8560 -16.8479 -16.8174
    -4.4002  -3.8433  -3.3580  -3.0931  -2.6660  -2.1234  -1.8927  -1.4096
    -0.3096   0.1096   0.2840   0.8162   1.2269   1.9629   2.4067   3.1153
     3.2063   3.3434   3.8275   3.8994   4.0281   4.3637   4.4690   4.7498
     4.9202   5.0768   5.2714   5.4983   5.6360   5.8471   6.1528   6.4249
     8.3485   8.6914   9.1799   9.2964   9.5894   9.7908  10.0954  10.2435
    10.2951  10.7652  10.9433  11.0066  11.2048  11.3059

     occupation numbers 
     1.0000   1.0000   1.0000   1.0000   1.0000   1.0000   1.0000   1.0000
     1.0000   1.0000   1.0000   1.0000   1.0000   1.0000   1.0000   1.0000
     1.0000   1.0000   1.0000   1.0000   1.0000   1.0000   1.0000   1.0000
     1.0000   1.0000   1.0000   1.0000   1.0000   1.0000   1.0000   1.0000
     1.0000   1.0000   1.0000   1.0000   1.0000   1.0000   1.0000   1.0000
     1.0000   1.0000   1.0000   1.0000   1.0000   1.0000   1.0000   1.0000
     1.0000   1.0000   1.0000   1.0000   1.0000   1.0000   1.0000   1.0000
     1.0000   1.0000   1.0000   1.0000   1.0000   1.0000   1.0000   1.0000
     1.0000   1.0000   1.0000   1.0000   1.0000   1.0000   1.0000   1.0000
     0.0000   0.0000   0.0000   0.0000   0.0000   0.0000   0.0000   0.0000
     0.0000   0.0000   0.0000   0.0000   0.0000   0.0000

          k =-0.0049-0.7143 0.0052 (  8004 PWs)   bands (ev):

   -17.3051 -17.2286 -17.1934 -17.1693 -17.1558 -17.1476 -17.1420 -17.1201
   -17.1052 -17.0901 -17.0722 -17.0639 -17.0530 -17.0484 -17.0427 -17.0298
   -17.0248 -17.0134 -17.0102 -17.0076 -17.0053 -16.9879 -16.9803 -16.9758
   -16.9721 -16.9661 -16.9628 -16.9590 -16.9405 -16.9379 -16.9355 -16.9182
   -16.9023 -16.8970 -16.8935 -16.8897 -16.8715 -16.8550 -16.8460 -16.8176
    -4.1925  -3.9079  -3.3769  -3.0601  -2.9636  -2.7376  -1.2834  -0.8884
    -0.6091  -0.5028   1.0125   1.2500   1.6122   1.7632   3.0236   3.1847
     3.2760   3.3714   3.5161   3.5239   3.5988   3.6413   3.7482   3.8622
     5.1109   5.3300   5.4601   5.7098   5.7506   5.9486   6.3134   6.4589
     8.1444   8.4871   9.1016   9.3702   9.6277   9.8583  10.2384  10.3503
    11.2598  11.3535  11.4496  11.5230  11.7143  11.7942

     occupation numbers 
     1.0000   1.0000   1.0000   1.0000   1.0000   1.0000   1.0000   1.0000
     1.0000   1.0000   1.0000   1.0000   1.0000   1.0000   1.0000   1.0000
     1.0000   1.0000   1.0000   1.0000   1.0000   1.0000   1.0000   1.0000
     1.0000   1.0000   1.0000   1.0000   1.0000   1.0000   1.0000   1.0000
     1.0000   1.0000   1.0000   1.0000   1.0000   1.0000   1.0000   1.0000
     1.0000   1.0000   1.0000   1.0000   1.0000   1.0000   1.0000   1.0000
     1.0000   1.0000   1.0000   1.0000   1.0000   1.0000   1.0000   1.0000
     1.0000   1.0000   1.0000   1.0000   1.0000   1.0000   1.0000   1.0000
     1.0000   1.0000   1.0000   1.0000   1.0000   1.0000   1.0000   1.0000
     0.0000   0.0000   0.0000   0.0000   0.0000   0.0000   0.0000   0.0000
     0.0000   0.0000   0.0000   0.0000   0.0000   0.0000

          k = 0.5406-0.5308-0.1837 (  7987 PWs)   bands (ev):

   -17.3037 -17.2199 -17.1982 -17.1720 -17.1576 -17.1487 -17.1372 -17.1298
   -17.1116 -17.0884 -17.0723 -17.0646 -17.0563 -17.0486 -17.0421 -17.0308
   -17.0248 -17.0183 -17.0128 -17.0066 -16.9967 -16.9874 -16.9794 -16.9758
   -16.9705 -16.9657 -16.9570 -16.9518 -16.9392 -16.9359 -16.9312 -16.9175
   -16.9072 -16.8998 -16.8976 -16.8894 -16.8711 -16.8569 -16.8507 -16.8175
    -4.3862  -3.8933  -3.3559  -2.9353  -2.7851  -2.2551  -1.6860  -1.4818
    -0.2473   0.0035   0.2985   0.8746   1.2331   1.8859   2.4303   3.1716
     3.2748   3.4395   3.5993   3.8386   4.1383   4.2109   4.4014   4.6381
     4.8044   5.0672   5.3871   5.5588   5.6472   5.9935   6.2053   6.6919
     8.5975   8.9909   9.1123   9.3910   9.4895   9.6253   9.7714   9.9639
    10.1762  10.4571  10.5919  10.8518  10.9945  11.2261

     occupation numbers 
     1.0000   1.0000   1.0000   1.0000   1.0000   1.0000   1.0000   1.0000
     1.0000   1.0000   1.0000   1.0000   1.0000   1.0000   1.0000   1.0000
     1.0000   1.0000   1.0000   1.0000   1.0000   1.0000   1.0000   1.0000
     1.0000   1.0000   1.0000   1.0000   1.0000   1.0000   1.0000   1.0000
     1.0000   1.0000   1.0000   1.0000   1.0000   1.0000   1.0000   1.0000
     1.0000   1.0000   1.0000   1.0000   1.0000   1.0000   1.0000   1.0000
     1.0000   1.0000   1.0000   1.0000   1.0000   1.0000   1.0000   1.0000
     1.0000   1.0000   1.0000   1.0000   1.0000   1.0000   1.0000   1.0000
     1.0000   1.0000   1.0000   1.0000   1.0000   1.0000   1.0000   1.0000
     0.0000   0.0000   0.0000   0.0000   0.0000   0.0000   0.0000   0.0000
     0.0000   0.0000   0.0000   0.0000   0.0000   0.0000

          k = 0.7254-0.3497-0.3659 (  7988 PWs)   bands (ev):

   -17.3045 -17.2248 -17.1956 -17.1706 -17.1564 -17.1482 -17.1399 -17.1252
   -17.1084 -17.0890 -17.0724 -17.0645 -17.0545 -17.0487 -17.0425 -17.0303
   -17.0250 -17.0168 -17.0127 -17.0078 -16.9996 -16.9878 -16.9799 -16.9757
   -16.9708 -16.9656 -16.9592 -16.9546 -16.9387 -16.9368 -16.9356 -16.9177
   -16.9046 -16.8991 -16.8970 -16.8895 -16.8716 -16.8562 -16.8478 -16.8170
    -4.5819  -3.6237  -3.5377  -2.6490  -2.5093  -2.2613  -2.0306  -1.3919
    -0.4118   0.0634   0.2608   0.8409   1.0040   1.5591   1.8003   2.9774
     3.5890   3.6579   3.9211   4.0048   4.2715   4.5306   4.5901   4.9167
     5.0732   5.2501   5.4228   5.5255   5.7323   5.8363   6.0546   7.1118
     8.4180   8.9326   9.1501   9.2534   9.3950   9.6202   9.8046   9.8665
     9.9296  10.3221  10.5106  10.5875  10.6927  10.8752

     occupation numbers 
     1.0000   1.0000   1.0000   1.0000   1.0000   1.0000   1.0000   1.0000
     1.0000   1.0000   1.0000   1.0000   1.0000   1.0000   1.0000   1.0000
     1.0000   1.0000   1.0000   1.0000   1.0000   1.0000   1.0000   1.0000
     1.0000   1.0000   1.0000   1.0000   1.0000   1.0000   1.0000   1.0000
     1.0000   1.0000   1.0000   1.0000   1.0000   1.0000   1.0000   1.0000
     1.0000   1.0000   1.0000   1.0000   1.0000   1.0000   1.0000   1.0000
     1.0000   1.0000   1.0000   1.0000   1.0000   1.0000   1.0000   1.0000
     1.0000   1.0000   1.0000   1.0000   1.0000   1.0000   1.0000   1.0000
     1.0000   1.0000   1.0000   1.0000   1.0000   1.0000   1.0000   0.9979
     0.0000   0.0000   0.0000   0.0000   0.0000   0.0000   0.0000   0.0000
     0.0000   0.0000   0.0000   0.0000   0.0000   0.0000

          k = 0.1709-0.8929 0.1807 (  7987 PWs)   bands (ev):

   -17.3052 -17.2287 -17.1936 -17.1696 -17.1554 -17.1477 -17.1421 -17.1201
   -17.1052 -17.0902 -17.0720 -17.0642 -17.0531 -17.0487 -17.0426 -17.0297
   -17.0252 -17.0136 -17.0106 -17.0078 -17.0056 -16.9880 -16.9803 -16.9757
   -16.9721 -16.9658 -16.9623 -16.9585 -16.9399 -16.9379 -16.9355 -16.9184
   -16.9025 -16.8970 -16.8950 -16.8896 -16.8721 -16.8552 -16.8459 -16.8172
    -4.4011  -3.9113  -3.3266  -2.9283  -2.7575  -2.2160  -1.7391  -1.5398
    -0.1601  -0.0189   0.2651   1.0066   1.3452   1.9264   2.2198   3.0857
     3.2082   3.2393   3.5705   3.8701   3.9824   4.3461   4.3791   4.5455
     4.8518   5.1909   5.3268   5.4336   5.8146   6.0819   6.1928   6.9778
     8.6180   9.1343   9.4066   9.4992   9.5545   9.7988   9.8618  10.0065
    10.1890  10.3649  10.5935  10.6633  10.9793  11.2770

     occupation numbers 
     1.0000   1.0000   1.0000   1.0000   1.0000   1.0000   1.0000   1.0000
     1.0000   1.0000   1.0000   1.0000   1.0000   1.0000   1.0000   1.0000
     1.0000   1.0000   1.0000   1.0000   1.0000   1.0000   1.0000   1.0000
     1.0000   1.0000   1.0000   1.0000   1.0000   1.0000   1.0000   1.0000
     1.0000   1.0000   1.0000   1.0000   1.0000   1.0000   1.0000   1.0000
     1.0000   1.0000   1.0000   1.0000   1.0000   1.0000   1.0000   1.0000
     1.0000   1.0000   1.0000   1.0000   1.0000   1.0000   1.0000   1.0000
     1.0000   1.0000   1.0000   1.0000   1.0000   1.0000   1.0000   1.0000
     1.0000   1.0000   1.0000   1.0000   1.0000   1.0000   1.0000   0.9999
     0.0000   0.0000   0.0000   0.0000   0.0000   0.0000   0.0000   0.0000
     0.0000   0.0000   0.0000   0.0000   0.0000   0.0000

          k = 0.3557-0.7119-0.0015 (  7982 PWs)   bands (ev):

   -17.3043 -17.2248 -17.1954 -17.1705 -17.1565 -17.1482 -17.1397 -17.1250
   -17.1089 -17.0887 -17.0720 -17.0644 -17.0543 -17.0484 -17.0422 -17.0302
   -17.0249 -17.0167 -17.0124 -17.0070 -16.9994 -16.9875 -16.9796 -16.9757
   -16.9713 -16.9661 -16.9592 -16.9558 -16.9385 -16.9377 -16.9355 -16.9173
   -16.9037 -16.8982 -16.8947 -16.8895 -16.8719 -16.8557 -16.8487 -16.8176
    -4.0638  -3.8709  -3.6462  -3.5333  -2.2869  -2.0702  -1.8870  -1.6996
     0.0726   0.1466   0.3037   0.6073   2.3162   2.3760   2.6981   2.8289
     3.0121   3.0533   3.1389   3.1997   4.3858   4.4608   4.5482   4.6251
     4.6799   4.8627   4.8845   5.0015   5.7384   5.9062   5.9682   6.2470
     9.3019   9.5329   9.6706   9.7184   9.9228  10.0811  10.1338  10.3697
    10.4964  10.6611  10.8319  10.9545  11.2907  11.4119

     occupation numbers 
     1.0000   1.0000   1.0000   1.0000   1.0000   1.0000   1.0000   1.0000
     1.0000   1.0000   1.0000   1.0000   1.0000   1.0000   1.0000   1.0000
     1.0000   1.0000   1.0000   1.0000   1.0000   1.0000   1.0000   1.0000
     1.0000   1.0000   1.0000   1.0000   1.0000   1.0000   1.0000   1.0000
     1.0000   1.0000   1.0000   1.0000   1.0000   1.0000   1.0000   1.0000
     1.0000   1.0000   1.0000   1.0000   1.0000   1.0000   1.0000   1.0000
     1.0000   1.0000   1.0000   1.0000   1.0000   1.0000   1.0000   1.0000
     1.0000   1.0000   1.0000   1.0000   1.0000   1.0000   1.0000   1.0000
     1.0000   1.0000   1.0000   1.0000   1.0000   1.0000   1.0000   1.0000
     0.0000   0.0000   0.0000   0.0000   0.0000   0.0000   0.0000   0.0000
     0.0000   0.0000   0.0000   0.0000   0.0000   0.0000

          k = 0.0133 0.0052-0.7104 (  7986 PWs)   bands (ev):

   -17.3037 -17.2199 -17.1982 -17.1718 -17.1574 -17.1485 -17.1371 -17.1296
   -17.1120 -17.0876 -17.0724 -17.0647 -17.0562 -17.0484 -17.0417 -17.0309
   -17.0249 -17.0182 -17.0127 -17.0061 -16.9962 -16.9870 -16.9793 -16.9759
   -16.9710 -16.9653 -16.9567 -16.9523 -16.9391 -16.9358 -16.9313 -16.9171
   -16.9066 -16.8990 -16.8965 -16.8894 -16.8718 -16.8567 -16.8513 -16.8177
    -4.1926  -3.9015  -3.3498  -3.1247  -2.9704  -2.7352  -1.1272  -0.8464
    -0.7594  -0.4782   1.0590   1.2256   1.5467   1.7085   2.9783   3.3146
     3.3498   3.3924   3.4155   3.4999   3.5347   3.6438   3.6779   3.7670
     5.1778   5.3568   5.5752   5.7207   5.9867   6.0390   6.2030   6.3364
     8.2253   8.6638   9.3632   9.3789   9.6707   9.7517  10.0235  10.1722
    11.0371  11.2125  11.4989  11.5561  11.6618  11.8308

     occupation numbers 
     1.0000   1.0000   1.0000   1.0000   1.0000   1.0000   1.0000   1.0000
     1.0000   1.0000   1.0000   1.0000   1.0000   1.0000   1.0000   1.0000
     1.0000   1.0000   1.0000   1.0000   1.0000   1.0000   1.0000   1.0000
     1.0000   1.0000   1.0000   1.0000   1.0000   1.0000   1.0000   1.0000
     1.0000   1.0000   1.0000   1.0000   1.0000   1.0000   1.0000   1.0000
     1.0000   1.0000   1.0000   1.0000   1.0000   1.0000   1.0000   1.0000
     1.0000   1.0000   1.0000   1.0000   1.0000   1.0000   1.0000   1.0000
     1.0000   1.0000   1.0000   1.0000   1.0000   1.0000   1.0000   1.0000
     1.0000   1.0000   1.0000   1.0000   1.0000   1.0000   1.0000   1.0000
     0.0000   0.0000   0.0000   0.0000   0.0000   0.0000   0.0000   0.0000
     0.0000   0.0000   0.0000   0.0000   0.0000   0.0000

          k = 0.1981 0.1862-0.8926 (  7973 PWs)   bands (ev):

   -17.3044 -17.2249 -17.1956 -17.1707 -17.1562 -17.1481 -17.1398 -17.1251
   -17.1088 -17.0884 -17.0723 -17.0647 -17.0544 -17.0486 -17.0422 -17.0302
   -17.0253 -17.0167 -17.0126 -17.0075 -16.9995 -16.9875 -16.9797 -16.9759
   -16.9709 -16.9657 -16.9588 -16.9551 -16.9386 -16.9372 -16.9355 -16.9175
   -16.9034 -16.8987 -16.8962 -16.8896 -16.8724 -16.8558 -16.8486 -16.8173
    -4.4174  -3.8463  -3.3333  -3.0573  -2.7744  -2.0645  -1.8015  -1.4645
    -0.2818   0.0990   0.2587   0.9401   1.3301   1.9726   2.1490   3.0594
     3.1273   3.1681   3.6805   3.8426   3.9960   4.3576   4.5150   4.6641
     4.9904   5.1200   5.3574   5.5205   5.6087   6.0529   6.2321   6.7337
     8.5283   8.9947   9.3692   9.5506   9.7092   9.7999  10.1050  10.1490
    10.4368  10.6544  10.8141  10.8480  10.9996  11.1371

     occupation numbers 
     1.0000   1.0000   1.0000   1.0000   1.0000   1.0000   1.0000   1.0000
     1.0000   1.0000   1.0000   1.0000   1.0000   1.0000   1.0000   1.0000
     1.0000   1.0000   1.0000   1.0000   1.0000   1.0000   1.0000   1.0000
     1.0000   1.0000   1.0000   1.0000   1.0000   1.0000   1.0000   1.0000
     1.0000   1.0000   1.0000   1.0000   1.0000   1.0000   1.0000   1.0000
     1.0000   1.0000   1.0000   1.0000   1.0000   1.0000   1.0000   1.0000
     1.0000   1.0000   1.0000   1.0000   1.0000   1.0000   1.0000   1.0000
     1.0000   1.0000   1.0000   1.0000   1.0000   1.0000   1.0000   1.0000
     1.0000   1.0000   1.0000   1.0000   1.0000   1.0000   1.0000   1.0000
     0.0000   0.0000   0.0000   0.0000   0.0000   0.0000   0.0000   0.0000
     0.0000   0.0000   0.0000   0.0000   0.0000   0.0000

          k =-0.3564-0.3570-0.3460 (  7960 PWs)   bands (ev):

   -17.3052 -17.2287 -17.1938 -17.1699 -17.1550 -17.1478 -17.1422 -17.1203
   -17.1050 -17.0902 -17.0719 -17.0646 -17.0532 -17.0489 -17.0426 -17.0296
   -17.0257 -17.0137 -17.0110 -17.0081 -17.0059 -16.9881 -16.9803 -16.9758
   -16.9721 -16.9654 -16.9619 -16.9580 -16.9394 -16.9379 -16.9356 -16.9186
   -16.9025 -16.8972 -16.8962 -16.8896 -16.8727 -16.8553 -16.8459 -16.8169
    -4.4410  -4.2014  -2.7865  -2.5561  -2.5060  -2.2271  -2.1870  -2.0030
     0.0482   0.3482   0.4301   0.6139   0.8483   1.0140   2.7318   2.9580
     3.4727   3.5238   3.5773   3.6715   3.7637   3.8740   4.9386   5.0411
     5.1996   5.2496   5.2769   5.6062   6.5111   6.6034   6.6514   7.1826
     8.3432   8.6176   8.7276   8.8130   8.8897   8.9610   9.1329   9.4823
    10.5132  10.7661  10.8631  10.9914  11.1889  11.3266

     occupation numbers 
     1.0000   1.0000   1.0000   1.0000   1.0000   1.0000   1.0000   1.0000
     1.0000   1.0000   1.0000   1.0000   1.0000   1.0000   1.0000   1.0000
     1.0000   1.0000   1.0000   1.0000   1.0000   1.0000   1.0000   1.0000
     1.0000   1.0000   1.0000   1.0000   1.0000   1.0000   1.0000   1.0000
     1.0000   1.0000   1.0000   1.0000   1.0000   1.0000   1.0000   1.0000
     1.0000   1.0000   1.0000   1.0000   1.0000   1.0000   1.0000   1.0000
     1.0000   1.0000   1.0000   1.0000   1.0000   1.0000   1.0000   1.0000
     1.0000   1.0000   1.0000   1.0000   1.0000   1.0000   1.0000   1.0000
     1.0000   1.0000   1.0000   1.0000   1.0000   1.0000   1.0000   0.9912
     0.0000   0.0000   0.0000   0.0000   0.0000   0.0000   0.0000   0.0000
     0.0000   0.0000   0.0000   0.0000   0.0000   0.0000

     the Fermi energy is     7.5249 ev

!    total energy              =   -1781.87971659 Ry
     Harris-Foulkes estimate   =   -1781.87971658 Ry
     estimated scf accuracy    <          6.5E-11 Ry

     The total energy is the sum of the following terms:

     one-electron contribution =   -1296.43529750 Ry
     hartree contribution      =     763.92140337 Ry
     xc contribution           =    -495.12155532 Ry
     ewald contribution        =    -754.24277339 Ry
     smearing contrib. (-TS)   =      -0.00149375 Ry

     convergence has been achieved in  13 iterations

     Forces acting on atoms (Ry/au):

     atom    1 type  2   force =   0.19217633E-01 -0.20376208E-01  0.15365102E-01
     atom    2 type  2   force =  -0.13766406E-01 -0.39644890E-01  0.45100441E-01
     atom    3 type  2   force =   0.63551957E-02  0.11874906E-01 -0.17382466E-01
     atom    4 type  2   force =  -0.15422978E-01  0.40504840E-01  0.95155953E-03
     atom    5 type  1   force =  -0.45544823E-01 -0.43107146E-01 -0.48201051E-01
     atom    6 type  1   force =   0.31616816E-01  0.63423111E-01  0.23954344E-01
     atom    7 type  2   force =   0.46596475E-02 -0.13254407E-01  0.14862196E-01
     atom    8 type  1   force =   0.42977524E-02 -0.31978542E-01 -0.45259831E-01
     atom    9 type  2   force =  -0.17931528E-02  0.18241836E-01 -0.39447357E-01
     atom   10 type  1   force =   0.78578950E-02  0.36272786E-01 -0.87684410E-02
     atom   11 type  1   force =  -0.15061204E-01 -0.31194955E-01 -0.16386052E-01
     atom   12 type  1   force =  -0.37892045E-02 -0.19212383E-01  0.25545830E-01
     atom   13 type  2   force =   0.26793769E-01  0.33120168E-02  0.86782442E-02
     atom   14 type  1   force =   0.17181094E-01 -0.33031356E-02 -0.51750894E-02
     atom   15 type  1   force =  -0.28629992E-01  0.40765382E-02  0.10121029E-01
     atom   16 type  2   force =   0.60279571E-02  0.24365633E-01  0.36041542E-01
     The non-local contrib.  to forces
     atom    1 type  2   force =   0.55187247E-01  0.66173512E-01  0.14126080E-01
     atom    2 type  2   force =  -0.47408740E-02 -0.68879970E-01  0.70998434E-01
     atom    3 type  2   force =  -0.18850393E-01  0.99992092E-02  0.31192328E-02
     atom    4 type  2   force =  -0.46435159E-01 -0.58738739E-02 -0.75483236E-01
     atom    5 type  1   force =  -0.61911841E-01 -0.26215162E-01 -0.69628455E-01
     atom    6 type  1   force =   0.34010152E-01  0.46187785E-01  0.49654258E-01
     atom    7 type  2   force =  -0.46160005E-01  0.65309459E-01 -0.53577228E-01
     atom    8 type  1   force =   0.11852481E-01 -0.68327793E-01 -0.37280683E-01
     atom    9 type  2   force =   0.38052494E-02  0.15027081E-01 -0.34401641E-01
     atom   10 type  1   force =  -0.70875576E-02  0.22967260E-02 -0.16672361E-02
     atom   11 type  1   force =  -0.10541919E-01  0.39787442E-02 -0.33621172E-01
     atom   12 type  1   force =  -0.11111292E-01 -0.15162047E-01  0.41490458E-01
     atom   13 type  2   force =   0.15343608E-01  0.48532221E-01  0.42074380E-01
     atom   14 type  1   force =   0.49420250E-02 -0.37087050E-01 -0.59081290E-02
     atom   15 type  1   force =  -0.23550944E-01  0.36539193E-01  0.69409120E-02
     atom   16 type  2   force =   0.62029444E-02  0.23897355E-01  0.32772778E-01
     The ionic contribution  to forces
     atom    1 type  2   force =   0.93128616E+00  0.75479957E+00 -0.95681777E+01
     atom    2 type  2   force =   0.29885022E+01 -0.58375239E+01  0.47046767E+01
     atom    3 type  2   force =   0.70317239E+00  0.93846716E-01 -0.12302050E+02
     atom    4 type  2   force =  -0.38813044E+01  0.39177112E+01  0.95122569E+01
     atom    5 type  1   force =   0.10268297E+01 -0.18758811E+01  0.78873408E+00
     atom    6 type  1   force =  -0.21156916E+01 -0.11809756E+01 -0.22134406E+01
     atom    7 type  2   force =   0.34812216E+01  0.13344550E+01  0.10992824E+02
     atom    8 type  1   force =  -0.89534098E+00  0.31854347E+01 -0.99452440E+00
     atom    9 type  2   force =  -0.55399507E+01  0.47745019E+01  0.39415499E+01
     atom   10 type  1   force =   0.21205096E+01  0.15117596E+01 -0.13542201E+01
     atom   11 type  1   force =   0.34968788E+00  0.33850923E+00  0.35292655E+01
     atom   12 type  1   force =  -0.85441176E-01 -0.41819260E+01  0.28870207E+00
     atom   13 type  2   force =   0.65372246E+01  0.75142721E+01 -0.53693994E+01
     atom   14 type  1   force =  -0.36382498E+00  0.30303042E+01 -0.35212787E-01
     atom   15 type  1   force =  -0.25949923E+01 -0.15148846E+01 -0.17280442E+01
     atom   16 type  2   force =  -0.26618881E+01 -0.11864403E+02 -0.19293983E+00
     The local contribution  to forces
     atom    1 type  2   force =  -0.96544218E+00 -0.84031496E+00  0.95726167E+01
     atom    2 type  2   force =  -0.30004967E+01  0.58624233E+01 -0.47284561E+01
     atom    3 type  2   force =  -0.67466708E+00 -0.88208950E-01  0.12279401E+02
     atom    4 type  2   force =   0.39115391E+01 -0.38718665E+01 -0.94352362E+01
     atom    5 type  1   force =  -0.10168273E+01  0.18578277E+01 -0.77452643E+00
     atom    6 type  1   force =   0.21166436E+01  0.12024804E+01  0.21919715E+01
     atom    7 type  2   force =  -0.34250735E+01 -0.14118564E+01 -0.10923225E+02
     atom    8 type  1   force =   0.88914273E+00 -0.31548079E+01  0.98338284E+00
     atom    9 type  2   force =   0.55353824E+01 -0.47681490E+01 -0.39520998E+01
     atom   10 type  1   force =  -0.21062588E+01 -0.14775645E+01  0.13472737E+01
     atom   11 type  1   force =  -0.35495157E+00 -0.37336265E+00 -0.35150830E+01
     atom   12 type  1   force =   0.91805676E-01  0.41763829E+01 -0.30095398E+00
     atom   13 type  2   force =  -0.65223257E+01 -0.75582621E+01  0.53381964E+01
     atom   14 type  1   force =   0.37552006E+00 -0.30003737E+01  0.36008534E-01
     atom   15 type  1   force =   0.25863994E+01  0.14853256E+01  0.17318186E+01
     atom   16 type  2   force =   0.26613670E+01  0.11864114E+02  0.19930829E+00
     The core correction contribution to forces
     atom    1 type  2   force =  -0.18191130E-02 -0.10435269E-02 -0.32060602E-02
     atom    2 type  2   force =   0.29705057E-02  0.43320361E-02 -0.21175205E-02
     atom    3 type  2   force =  -0.32976487E-02 -0.37602896E-02  0.21326675E-02
     atom    4 type  2   force =   0.77966012E-03  0.54401413E-03 -0.57932103E-03
     atom    5 type  1   force =   0.63655571E-02  0.11590981E-02  0.72196455E-02
     atom    6 type  1   force =  -0.33442196E-02 -0.42684703E-02 -0.42310139E-02
     atom    7 type  2   force =  -0.53255114E-02 -0.11601566E-02 -0.11550031E-02
     atom    8 type  1   force =  -0.13569537E-02  0.57223068E-02  0.31611258E-02
     atom    9 type  2   force =  -0.10448941E-02 -0.31369288E-02  0.55124824E-02
     atom   10 type  1   force =   0.69678903E-03 -0.21802404E-03 -0.15472005E-03
     atom   11 type  1   force =   0.74576151E-03 -0.31919464E-03  0.30532292E-02
     atom   12 type  1   force =   0.95783216E-03  0.14912083E-02 -0.36939246E-02
     atom   13 type  2   force =  -0.34439735E-02 -0.12265451E-02 -0.21891657E-02
     atom   14 type  1   force =   0.54415807E-03  0.38528501E-02 -0.63492920E-04
     atom   15 type  1   force =   0.35138256E-02 -0.29043178E-02 -0.59519028E-03
     atom   16 type  2   force =   0.34701369E-03  0.75524436E-03 -0.30981843E-02
     The Hubbard contrib.    to forces
     atom    1 type  2   force =   0.00000000E+00  0.00000000E+00  0.00000000E+00
     atom    2 type  2   force =   0.00000000E+00  0.00000000E+00  0.00000000E+00
     atom    3 type  2   force =   0.00000000E+00  0.00000000E+00  0.00000000E+00
     atom    4 type  2   force =   0.00000000E+00  0.00000000E+00  0.00000000E+00
     atom    5 type  1   force =   0.00000000E+00  0.00000000E+00  0.00000000E+00
     atom    6 type  1   force =   0.00000000E+00  0.00000000E+00  0.00000000E+00
     atom    7 type  2   force =   0.00000000E+00  0.00000000E+00  0.00000000E+00
     atom    8 type  1   force =   0.00000000E+00  0.00000000E+00  0.00000000E+00
     atom    9 type  2   force =   0.00000000E+00  0.00000000E+00  0.00000000E+00
     atom   10 type  1   force =   0.00000000E+00  0.00000000E+00  0.00000000E+00
     atom   11 type  1   force =   0.00000000E+00  0.00000000E+00  0.00000000E+00
     atom   12 type  1   force =   0.00000000E+00  0.00000000E+00  0.00000000E+00
     atom   13 type  2   force =   0.00000000E+00  0.00000000E+00  0.00000000E+00
     atom   14 type  1   force =   0.00000000E+00  0.00000000E+00  0.00000000E+00
     atom   15 type  1   force =   0.00000000E+00  0.00000000E+00  0.00000000E+00
     atom   16 type  2   force =   0.00000000E+00  0.00000000E+00  0.00000000E+00
     The SCF correction term to forces
     atom    1 type  2   force =   0.62692572E-05  0.92131637E-05  0.58784068E-05
     atom    2 type  2   force =  -0.81014798E-06  0.36753339E-05 -0.13029834E-05
     atom    3 type  2   force =  -0.13268068E-05 -0.17678818E-05  0.14501743E-04
     atom    4 type  2   force =  -0.13579968E-05 -0.99337362E-05 -0.68538090E-05
     atom    5 type  1   force =  -0.20141374E-06  0.22748143E-05 -0.81730704E-07
     atom    6 type  1   force =  -0.36802111E-06 -0.90295972E-06 -0.89263744E-08
     atom    7 type  2   force =  -0.21609309E-05 -0.23171882E-05 -0.46166159E-05
     atom    8 type  1   force =   0.12241000E-05  0.15480231E-06  0.11028325E-05
     atom    9 type  2   force =   0.15530281E-04 -0.12020014E-05 -0.84523054E-05
     atom   10 type  1   force =  -0.13740093E-05 -0.10006246E-05 -0.24103816E-06
     atom   11 type  1   force =  -0.60821668E-06 -0.10718395E-05 -0.80697228E-06
     atom   12 type  1   force =   0.50512641E-06  0.15682119E-05  0.10230949E-05
     atom   13 type  2   force =  -0.40089142E-05 -0.35695815E-05 -0.41938455E-05
     atom   14 type  1   force =   0.57910754E-06  0.57038890E-06  0.60131132E-06
     atom   15 type  1   force =   0.70598415E-06  0.66178410E-06  0.66672724E-06
     atom   16 type  2   force =  -0.13328442E-06  0.19032751E-05 -0.16910814E-05

     Total force =     0.179984     Total SCF correction =     0.000031


     entering subroutine stress ...

          total   stress  (Ry/bohr**3)                   (kbar)     P=    1.05
   0.0000721230   0.0001030919  -0.0000982608         10.61     15.17    -14.45
   0.0001030919  -0.0000302407  -0.0000543224         15.17     -4.45     -7.99
  -0.0000982608  -0.0000543224  -0.0000204132        -14.45     -7.99     -3.00

     kinetic stress (kbar)   6443.34      3.81    -30.29
                                3.81   6434.99     -7.60
                              -30.29     -7.60   6430.54

     local   stress (kbar)  -4379.97  -3219.42   2394.07
                            -3219.42  -2243.55    798.24
                             2394.07    798.24  -3750.76

     nonloc. stress (kbar)   2508.61      5.76      3.20
                                5.76   2505.01     -1.81
                                3.20     -1.81   2507.27

     hartree stress (kbar)  16915.94   1471.34  -1205.32
                             1471.34  15825.36   -365.17
                            -1205.32   -365.17  16512.90

     exc-cor stress (kbar)  10989.11      0.18      0.20
                                0.18  10989.18     -0.07
                                0.20     -0.07  10989.28

     corecor stress (kbar) -16681.59     -0.59     -0.17
                               -0.59 -16681.05      0.13
                               -0.17      0.13 -16681.28

     ewald   stress (kbar) -15784.83   1754.09  -1176.15
                             1754.09 -16834.39   -431.71
                            -1176.15   -431.71 -16010.95

     hubbard stress (kbar)      0.00      0.00      0.00
                                0.00      0.00      0.00
                                0.00      0.00      0.00

     london  stress (kbar)      0.00      0.00      0.00
                                0.00      0.00      0.00
                                0.00      0.00      0.00

     XDM     stress (kbar)      0.00      0.00      0.00
                                0.00      0.00      0.00
                                0.00      0.00      0.00

     dft-nl  stress (kbar)      0.00      0.00      0.00
                                0.00      0.00      0.00
                                0.00      0.00      0.00



     Writing output data file Si_diamond.scf.in.super.222.replace1107.save

     init_run     :     15.52s CPU     14.76s WALL (       1 calls)
     electrons    :    600.23s CPU    549.65s WALL (       1 calls)
     forces       :      6.93s CPU      5.95s WALL (       1 calls)
     stress       :     12.32s CPU     12.16s WALL (       1 calls)

     Called by init_run:
     wfcinit      :     13.41s CPU     12.61s WALL (       1 calls)
     potinit      :      0.57s CPU      0.58s WALL (       1 calls)

     Called by electrons:
     c_bands      :    534.22s CPU    486.30s WALL (      14 calls)
     sum_band     :     61.23s CPU     58.47s WALL (      14 calls)
     v_of_rho     :      0.57s CPU      0.61s WALL (      14 calls)
     v_h          :      0.03s CPU      0.03s WALL (      14 calls)
     v_xc         :      0.62s CPU      0.67s WALL (      16 calls)
     newd         :      3.82s CPU      3.86s WALL (      14 calls)
     mix_rho      :      0.64s CPU      0.66s WALL (      14 calls)

     Called by c_bands:
     init_us_2    :      2.78s CPU      2.94s WALL (    1116 calls)
     cegterg      :    523.23s CPU    474.63s WALL (     504 calls)

     Called by sum_band:
     sum_band:bec :      1.00s CPU      0.97s WALL (     504 calls)
     addusdens    :      4.29s CPU      4.31s WALL (      14 calls)

     Called by *egterg:
     h_psi        :    240.31s CPU    234.94s WALL (    1905 calls)
     s_psi        :     35.39s CPU     23.75s WALL (    1905 calls)
     g_psi        :      0.46s CPU      0.43s WALL (    1365 calls)
     cdiaghg      :    149.86s CPU    134.01s WALL (    1833 calls)
     cegterg:over :     46.02s CPU     38.59s WALL (    1365 calls)
     cegterg:upda :     20.28s CPU     13.91s WALL (    1365 calls)
     cegterg:last :     12.87s CPU      8.35s WALL (     504 calls)

     Called by h_psi:
     h_psi:vloc   :    154.89s CPU    171.14s WALL (    1905 calls)
     h_psi:vnl    :     85.08s CPU     63.44s WALL (    1905 calls)
     add_vuspsi   :     37.98s CPU     26.16s WALL (    1905 calls)

     General routines
     calbec       :     69.69s CPU     55.54s WALL (    2481 calls)
     fft          :      1.40s CPU      1.45s WALL (     249 calls)
     ffts         :      0.46s CPU      0.46s WALL (     394 calls)
     fftw         :    178.45s CPU    195.29s WALL (  251012 calls)
     interpolate  :      0.11s CPU      0.13s WALL (      28 calls)

     Parallel routines
     fft_scatter  :     84.43s CPU     98.39s WALL (  251655 calls)

     PWSCF        : 10m37.34s CPU     9m45.35s WALL


   This run was terminated on:  19:36:38   4Apr2018            

=------------------------------------------------------------------------------=
   JOB DONE.
=------------------------------------------------------------------------------=
