
     Program PWSCF v.5.1 starts on 27Sep2017 at 11:44:53 

     This program is part of the open-source Quantum ESPRESSO suite
     for quantum simulation of materials; please cite
         "P. Giannozzi et al., J. Phys.:Condens. Matter 21 395502 (2009);
          URL http://www.quantum-espresso.org", 
     in publications or presentations arising from this work. More details at
     http://www.quantum-espresso.org/quote

     Parallel version (MPI), running on     8 processors
     R & G space division:  proc/nbgrp/npool/nimage =       8
     Reading input from /tmp/Si_diamond.scf.in.super.222.largdist.03.23554/Si_diamond.scf.in.super.222.largdist.03.t
Warning: card &IONS ignored
Warning: card   ION_DYNAMICS='BFGS', ignored
Warning: card / ignored
Warning: card &CELL ignored
Warning: card  CELL_DYNAMICS = 'BFGS' ignored
Warning: card / ignored
     Message from routine read_cards :
     DEPRECATED: no units specified in CELL_PARAMETERS card

     Current dimensions of program PWSCF are:
     Max number of different atomic species (ntypx) = 10
     Max number of k-points (npk) =  40000
     Max angular momentum in pseudopotentials (lmaxx) =  3
 kfg - two_fermi_energies  F

     Subspace diagonalization in iterative solution of the eigenvalue problem:
     a serial algorithm will be used


     Parallelization info
     --------------------
     sticks:   dense  smooth     PW     G-vecs:    dense   smooth      PW
     Min         362     254     72                12889     7549    1154
     Max         363     255     73                12891     7558    1156
     Sum        2901    2039    583               103123    60425    9243



     bravais-lattice index     =            0
     lattice parameter (alat)  =    14.490062351  a.u.
     unit-cell volume          =    2157.3031 (a.u.)^3
     number of atoms/cell      =           16
     number of atomic types    =            1
     number of electrons       =        64.00
     number of Kohn-Sham states=           38
     kinetic-energy cutoff     =      35.0000  Ry
     charge density cutoff     =     200.0000  Ry
     convergence threshold     =      1.0E-09
     mixing beta               =       0.3000
     number of iterations used =            8  local-TF  mixing
     Exchange-correlation      = SLA  PW   PSX  PSC ( 1  4 10  8 0)
     A smooth kinetic-energy cutoff is imposed at      34.5000 Ry
     height of the smooth step-function =             800.0000 Ry
     width of the smooth step-function  =               1.0000 Ry


     celldm(1)=  14.490062  celldm(2)=   0.000000  celldm(3)=   0.000000
     celldm(4)=   0.000000  celldm(5)=   0.000000  celldm(6)=   0.000000

     crystal axes: (cart. coord. in units of alat)
               a(1) = (  -0.005724472544   0.701577251144   0.712570411321 )  
               a(2) = (   0.703488599621  -0.000189955929   0.714099855361 )  
               a(3) = (   0.703049529813   0.709676399378   0.003815541797 )  

     reciprocal axes: (cart. coord. in units 2 pi/alat)
               b(1) = ( -0.714693  0.704233  0.704260 )  
               b(2) = (  0.709386 -0.706533  0.701332 )  
               b(3) = (  0.706726  0.712708 -0.696035 )  


     PseudoPot. # 1 for Si read from file:
     /users/kfg/psuedo/gbrv_1.5/si.pbesol.UPF
     MD5 check sum: ef58ba74faed4df802eb8a9742fc00a8
     Pseudo is Ultrasoft + core correction, Zval =  4.0
     Generated by new atomic code, or converted to UPF format
     Using radial grid of  899 points,  6 beta functions with: 
                l(1) =   0
                l(2) =   0
                l(3) =   1
                l(4) =   1
                l(5) =   2
                l(6) =   2
     Q(r) pseudized with  8 coefficients,  rinner =    0.900   0.900   0.900
                                                       0.900   0.900

     atomic species   valence    mass     pseudopotential
        Si             4.00    28.08550     Si( 1.00)

     No symmetry found


                                    s                        frac. trans.

      isym =  1     identity                                     

 cryst.   s( 1) = (     1          0          0      )
                  (     0          1          0      )
                  (     0          0          1      )

 cart.    s( 1) = (  1.0000000  0.0000000  0.0000000 )
                  (  0.0000000  1.0000000 -0.0000000 )
                  ( -0.0000000  0.0000000  1.0000000 )


     point group C_1 (1)    
     there are  1 classes
     the character table:

       E    
A      1.00

     the symmetry operations in each class:
     E        1

   Cartesian axes

     site n.     atom                  positions (alat units)
         1           Si  tau(   1) = (   -0.00877129519   -0.02469225867   -0.01219120270  )
         2           Si  tau(   2) = (    0.15506575921    0.20126803637    0.15743927146  )
         3           Si  tau(   3) = (    0.36212798157    0.34442088684   -0.01293108168  )
         4           Si  tau(   4) = (    0.55130877703    0.51453101461    0.18948626683  )
         5           Si  tau(   5) = (    0.35447989439   -0.00835066540    0.36422118849  )
         6           Si  tau(   6) = (    0.54186364614    0.19301392059    0.53244726561  )
         7           Si  tau(   7) = (    0.72992500628    0.35598748644    0.36626190861  )
         8           Si  tau(   8) = (    0.89681766308    0.54076342793    0.55907963525  )
         9           Si  tau(   9) = (   -0.01713711593    0.33681412024    0.34852712636  )
        10           Si  tau(  10) = (    0.18354901838    0.53298444240    0.55706858848  )
        11           Si  tau(  11) = (    0.32644061861    0.69591216718    0.33864491309  )
        12           Si  tau(  12) = (    0.50599702938    0.86772192829    0.52814008697  )
        13           Si  tau(  13) = (    0.37136904541    0.36798544821    0.72404321450  )
        14           Si  tau(  14) = (    0.50692288559    0.53694032757    0.90052860425  )
        15           Si  tau(  15) = (    0.69963182637    0.73081153567    0.73358780857  )
        16           Si  tau(  16) = (    0.87852574826    0.90231567278    0.87968252908  )

   Crystallographic axes

     site n.     atom                  positions (cryst. coord.)
         1           Si  tau(   1) = (   -0.01970609594    0.00267357692   -0.01531177054  )
         2           Si  tau(   2) = (    0.14179337246    0.07821618430    0.14345114140  )
         3           Si  tau(   3) = (   -0.02536467244    0.00447499131    0.51039743519  )
         4           Si  tau(   4) = (    0.10178077183    0.16045053170    0.62444576064  )
         5           Si  tau(   5) = (   -0.00271860262    0.51280293675   -0.00894202722  )
         6           Si  tau(   6) = (    0.12364203912    0.62144196793    0.14990991013  )
         7           Si  tau(   7) = (   -0.01303049759    0.52315291420    0.51464126951  )
         8           Si  tau(   8) = (    0.13361163873    0.64622316474    0.63007209486  )
         9           Si  tau(   9) = (    0.49489714381   -0.00569394295   -0.01464828071  )
        10           Si  tau(  10) = (    0.63648521782    0.14432598110    0.12184188250  )
        11           Si  tau(  11) = (    0.49527353787   -0.02260986470    0.49097761366  )
        12           Si  tau(  12) = (    0.62139382611    0.11627469590    0.60842976226  )
        13           Si  tau(  13) = (    0.50364744168    0.51124464622    0.02076294843  )
        14           Si  tau(  14) = (    0.65004328314    0.61180728921    0.11413788645  )
        15           Si  tau(  15) = (    0.53127626235    0.49445515891    0.50470062262  )
        16           Si  tau(  16) = (    0.62708958229    0.60264758644    0.65167499483  )

     number of k points=    36  gaussian smearing, width (Ry)=  0.0150
                       cart. coord. in units 2pi/alat
        k(    1) = (   0.0000000   0.0000000   0.0000000), wk =   0.0312500
        k(    2) = (   0.1766816   0.1781770  -0.1740088), wk =   0.0625000
        k(    3) = (  -0.3533632  -0.3563540   0.3480176), wk =   0.0312500
        k(    4) = (   0.1773465  -0.1766332   0.1753329), wk =   0.0625000
        k(    5) = (   0.3540281   0.0015438   0.0013241), wk =   0.0625000
        k(    6) = (  -0.1760167  -0.5329872   0.5233505), wk =   0.0625000
        k(    7) = (   0.0006649  -0.3548102   0.3493417), wk =   0.0625000
        k(    8) = (  -0.3546931   0.3532663  -0.3506658), wk =   0.0312500
        k(    9) = (  -0.1780114   0.5314433  -0.5246746), wk =   0.0625000
        k(   10) = (  -0.7080563  -0.0030877  -0.0026482), wk =   0.0312500
        k(   11) = (  -0.1786732   0.1760582   0.1760651), wk =   0.0625000
        k(   12) = (  -0.0019916   0.3542352   0.0020563), wk =   0.0625000
        k(   13) = (  -0.5320365  -0.1802958   0.5240827), wk =   0.0625000
        k(   14) = (  -0.3553549  -0.0021188   0.3500739), wk =   0.0625000
        k(   15) = (  -0.0013267  -0.0005749   0.3513979), wk =   0.0625000
        k(   16) = (   0.1753549   0.1776021   0.1773891), wk =   0.0625000
        k(   17) = (  -0.3546899  -0.3569289   0.6994155), wk =   0.0625000
        k(   18) = (  -0.1780083  -0.1787519   0.5254067), wk =   0.0625000
        k(   19) = (  -0.5333663   0.5293245  -0.1746007), wk =   0.0625000
        k(   20) = (  -0.3566847   0.7075015  -0.3486095), wk =   0.0625000
        k(   21) = (  -0.8867295   0.1729705   0.1734169), wk =   0.0625000
        k(   22) = (  -0.7100479   0.3511475  -0.0005919), wk =   0.0625000
        k(   23) = (  -0.3560198   0.3526914   0.0007322), wk =   0.0625000
        k(   24) = (  -0.1793382   0.5308684  -0.1732766), wk =   0.0625000
        k(   25) = (  -0.7093830  -0.0036626   0.3487498), wk =   0.0625000
        k(   26) = (  -0.5327014   0.1745144   0.1747410), wk =   0.0625000
        k(   27) = (   0.3573465  -0.3521164  -0.3521301), wk =   0.0312500
        k(   28) = (   0.5340281  -0.1739394  -0.5261389), wk =   0.0625000
        k(   29) = (   0.0039833  -0.7084704  -0.0041125), wk =   0.0312500
        k(   30) = (   0.5346930  -0.5287496  -0.1767972), wk =   0.0625000
        k(   31) = (   0.7113746  -0.3505726  -0.3508060), wk =   0.0625000
        k(   32) = (   0.1813298  -0.8851036   0.1712204), wk =   0.0625000
        k(   33) = (   0.3580114  -0.7069266  -0.0027884), wk =   0.0625000
        k(   34) = (   0.0026534   0.0011499  -0.7027959), wk =   0.0312500
        k(   35) = (   0.1793350   0.1793269  -0.8768047), wk =   0.0625000
        k(   36) = (  -0.3507098  -0.3552041  -0.3547783), wk =   0.0312500

                       cryst. coord.
        k(    1) = (   0.0000000   0.0000000   0.0000000), wk =   0.0312500
        k(    2) = (  -0.0000000   0.0000000   0.2500000), wk =   0.0625000
        k(    3) = (   0.0000000  -0.0000000  -0.5000000), wk =   0.0312500
        k(    4) = (   0.0000000   0.2500000  -0.0000000), wk =   0.0625000
        k(    5) = (   0.0000000   0.2500000   0.2500000), wk =   0.0625000
        k(    6) = (   0.0000000   0.2500000  -0.5000000), wk =   0.0625000
        k(    7) = (   0.0000000   0.2500000  -0.2500000), wk =   0.0625000
        k(    8) = (  -0.0000000  -0.5000000   0.0000000), wk =   0.0312500
        k(    9) = (   0.0000000  -0.5000000   0.2500000), wk =   0.0625000
        k(   10) = (  -0.0000000  -0.5000000  -0.5000000), wk =   0.0312500
        k(   11) = (   0.2500000  -0.0000000  -0.0000000), wk =   0.0625000
        k(   12) = (   0.2500000  -0.0000000   0.2500000), wk =   0.0625000
        k(   13) = (   0.2500000   0.0000000  -0.5000000), wk =   0.0625000
        k(   14) = (   0.2500000  -0.0000000  -0.2500000), wk =   0.0625000
        k(   15) = (   0.2500000   0.2500000  -0.0000000), wk =   0.0625000
        k(   16) = (   0.2500000   0.2500000   0.2500000), wk =   0.0625000
        k(   17) = (   0.2500000   0.2500000  -0.5000000), wk =   0.0625000
        k(   18) = (   0.2500000   0.2500000  -0.2500000), wk =   0.0625000
        k(   19) = (   0.2500000  -0.5000000  -0.0000000), wk =   0.0625000
        k(   20) = (   0.2500000  -0.5000000   0.2500000), wk =   0.0625000
        k(   21) = (   0.2500000  -0.5000000  -0.5000000), wk =   0.0625000
        k(   22) = (   0.2500000  -0.5000000  -0.2500000), wk =   0.0625000
        k(   23) = (   0.2500000  -0.2500000   0.0000000), wk =   0.0625000
        k(   24) = (   0.2500000  -0.2500000   0.2500000), wk =   0.0625000
        k(   25) = (   0.2500000  -0.2500000  -0.5000000), wk =   0.0625000
        k(   26) = (   0.2500000  -0.2500000  -0.2500000), wk =   0.0625000
        k(   27) = (  -0.5000000   0.0000000   0.0000000), wk =   0.0312500
        k(   28) = (  -0.5000000   0.0000000   0.2500000), wk =   0.0625000
        k(   29) = (  -0.5000000   0.0000000  -0.5000000), wk =   0.0312500
        k(   30) = (  -0.5000000   0.2500000   0.0000000), wk =   0.0625000
        k(   31) = (  -0.5000000   0.2500000   0.2500000), wk =   0.0625000
        k(   32) = (  -0.5000000   0.2500000  -0.5000000), wk =   0.0625000
        k(   33) = (  -0.5000000   0.2500000  -0.2500000), wk =   0.0625000
        k(   34) = (  -0.5000000  -0.5000000   0.0000000), wk =   0.0312500
        k(   35) = (  -0.5000000  -0.5000000   0.2500000), wk =   0.0625000
        k(   36) = (  -0.5000000  -0.5000000  -0.5000000), wk =   0.0312500

     Dense  grid:   103123 G-vectors     FFT dimensions: (  72,  72,  72)

     Smooth grid:    60425 G-vectors     FFT dimensions: (  60,  60,  60)

     Largest allocated arrays     est. size (Mb)     dimensions
        Kohn-Sham Wavefunctions         0.55 Mb     (     957,   38)
        NL pseudopotentials             4.21 Mb     (     957,  288)
        Each V/rho on FFT grid          0.71 Mb     (   46656)
        Each G-vector array             0.10 Mb     (   12890)
        G-vector shells                 0.10 Mb     (   12651)
     Largest temporary arrays     est. size (Mb)     dimensions
        Auxiliary wavefunctions         2.22 Mb     (     957,  152)
        Each subspace H/S matrix        0.35 Mb     (     152,  152)
        Each <psi_i|beta_j> matrix      0.17 Mb     (     288,   38)
        Arrays for rho mixing           5.70 Mb     (   46656,    8)

     Initial potential from superposition of free atoms

     starting charge   63.98963, renormalised to   64.00000
     Starting wfc are   64 randomized atomic wfcs

     total cpu time spent up to now is       16.2 secs

     per-process dynamical memory:    36.5 Mb

     Self-consistent Calculation

     iteration #  1     ecut=    35.00 Ry     beta=0.30
     Davidson diagonalization with overlap
     ethr =  1.00E-02,  avg # of iterations =  3.1

     Threshold (ethr) on eigenvalues was too large:
     Diagonalizing with lowered threshold

     Davidson diagonalization with overlap
     ethr =  7.26E-04,  avg # of iterations =  2.0

     total cpu time spent up to now is       88.2 secs

     total energy              =    -152.83068471 Ry
     Harris-Foulkes estimate   =    -152.88174633 Ry
     estimated scf accuracy    <       0.45876736 Ry

     iteration #  2     ecut=    35.00 Ry     beta=0.30
     Davidson diagonalization with overlap
     ethr =  7.17E-04,  avg # of iterations =  1.0

     total cpu time spent up to now is      116.4 secs

     total energy              =    -152.72818452 Ry
     Harris-Foulkes estimate   =    -152.83318852 Ry
     estimated scf accuracy    <       0.28520286 Ry

     iteration #  3     ecut=    35.00 Ry     beta=0.30
     Davidson diagonalization with overlap
     ethr =  4.46E-04,  avg # of iterations =  2.8

     total cpu time spent up to now is      151.4 secs

     total energy              =    -152.75203063 Ry
     Harris-Foulkes estimate   =    -152.75209241 Ry
     estimated scf accuracy    <       0.00400956 Ry

     iteration #  4     ecut=    35.00 Ry     beta=0.30
     Davidson diagonalization with overlap
     c_bands:  1 eigenvalues not converged
     c_bands:  1 eigenvalues not converged
     ethr =  6.26E-06,  avg # of iterations = 10.3

     total cpu time spent up to now is      228.0 secs

     total energy              =    -152.75439831 Ry
     Harris-Foulkes estimate   =    -152.75436989 Ry
     estimated scf accuracy    <       0.00222963 Ry

     iteration #  5     ecut=    35.00 Ry     beta=0.30
     Davidson diagonalization with overlap
     ethr =  3.48E-06,  avg # of iterations =  1.2

     total cpu time spent up to now is      257.0 secs

     total energy              =    -152.75444895 Ry
     Harris-Foulkes estimate   =    -152.75443530 Ry
     estimated scf accuracy    <       0.00122070 Ry

     iteration #  6     ecut=    35.00 Ry     beta=0.30
     Davidson diagonalization with overlap
     ethr =  1.91E-06,  avg # of iterations =  3.0

     total cpu time spent up to now is      297.7 secs

     total energy              =    -152.75464496 Ry
     Harris-Foulkes estimate   =    -152.75465894 Ry
     estimated scf accuracy    <       0.00019717 Ry

     iteration #  7     ecut=    35.00 Ry     beta=0.30
     Davidson diagonalization with overlap
     ethr =  3.08E-07,  avg # of iterations =  1.0

     total cpu time spent up to now is      324.9 secs

     total energy              =    -152.75459208 Ry
     Harris-Foulkes estimate   =    -152.75464953 Ry
     estimated scf accuracy    <       0.00015150 Ry

     iteration #  8     ecut=    35.00 Ry     beta=0.30
     Davidson diagonalization with overlap
     ethr =  2.37E-07,  avg # of iterations =  2.1

     total cpu time spent up to now is      359.3 secs

     total energy              =    -152.75462116 Ry
     Harris-Foulkes estimate   =    -152.75461953 Ry
     estimated scf accuracy    <       0.00000218 Ry

     iteration #  9     ecut=    35.00 Ry     beta=0.30
     Davidson diagonalization with overlap
     ethr =  3.40E-09,  avg # of iterations =  3.3

     total cpu time spent up to now is      395.7 secs

     total energy              =    -152.75461775 Ry
     Harris-Foulkes estimate   =    -152.75462358 Ry
     estimated scf accuracy    <       0.00001592 Ry

     iteration # 10     ecut=    35.00 Ry     beta=0.30
     Davidson diagonalization with overlap
     ethr =  3.40E-09,  avg # of iterations =  3.0

     total cpu time spent up to now is      427.4 secs

     total energy              =    -152.75462014 Ry
     Harris-Foulkes estimate   =    -152.75462015 Ry
     estimated scf accuracy    <       0.00000016 Ry

     iteration # 11     ecut=    35.00 Ry     beta=0.30
     Davidson diagonalization with overlap
     ethr =  2.57E-10,  avg # of iterations =  3.1

     total cpu time spent up to now is      459.5 secs

     total energy              =    -152.75462010 Ry
     Harris-Foulkes estimate   =    -152.75462022 Ry
     estimated scf accuracy    <       0.00000038 Ry

     iteration # 12     ecut=    35.00 Ry     beta=0.30
     Davidson diagonalization with overlap
     ethr =  2.57E-10,  avg # of iterations =  2.2

     total cpu time spent up to now is      487.7 secs

     total energy              =    -152.75462015 Ry
     Harris-Foulkes estimate   =    -152.75462015 Ry
     estimated scf accuracy    <          7.3E-09 Ry

     iteration # 13     ecut=    35.00 Ry     beta=0.30
     Davidson diagonalization with overlap
     ethr =  1.14E-11,  avg # of iterations =  2.6

     total cpu time spent up to now is      515.6 secs

     End of self-consistent calculation

          k = 0.0000 0.0000 0.0000 (  7595 PWs)   bands (ev):

    -5.9535  -3.8147  -3.6593  -3.5709  -3.3930  -2.0398  -1.9638  -1.8468
    -1.7652  -1.6365  -1.2721  -1.0441  -0.9204  -0.5761  -0.3462   3.0403
     3.1382   3.2166   3.2537   3.3572   3.4199   4.5806   4.7070   4.7600
     4.8244   4.8600   5.0951   5.2377   5.4381   5.7907   6.2561   6.3523
     6.5165   6.5618   6.6518   6.7985   6.9025   7.1224

     occupation numbers 
     1.0000   1.0000   1.0000   1.0000   1.0000   1.0000   1.0000   1.0000
     1.0000   1.0000   1.0000   1.0000   1.0000   1.0000   1.0000   1.0000
     1.0000   1.0000   1.0000   1.0000   1.0000   1.0000   1.0000   1.0000
     1.0000   1.0000   1.0000   1.0000   1.0000   1.0000   0.9159   0.7614
     0.3346   0.2294   0.0862   0.0086   0.0010   0.0000

          k = 0.1767 0.1782-0.1740 (  7544 PWs)   bands (ev):

    -5.7543  -4.3045  -3.6652  -3.5481  -3.3549  -2.7164  -2.5610  -2.3173
    -1.1272  -0.9242  -0.7971  -0.6967  -0.2451  -0.0675   0.2127   2.4468
     2.5769   2.6425   3.3247   3.3790   3.5179   3.6503   3.7990   3.9821
     4.3214   4.5579   4.5922   4.8522   5.1867   5.2507   5.8444   6.4177
     6.7638   6.8920   7.0299   7.5290   7.6833   7.8285

     occupation numbers 
     1.0000   1.0000   1.0000   1.0000   1.0000   1.0000   1.0000   1.0000
     1.0000   1.0000   1.0000   1.0000   1.0000   1.0000   1.0000   1.0000
     1.0000   1.0000   1.0000   1.0000   1.0000   1.0000   1.0000   1.0000
     1.0000   1.0000   1.0000   1.0000   1.0000   1.0000   1.0000   0.6016
     0.0161   0.0012   0.0000   0.0000   0.0000   0.0000

          k =-0.3534-0.3564 0.3480 (  7554 PWs)   bands (ev):

    -5.2438  -5.0909  -3.5456  -3.4345  -3.3064  -3.1110  -2.8031  -2.7376
    -0.6968  -0.5294  -0.4089  -0.3252   0.2391   0.3875   1.8405   2.0836
     2.3135   2.3379   2.4145   2.5066   2.7267   2.8460   3.7440   3.8085
     3.9081   4.0475   4.1078   4.3555   5.3070   5.3204   5.4325   6.2397
     7.2582   7.3151   7.3720   7.4109   7.6553   7.8432

     occupation numbers 
     1.0000   1.0000   1.0000   1.0000   1.0000   1.0000   1.0000   1.0000
     1.0000   1.0000   1.0000   1.0000   1.0000   1.0000   1.0000   1.0000
     1.0000   1.0000   1.0000   1.0000   1.0000   1.0000   1.0000   1.0000
     1.0000   1.0000   1.0000   1.0000   1.0000   1.0000   1.0000   0.9320
     0.0000   0.0000   0.0000   0.0000   0.0000   0.0000

          k = 0.1773-0.1766 0.1753 (  7551 PWs)   bands (ev):

    -5.7616  -4.2843  -3.6792  -3.5293  -3.3808  -2.6960  -2.4888  -2.3431
    -1.1260  -0.9514  -0.8152  -0.6727  -0.5264  -0.0430   0.3420   2.5343
     2.6521   2.7339   3.2047   3.3882   3.4311   3.7500   3.9427   4.0509
     4.3731   4.5450   4.6814   4.8778   5.0048   5.2977   5.5942   6.3628
     6.7047   6.7843   6.9160   7.4959   7.7032   7.9393

     occupation numbers 
     1.0000   1.0000   1.0000   1.0000   1.0000   1.0000   1.0000   1.0000
     1.0000   1.0000   1.0000   1.0000   1.0000   1.0000   1.0000   1.0000
     1.0000   1.0000   1.0000   1.0000   1.0000   1.0000   1.0000   1.0000
     1.0000   1.0000   1.0000   1.0000   1.0000   1.0000   1.0000   0.7382
     0.0417   0.0112   0.0007   0.0000   0.0000   0.0000

          k = 0.3540 0.0015 0.0013 (  7556 PWs)   bands (ev):

    -5.6898  -4.0896  -3.8372  -3.7282  -3.5575  -3.2544  -1.8630  -1.7429
    -1.6201  -1.4341  -0.5078  -0.3395  -0.1552   0.1097   0.5450   2.4779
     2.5925   2.6547   2.7220   3.3261   3.4380   3.4811   3.6817   3.8156
     3.9947   4.6392   4.6717   4.8182   4.9967   5.1020   5.6087   5.8412
     6.5520   7.2671   7.6573   7.7400   7.9411   8.0198

     occupation numbers 
     1.0000   1.0000   1.0000   1.0000   1.0000   1.0000   1.0000   1.0000
     1.0000   1.0000   1.0000   1.0000   1.0000   1.0000   1.0000   1.0000
     1.0000   1.0000   1.0000   1.0000   1.0000   1.0000   1.0000   1.0000
     1.0000   1.0000   1.0000   1.0000   1.0000   1.0000   1.0000   1.0000
     0.2504   0.0000   0.0000   0.0000   0.0000   0.0000

          k =-0.1760-0.5330 0.5234 (  7546 PWs)   bands (ev):

    -5.2398  -4.7660  -4.1854  -3.6708  -3.5499  -3.0497  -2.4279  -2.2425
    -1.0311  -0.7455  -0.4246   0.1529   0.5033   1.2981   1.4016   1.8348
     1.9980   2.1323   2.6372   2.7634   2.8642   3.0464   3.2187   3.4063
     3.7747   4.0055   4.1873   4.2843   4.4223   4.9849   5.2363   5.6749
     7.3132   7.6818   7.9608   8.2728   8.4019   8.6019

     occupation numbers 
     1.0000   1.0000   1.0000   1.0000   1.0000   1.0000   1.0000   1.0000
     1.0000   1.0000   1.0000   1.0000   1.0000   1.0000   1.0000   1.0000
     1.0000   1.0000   1.0000   1.0000   1.0000   1.0000   1.0000   1.0000
     1.0000   1.0000   1.0000   1.0000   1.0000   1.0000   1.0000   1.0000
     0.0000   0.0000   0.0000   0.0000   0.0000   0.0000

          k = 0.0007-0.3548 0.3493 (  7545 PWs)   bands (ev):

    -5.4455  -4.4686  -4.3569  -3.3922  -3.2403  -3.1177  -2.7737  -2.0842
    -1.0672  -0.9509  -0.6099   0.0023   0.4244   0.7699   0.9774   1.7474
     2.4284   2.5075   2.7483   2.9060   3.2541   3.3392   3.5388   3.6236
     3.8502   4.0608   4.2931   4.3569   4.5184   4.8013   4.9900   6.1084
     7.1106   7.7592   7.8987   8.0499   8.1578   8.3955

     occupation numbers 
     1.0000   1.0000   1.0000   1.0000   1.0000   1.0000   1.0000   1.0000
     1.0000   1.0000   1.0000   1.0000   1.0000   1.0000   1.0000   1.0000
     1.0000   1.0000   1.0000   1.0000   1.0000   1.0000   1.0000   1.0000
     1.0000   1.0000   1.0000   1.0000   1.0000   1.0000   1.0000   0.9918
     0.0000   0.0000   0.0000   0.0000   0.0000   0.0000

          k =-0.3547 0.3533-0.3507 (  7548 PWs)   bands (ev):

    -5.3468  -4.9663  -3.6328  -3.3794  -3.3040  -3.0708  -2.8239  -2.6679
    -0.7128  -0.5346  -0.4631  -0.3007  -0.1977   0.4307   1.9399   2.1403
     2.2901   2.3759   2.6016   2.6674   2.9437   3.3769   3.4843   3.6937
     3.8104   3.8772   4.2891   4.3848   5.1257   5.1893   5.3210   6.2015
     7.0941   7.1984   7.3227   7.4214   7.6826   7.7396

     occupation numbers 
     1.0000   1.0000   1.0000   1.0000   1.0000   1.0000   1.0000   1.0000
     1.0000   1.0000   1.0000   1.0000   1.0000   1.0000   1.0000   1.0000
     1.0000   1.0000   1.0000   1.0000   1.0000   1.0000   1.0000   1.0000
     1.0000   1.0000   1.0000   1.0000   1.0000   1.0000   1.0000   0.9605
     0.0000   0.0000   0.0000   0.0000   0.0000   0.0000

          k =-0.1780 0.5314-0.5247 (  7547 PWs)   bands (ev):

    -5.2816  -4.6653  -4.2560  -3.6695  -3.5564  -3.0141  -2.3808  -2.2459
    -1.0575  -0.7885  -0.5287   0.1275   0.5334   1.1294   1.4855   1.9153
     2.0239   2.2209   2.6322   2.7528   2.9770   3.1677   3.2609   3.5637
     3.7092   3.9064   4.1956   4.3764   4.5535   4.7350   4.8783   5.7908
     7.2221   7.7443   7.9951   8.1572   8.2508   8.6753

     occupation numbers 
     1.0000   1.0000   1.0000   1.0000   1.0000   1.0000   1.0000   1.0000
     1.0000   1.0000   1.0000   1.0000   1.0000   1.0000   1.0000   1.0000
     1.0000   1.0000   1.0000   1.0000   1.0000   1.0000   1.0000   1.0000
     1.0000   1.0000   1.0000   1.0000   1.0000   1.0000   1.0000   1.0000
     0.0000   0.0000   0.0000   0.0000   0.0000   0.0000

          k =-0.7081-0.0031-0.0026 (  7544 PWs)   bands (ev):

    -5.0020  -4.8529  -4.1055  -3.8598  -3.7422  -3.5915  -1.7500  -1.6584
    -1.4922  -1.2979   0.4799   0.6140   0.6240   0.8575   1.9256   1.9618
     2.0931   2.2289   2.3197   2.4036   2.4730   2.6510   2.6843   2.8917
     4.0432   4.1210   4.2126   4.3094   4.8415   4.9524   5.0721   5.3411
     7.0569   7.0711   8.1694   8.3125   8.3796   8.4682

     occupation numbers 
     1.0000   1.0000   1.0000   1.0000   1.0000   1.0000   1.0000   1.0000
     1.0000   1.0000   1.0000   1.0000   1.0000   1.0000   1.0000   1.0000
     1.0000   1.0000   1.0000   1.0000   1.0000   1.0000   1.0000   1.0000
     1.0000   1.0000   1.0000   1.0000   1.0000   1.0000   1.0000   1.0000
     0.0000   0.0000   0.0000   0.0000   0.0000   0.0000

          k =-0.1787 0.1761 0.1761 (  7546 PWs)   bands (ev):

    -5.7593  -4.2264  -3.6714  -3.5640  -3.4361  -2.7065  -2.5946  -2.3472
    -1.1864  -0.9087  -0.7009  -0.5343  -0.2497  -0.0890   0.1748   2.3908
     2.5738   2.6920   3.3265   3.3579   3.5136   3.6096   3.7843   3.8941
     4.3267   4.5818   4.6838   4.7208   5.1022   5.3777   5.9634   6.3106
     6.7379   6.8331   7.0141   7.5898   7.6979   7.9051

     occupation numbers 
     1.0000   1.0000   1.0000   1.0000   1.0000   1.0000   1.0000   1.0000
     1.0000   1.0000   1.0000   1.0000   1.0000   1.0000   1.0000   1.0000
     1.0000   1.0000   1.0000   1.0000   1.0000   1.0000   1.0000   1.0000
     1.0000   1.0000   1.0000   1.0000   1.0000   1.0000   0.9997   0.8413
     0.0249   0.0044   0.0001   0.0000   0.0000   0.0000

          k =-0.0020 0.3542 0.0021 (  7554 PWs)   bands (ev):

    -5.6923  -4.0130  -3.9073  -3.7297  -3.5791  -3.2493  -1.8837  -1.7110
    -1.5551  -1.4063  -0.5554  -0.3807  -0.1842  -0.0693   0.7413   2.5372
     2.5814   2.6545   2.7101   3.3035   3.5187   3.6046   3.6367   3.8373
     3.8766   4.5347   4.7736   4.9631   5.0081   5.1150   5.2308   5.9206
     6.5760   7.2731   7.6591   7.8111   7.9007   7.9498

     occupation numbers 
     1.0000   1.0000   1.0000   1.0000   1.0000   1.0000   1.0000   1.0000
     1.0000   1.0000   1.0000   1.0000   1.0000   1.0000   1.0000   1.0000
     1.0000   1.0000   1.0000   1.0000   1.0000   1.0000   1.0000   1.0000
     1.0000   1.0000   1.0000   1.0000   1.0000   1.0000   1.0000   0.9999
     0.2006   0.0000   0.0000   0.0000   0.0000   0.0000

          k =-0.5320-0.1803 0.5241 (  7547 PWs)   bands (ev):

    -5.2521  -4.7494  -4.0885  -3.8571  -3.5631  -2.8597  -2.4891  -2.2671
    -0.8908  -0.8022  -0.6443   0.2959   0.5464   1.1134   1.4475   1.8068
     1.9556   2.2488   2.6035   2.7444   3.0288   3.1699   3.2508   3.4315
     3.8195   3.9707   4.0313   4.2273   4.4994   4.8187   5.0058   5.9290
     7.2730   7.7427   8.0690   8.2248   8.4382   8.5749

     occupation numbers 
     1.0000   1.0000   1.0000   1.0000   1.0000   1.0000   1.0000   1.0000
     1.0000   1.0000   1.0000   1.0000   1.0000   1.0000   1.0000   1.0000
     1.0000   1.0000   1.0000   1.0000   1.0000   1.0000   1.0000   1.0000
     1.0000   1.0000   1.0000   1.0000   1.0000   1.0000   1.0000   0.9999
     0.0000   0.0000   0.0000   0.0000   0.0000   0.0000

          k =-0.3554-0.0021 0.3501 (  7537 PWs)   bands (ev):

    -5.4403  -4.5241  -4.2166  -3.5522  -3.3110  -3.0058  -2.8210  -2.0603
    -1.3445  -0.6772  -0.4362   0.1685   0.3951   0.7822   0.9647   1.6727
     2.3927   2.4659   2.7012   2.8253   3.0931   3.1935   3.3359   3.7496
     3.8862   4.0497   4.2307   4.3613   4.7517   4.8079   4.9800   6.3269
     7.1985   7.7460   7.9159   8.1227   8.3032   8.4792

     occupation numbers 
     1.0000   1.0000   1.0000   1.0000   1.0000   1.0000   1.0000   1.0000
     1.0000   1.0000   1.0000   1.0000   1.0000   1.0000   1.0000   1.0000
     1.0000   1.0000   1.0000   1.0000   1.0000   1.0000   1.0000   1.0000
     1.0000   1.0000   1.0000   1.0000   1.0000   1.0000   1.0000   0.8125
     0.0000   0.0000   0.0000   0.0000   0.0000   0.0000

          k =-0.0013-0.0006 0.3514 (  7565 PWs)   bands (ev):

    -5.6954  -4.0622  -3.8973  -3.6612  -3.5502  -3.2929  -1.8465  -1.8259
    -1.6062  -1.2983  -0.5490  -0.3473  -0.1701   0.1341   0.4703   2.4426
     2.5417   2.6846   2.7822   3.3010   3.3948   3.4887   3.6552   3.8435
     3.9392   4.5030   4.7804   4.8581   5.0994   5.2048   5.6531   5.8653
     6.5879   7.2727   7.4956   7.8216   7.9252   7.9701

     occupation numbers 
     1.0000   1.0000   1.0000   1.0000   1.0000   1.0000   1.0000   1.0000
     1.0000   1.0000   1.0000   1.0000   1.0000   1.0000   1.0000   1.0000
     1.0000   1.0000   1.0000   1.0000   1.0000   1.0000   1.0000   1.0000
     1.0000   1.0000   1.0000   1.0000   1.0000   1.0000   1.0000   1.0000
     0.1782   0.0000   0.0000   0.0000   0.0000   0.0000

          k = 0.1754 0.1776 0.1774 (  7548 PWs)   bands (ev):

    -5.7588  -4.2956  -3.7058  -3.5351  -3.3354  -2.5999  -2.5462  -2.3936
    -1.0960  -0.9287  -0.7460  -0.6489  -0.6105  -0.2381   0.4558   2.5918
     2.6094   2.7601   3.2520   3.2884   3.4625   3.7728   3.9951   4.1789
     4.4002   4.4955   4.6387   4.8664   5.0592   5.2321   5.5980   6.2100
     6.5537   6.7728   6.9722   7.4984   7.7532   7.8663

     occupation numbers 
     1.0000   1.0000   1.0000   1.0000   1.0000   1.0000   1.0000   1.0000
     1.0000   1.0000   1.0000   1.0000   1.0000   1.0000   1.0000   1.0000
     1.0000   1.0000   1.0000   1.0000   1.0000   1.0000   1.0000   1.0000
     1.0000   1.0000   1.0000   1.0000   1.0000   1.0000   1.0000   0.9551
     0.2467   0.0138   0.0002   0.0000   0.0000   0.0000

          k =-0.3547-0.3569 0.6994 (  7548 PWs)   bands (ev):

    -5.4337  -4.5580  -4.2908  -3.3545  -3.2571  -3.1191  -2.7543  -2.1067
    -1.0861  -0.9547  -0.5500  -0.0377   0.3427   0.7098   1.0809   1.7154
     2.4635   2.5737   2.7632   2.9297   3.1501   3.4159   3.5510   3.6865
     3.9201   4.1039   4.2404   4.3445   4.4842   4.6728   5.0427   6.0596
     7.0506   7.6552   7.9169   8.1024   8.2698   8.3823

     occupation numbers 
     1.0000   1.0000   1.0000   1.0000   1.0000   1.0000   1.0000   1.0000
     1.0000   1.0000   1.0000   1.0000   1.0000   1.0000   1.0000   1.0000
     1.0000   1.0000   1.0000   1.0000   1.0000   1.0000   1.0000   1.0000
     1.0000   1.0000   1.0000   1.0000   1.0000   1.0000   1.0000   0.9969
     0.0000   0.0000   0.0000   0.0000   0.0000   0.0000

          k =-0.1780-0.1788 0.5254 (  7548 PWs)   bands (ev):

    -5.2568  -4.7399  -4.2176  -3.6085  -3.5584  -3.0865  -2.4300  -2.2115
    -1.0705  -0.7713  -0.2572   0.0753   0.4480   1.2052   1.4748   1.8460
     2.0023   2.1067   2.5361   2.7494   2.9158   3.0467   3.2190   3.3507
     3.8425   4.0022   4.1063   4.3103   4.6124   4.9676   5.2698   5.7304
     7.2970   7.6756   7.9802   8.2151   8.4107   8.6265

     occupation numbers 
     1.0000   1.0000   1.0000   1.0000   1.0000   1.0000   1.0000   1.0000
     1.0000   1.0000   1.0000   1.0000   1.0000   1.0000   1.0000   1.0000
     1.0000   1.0000   1.0000   1.0000   1.0000   1.0000   1.0000   1.0000
     1.0000   1.0000   1.0000   1.0000   1.0000   1.0000   1.0000   1.0000
     0.0000   0.0000   0.0000   0.0000   0.0000   0.0000

          k =-0.5334 0.5293-0.1746 (  7550 PWs)   bands (ev):

    -5.2907  -4.6961  -4.1013  -3.8456  -3.5554  -2.9062  -2.4655  -2.1847
    -0.9517  -0.8763  -0.6072   0.1814   0.6099   0.9935   1.4925   1.8507
     1.9649   2.3468   2.5414   2.8200   2.9761   3.1101   3.3313   3.5627
     3.6829   3.9113   4.1121   4.4538   4.5614   4.7080   5.0136   5.8449
     7.1839   7.7812   7.9682   8.1764   8.3326   8.6206

     occupation numbers 
     1.0000   1.0000   1.0000   1.0000   1.0000   1.0000   1.0000   1.0000
     1.0000   1.0000   1.0000   1.0000   1.0000   1.0000   1.0000   1.0000
     1.0000   1.0000   1.0000   1.0000   1.0000   1.0000   1.0000   1.0000
     1.0000   1.0000   1.0000   1.0000   1.0000   1.0000   1.0000   1.0000
     0.0000   0.0000   0.0000   0.0000   0.0000   0.0000

          k =-0.3567 0.7075-0.3486 (  7543 PWs)   bands (ev):

    -5.4537  -4.5090  -4.2793  -3.5215  -3.2533  -2.9188  -2.7405  -2.2108
    -1.0184  -0.8494  -0.7267  -0.0373   0.1061   0.8434   1.0647   1.8296
     2.4274   2.5083   2.9024   3.0513   3.1901   3.3764   3.5923   3.8096
     3.9696   4.1093   4.2111   4.3220   4.5634   4.6738   4.9432   5.6153
     6.9882   7.7616   7.8705   8.0147   8.0755   8.4142

     occupation numbers 
     1.0000   1.0000   1.0000   1.0000   1.0000   1.0000   1.0000   1.0000
     1.0000   1.0000   1.0000   1.0000   1.0000   1.0000   1.0000   1.0000
     1.0000   1.0000   1.0000   1.0000   1.0000   1.0000   1.0000   1.0000
     1.0000   1.0000   1.0000   1.0000   1.0000   1.0000   1.0000   1.0000
     0.0001   0.0000   0.0000   0.0000   0.0000   0.0000

          k =-0.8867 0.1730 0.1734 (  7545 PWs)   bands (ev):

    -5.2640  -4.7321  -4.1470  -3.7528  -3.5915  -2.9142  -2.4285  -2.2308
    -1.0001  -0.8556  -0.5310   0.2059   0.4141   1.0533   1.4923   1.7697
     2.0679   2.4754   2.6483   2.8091   3.0482   3.1427   3.3290   3.5233
     3.7393   3.8588   4.1240   4.4129   4.5404   4.6777   4.8926   5.6490
     7.1707   7.7576   7.9714   8.1869   8.3049   8.5910

     occupation numbers 
     1.0000   1.0000   1.0000   1.0000   1.0000   1.0000   1.0000   1.0000
     1.0000   1.0000   1.0000   1.0000   1.0000   1.0000   1.0000   1.0000
     1.0000   1.0000   1.0000   1.0000   1.0000   1.0000   1.0000   1.0000
     1.0000   1.0000   1.0000   1.0000   1.0000   1.0000   1.0000   1.0000
     0.0000   0.0000   0.0000   0.0000   0.0000   0.0000

          k =-0.7100 0.3511-0.0006 (  7530 PWs)   bands (ev):

    -4.9669  -4.6512  -4.5951  -4.2023  -3.0944  -2.8903  -2.5316  -2.4313
    -0.8274  -0.6517  -0.2880  -0.0369   1.4445   1.4891   1.6835   1.7699
     1.9157   1.9787   2.0986   2.2333   3.0638   3.1532   3.2747   3.3429
     3.5412   3.7172   3.8752   3.9584   4.4562   4.6931   5.0523   5.3044
     8.0778   8.1782   8.3923   8.4482   8.6545   8.8397

     occupation numbers 
     1.0000   1.0000   1.0000   1.0000   1.0000   1.0000   1.0000   1.0000
     1.0000   1.0000   1.0000   1.0000   1.0000   1.0000   1.0000   1.0000
     1.0000   1.0000   1.0000   1.0000   1.0000   1.0000   1.0000   1.0000
     1.0000   1.0000   1.0000   1.0000   1.0000   1.0000   1.0000   1.0000
     0.0000   0.0000   0.0000   0.0000   0.0000   0.0000

          k =-0.3560 0.3527 0.0007 (  7540 PWs)   bands (ev):

    -5.4547  -4.4978  -4.2004  -3.6104  -3.3210  -2.9727  -2.7684  -2.0495
    -1.2435  -0.8593  -0.5989   0.2348   0.4310   0.6267   1.0630   1.7416
     2.4075   2.5329   2.7382   2.8546   3.1757   3.3299   3.4831   3.5900
     3.8778   4.1343   4.1855   4.3516   4.5515   4.7774   5.0386   6.2004
     7.0794   7.6369   7.9392   8.1322   8.3080   8.4330

     occupation numbers 
     1.0000   1.0000   1.0000   1.0000   1.0000   1.0000   1.0000   1.0000
     1.0000   1.0000   1.0000   1.0000   1.0000   1.0000   1.0000   1.0000
     1.0000   1.0000   1.0000   1.0000   1.0000   1.0000   1.0000   1.0000
     1.0000   1.0000   1.0000   1.0000   1.0000   1.0000   1.0000   0.9611
     0.0000   0.0000   0.0000   0.0000   0.0000   0.0000

          k =-0.1793 0.5309-0.1733 (  7545 PWs)   bands (ev):

    -5.2864  -4.6732  -4.2098  -3.7414  -3.4907  -3.0712  -2.3758  -2.2247
    -0.9760  -0.8622  -0.3350   0.0331   0.1660   1.3079   1.5662   1.9415
     2.0342   2.2194   2.7056   2.8234   2.9944   3.1334   3.1673   3.5875
     3.7159   3.8257   4.1093   4.4356   4.6345   4.6986   5.1979   5.3614
     7.2182   7.6276   7.9092   8.2144   8.3920   8.6520

     occupation numbers 
     1.0000   1.0000   1.0000   1.0000   1.0000   1.0000   1.0000   1.0000
     1.0000   1.0000   1.0000   1.0000   1.0000   1.0000   1.0000   1.0000
     1.0000   1.0000   1.0000   1.0000   1.0000   1.0000   1.0000   1.0000
     1.0000   1.0000   1.0000   1.0000   1.0000   1.0000   1.0000   1.0000
     0.0000   0.0000   0.0000   0.0000   0.0000   0.0000

          k =-0.7094-0.0037 0.3487 (  7518 PWs)   bands (ev):

    -4.9726  -4.6636  -4.4867  -4.3162  -3.0178  -2.8389  -2.6441  -2.4751
    -0.7319  -0.5302  -0.3677  -0.1900   1.3405   1.5435   1.6757   1.8218
     1.8442   2.0712   2.2381   2.4347   3.0213   3.1365   3.2647   3.4230
     3.5043   3.5807   3.7492   4.0038   4.5092   4.7292   4.8368   5.2710
     8.2029   8.2240   8.3658   8.4620   8.6586   8.7321

     occupation numbers 
     1.0000   1.0000   1.0000   1.0000   1.0000   1.0000   1.0000   1.0000
     1.0000   1.0000   1.0000   1.0000   1.0000   1.0000   1.0000   1.0000
     1.0000   1.0000   1.0000   1.0000   1.0000   1.0000   1.0000   1.0000
     1.0000   1.0000   1.0000   1.0000   1.0000   1.0000   1.0000   1.0000
     0.0000   0.0000   0.0000   0.0000   0.0000   0.0000

          k =-0.5327 0.1745 0.1747 (  7545 PWs)   bands (ev):

    -5.2787  -4.6505  -4.1860  -3.7437  -3.6451  -2.9402  -2.4461  -2.2969
    -1.0528  -0.7843  -0.2476   0.2691   0.3999   1.2856   1.4658   1.8627
     1.9797   2.0800   2.5864   2.7689   2.8280   3.0659   3.1800   3.3463
     3.8098   3.9106   4.2185   4.2963   4.4784   4.9396   5.3282   5.6106
     7.2656   7.6704   7.9602   8.2442   8.4444   8.6782

     occupation numbers 
     1.0000   1.0000   1.0000   1.0000   1.0000   1.0000   1.0000   1.0000
     1.0000   1.0000   1.0000   1.0000   1.0000   1.0000   1.0000   1.0000
     1.0000   1.0000   1.0000   1.0000   1.0000   1.0000   1.0000   1.0000
     1.0000   1.0000   1.0000   1.0000   1.0000   1.0000   1.0000   1.0000
     0.0000   0.0000   0.0000   0.0000   0.0000   0.0000

          k = 0.3573-0.3521-0.3521 (  7550 PWs)   bands (ev):

    -5.3513  -4.9127  -3.6096  -3.4374  -3.3467  -3.0566  -2.8899  -2.7818
    -0.8339  -0.4196  -0.3305  -0.0564   0.2441   0.3960   1.8189   2.0922
     2.2271   2.3213   2.4642   2.4917   2.6430   2.7036   3.6820   3.7691
     3.8828   4.0966   4.2018   4.2730   5.2706   5.4311   5.5875   6.0342
     7.1169   7.2572   7.3975   7.6003   7.6700   7.8437

     occupation numbers 
     1.0000   1.0000   1.0000   1.0000   1.0000   1.0000   1.0000   1.0000
     1.0000   1.0000   1.0000   1.0000   1.0000   1.0000   1.0000   1.0000
     1.0000   1.0000   1.0000   1.0000   1.0000   1.0000   1.0000   1.0000
     1.0000   1.0000   1.0000   1.0000   1.0000   1.0000   1.0000   0.9982
     0.0000   0.0000   0.0000   0.0000   0.0000   0.0000

          k = 0.5340-0.1739-0.5261 (  7541 PWs)   bands (ev):

    -5.2896  -4.6065  -4.2047  -3.8552  -3.5587  -2.8727  -2.4985  -2.3114
    -0.8925  -0.8128  -0.5142   0.3318   0.4886   1.2581   1.4548   1.7845
     1.9538   2.2177   2.5597   2.7315   2.9723   3.1146   3.2144   3.3555
     3.8384   3.9820   4.0231   4.2180   4.4784   4.9465   5.0872   5.8498
     7.2790   7.7644   7.9936   8.1986   8.4772   8.6213

     occupation numbers 
     1.0000   1.0000   1.0000   1.0000   1.0000   1.0000   1.0000   1.0000
     1.0000   1.0000   1.0000   1.0000   1.0000   1.0000   1.0000   1.0000
     1.0000   1.0000   1.0000   1.0000   1.0000   1.0000   1.0000   1.0000
     1.0000   1.0000   1.0000   1.0000   1.0000   1.0000   1.0000   1.0000
     0.0000   0.0000   0.0000   0.0000   0.0000   0.0000

          k = 0.0040-0.7085-0.0041 (  7544 PWs)   bands (ev):

    -5.0758  -4.7401  -4.0874  -3.9901  -3.7104  -3.5487  -1.7845  -1.6013
    -1.4592  -1.3135   0.3363   0.4432   0.6672   0.9518   1.8986   1.9880
     2.1517   2.1920   2.3113   2.3901   2.5923   2.6493   2.8920   2.9847
     3.9201   4.2001   4.2620   4.4124   4.5207   4.8039   4.9575   5.4790
     6.9832   7.1260   8.1134   8.3353   8.3521   8.4589

     occupation numbers 
     1.0000   1.0000   1.0000   1.0000   1.0000   1.0000   1.0000   1.0000
     1.0000   1.0000   1.0000   1.0000   1.0000   1.0000   1.0000   1.0000
     1.0000   1.0000   1.0000   1.0000   1.0000   1.0000   1.0000   1.0000
     1.0000   1.0000   1.0000   1.0000   1.0000   1.0000   1.0000   1.0000
     0.0001   0.0000   0.0000   0.0000   0.0000   0.0000

          k = 0.5347-0.5287-0.1768 (  7545 PWs)   bands (ev):

    -5.2895  -4.6567  -4.1053  -3.8803  -3.5615  -2.9577  -2.4197  -2.2981
    -1.0364  -0.7755  -0.3333   0.2452   0.5421   1.2596   1.3992   1.8235
     1.9337   2.0925   2.5766   2.7179   2.8318   3.0512   3.2509   3.3872
     3.7187   3.9613   4.2087   4.3129   4.4689   5.0292   5.3649   5.6843
     7.2722   7.7601   8.0343   8.1525   8.4271   8.6446

     occupation numbers 
     1.0000   1.0000   1.0000   1.0000   1.0000   1.0000   1.0000   1.0000
     1.0000   1.0000   1.0000   1.0000   1.0000   1.0000   1.0000   1.0000
     1.0000   1.0000   1.0000   1.0000   1.0000   1.0000   1.0000   1.0000
     1.0000   1.0000   1.0000   1.0000   1.0000   1.0000   1.0000   1.0000
     0.0000   0.0000   0.0000   0.0000   0.0000   0.0000

          k = 0.7114-0.3506-0.3508 (  7543 PWs)   bands (ev):

    -5.4525  -4.4250  -4.3266  -3.4894  -3.3768  -2.9500  -2.8069  -2.0773
    -1.1829  -0.8259  -0.5839   0.1228   0.3067   0.6898   1.0914   1.7608
     2.4115   2.5861   2.7935   2.8409   3.1798   3.2640   3.5464   3.6652
     3.9576   4.0611   4.1816   4.4725   4.5305   4.6756   4.9544   6.0629
     7.0346   7.7680   7.8962   8.0707   8.2645   8.4306

     occupation numbers 
     1.0000   1.0000   1.0000   1.0000   1.0000   1.0000   1.0000   1.0000
     1.0000   1.0000   1.0000   1.0000   1.0000   1.0000   1.0000   1.0000
     1.0000   1.0000   1.0000   1.0000   1.0000   1.0000   1.0000   1.0000
     1.0000   1.0000   1.0000   1.0000   1.0000   1.0000   1.0000   0.9967
     0.0000   0.0000   0.0000   0.0000   0.0000   0.0000

          k = 0.1813-0.8851 0.1712 (  7544 PWs)   bands (ev):

    -5.2717  -4.7123  -4.1835  -3.7590  -3.4853  -3.0384  -2.4008  -2.2164
    -0.9911  -0.8452  -0.3577   0.0683   0.1651   1.1509   1.5774   1.8551
     2.0637   2.3582   2.6485   2.9372   3.0719   3.1441   3.2670   3.6199
     3.7315   3.8506   4.1260   4.2908   4.5217   4.6929   5.1682   5.3349
     7.1757   7.5904   8.0568   8.1367   8.4057   8.5967

     occupation numbers 
     1.0000   1.0000   1.0000   1.0000   1.0000   1.0000   1.0000   1.0000
     1.0000   1.0000   1.0000   1.0000   1.0000   1.0000   1.0000   1.0000
     1.0000   1.0000   1.0000   1.0000   1.0000   1.0000   1.0000   1.0000
     1.0000   1.0000   1.0000   1.0000   1.0000   1.0000   1.0000   1.0000
     0.0000   0.0000   0.0000   0.0000   0.0000   0.0000

          k = 0.3580-0.7069-0.0028 (  7536 PWs)   bands (ev):

    -4.9883  -4.6607  -4.5267  -4.2424  -3.1069  -2.7999  -2.6495  -2.3958
    -0.7012  -0.6513  -0.4352  -0.0521   1.3890   1.4610   1.6642   1.7726
     1.8880   2.0048   2.2168   2.3672   3.0579   3.2032   3.2863   3.3820
     3.5604   3.6371   3.7421   3.9381   4.5268   4.7201   4.9119   5.3390
     8.0979   8.2857   8.3846   8.4568   8.5118   8.7762

     occupation numbers 
     1.0000   1.0000   1.0000   1.0000   1.0000   1.0000   1.0000   1.0000
     1.0000   1.0000   1.0000   1.0000   1.0000   1.0000   1.0000   1.0000
     1.0000   1.0000   1.0000   1.0000   1.0000   1.0000   1.0000   1.0000
     1.0000   1.0000   1.0000   1.0000   1.0000   1.0000   1.0000   1.0000
     0.0000   0.0000   0.0000   0.0000   0.0000   0.0000

          k = 0.0027 0.0011-0.7028 (  7542 PWs)   bands (ev):

    -5.0766  -4.7837  -4.1116  -3.7734  -3.7350  -3.6638  -1.7342  -1.6766
    -1.5307  -1.1939   0.3572   0.5011   0.7599   0.8792   1.9486   2.0075
     2.1593   2.1943   2.2634   2.3491   2.3661   2.5481   2.7094   2.7740
     3.9693   4.1038   4.4127   4.4787   4.7669   5.1630   5.2299   5.2969
     7.0231   7.1478   8.1941   8.2564   8.4210   8.5831

     occupation numbers 
     1.0000   1.0000   1.0000   1.0000   1.0000   1.0000   1.0000   1.0000
     1.0000   1.0000   1.0000   1.0000   1.0000   1.0000   1.0000   1.0000
     1.0000   1.0000   1.0000   1.0000   1.0000   1.0000   1.0000   1.0000
     1.0000   1.0000   1.0000   1.0000   1.0000   1.0000   1.0000   1.0000
     0.0000   0.0000   0.0000   0.0000   0.0000   0.0000

          k = 0.1793 0.1793-0.8768 (  7544 PWs)   bands (ev):

    -5.2796  -4.6881  -4.2638  -3.5985  -3.5355  -3.0984  -2.3510  -2.2424
    -0.9907  -0.8064  -0.4918   0.0528   0.3989   1.1009   1.4546   1.9509
     2.1518   2.3787   2.5013   2.6912   2.9306   3.1020   3.3482   3.5761
     3.6574   3.9325   4.3461   4.4073   4.5332   4.7684   4.9765   5.6489
     7.2316   7.6591   7.9989   8.1414   8.2791   8.5209

     occupation numbers 
     1.0000   1.0000   1.0000   1.0000   1.0000   1.0000   1.0000   1.0000
     1.0000   1.0000   1.0000   1.0000   1.0000   1.0000   1.0000   1.0000
     1.0000   1.0000   1.0000   1.0000   1.0000   1.0000   1.0000   1.0000
     1.0000   1.0000   1.0000   1.0000   1.0000   1.0000   1.0000   1.0000
     0.0000   0.0000   0.0000   0.0000   0.0000   0.0000

          k =-0.3507-0.3552-0.3548 (  7548 PWs)   bands (ev):

    -5.3128  -5.0148  -3.6123  -3.4767  -3.2261  -2.9502  -2.8660  -2.7278
    -0.7086  -0.5529  -0.3337  -0.2724  -0.2229   0.1701   1.8431   1.9476
     2.4712   2.6001   2.6642   2.8434   3.1136   3.1738   3.6018   3.6889
     3.8587   3.9702   4.0461   4.3574   5.1120   5.2090   5.2930   5.9795
     6.8599   7.2748   7.3975   7.5299   7.5909   7.7067

     occupation numbers 
     1.0000   1.0000   1.0000   1.0000   1.0000   1.0000   1.0000   1.0000
     1.0000   1.0000   1.0000   1.0000   1.0000   1.0000   1.0000   1.0000
     1.0000   1.0000   1.0000   1.0000   1.0000   1.0000   1.0000   1.0000
     1.0000   1.0000   1.0000   1.0000   1.0000   1.0000   1.0000   0.9995
     0.0025   0.0000   0.0000   0.0000   0.0000   0.0000

     the Fermi energy is     6.4549 ev

!    total energy              =    -152.75462015 Ry
     Harris-Foulkes estimate   =    -152.75462015 Ry
     estimated scf accuracy    <          7.5E-10 Ry

     The total energy is the sum of the following terms:

     one-electron contribution =      40.43717623 Ry
     hartree contribution      =       8.97275150 Ry
     xc contribution           =     -68.21641966 Ry
     ewald contribution        =    -133.94569657 Ry
     smearing contrib. (-TS)   =      -0.00243164 Ry

     convergence has been achieved in  13 iterations

     Forces acting on atoms (Ry/au):

     atom    1 type  1   force =  -0.16269169E-01  0.10489649E+00  0.42003323E-01
     atom    2 type  1   force =   0.40362085E-01 -0.99175687E-01  0.16473454E-03
     atom    3 type  1   force =   0.21450966E-02  0.36200507E-01  0.75905082E-01
     atom    4 type  1   force =  -0.81748176E-01  0.10377667E-01 -0.16002947E-01
     atom    5 type  1   force =  -0.51686784E-01  0.12292292E+00  0.10223889E-01
     atom    6 type  1   force =  -0.27246646E-01 -0.61858679E-01  0.58122060E-02
     atom    7 type  1   force =   0.10084005E-01  0.30613121E-01  0.36087779E-01
     atom    8 type  1   force =  -0.52868443E-01  0.16223567E-01 -0.45069687E-02
     atom    9 type  1   force =   0.39125872E-03  0.60562916E-01  0.55812253E-01
     atom   10 type  1   force =  -0.22105251E-02 -0.57091342E-01 -0.10065132E+00
     atom   11 type  1   force =   0.44720302E-01 -0.13146099E-01  0.11128477E-01
     atom   12 type  1   force =   0.41166908E-01 -0.33796426E-01 -0.39499740E-01
     atom   13 type  1   force =  -0.37880018E-01 -0.64341682E-01 -0.74982355E-01
     atom   14 type  1   force =   0.12946618E+00  0.23904968E-01  0.27000695E-01
     atom   15 type  1   force =  -0.45535062E-01 -0.75286944E-01 -0.61563315E-01
     atom   16 type  1   force =   0.47108990E-01 -0.10052979E-02  0.33068208E-01
     The non-local contrib.  to forces
     atom    1 type  1   force =  -0.50488110E-01  0.10170149E+00  0.32896807E-01
     atom    2 type  1   force =   0.58743678E-01 -0.90257142E-01  0.34754233E-02
     atom    3 type  1   force =   0.14805860E-01  0.36116308E-01  0.90075257E-01
     atom    4 type  1   force =  -0.91275235E-01  0.14363109E-01  0.45091013E-02
     atom    5 type  1   force =  -0.46978522E-01  0.13413859E+00  0.96475883E-02
     atom    6 type  1   force =  -0.36226935E-01 -0.31239723E-01  0.23325849E-01
     atom    7 type  1   force =   0.18140040E-01  0.22140199E-01  0.43683318E-01
     atom    8 type  1   force =  -0.98559088E-01  0.30715528E-01  0.11813157E-01
     atom    9 type  1   force =   0.50249549E-02  0.66457252E-01  0.72405181E-01
     atom   10 type  1   force =   0.20099884E-01 -0.74684114E-01 -0.10938775E+00
     atom   11 type  1   force =   0.29892334E-01 -0.21075241E-01 -0.19481595E-01
     atom   12 type  1   force =   0.51735127E-01 -0.56524974E-01 -0.31007732E-01
     atom   13 type  1   force =  -0.32942834E-01 -0.10306579E+00 -0.81149415E-01
     atom   14 type  1   force =   0.14258370E+00  0.42926091E-01 -0.10360154E-01
     atom   15 type  1   force =  -0.39812312E-01 -0.85396041E-01 -0.51964102E-01
     atom   16 type  1   force =   0.66431078E-01  0.93128436E-02  0.14045056E-01
     The ionic contribution  to forces
     atom    1 type  1   force =  -0.29803408E+00  0.23382309E+00  0.84566342E-01
     atom    2 type  1   force =   0.16945785E+00 -0.17940525E+00  0.21228893E+00
     atom    3 type  1   force =   0.12152256E+00  0.84446544E-01  0.41548889E+00
     atom    4 type  1   force =  -0.35887836E+00  0.73010130E-01  0.25452373E+00
     atom    5 type  1   force =  -0.35585778E+00  0.73124750E+00  0.42279395E-01
     atom    6 type  1   force =  -0.28052444E+00 -0.36182857E-01 -0.82668498E-01
     atom    7 type  1   force =  -0.28764578E-01  0.15910679E+00  0.29714118E+00
     atom    8 type  1   force =  -0.36137422E+00  0.38216658E+00  0.24235035E+00
     atom    9 type  1   force =   0.32196436E+00  0.92791537E-01  0.31500384E+00
     atom   10 type  1   force =   0.74925015E-01 -0.34130861E+00 -0.47710821E+00
     atom   11 type  1   force =   0.23223721E-01 -0.35501475E+00 -0.28380830E+00
     atom   12 type  1   force =   0.25311088E+00 -0.41323178E+00 -0.21464384E+00
     atom   13 type  1   force =   0.10537702E+00 -0.34747005E+00 -0.44904799E+00
     atom   14 type  1   force =   0.49698754E+00  0.25629907E+00  0.36602726E-01
     atom   15 type  1   force =  -0.94650987E-01 -0.24878249E+00 -0.21875467E+00
     atom   16 type  1   force =   0.21151548E+00 -0.91495463E-01 -0.17421388E+00
     The local contribution  to forces
     atom    1 type  1   force =   0.32687017E+00 -0.22172590E+00 -0.72743648E-01
     atom    2 type  1   force =  -0.18259745E+00  0.16227365E+00 -0.21580273E+00
     atom    3 type  1   force =  -0.13188720E+00 -0.81183165E-01 -0.42159636E+00
     atom    4 type  1   force =   0.36022112E+00 -0.76165181E-01 -0.27387818E+00
     atom    5 type  1   force =   0.34621432E+00 -0.72962990E+00 -0.40971214E-01
     atom    6 type  1   force =   0.28610089E+00  0.30202073E-02  0.66900386E-01
     atom    7 type  1   force =   0.23385547E-01 -0.14857066E+00 -0.30012677E+00
     atom    8 type  1   force =   0.39789110E+00 -0.39342989E+00 -0.25654670E+00
     atom    9 type  1   force =  -0.32610850E+00 -0.92384999E-01 -0.32422401E+00
     atom   10 type  1   force =  -0.95146393E-01  0.35171799E+00  0.47616179E+00
     atom   11 type  1   force =  -0.65266518E-02  0.36057401E+00  0.31145608E+00
     atom   12 type  1   force =  -0.25934498E+00  0.42975573E+00  0.20279551E+00
     atom   13 type  1   force =  -0.11236330E+00  0.37679678E+00  0.44796182E+00
     atom   14 type  1   force =  -0.49712275E+00 -0.27114466E+00  0.32385857E-04
     atom   15 type  1   force =   0.84929421E-01  0.25130132E+00  0.20475873E+00
     atom   16 type  1   force =  -0.22449666E+00  0.82743610E-01  0.19376892E+00
     The core correction contribution to forces
     atom    1 type  1   force =   0.53875796E-02 -0.89055421E-02 -0.27164537E-02
     atom    2 type  1   force =  -0.52382347E-02  0.82095289E-02  0.20050366E-03
     atom    3 type  1   force =  -0.22934238E-02 -0.31830352E-02 -0.80672089E-02
     atom    4 type  1   force =   0.81855662E-02 -0.83037956E-03 -0.11640824E-02
     atom    5 type  1   force =   0.49343456E-02 -0.12839199E-01 -0.73718103E-03
     atom    6 type  1   force =   0.34075286E-02  0.25377756E-02 -0.17470703E-02
     atom    7 type  1   force =  -0.26703256E-02 -0.20611179E-02 -0.46107323E-02
     atom    8 type  1   force =   0.91794033E-02 -0.32325957E-02 -0.21276802E-02
     atom    9 type  1   force =  -0.49470040E-03 -0.63001715E-02 -0.73683869E-02
     atom   10 type  1   force =  -0.20952675E-02  0.71871804E-02  0.96849917E-02
     atom   11 type  1   force =  -0.18691186E-02  0.23731125E-02  0.29657387E-02
     atom   12 type  1   force =  -0.43374024E-02  0.62122194E-02  0.33574084E-02
     atom   13 type  1   force =   0.20448448E-02  0.94015813E-02  0.72581038E-02
     atom   14 type  1   force =  -0.12985093E-01 -0.41724543E-02  0.73363654E-03
     atom   15 type  1   force =   0.39927345E-02  0.75916710E-02  0.43958549E-02
     atom   16 type  1   force =  -0.63399919E-02 -0.15627295E-02 -0.52848172E-03
     The Hubbard contrib.    to forces
     atom    1 type  1   force =   0.00000000E+00  0.00000000E+00  0.00000000E+00
     atom    2 type  1   force =   0.00000000E+00  0.00000000E+00  0.00000000E+00
     atom    3 type  1   force =   0.00000000E+00  0.00000000E+00  0.00000000E+00
     atom    4 type  1   force =   0.00000000E+00  0.00000000E+00  0.00000000E+00
     atom    5 type  1   force =   0.00000000E+00  0.00000000E+00  0.00000000E+00
     atom    6 type  1   force =   0.00000000E+00  0.00000000E+00  0.00000000E+00
     atom    7 type  1   force =   0.00000000E+00  0.00000000E+00  0.00000000E+00
     atom    8 type  1   force =   0.00000000E+00  0.00000000E+00  0.00000000E+00
     atom    9 type  1   force =   0.00000000E+00  0.00000000E+00  0.00000000E+00
     atom   10 type  1   force =   0.00000000E+00  0.00000000E+00  0.00000000E+00
     atom   11 type  1   force =   0.00000000E+00  0.00000000E+00  0.00000000E+00
     atom   12 type  1   force =   0.00000000E+00  0.00000000E+00  0.00000000E+00
     atom   13 type  1   force =   0.00000000E+00  0.00000000E+00  0.00000000E+00
     atom   14 type  1   force =   0.00000000E+00  0.00000000E+00  0.00000000E+00
     atom   15 type  1   force =   0.00000000E+00  0.00000000E+00  0.00000000E+00
     atom   16 type  1   force =   0.00000000E+00  0.00000000E+00  0.00000000E+00
     The SCF correction term to forces
     atom    1 type  1   force =  -0.47288225E-05  0.34107247E-05  0.20929983E-06
     atom    2 type  1   force =  -0.37516391E-05  0.35954357E-05  0.25430744E-05
     atom    3 type  1   force =  -0.27020145E-05  0.39211177E-05  0.44358545E-05
     atom    4 type  1   force =  -0.12662453E-05  0.53290302E-07  0.64099286E-05
     atom    5 type  1   force =   0.85404951E-06  0.59934873E-05  0.52345945E-05
     atom    6 type  1   force =  -0.36871893E-05  0.59832790E-05  0.14724794E-05
     atom    7 type  1   force =  -0.66744765E-05 -0.20202163E-05  0.72142701E-06
     atom    8 type  1   force =  -0.56412680E-05  0.40144189E-05  0.38354970E-05
     atom    9 type  1   force =   0.51507800E-05 -0.63670694E-06 -0.44417643E-05
     atom   10 type  1   force =   0.62400865E-05 -0.37238623E-05 -0.22161636E-05
     atom   11 type  1   force =   0.22163854E-07 -0.31629287E-05 -0.35065700E-05
     atom   12 type  1   force =   0.32942541E-05 -0.75612116E-05 -0.11569246E-05
     atom   13 type  1   force =   0.42491210E-05 -0.41406138E-05 -0.49441633E-05
     atom   14 type  1   force =   0.27854257E-05 -0.30102433E-05 -0.79661916E-05
     atom   15 type  1   force =   0.60848104E-05 -0.13397311E-05  0.80721181E-06
     atom   16 type  1   force =  -0.91579581E-06 -0.34938154E-05 -0.34804229E-05

     Total force =     0.370817     Total SCF correction =     0.000028


     entering subroutine stress ...

          total   stress  (Ry/bohr**3)                   (kbar)     P=   16.38
   0.0001192786  -0.0000732123  -0.0001663869         17.55    -10.77    -24.48
  -0.0000732123   0.0001024259   0.0001084221        -10.77     15.07     15.95
  -0.0001663869   0.0001084221   0.0001123828        -24.48     15.95     16.53

     kinetic stress (kbar)   2200.71      2.31     14.71
                                2.31   2203.79      2.76
                               14.71      2.76   2193.88

     local   stress (kbar)   -297.10     46.90    195.43
                               46.90   -256.67     -4.71
                              195.43     -4.71   -347.36

     nonloc. stress (kbar)   1954.41     -7.43    -25.65
                               -7.43   1950.98      6.03
                              -25.65      6.03   1959.61

     hartree stress (kbar)    204.63     -1.43    -18.40
                               -1.43    197.47     -5.07
                              -18.40     -5.07    209.75

     exc-cor stress (kbar)    996.95     -0.07     -0.27
                               -0.07    996.88      0.03
                               -0.27      0.03    997.02

     corecor stress (kbar)  -1993.96      0.89      3.04
                                0.89  -1993.56     -0.65
                                3.04     -0.65  -1994.60

     ewald   stress (kbar)  -3048.09    -51.93   -193.34
                              -51.93  -3083.82     17.57
                             -193.34     17.57  -3001.76

     hubbard stress (kbar)      0.00      0.00      0.00
                                0.00      0.00      0.00
                                0.00      0.00      0.00

     london  stress (kbar)      0.00      0.00      0.00
                                0.00      0.00      0.00
                                0.00      0.00      0.00

     XDM     stress (kbar)      0.00      0.00      0.00
                                0.00      0.00      0.00
                                0.00      0.00      0.00

     dft-nl  stress (kbar)      0.00      0.00      0.00
                                0.00      0.00      0.00
                                0.00      0.00      0.00



     Writing output data file Si_diamond.scf.in.super.222.largdist.033.save

     init_run     :     16.37s CPU     16.03s WALL (       1 calls)
     electrons    :    503.98s CPU    499.42s WALL (       1 calls)
     forces       :      8.13s CPU      6.60s WALL (       1 calls)
     stress       :     20.14s CPU     19.74s WALL (       1 calls)

     Called by init_run:
     wfcinit      :     13.87s CPU     13.45s WALL (       1 calls)
     potinit      :      0.53s CPU      0.58s WALL (       1 calls)

     Called by electrons:
     c_bands      :    424.51s CPU    420.48s WALL (      14 calls)
     sum_band     :     68.49s CPU     67.68s WALL (      14 calls)
     v_of_rho     :      1.34s CPU      1.40s WALL (      14 calls)
     v_h          :      0.08s CPU      0.09s WALL (      14 calls)
     v_xc         :      1.42s CPU      1.48s WALL (      16 calls)
     newd         :      9.12s CPU      9.31s WALL (      14 calls)
     mix_rho      :      1.12s CPU      1.16s WALL (      14 calls)

     Called by c_bands:
     init_us_2    :      6.23s CPU      6.47s WALL (    1116 calls)
     cegterg      :    400.55s CPU    395.54s WALL (     504 calls)

     Called by sum_band:
     sum_band:bec :      0.51s CPU      0.49s WALL (     504 calls)
     addusdens    :      9.57s CPU      9.70s WALL (      14 calls)

     Called by *egterg:
     h_psi        :    265.96s CPU    259.15s WALL (    2003 calls)
     s_psi        :     29.73s CPU     23.32s WALL (    2003 calls)
     g_psi        :      0.74s CPU      0.81s WALL (    1463 calls)
     cdiaghg      :     25.09s CPU     27.28s WALL (    1931 calls)
     cegterg:over :     42.13s CPU     44.18s WALL (    1463 calls)
     cegterg:upda :     12.56s CPU     12.66s WALL (    1463 calls)
     cegterg:last :      4.97s CPU      4.56s WALL (     533 calls)

     Called by h_psi:
     h_psi:vloc   :    185.75s CPU    189.49s WALL (    2003 calls)
     h_psi:vnl    :     79.60s CPU     69.10s WALL (    2003 calls)
     add_vuspsi   :     30.88s CPU     25.09s WALL (    2003 calls)

     General routines
     calbec       :     70.50s CPU     63.17s WALL (    2579 calls)
     fft          :      1.62s CPU      1.64s WALL (     249 calls)
     ffts         :      0.60s CPU      0.62s WALL (     250 calls)
     fftw         :    195.73s CPU    199.51s WALL (  125478 calls)
     interpolate  :      0.28s CPU      0.28s WALL (      28 calls)

     Parallel routines
     fft_scatter  :     94.77s CPU     96.88s WALL (  125977 calls)

     PWSCF        :  9m10.07s CPU     9m 3.61s WALL


   This run was terminated on:  11:53:56  27Sep2017            

=------------------------------------------------------------------------------=
   JOB DONE.
=------------------------------------------------------------------------------=
