
     Program PWSCF v.5.1 starts on  4Apr2018 at 20: 1:31 

     This program is part of the open-source Quantum ESPRESSO suite
     for quantum simulation of materials; please cite
         "P. Giannozzi et al., J. Phys.:Condens. Matter 21 395502 (2009);
          URL http://www.quantum-espresso.org", 
     in publications or presentations arising from this work. More details at
     http://www.quantum-espresso.org/quote

     Parallel version (MPI), running on    16 processors
     R & G space division:  proc/nbgrp/npool/nimage =      16
     Waiting for input...
     Reading input from standard input
Warning: card &IONS ignored
Warning: card   ION_DYNAMICS='BFGS', ignored
Warning: card / ignored
Warning: card &CELL ignored
Warning: card  CELL_DYNAMICS = 'BFGS' ignored
Warning: card / ignored

     Current dimensions of program PWSCF are:
     Max number of different atomic species (ntypx) = 10
     Max number of k-points (npk) =  40000
     Max angular momentum in pseudopotentials (lmaxx) =  3
 kfg - two_fermi_energies  F

     Subspace diagonalization in iterative solution of the eigenvalue problem:
     a serial algorithm will be used


     Parallelization info
     --------------------
     sticks:   dense  smooth     PW     G-vecs:    dense   smooth      PW
     Min         188     132     37                 6889     4026     613
     Max         189     133     39                 6892     4043     615
     Sum        3021    2115    597               110249    64565    9821



     bravais-lattice index     =            0
     lattice parameter (alat)  =    14.943013129  a.u.
     unit-cell volume          =    2309.3064 (a.u.)^3
     number of atoms/cell      =           16
     number of atomic types    =            2
     number of electrons       =       144.00
     number of Kohn-Sham states=           86
     kinetic-energy cutoff     =      35.0000  Ry
     charge density cutoff     =     200.0000  Ry
     convergence threshold     =      1.0E-09
     mixing beta               =       0.3000
     number of iterations used =            8  local-TF  mixing
     Exchange-correlation      = SLA  PW   PSX  PSC ( 1  4 10  8 0)
     A smooth kinetic-energy cutoff is imposed at      34.5000 Ry
     height of the smooth step-function =             800.0000 Ry
     width of the smooth step-function  =               1.0000 Ry


     celldm(1)=  14.943013  celldm(2)=   0.000000  celldm(3)=   0.000000
     celldm(4)=   0.000000  celldm(5)=   0.000000  celldm(6)=   0.000000

     crystal axes: (cart. coord. in units of alat)
               a(1) = (   0.001280078634   0.708592101272   0.705617173411 )  
               a(2) = (   0.684625810033  -0.002644512313   0.709541764359 )  
               a(3) = (   0.685825156716   0.713716038903  -0.003843858996 )  

     reciprocal axes: (cart. coord. in units 2 pi/alat)
               b(1) = ( -0.731691  0.706914  0.708632 )  
               b(2) = (  0.731594 -0.699230  0.700851 )  
               b(3) = (  0.729149  0.696688 -0.700948 )  


     PseudoPot. # 1 for Si read from file:
     /users/kfg/psuedo/gbrv_1.5/si.pbesol.UPF
     MD5 check sum: ef58ba74faed4df802eb8a9742fc00a8
     Pseudo is Ultrasoft + core correction, Zval =  4.0
     Generated by new atomic code, or converted to UPF format
     Using radial grid of  899 points,  6 beta functions with: 
                l(1) =   0
                l(2) =   0
                l(3) =   1
                l(4) =   1
                l(5) =   2
                l(6) =   2
     Q(r) pseudized with  8 coefficients,  rinner =    0.900   0.900   0.900
                                                       0.900   0.900

     PseudoPot. # 2 for Ge read from file:
     /users/kfg/psuedo/gbrv_1.5/ge.pbesol.UPF
     MD5 check sum: 7bed0412183f5e553a4d27ec7023354d
     Pseudo is Ultrasoft + core correction, Zval = 14.0
     Generated by new atomic code, or converted to UPF format
     Using radial grid of  873 points,  6 beta functions with: 
                l(1) =   0
                l(2) =   0
                l(3) =   1
                l(4) =   1
                l(5) =   2
                l(6) =   2
     Q(r) pseudized with  8 coefficients,  rinner =    1.400   1.400   1.400
                                                       1.400   1.400

     atomic species   valence    mass     pseudopotential
        Si             4.00    28.08550     Si( 1.00)
        Ge            14.00    72.59000     Ge( 1.00)

     No symmetry found


                                    s                        frac. trans.

      isym =  1     identity                                     

 cryst.   s( 1) = (     1          0          0      )
                  (     0          1          0      )
                  (     0          0          1      )

 cart.    s( 1) = (  1.0000000  0.0000000 -0.0000000 )
                  (  0.0000000  1.0000000  0.0000000 )
                  (  0.0000000 -0.0000000  1.0000000 )


     point group C_1 (1)    
     there are  1 classes
     the character table:

       E    
A      1.00

     the symmetry operations in each class:
     E        1

   Cartesian axes

     site n.     atom                  positions (alat units)
         1           Si  tau(   1) = (   -0.02297297344   -0.00766443256    0.01297508651  )
         2           Ge  tau(   2) = (    0.15670871278    0.18018807843    0.17622957992  )
         3           Si  tau(   3) = (    0.33656624644    0.36393041560   -0.01445366353  )
         4           Ge  tau(   4) = (    0.50935327360    0.51857054046    0.16689825531  )
         5           Si  tau(   5) = (    0.34900557838   -0.00978844729    0.33407278798  )
         6           Ge  tau(   6) = (    0.52493583618    0.16238602396    0.52165170105  )
         7           Si  tau(   7) = (    0.68694747650    0.35884884727    0.35686640824  )
         8           Si  tau(   8) = (    0.86345105114    0.53987071188    0.51795350855  )
         9           Ge  tau(   9) = (   -0.00008023176    0.36485518701    0.36182827820  )
        10           Ge  tau(  10) = (    0.17624236813    0.53815038335    0.55345570477  )
        11           Ge  tau(  11) = (    0.35375350842    0.70835178002    0.35722926280  )
        12           Si  tau(  12) = (    0.51492483752    0.90475995119    0.51989186379  )
        13           Si  tau(  13) = (    0.34982470913    0.34133372476    0.70575051765  )
        14           Si  tau(  14) = (    0.51256915980    0.52235194163    0.88222896312  )
        15           Ge  tau(  15) = (    0.68485973944    0.72004314445    0.70461724908  )
        16           Ge  tau(  16) = (    0.86256593466    0.89213028912    0.89937989044  )

   Crystallographic axes

     site n.     atom                  positions (cryst. coord.)
         1           Si  tau(   1) = (    0.02058558189   -0.00235409038   -0.03118528587  )
         2           Ge  tau(   2) = (    0.13759705726    0.11216487432    0.11627104811  )
         3           Si  tau(   3) = (    0.00076274338   -0.01837104199    0.50908392051  )
         4           Ge  tau(   4) = (    0.11216508741    0.12701051534    0.61568901692  )
         5           Si  tau(   5) = (   -0.02554916910    0.49630986025    0.01348994438  )
         6           Ge  tau(   6) = (    0.10036122546    0.63609464071    0.13023808822  )
         7           Si  tau(   7) = (    0.00392899635    0.50175882881    0.50074774759  )
         8           Si  tau(   8) = (    0.11690130288    0.61720987930    0.64264716800  )
         9           Ge  tau(   9) = (    0.51438305982   -0.00158875266    0.00050890312  )
        10           Ge  tau(  10) = (    0.64366754357    0.14053682170    0.11548612192  )
        11           Ge  tau(  11) = (    0.49504969501    0.01386757367    0.50103981118  )
        12           Si  tau(  12) = (    0.63123371427    0.10844727246    0.64137484993  )
        13           Si  tau(  13) = (    0.48544740903    0.51188460381   -0.00181695472  )
        14           Si  tau(  14) = (    0.61939136214    0.62805914733    0.11925894940  )
        15           Ge  tau(  15) = (    0.50721727326    0.49139502000    0.50710993091  )
        16           Ge  tau(  16) = (    0.63685711737    0.63757484734    0.62005674039  )

     number of k points=    36  gaussian smearing, width (Ry)=  0.0150
                       cart. coord. in units 2pi/alat
        k(    1) = (   0.0000000   0.0000000   0.0000000), wk =   0.0312500
        k(    2) = (   0.1822872   0.1741719  -0.1752369), wk =   0.0625000
        k(    3) = (  -0.3645744  -0.3483438   0.3504738), wk =   0.0312500
        k(    4) = (   0.1828985  -0.1748075   0.1752127), wk =   0.0625000
        k(    5) = (   0.3651857  -0.0006356  -0.0000243), wk =   0.0625000
        k(    6) = (  -0.1816759  -0.5231513   0.5256865), wk =   0.0625000
        k(    7) = (   0.0006113  -0.3489794   0.3504496), wk =   0.0625000
        k(    8) = (  -0.3657970   0.3496149  -0.3504253), wk =   0.0312500
        k(    9) = (  -0.1835098   0.5237868  -0.5256622), wk =   0.0625000
        k(   10) = (  -0.7303713   0.0012711   0.0000485), wk =   0.0312500
        k(   11) = (  -0.1829227   0.1767285   0.1771580), wk =   0.0625000
        k(   12) = (  -0.0006356   0.3509004   0.0019211), wk =   0.0625000
        k(   13) = (  -0.5474971  -0.1716153   0.5276318), wk =   0.0625000
        k(   14) = (  -0.3652099   0.0025566   0.3523949), wk =   0.0625000
        k(   15) = (  -0.0000243   0.0019211   0.3523706), wk =   0.0625000
        k(   16) = (   0.1822629   0.1760930   0.1771337), wk =   0.0625000
        k(   17) = (  -0.3645986  -0.3464227   0.7028445), wk =   0.0625000
        k(   18) = (  -0.1823114  -0.1722508   0.5276076), wk =   0.0625000
        k(   19) = (  -0.5487197   0.5263434  -0.1732673), wk =   0.0625000
        k(   20) = (  -0.3664325   0.7005153  -0.3485042), wk =   0.0625000
        k(   21) = (  -0.9132941   0.1779996   0.1772065), wk =   0.0625000
        k(   22) = (  -0.7310069   0.3521715   0.0019696), wk =   0.0625000
        k(   23) = (  -0.3658212   0.3515360   0.0019453), wk =   0.0625000
        k(   24) = (  -0.1835340   0.5257079  -0.1732916), wk =   0.0625000
        k(   25) = (  -0.7303956   0.0031922   0.3524192), wk =   0.0625000
        k(   26) = (  -0.5481084   0.1773641   0.1771822), wk =   0.0625000
        k(   27) = (   0.3658455  -0.3534571  -0.3543160), wk =   0.0312500
        k(   28) = (   0.5481327  -0.1792852  -0.5295529), wk =   0.0625000
        k(   29) = (   0.0012711  -0.7018009  -0.0038421), wk =   0.0312500
        k(   30) = (   0.5487440  -0.5282645  -0.1791033), wk =   0.0625000
        k(   31) = (   0.7310311  -0.3540926  -0.3543402), wk =   0.0625000
        k(   32) = (   0.1841696  -0.8766083   0.1713705), wk =   0.0625000
        k(   33) = (   0.3664568  -0.7024364  -0.0038664), wk =   0.0625000
        k(   34) = (   0.0000485  -0.0038421  -0.7047413), wk =   0.0312500
        k(   35) = (   0.1823357   0.1703298  -0.8799782), wk =   0.0625000
        k(   36) = (  -0.3645258  -0.3521859  -0.3542675), wk =   0.0312500

                       cryst. coord.
        k(    1) = (   0.0000000   0.0000000   0.0000000), wk =   0.0312500
        k(    2) = (   0.0000000   0.0000000   0.2500000), wk =   0.0625000
        k(    3) = (  -0.0000000   0.0000000  -0.5000000), wk =   0.0312500
        k(    4) = (  -0.0000000   0.2500000  -0.0000000), wk =   0.0625000
        k(    5) = (  -0.0000000   0.2500000   0.2500000), wk =   0.0625000
        k(    6) = (  -0.0000000   0.2500000  -0.5000000), wk =   0.0625000
        k(    7) = (   0.0000000   0.2500000  -0.2500000), wk =   0.0625000
        k(    8) = (   0.0000000  -0.5000000   0.0000000), wk =   0.0312500
        k(    9) = (   0.0000000  -0.5000000   0.2500000), wk =   0.0625000
        k(   10) = (   0.0000000  -0.5000000  -0.5000000), wk =   0.0312500
        k(   11) = (   0.2500000   0.0000000   0.0000000), wk =   0.0625000
        k(   12) = (   0.2500000   0.0000000   0.2500000), wk =   0.0625000
        k(   13) = (   0.2500000   0.0000000  -0.5000000), wk =   0.0625000
        k(   14) = (   0.2500000   0.0000000  -0.2500000), wk =   0.0625000
        k(   15) = (   0.2500000   0.2500000  -0.0000000), wk =   0.0625000
        k(   16) = (   0.2500000   0.2500000   0.2500000), wk =   0.0625000
        k(   17) = (   0.2500000   0.2500000  -0.5000000), wk =   0.0625000
        k(   18) = (   0.2500000   0.2500000  -0.2500000), wk =   0.0625000
        k(   19) = (   0.2500000  -0.5000000   0.0000000), wk =   0.0625000
        k(   20) = (   0.2500000  -0.5000000   0.2500000), wk =   0.0625000
        k(   21) = (   0.2500000  -0.5000000  -0.5000000), wk =   0.0625000
        k(   22) = (   0.2500000  -0.5000000  -0.2500000), wk =   0.0625000
        k(   23) = (   0.2500000  -0.2500000   0.0000000), wk =   0.0625000
        k(   24) = (   0.2500000  -0.2500000   0.2500000), wk =   0.0625000
        k(   25) = (   0.2500000  -0.2500000  -0.5000000), wk =   0.0625000
        k(   26) = (   0.2500000  -0.2500000  -0.2500000), wk =   0.0625000
        k(   27) = (  -0.5000000   0.0000000  -0.0000000), wk =   0.0312500
        k(   28) = (  -0.5000000  -0.0000000   0.2500000), wk =   0.0625000
        k(   29) = (  -0.5000000  -0.0000000  -0.5000000), wk =   0.0312500
        k(   30) = (  -0.5000000   0.2500000  -0.0000000), wk =   0.0625000
        k(   31) = (  -0.5000000   0.2500000   0.2500000), wk =   0.0625000
        k(   32) = (  -0.5000000   0.2500000  -0.5000000), wk =   0.0625000
        k(   33) = (  -0.5000000   0.2500000  -0.2500000), wk =   0.0625000
        k(   34) = (  -0.5000000  -0.5000000   0.0000000), wk =   0.0312500
        k(   35) = (  -0.5000000  -0.5000000   0.2500000), wk =   0.0625000
        k(   36) = (  -0.5000000  -0.5000000  -0.5000000), wk =   0.0312500

     Dense  grid:   110249 G-vectors     FFT dimensions: (  72,  72,  72)

     Smooth grid:    64565 G-vectors     FFT dimensions: (  60,  60,  60)

     Largest allocated arrays     est. size (Mb)     dimensions
        Kohn-Sham Wavefunctions         0.68 Mb     (     520,   86)
        NL pseudopotentials             2.29 Mb     (     520,  288)
        Each V/rho on FFT grid          0.40 Mb     (   25920)
        Each G-vector array             0.05 Mb     (    6892)
        G-vector shells                 0.05 Mb     (    6762)
     Largest temporary arrays     est. size (Mb)     dimensions
        Auxiliary wavefunctions         2.73 Mb     (     520,  344)
        Each subspace H/S matrix        1.81 Mb     (     344,  344)
        Each <psi_i|beta_j> matrix      0.38 Mb     (     288,   86)
        Arrays for rho mixing           3.16 Mb     (   25920,    8)

     Check: negative/imaginary core charge=   -0.000001    0.000000

     Initial potential from superposition of free atoms

     starting charge  143.98835, renormalised to  144.00000
     Starting wfc are  104 randomized atomic wfcs

     total cpu time spent up to now is       12.9 secs

     Self-consistent Calculation

     iteration #  1     ecut=    35.00 Ry     beta=0.30
     Davidson diagonalization with overlap
     ethr =  1.00E-02,  avg # of iterations =  3.0

     Threshold (ethr) on eigenvalues was too large:
     Diagonalizing with lowered threshold

     Davidson diagonalization with overlap
     ethr =  2.48E-04,  avg # of iterations =  5.9

     total cpu time spent up to now is      104.4 secs

     total energy              =   -1781.96777320 Ry
     Harris-Foulkes estimate   =   -1782.00550084 Ry
     estimated scf accuracy    <       0.35809229 Ry

     iteration #  2     ecut=    35.00 Ry     beta=0.30
     Davidson diagonalization with overlap
     ethr =  2.49E-04,  avg # of iterations =  1.0

     total cpu time spent up to now is      130.3 secs

     total energy              =   -1781.89518877 Ry
     Harris-Foulkes estimate   =   -1781.96975710 Ry
     estimated scf accuracy    <       0.22043199 Ry

     iteration #  3     ecut=    35.00 Ry     beta=0.30
     Davidson diagonalization with overlap
     ethr =  1.53E-04,  avg # of iterations =  2.3

     total cpu time spent up to now is      164.9 secs

     total energy              =   -1781.91110203 Ry
     Harris-Foulkes estimate   =   -1781.91116817 Ry
     estimated scf accuracy    <       0.00339695 Ry

     iteration #  4     ecut=    35.00 Ry     beta=0.30
     Davidson diagonalization with overlap
     ethr =  2.36E-06,  avg # of iterations =  9.1

     total cpu time spent up to now is      246.5 secs

     total energy              =   -1781.91156080 Ry
     Harris-Foulkes estimate   =   -1781.91157308 Ry
     estimated scf accuracy    <       0.00188964 Ry

     iteration #  5     ecut=    35.00 Ry     beta=0.30
     Davidson diagonalization with overlap
     ethr =  1.31E-06,  avg # of iterations =  2.0

     total cpu time spent up to now is      283.1 secs

     total energy              =   -1781.91173103 Ry
     Harris-Foulkes estimate   =   -1781.91174757 Ry
     estimated scf accuracy    <       0.00008783 Ry

     iteration #  6     ecut=    35.00 Ry     beta=0.30
     Davidson diagonalization with overlap
     ethr =  6.10E-08,  avg # of iterations =  2.0

     total cpu time spent up to now is      317.0 secs

     total energy              =   -1781.91172489 Ry
     Harris-Foulkes estimate   =   -1781.91173871 Ry
     estimated scf accuracy    <       0.00003796 Ry

     iteration #  7     ecut=    35.00 Ry     beta=0.30
     Davidson diagonalization with overlap
     ethr =  2.64E-08,  avg # of iterations =  2.0

     total cpu time spent up to now is      353.1 secs

     total energy              =   -1781.91172922 Ry
     Harris-Foulkes estimate   =   -1781.91172882 Ry
     estimated scf accuracy    <       0.00000213 Ry

     iteration #  8     ecut=    35.00 Ry     beta=0.30
     Davidson diagonalization with overlap
     ethr =  1.48E-09,  avg # of iterations =  2.2

     total cpu time spent up to now is      386.3 secs

     total energy              =   -1781.91172947 Ry
     Harris-Foulkes estimate   =   -1781.91172942 Ry
     estimated scf accuracy    <       0.00000102 Ry

     iteration #  9     ecut=    35.00 Ry     beta=0.30
     Davidson diagonalization with overlap
     ethr =  7.08E-10,  avg # of iterations =  2.0

     total cpu time spent up to now is      419.2 secs

     total energy              =   -1781.91172972 Ry
     Harris-Foulkes estimate   =   -1781.91172967 Ry
     estimated scf accuracy    <       0.00000015 Ry

     iteration # 10     ecut=    35.00 Ry     beta=0.30
     Davidson diagonalization with overlap
     ethr =  1.01E-10,  avg # of iterations =  1.6

     total cpu time spent up to now is      447.2 secs

     total energy              =   -1781.91172973 Ry
     Harris-Foulkes estimate   =   -1781.91172973 Ry
     estimated scf accuracy    <       0.00000007 Ry

     iteration # 11     ecut=    35.00 Ry     beta=0.30
     Davidson diagonalization with overlap
     ethr =  4.93E-11,  avg # of iterations =  2.2

     total cpu time spent up to now is      483.7 secs

     total energy              =   -1781.91172977 Ry
     Harris-Foulkes estimate   =   -1781.91172975 Ry
     estimated scf accuracy    <          8.3E-09 Ry

     iteration # 12     ecut=    35.00 Ry     beta=0.30
     Davidson diagonalization with overlap
     ethr =  5.76E-12,  avg # of iterations =  2.0

     total cpu time spent up to now is      522.3 secs

     total energy              =   -1781.91172978 Ry
     Harris-Foulkes estimate   =   -1781.91172977 Ry
     estimated scf accuracy    <          3.5E-09 Ry

     iteration # 13     ecut=    35.00 Ry     beta=0.30
     Davidson diagonalization with overlap
     ethr =  2.45E-12,  avg # of iterations =  2.0

     total cpu time spent up to now is      557.5 secs

     End of self-consistent calculation

          k = 0.0000 0.0000 0.0000 (  8059 PWs)   bands (ev):

   -17.4231 -17.3795 -17.3632 -17.3496 -17.3454 -17.2942 -17.2783 -17.2470
   -17.2429 -17.2370 -17.2345 -17.2304 -17.2152 -17.2115 -17.1946 -17.1849
   -17.1837 -17.1744 -17.1633 -17.1521 -17.1468 -17.1423 -17.1219 -17.1064
   -17.1033 -17.0952 -17.0842 -17.0681 -17.0604 -17.0494 -17.0369 -17.0255
   -17.0170 -17.0043 -16.9791 -16.9719 -16.9705 -16.9477 -16.9397 -16.9015
    -5.1610  -3.1775  -2.9641  -2.9500  -2.7073  -1.4097  -1.2697  -1.1864
    -1.0746  -1.0371  -0.7054  -0.1634   0.0339   0.1591   0.2891   4.0109
     4.1619   4.3064   4.3642   4.4069   4.4683   5.5915   5.6697   5.8755
     5.9918   6.0123   6.1655   6.1893   6.2945   7.1005   7.1671   7.3328
     7.4117   7.5072   7.5486   7.8431   7.9091   8.0829   8.2001   8.2377
     8.3312   8.5665   8.8527   9.6867   9.7413   9.9609

     occupation numbers 
     1.0000   1.0000   1.0000   1.0000   1.0000   1.0000   1.0000   1.0000
     1.0000   1.0000   1.0000   1.0000   1.0000   1.0000   1.0000   1.0000
     1.0000   1.0000   1.0000   1.0000   1.0000   1.0000   1.0000   1.0000
     1.0000   1.0000   1.0000   1.0000   1.0000   1.0000   1.0000   1.0000
     1.0000   1.0000   1.0000   1.0000   1.0000   1.0000   1.0000   1.0000
     1.0000   1.0000   1.0000   1.0000   1.0000   1.0000   1.0000   1.0000
     1.0000   1.0000   1.0000   1.0000   1.0000   1.0000   1.0000   1.0000
     1.0000   1.0000   1.0000   1.0000   1.0000   1.0000   1.0000   1.0000
     1.0000   1.0000   1.0000   1.0000   1.0000   0.9619   0.9052   0.5651
     0.3507   0.1481   0.0915   0.0004   0.0001   0.0000   0.0000   0.0000
     0.0000   0.0000   0.0000   0.0000   0.0000   0.0000

          k = 0.1823 0.1742-0.1752 (  8054 PWs)   bands (ev):

   -17.4230 -17.3794 -17.3631 -17.3496 -17.3452 -17.2942 -17.2783 -17.2468
   -17.2428 -17.2368 -17.2339 -17.2303 -17.2150 -17.2113 -17.1945 -17.1845
   -17.1832 -17.1741 -17.1631 -17.1521 -17.1467 -17.1431 -17.1223 -17.1065
   -17.1032 -17.0945 -17.0840 -17.0675 -17.0602 -17.0494 -17.0366 -17.0254
   -17.0164 -17.0044 -16.9792 -16.9718 -16.9703 -16.9475 -16.9395 -16.9015
    -4.9708  -3.6048  -3.0056  -2.8296  -2.6982  -2.0271  -1.8871  -1.7722
    -0.3977  -0.2566  -0.1207   0.1735   0.2840   0.4446   1.0515   3.5628
     3.7419   3.8562   4.3224   4.4705   4.5621   4.6189   4.8062   4.9855
     5.3767   5.4673   5.6637   5.7032   6.0564   6.3032   6.8866   7.0783
     7.8353   8.0300   8.0672   8.1527   8.6886   8.9484   9.0373   9.0975
     9.1718   9.2506   9.4345  10.1414  10.3770  10.4190

     occupation numbers 
     1.0000   1.0000   1.0000   1.0000   1.0000   1.0000   1.0000   1.0000
     1.0000   1.0000   1.0000   1.0000   1.0000   1.0000   1.0000   1.0000
     1.0000   1.0000   1.0000   1.0000   1.0000   1.0000   1.0000   1.0000
     1.0000   1.0000   1.0000   1.0000   1.0000   1.0000   1.0000   1.0000
     1.0000   1.0000   1.0000   1.0000   1.0000   1.0000   1.0000   1.0000
     1.0000   1.0000   1.0000   1.0000   1.0000   1.0000   1.0000   1.0000
     1.0000   1.0000   1.0000   1.0000   1.0000   1.0000   1.0000   1.0000
     1.0000   1.0000   1.0000   1.0000   1.0000   1.0000   1.0000   1.0000
     1.0000   1.0000   1.0000   1.0000   1.0000   1.0000   0.9994   0.9730
     0.0005   0.0000   0.0000   0.0000   0.0000   0.0000   0.0000   0.0000
     0.0000   0.0000   0.0000   0.0000   0.0000   0.0000

          k =-0.3646-0.3483 0.3505 (  8056 PWs)   bands (ev):

   -17.4230 -17.3794 -17.3630 -17.3495 -17.3451 -17.2942 -17.2785 -17.2468
   -17.2428 -17.2367 -17.2334 -17.2302 -17.2150 -17.2111 -17.1944 -17.1841
   -17.1827 -17.1740 -17.1627 -17.1521 -17.1467 -17.1439 -17.1226 -17.1068
   -17.1032 -17.0939 -17.0839 -17.0671 -17.0600 -17.0493 -17.0365 -17.0253
   -17.0159 -17.0047 -16.9792 -16.9719 -16.9701 -16.9474 -16.9393 -16.9015
    -4.4913  -4.3307  -2.9193  -2.6501  -2.5392  -2.4190  -2.2831  -2.1641
     0.0263   0.1099   0.2390   0.5222   0.6250   0.7591   2.6928   3.0705
     3.3900   3.5716   3.5953   3.6707   3.7904   3.8702   4.7418   4.8665
     4.9389   5.0339   5.1369   5.1526   6.3250   6.4409   6.5325   6.7014
     8.1945   8.3930   8.4997   8.5678   8.5804   8.7917   8.8929   9.0841
    10.6232  10.7415  10.8073  10.8554  11.1594  11.2840

     occupation numbers 
     1.0000   1.0000   1.0000   1.0000   1.0000   1.0000   1.0000   1.0000
     1.0000   1.0000   1.0000   1.0000   1.0000   1.0000   1.0000   1.0000
     1.0000   1.0000   1.0000   1.0000   1.0000   1.0000   1.0000   1.0000
     1.0000   1.0000   1.0000   1.0000   1.0000   1.0000   1.0000   1.0000
     1.0000   1.0000   1.0000   1.0000   1.0000   1.0000   1.0000   1.0000
     1.0000   1.0000   1.0000   1.0000   1.0000   1.0000   1.0000   1.0000
     1.0000   1.0000   1.0000   1.0000   1.0000   1.0000   1.0000   1.0000
     1.0000   1.0000   1.0000   1.0000   1.0000   1.0000   1.0000   1.0000
     1.0000   1.0000   1.0000   1.0000   1.0000   1.0000   1.0000   1.0000
     0.0000   0.0000   0.0000   0.0000   0.0000   0.0000   0.0000   0.0000
     0.0000   0.0000   0.0000   0.0000   0.0000   0.0000

          k = 0.1829-0.1748 0.1752 (  8047 PWs)   bands (ev):

   -17.4231 -17.3794 -17.3631 -17.3495 -17.3452 -17.2941 -17.2784 -17.2466
   -17.2427 -17.2367 -17.2341 -17.2305 -17.2150 -17.2113 -17.1945 -17.1848
   -17.1834 -17.1744 -17.1633 -17.1520 -17.1467 -17.1423 -17.1218 -17.1060
   -17.1032 -17.0950 -17.0840 -17.0679 -17.0602 -17.0494 -17.0367 -17.0259
   -17.0161 -17.0044 -16.9788 -16.9718 -16.9702 -16.9475 -16.9394 -16.9018
    -4.9741  -3.5278  -3.0905  -2.8770  -2.6409  -2.0709  -1.9382  -1.7136
    -0.4303  -0.2519  -0.0059   0.1623   0.2731   0.4769   1.0350   3.5541
     3.7605   3.8020   4.3098   4.4581   4.5707   4.6458   4.7320   4.9722
     5.3525   5.4762   5.6810   5.7802   6.0372   6.2795   6.8953   7.0835
     7.7684   7.9973   8.0853   8.2417   8.7652   8.9339   9.0239   9.0498
     9.1990   9.2591   9.4105  10.0911  10.3735  10.4977

     occupation numbers 
     1.0000   1.0000   1.0000   1.0000   1.0000   1.0000   1.0000   1.0000
     1.0000   1.0000   1.0000   1.0000   1.0000   1.0000   1.0000   1.0000
     1.0000   1.0000   1.0000   1.0000   1.0000   1.0000   1.0000   1.0000
     1.0000   1.0000   1.0000   1.0000   1.0000   1.0000   1.0000   1.0000
     1.0000   1.0000   1.0000   1.0000   1.0000   1.0000   1.0000   1.0000
     1.0000   1.0000   1.0000   1.0000   1.0000   1.0000   1.0000   1.0000
     1.0000   1.0000   1.0000   1.0000   1.0000   1.0000   1.0000   1.0000
     1.0000   1.0000   1.0000   1.0000   1.0000   1.0000   1.0000   1.0000
     1.0000   1.0000   1.0000   1.0000   1.0000   1.0000   0.9993   0.9707
     0.0022   0.0000   0.0000   0.0000   0.0000   0.0000   0.0000   0.0000
     0.0000   0.0000   0.0000   0.0000   0.0000   0.0000

          k = 0.3652-0.0006-0.0000 (  8070 PWs)   bands (ev):

   -17.4232 -17.3794 -17.3631 -17.3497 -17.3453 -17.2942 -17.2782 -17.2469
   -17.2427 -17.2367 -17.2338 -17.2305 -17.2150 -17.2114 -17.1946 -17.1848
   -17.1833 -17.1744 -17.1633 -17.1521 -17.1468 -17.1431 -17.1223 -17.1058
   -17.1030 -17.0946 -17.0840 -17.0676 -17.0602 -17.0494 -17.0368 -17.0260
   -17.0168 -17.0043 -16.9786 -16.9718 -16.9702 -16.9475 -16.9394 -16.9017
    -4.8959  -3.3174  -3.2259  -3.0267  -2.8885  -2.5947  -1.2835  -1.1880
    -1.0689  -0.8352   0.3613   0.4782   0.6180   0.7925   1.2579   3.7241
     3.7628   3.7929   3.8401   4.2828   4.4215   4.6761   4.7357   4.8175
     4.9265   5.5326   5.6051   5.6894   5.8507   5.9533   6.3461   6.4145
     7.5067   8.4018   8.6565   8.7796   8.9230   9.0319   9.1314   9.2423
     9.4000   9.5085   9.6058  10.3880  10.7327  10.8006

     occupation numbers 
     1.0000   1.0000   1.0000   1.0000   1.0000   1.0000   1.0000   1.0000
     1.0000   1.0000   1.0000   1.0000   1.0000   1.0000   1.0000   1.0000
     1.0000   1.0000   1.0000   1.0000   1.0000   1.0000   1.0000   1.0000
     1.0000   1.0000   1.0000   1.0000   1.0000   1.0000   1.0000   1.0000
     1.0000   1.0000   1.0000   1.0000   1.0000   1.0000   1.0000   1.0000
     1.0000   1.0000   1.0000   1.0000   1.0000   1.0000   1.0000   1.0000
     1.0000   1.0000   1.0000   1.0000   1.0000   1.0000   1.0000   1.0000
     1.0000   1.0000   1.0000   1.0000   1.0000   1.0000   1.0000   1.0000
     1.0000   1.0000   1.0000   1.0000   1.0000   1.0000   1.0000   1.0000
     0.1489   0.0000   0.0000   0.0000   0.0000   0.0000   0.0000   0.0000
     0.0000   0.0000   0.0000   0.0000   0.0000   0.0000

          k =-0.1817-0.5232 0.5257 (  8085 PWs)   bands (ev):

   -17.4230 -17.3793 -17.3630 -17.3496 -17.3452 -17.2940 -17.2783 -17.2468
   -17.2426 -17.2366 -17.2331 -17.2303 -17.2150 -17.2112 -17.1945 -17.1843
   -17.1829 -17.1740 -17.1629 -17.1521 -17.1468 -17.1439 -17.1225 -17.1060
   -17.1029 -17.0940 -17.0840 -17.0672 -17.0599 -17.0493 -17.0366 -17.0259
   -17.0163 -17.0045 -16.9787 -16.9717 -16.9700 -16.9475 -16.9392 -16.9017
    -4.4621  -4.0212  -3.3898  -3.0731  -2.8537  -2.4307  -1.8017  -1.6938
    -0.4676  -0.2553   0.3776   0.9148   1.0318   1.8649   2.2454   3.0548
     3.1652   3.3287   3.5862   3.8959   4.0097   4.2181   4.2392   4.4554
     4.7985   4.9381   5.1244   5.1628   5.2841   5.8623   5.9574   6.3484
     8.2367   8.6658   9.0362   9.3157   9.5138   9.6271   9.7908   9.9201
    10.0856  10.2966  10.4360  10.5277  10.9576  11.2658

     occupation numbers 
     1.0000   1.0000   1.0000   1.0000   1.0000   1.0000   1.0000   1.0000
     1.0000   1.0000   1.0000   1.0000   1.0000   1.0000   1.0000   1.0000
     1.0000   1.0000   1.0000   1.0000   1.0000   1.0000   1.0000   1.0000
     1.0000   1.0000   1.0000   1.0000   1.0000   1.0000   1.0000   1.0000
     1.0000   1.0000   1.0000   1.0000   1.0000   1.0000   1.0000   1.0000
     1.0000   1.0000   1.0000   1.0000   1.0000   1.0000   1.0000   1.0000
     1.0000   1.0000   1.0000   1.0000   1.0000   1.0000   1.0000   1.0000
     1.0000   1.0000   1.0000   1.0000   1.0000   1.0000   1.0000   1.0000
     1.0000   1.0000   1.0000   1.0000   1.0000   1.0000   1.0000   1.0000
     0.0000   0.0000   0.0000   0.0000   0.0000   0.0000   0.0000   0.0000
     0.0000   0.0000   0.0000   0.0000   0.0000   0.0000

          k = 0.0006-0.3490 0.3504 (  8077 PWs)   bands (ev):

   -17.4230 -17.3793 -17.3630 -17.3495 -17.3452 -17.2941 -17.2785 -17.2466
   -17.2427 -17.2367 -17.2336 -17.2305 -17.2150 -17.2111 -17.1944 -17.1845
   -17.1830 -17.1741 -17.1630 -17.1521 -17.1468 -17.1431 -17.1222 -17.1063
   -17.1031 -17.0944 -17.0840 -17.0675 -17.0601 -17.0494 -17.0365 -17.0258
   -17.0157 -17.0047 -16.9789 -16.9718 -16.9701 -16.9476 -16.9393 -16.9018
    -4.6802  -3.7375  -3.5485  -2.8591  -2.5528  -2.4180  -2.2246  -1.4769
    -0.5352  -0.0595   0.2554   0.6202   0.7927   1.4349   1.7259   2.8657
     3.4519   3.6570   3.8735   3.9727   4.2070   4.2927   4.5269   4.6183
     4.9948   5.0623   5.3466   5.3952   5.5137   5.6934   5.7500   6.8413
     8.1548   8.7579   8.9509   9.1474   9.3917   9.5602   9.6933   9.9236
    10.1047  10.2757  10.4185  10.4639  10.6408  10.7286

     occupation numbers 
     1.0000   1.0000   1.0000   1.0000   1.0000   1.0000   1.0000   1.0000
     1.0000   1.0000   1.0000   1.0000   1.0000   1.0000   1.0000   1.0000
     1.0000   1.0000   1.0000   1.0000   1.0000   1.0000   1.0000   1.0000
     1.0000   1.0000   1.0000   1.0000   1.0000   1.0000   1.0000   1.0000
     1.0000   1.0000   1.0000   1.0000   1.0000   1.0000   1.0000   1.0000
     1.0000   1.0000   1.0000   1.0000   1.0000   1.0000   1.0000   1.0000
     1.0000   1.0000   1.0000   1.0000   1.0000   1.0000   1.0000   1.0000
     1.0000   1.0000   1.0000   1.0000   1.0000   1.0000   1.0000   1.0000
     1.0000   1.0000   1.0000   1.0000   1.0000   1.0000   1.0000   0.9998
     0.0000   0.0000   0.0000   0.0000   0.0000   0.0000   0.0000   0.0000
     0.0000   0.0000   0.0000   0.0000   0.0000   0.0000

          k =-0.3658 0.3496-0.3504 (  8050 PWs)   bands (ev):

   -17.4231 -17.3793 -17.3630 -17.3494 -17.3452 -17.2941 -17.2786 -17.2464
   -17.2427 -17.2365 -17.2338 -17.2307 -17.2150 -17.2111 -17.1944 -17.1848
   -17.1832 -17.1743 -17.1631 -17.1519 -17.1467 -17.1422 -17.1217 -17.1059
   -17.1032 -17.0948 -17.0840 -17.0678 -17.0601 -17.0494 -17.0366 -17.0263
   -17.0154 -17.0045 -16.9784 -16.9719 -16.9700 -16.9476 -16.9392 -16.9022
    -4.5698  -4.1988  -2.9497  -2.7318  -2.5630  -2.4025  -2.2803  -2.1627
    -0.0511   0.2133   0.3562   0.5718   0.5945   0.7593   2.8178   2.9667
     3.4284   3.4857   3.5969   3.6371   3.6857   3.8150   4.7633   4.8353
     4.8601   5.1301   5.1490   5.2041   6.3000   6.4346   6.5570   6.6958
     8.1928   8.3280   8.4496   8.6154   8.7385   8.7937   8.8660   9.0491
    10.6011  10.6981  10.7675  10.8910  11.1657  11.3212

     occupation numbers 
     1.0000   1.0000   1.0000   1.0000   1.0000   1.0000   1.0000   1.0000
     1.0000   1.0000   1.0000   1.0000   1.0000   1.0000   1.0000   1.0000
     1.0000   1.0000   1.0000   1.0000   1.0000   1.0000   1.0000   1.0000
     1.0000   1.0000   1.0000   1.0000   1.0000   1.0000   1.0000   1.0000
     1.0000   1.0000   1.0000   1.0000   1.0000   1.0000   1.0000   1.0000
     1.0000   1.0000   1.0000   1.0000   1.0000   1.0000   1.0000   1.0000
     1.0000   1.0000   1.0000   1.0000   1.0000   1.0000   1.0000   1.0000
     1.0000   1.0000   1.0000   1.0000   1.0000   1.0000   1.0000   1.0000
     1.0000   1.0000   1.0000   1.0000   1.0000   1.0000   1.0000   1.0000
     0.0000   0.0000   0.0000   0.0000   0.0000   0.0000   0.0000   0.0000
     0.0000   0.0000   0.0000   0.0000   0.0000   0.0000

          k =-0.1835 0.5238-0.5257 (  8083 PWs)   bands (ev):

   -17.4231 -17.3793 -17.3629 -17.3495 -17.3453 -17.2940 -17.2783 -17.2465
   -17.2425 -17.2365 -17.2333 -17.2306 -17.2150 -17.2112 -17.1945 -17.1846
   -17.1831 -17.1742 -17.1631 -17.1519 -17.1468 -17.1431 -17.1221 -17.1055
   -17.1029 -17.0944 -17.0840 -17.0675 -17.0599 -17.0494 -17.0366 -17.0264
   -17.0160 -17.0044 -16.9782 -16.9717 -16.9699 -16.9476 -16.9392 -16.9020
    -4.4917  -3.9205  -3.4487  -3.1138  -2.8525  -2.4062  -1.8446  -1.6934
    -0.4209  -0.2483   0.3822   0.9231   1.0487   1.8817   2.2853   3.0259
     3.1287   3.3256   3.6179   3.8414   3.9883   4.1662   4.2431   4.4280
     4.7988   4.9414   5.1082   5.1783   5.3258   5.8637   5.9978   6.3364
     8.2510   8.6711   8.9983   9.3122   9.5130   9.6300   9.8216   9.9420
    10.0230  10.1960  10.4882  10.6351  10.9723  11.2621

     occupation numbers 
     1.0000   1.0000   1.0000   1.0000   1.0000   1.0000   1.0000   1.0000
     1.0000   1.0000   1.0000   1.0000   1.0000   1.0000   1.0000   1.0000
     1.0000   1.0000   1.0000   1.0000   1.0000   1.0000   1.0000   1.0000
     1.0000   1.0000   1.0000   1.0000   1.0000   1.0000   1.0000   1.0000
     1.0000   1.0000   1.0000   1.0000   1.0000   1.0000   1.0000   1.0000
     1.0000   1.0000   1.0000   1.0000   1.0000   1.0000   1.0000   1.0000
     1.0000   1.0000   1.0000   1.0000   1.0000   1.0000   1.0000   1.0000
     1.0000   1.0000   1.0000   1.0000   1.0000   1.0000   1.0000   1.0000
     1.0000   1.0000   1.0000   1.0000   1.0000   1.0000   1.0000   1.0000
     0.0000   0.0000   0.0000   0.0000   0.0000   0.0000   0.0000   0.0000
     0.0000   0.0000   0.0000   0.0000   0.0000   0.0000

          k =-0.7304 0.0013 0.0000 (  8052 PWs)   bands (ev):

   -17.4229 -17.3790 -17.3627 -17.3495 -17.3452 -17.2937 -17.2778 -17.2466
   -17.2422 -17.2363 -17.2326 -17.2303 -17.2149 -17.2110 -17.1944 -17.1844
   -17.1830 -17.1739 -17.1629 -17.1518 -17.1467 -17.1437 -17.1223 -17.1050
   -17.1025 -17.0940 -17.0839 -17.0670 -17.0597 -17.0492 -17.0366 -17.0263
   -17.0166 -17.0042 -16.9779 -16.9714 -16.9697 -16.9475 -16.9390 -16.9018
    -4.2391  -3.9908  -3.4023  -3.2277  -3.0607  -3.0000  -1.1810  -1.1323
    -0.9829  -0.7462   1.1532   1.2618   1.4040   1.6074   3.1512   3.2075
     3.2970   3.3426   3.4084   3.4463   3.5423   3.5875   3.6798   3.8058
     4.8596   5.0513   5.2423   5.3928   5.5602   5.6288   5.8061   5.9143
     7.9177   8.0806   9.0000   9.0496   9.2599   9.4181  10.1336  10.2221
    11.5561  11.5899  11.7081  11.8276  11.8429  11.9479

     occupation numbers 
     1.0000   1.0000   1.0000   1.0000   1.0000   1.0000   1.0000   1.0000
     1.0000   1.0000   1.0000   1.0000   1.0000   1.0000   1.0000   1.0000
     1.0000   1.0000   1.0000   1.0000   1.0000   1.0000   1.0000   1.0000
     1.0000   1.0000   1.0000   1.0000   1.0000   1.0000   1.0000   1.0000
     1.0000   1.0000   1.0000   1.0000   1.0000   1.0000   1.0000   1.0000
     1.0000   1.0000   1.0000   1.0000   1.0000   1.0000   1.0000   1.0000
     1.0000   1.0000   1.0000   1.0000   1.0000   1.0000   1.0000   1.0000
     1.0000   1.0000   1.0000   1.0000   1.0000   1.0000   1.0000   1.0000
     1.0000   1.0000   1.0000   1.0000   1.0000   1.0000   1.0000   1.0000
     0.0001   0.0000   0.0000   0.0000   0.0000   0.0000   0.0000   0.0000
     0.0000   0.0000   0.0000   0.0000   0.0000   0.0000

          k =-0.1829 0.1767 0.1772 (  8067 PWs)   bands (ev):

   -17.4230 -17.3794 -17.3631 -17.3496 -17.3453 -17.2944 -17.2778 -17.2465
   -17.2428 -17.2367 -17.2339 -17.2306 -17.2150 -17.2113 -17.1946 -17.1852
   -17.1826 -17.1741 -17.1633 -17.1521 -17.1468 -17.1423 -17.1231 -17.1063
   -17.1028 -17.0946 -17.0830 -17.0679 -17.0600 -17.0492 -17.0365 -17.0253
   -17.0169 -17.0048 -16.9790 -16.9718 -16.9702 -16.9474 -16.9396 -16.9014
    -4.9643  -3.5588  -3.0722  -2.8609  -2.6665  -2.0718  -1.9170  -1.7410
    -0.4473  -0.2630  -0.0542   0.1434   0.3858   0.5161   1.0354   3.6572
     3.7551   3.8327   4.1931   4.4833   4.5308   4.6558   4.7839   4.9455
     5.3426   5.4695   5.6721   5.7794   5.9447   6.2494   6.8486   7.1102
     7.7066   7.9651   8.0317   8.1656   8.8142   8.8821   9.0039   9.1499
     9.2708   9.2938   9.5369  10.1524  10.1950  10.5458

     occupation numbers 
     1.0000   1.0000   1.0000   1.0000   1.0000   1.0000   1.0000   1.0000
     1.0000   1.0000   1.0000   1.0000   1.0000   1.0000   1.0000   1.0000
     1.0000   1.0000   1.0000   1.0000   1.0000   1.0000   1.0000   1.0000
     1.0000   1.0000   1.0000   1.0000   1.0000   1.0000   1.0000   1.0000
     1.0000   1.0000   1.0000   1.0000   1.0000   1.0000   1.0000   1.0000
     1.0000   1.0000   1.0000   1.0000   1.0000   1.0000   1.0000   1.0000
     1.0000   1.0000   1.0000   1.0000   1.0000   1.0000   1.0000   1.0000
     1.0000   1.0000   1.0000   1.0000   1.0000   1.0000   1.0000   1.0000
     1.0000   1.0000   1.0000   1.0000   1.0000   1.0000   0.9998   0.9560
     0.0076   0.0000   0.0000   0.0000   0.0000   0.0000   0.0000   0.0000
     0.0000   0.0000   0.0000   0.0000   0.0000   0.0000

          k =-0.0006 0.3509 0.0019 (  8069 PWs)   bands (ev):

   -17.4229 -17.3794 -17.3629 -17.3495 -17.3453 -17.2947 -17.2782 -17.2465
   -17.2428 -17.2366 -17.2338 -17.2304 -17.2151 -17.2113 -17.1945 -17.1843
   -17.1822 -17.1741 -17.1631 -17.1522 -17.1468 -17.1432 -17.1238 -17.1064
   -17.1031 -17.0945 -17.0830 -17.0674 -17.0598 -17.0493 -17.0364 -17.0253
   -17.0164 -17.0049 -16.9793 -16.9718 -16.9703 -16.9475 -16.9395 -16.9014
    -4.9107  -3.3123  -3.1908  -3.0847  -2.8245  -2.6853  -1.2042  -1.0323
    -0.9872  -0.8071   0.2664   0.4311   0.6104   0.7111   1.0450   3.5707
     3.6822   3.7995   3.8391   4.3540   4.4507   4.5743   4.6256   4.6484
     4.7875   5.4451   5.8202   6.0081   6.0860   6.1917   6.4851   6.6422
     7.8063   8.5596   8.6062   8.7062   8.9321   9.0675   9.1818   9.2517
     9.3300   9.4437   9.5695  10.2914  10.6020  10.6616

     occupation numbers 
     1.0000   1.0000   1.0000   1.0000   1.0000   1.0000   1.0000   1.0000
     1.0000   1.0000   1.0000   1.0000   1.0000   1.0000   1.0000   1.0000
     1.0000   1.0000   1.0000   1.0000   1.0000   1.0000   1.0000   1.0000
     1.0000   1.0000   1.0000   1.0000   1.0000   1.0000   1.0000   1.0000
     1.0000   1.0000   1.0000   1.0000   1.0000   1.0000   1.0000   1.0000
     1.0000   1.0000   1.0000   1.0000   1.0000   1.0000   1.0000   1.0000
     1.0000   1.0000   1.0000   1.0000   1.0000   1.0000   1.0000   1.0000
     1.0000   1.0000   1.0000   1.0000   1.0000   1.0000   1.0000   1.0000
     1.0000   1.0000   1.0000   1.0000   1.0000   1.0000   1.0000   1.0000
     0.0009   0.0000   0.0000   0.0000   0.0000   0.0000   0.0000   0.0000
     0.0000   0.0000   0.0000   0.0000   0.0000   0.0000

          k =-0.5475-0.1716 0.5276 (  8082 PWs)   bands (ev):

   -17.4229 -17.3794 -17.3629 -17.3496 -17.3451 -17.2947 -17.2783 -17.2464
   -17.2428 -17.2366 -17.2332 -17.2304 -17.2150 -17.2113 -17.1945 -17.1840
   -17.1818 -17.1738 -17.1629 -17.1523 -17.1469 -17.1440 -17.1242 -17.1067
   -17.1031 -17.0939 -17.0830 -17.0671 -17.0596 -17.0493 -17.0363 -17.0253
   -17.0159 -17.0052 -16.9795 -16.9718 -16.9702 -16.9474 -16.9394 -16.9014
    -4.4929  -3.9647  -3.5454  -2.9906  -2.8234  -2.3843  -1.7792  -1.6537
    -0.2965  -0.2404   0.1901   0.9207   0.9673   1.7135   2.2028   2.9589
     3.1048   3.2121   3.6124   3.7724   3.8594   4.1927   4.2532   4.5686
     4.8074   4.9941   5.2637   5.3720   5.4257   5.8712   6.0577   6.5994
     8.4806   8.8451   9.1996   9.3445   9.4645   9.5354   9.8027  10.1034
    10.2231  10.3843  10.6618  10.8367  10.9273  11.0190

     occupation numbers 
     1.0000   1.0000   1.0000   1.0000   1.0000   1.0000   1.0000   1.0000
     1.0000   1.0000   1.0000   1.0000   1.0000   1.0000   1.0000   1.0000
     1.0000   1.0000   1.0000   1.0000   1.0000   1.0000   1.0000   1.0000
     1.0000   1.0000   1.0000   1.0000   1.0000   1.0000   1.0000   1.0000
     1.0000   1.0000   1.0000   1.0000   1.0000   1.0000   1.0000   1.0000
     1.0000   1.0000   1.0000   1.0000   1.0000   1.0000   1.0000   1.0000
     1.0000   1.0000   1.0000   1.0000   1.0000   1.0000   1.0000   1.0000
     1.0000   1.0000   1.0000   1.0000   1.0000   1.0000   1.0000   1.0000
     1.0000   1.0000   1.0000   1.0000   1.0000   1.0000   1.0000   1.0000
     0.0000   0.0000   0.0000   0.0000   0.0000   0.0000   0.0000   0.0000
     0.0000   0.0000   0.0000   0.0000   0.0000   0.0000

          k =-0.3652 0.0026 0.3524 (  8079 PWs)   bands (ev):

   -17.4230 -17.3793 -17.3630 -17.3497 -17.3451 -17.2945 -17.2779 -17.2465
   -17.2426 -17.2366 -17.2333 -17.2305 -17.2149 -17.2113 -17.1945 -17.1848
   -17.1822 -17.1738 -17.1632 -17.1521 -17.1467 -17.1431 -17.1236 -17.1065
   -17.1030 -17.0940 -17.0830 -17.0676 -17.0599 -17.0493 -17.0363 -17.0253
   -17.0164 -17.0049 -16.9792 -16.9717 -16.9701 -16.9473 -16.9395 -16.9014
    -4.6439  -3.7576  -3.6818  -2.6681  -2.5109  -2.3971  -2.2956  -1.5544
    -0.6004   0.0031   0.0992   0.6950   0.8883   1.5111   1.7364   2.9193
     3.5701   3.6585   3.7265   3.8472   4.1746   4.3831   4.4677   4.7827
     4.9487   4.9932   5.2103   5.2724   5.5265   5.6408   5.8831   7.0577
     8.3612   8.6768   9.0101   9.1350   9.3246   9.5309   9.6635   9.7143
     9.8843  10.0547  10.2508  10.3300  10.4200  10.4771

     occupation numbers 
     1.0000   1.0000   1.0000   1.0000   1.0000   1.0000   1.0000   1.0000
     1.0000   1.0000   1.0000   1.0000   1.0000   1.0000   1.0000   1.0000
     1.0000   1.0000   1.0000   1.0000   1.0000   1.0000   1.0000   1.0000
     1.0000   1.0000   1.0000   1.0000   1.0000   1.0000   1.0000   1.0000
     1.0000   1.0000   1.0000   1.0000   1.0000   1.0000   1.0000   1.0000
     1.0000   1.0000   1.0000   1.0000   1.0000   1.0000   1.0000   1.0000
     1.0000   1.0000   1.0000   1.0000   1.0000   1.0000   1.0000   1.0000
     1.0000   1.0000   1.0000   1.0000   1.0000   1.0000   1.0000   1.0000
     1.0000   1.0000   1.0000   1.0000   1.0000   1.0000   1.0000   0.9808
     0.0000   0.0000   0.0000   0.0000   0.0000   0.0000   0.0000   0.0000
     0.0000   0.0000   0.0000   0.0000   0.0000   0.0000

          k =-0.0000 0.0019 0.3524 (  8066 PWs)   bands (ev):

   -17.4229 -17.3793 -17.3631 -17.3496 -17.3453 -17.2944 -17.2782 -17.2465
   -17.2427 -17.2368 -17.2339 -17.2303 -17.2150 -17.2113 -17.1945 -17.1851
   -17.1825 -17.1738 -17.1633 -17.1522 -17.1468 -17.1423 -17.1232 -17.1060
   -17.1030 -17.0945 -17.0831 -17.0679 -17.0600 -17.0494 -17.0364 -17.0259
   -17.0165 -17.0049 -16.9787 -16.9717 -16.9702 -16.9475 -16.9394 -16.9018
    -4.9100  -3.3393  -3.1961  -2.9925  -2.8871  -2.6628  -1.2780  -1.0838
    -1.0173  -0.7162   0.3374   0.4855   0.5729   0.6778   1.0496   3.5643
     3.6636   3.8037   3.8697   4.3699   4.4624   4.5617   4.6549   4.6931
     4.7771   5.4713   5.8584   5.9495   6.0293   6.0985   6.4623   6.6218
     7.7877   8.5131   8.6706   8.7578   8.9132   9.0413   9.1787   9.2650
     9.3455   9.4293   9.5161  10.3366  10.5966  10.6887

     occupation numbers 
     1.0000   1.0000   1.0000   1.0000   1.0000   1.0000   1.0000   1.0000
     1.0000   1.0000   1.0000   1.0000   1.0000   1.0000   1.0000   1.0000
     1.0000   1.0000   1.0000   1.0000   1.0000   1.0000   1.0000   1.0000
     1.0000   1.0000   1.0000   1.0000   1.0000   1.0000   1.0000   1.0000
     1.0000   1.0000   1.0000   1.0000   1.0000   1.0000   1.0000   1.0000
     1.0000   1.0000   1.0000   1.0000   1.0000   1.0000   1.0000   1.0000
     1.0000   1.0000   1.0000   1.0000   1.0000   1.0000   1.0000   1.0000
     1.0000   1.0000   1.0000   1.0000   1.0000   1.0000   1.0000   1.0000
     1.0000   1.0000   1.0000   1.0000   1.0000   1.0000   1.0000   1.0000
     0.0014   0.0000   0.0000   0.0000   0.0000   0.0000   0.0000   0.0000
     0.0000   0.0000   0.0000   0.0000   0.0000   0.0000

          k = 0.1823 0.1761 0.1771 (  8076 PWs)   bands (ev):

   -17.4229 -17.3793 -17.3631 -17.3494 -17.3452 -17.2947 -17.2782 -17.2467
   -17.2428 -17.2367 -17.2340 -17.2301 -17.2149 -17.2113 -17.1945 -17.1844
   -17.1824 -17.1739 -17.1633 -17.1523 -17.1468 -17.1431 -17.1238 -17.1057
   -17.1028 -17.0946 -17.0830 -17.0674 -17.0598 -17.0494 -17.0365 -17.0259
   -17.0170 -17.0047 -16.9786 -16.9717 -16.9703 -16.9474 -16.9393 -16.9017
    -4.9718  -3.5580  -2.9307  -2.8852  -2.7989  -2.0218  -1.9439  -1.7332
    -0.4200  -0.2225  -0.0919   0.1050   0.3523   0.4992   1.0594   3.6443
     3.7438   3.7922   4.1819   4.5397   4.5866   4.6508   4.7957   4.9361
     5.3404   5.4635   5.7364   5.7958   5.9751   6.2664   6.8577   7.0751
     7.7101   7.9222   8.0300   8.2500   8.7583   8.8595   8.9927   9.0839
     9.2074   9.3392   9.4297  10.1224  10.3068  10.5525

     occupation numbers 
     1.0000   1.0000   1.0000   1.0000   1.0000   1.0000   1.0000   1.0000
     1.0000   1.0000   1.0000   1.0000   1.0000   1.0000   1.0000   1.0000
     1.0000   1.0000   1.0000   1.0000   1.0000   1.0000   1.0000   1.0000
     1.0000   1.0000   1.0000   1.0000   1.0000   1.0000   1.0000   1.0000
     1.0000   1.0000   1.0000   1.0000   1.0000   1.0000   1.0000   1.0000
     1.0000   1.0000   1.0000   1.0000   1.0000   1.0000   1.0000   1.0000
     1.0000   1.0000   1.0000   1.0000   1.0000   1.0000   1.0000   1.0000
     1.0000   1.0000   1.0000   1.0000   1.0000   1.0000   1.0000   1.0000
     1.0000   1.0000   1.0000   1.0000   1.0000   1.0000   0.9997   0.9744
     0.0071   0.0000   0.0000   0.0000   0.0000   0.0000   0.0000   0.0000
     0.0000   0.0000   0.0000   0.0000   0.0000   0.0000

          k =-0.3646-0.3464 0.7028 (  8068 PWs)   bands (ev):

   -17.4229 -17.3793 -17.3630 -17.3494 -17.3451 -17.2948 -17.2783 -17.2466
   -17.2428 -17.2366 -17.2334 -17.2300 -17.2149 -17.2112 -17.1945 -17.1841
   -17.1820 -17.1738 -17.1630 -17.1524 -17.1467 -17.1440 -17.1241 -17.1060
   -17.1028 -17.0939 -17.0829 -17.0670 -17.0597 -17.0494 -17.0363 -17.0259
   -17.0165 -17.0050 -16.9787 -16.9717 -16.9702 -16.9473 -16.9392 -16.9017
    -4.6625  -3.8040  -3.5442  -2.7725  -2.6524  -2.3200  -2.1705  -1.5695
    -0.5728  -0.0183   0.0757   0.6811   0.8637   1.6030   1.6503   2.8934
     3.5062   3.6554   3.7422   3.8833   4.2408   4.3891   4.4752   4.7893
     4.9259   5.0536   5.2344   5.3148   5.5617   5.6937   5.7742   6.9923
     8.3513   8.6989   9.0024   9.1619   9.3218   9.5035   9.5891   9.7277
     9.8418  10.0570  10.2972  10.3408  10.4125  10.5315

     occupation numbers 
     1.0000   1.0000   1.0000   1.0000   1.0000   1.0000   1.0000   1.0000
     1.0000   1.0000   1.0000   1.0000   1.0000   1.0000   1.0000   1.0000
     1.0000   1.0000   1.0000   1.0000   1.0000   1.0000   1.0000   1.0000
     1.0000   1.0000   1.0000   1.0000   1.0000   1.0000   1.0000   1.0000
     1.0000   1.0000   1.0000   1.0000   1.0000   1.0000   1.0000   1.0000
     1.0000   1.0000   1.0000   1.0000   1.0000   1.0000   1.0000   1.0000
     1.0000   1.0000   1.0000   1.0000   1.0000   1.0000   1.0000   1.0000
     1.0000   1.0000   1.0000   1.0000   1.0000   1.0000   1.0000   1.0000
     1.0000   1.0000   1.0000   1.0000   1.0000   1.0000   1.0000   0.9942
     0.0000   0.0000   0.0000   0.0000   0.0000   0.0000   0.0000   0.0000
     0.0000   0.0000   0.0000   0.0000   0.0000   0.0000

          k =-0.1823-0.1723 0.5276 (  8086 PWs)   bands (ev):

   -17.4230 -17.3793 -17.3631 -17.3496 -17.3452 -17.2945 -17.2784 -17.2465
   -17.2427 -17.2367 -17.2335 -17.2302 -17.2150 -17.2112 -17.1945 -17.1848
   -17.1821 -17.1737 -17.1631 -17.1523 -17.1468 -17.1432 -17.1236 -17.1064
   -17.1030 -17.0939 -17.0830 -17.0675 -17.0599 -17.0494 -17.0363 -17.0259
   -17.0160 -17.0052 -16.9788 -16.9718 -16.9701 -16.9474 -16.9393 -16.9018
    -4.4877  -4.0041  -3.4451  -3.0196  -2.9006  -2.3218  -1.7797  -1.7005
    -0.3422  -0.2438   0.2962   0.8370   1.0312   1.7012   2.2180   2.9492
     3.1524   3.2797   3.5637   3.7820   3.8322   4.1715   4.2566   4.5291
     4.7893   5.0542   5.2217   5.3825   5.4600   5.8932   6.0335   6.5200
     8.4892   8.8464   9.2327   9.3511   9.4049   9.4600   9.8081   9.9825
    10.1855  10.4059  10.6460  10.7761  10.9232  11.0447

     occupation numbers 
     1.0000   1.0000   1.0000   1.0000   1.0000   1.0000   1.0000   1.0000
     1.0000   1.0000   1.0000   1.0000   1.0000   1.0000   1.0000   1.0000
     1.0000   1.0000   1.0000   1.0000   1.0000   1.0000   1.0000   1.0000
     1.0000   1.0000   1.0000   1.0000   1.0000   1.0000   1.0000   1.0000
     1.0000   1.0000   1.0000   1.0000   1.0000   1.0000   1.0000   1.0000
     1.0000   1.0000   1.0000   1.0000   1.0000   1.0000   1.0000   1.0000
     1.0000   1.0000   1.0000   1.0000   1.0000   1.0000   1.0000   1.0000
     1.0000   1.0000   1.0000   1.0000   1.0000   1.0000   1.0000   1.0000
     1.0000   1.0000   1.0000   1.0000   1.0000   1.0000   1.0000   1.0000
     0.0000   0.0000   0.0000   0.0000   0.0000   0.0000   0.0000   0.0000
     0.0000   0.0000   0.0000   0.0000   0.0000   0.0000

          k =-0.5487 0.5263-0.1733 (  8086 PWs)   bands (ev):

   -17.4230 -17.3792 -17.3630 -17.3495 -17.3453 -17.2945 -17.2784 -17.2463
   -17.2427 -17.2366 -17.2336 -17.2305 -17.2150 -17.2112 -17.1946 -17.1851
   -17.1822 -17.1739 -17.1633 -17.1522 -17.1468 -17.1424 -17.1231 -17.1060
   -17.1029 -17.0943 -17.0831 -17.0678 -17.0600 -17.0494 -17.0363 -17.0264
   -17.0157 -17.0050 -16.9784 -16.9717 -16.9700 -16.9475 -16.9393 -16.9021
    -4.5162  -3.8908  -3.5032  -3.1431  -2.7998  -2.3479  -1.8766  -1.5958
    -0.3704  -0.1891   0.2368   0.9432   1.0335   1.7193   2.2294   2.9384
     3.0921   3.1828   3.6260   3.7723   3.8262   4.1792   4.2980   4.5445
     4.8193   4.9981   5.2595   5.3256   5.4040   5.8603   6.0359   6.5619
     8.4956   8.8603   9.2311   9.3274   9.3964   9.5271   9.8238  10.0694
    10.2581  10.4094  10.6717  10.7960  10.8653  11.0148

     occupation numbers 
     1.0000   1.0000   1.0000   1.0000   1.0000   1.0000   1.0000   1.0000
     1.0000   1.0000   1.0000   1.0000   1.0000   1.0000   1.0000   1.0000
     1.0000   1.0000   1.0000   1.0000   1.0000   1.0000   1.0000   1.0000
     1.0000   1.0000   1.0000   1.0000   1.0000   1.0000   1.0000   1.0000
     1.0000   1.0000   1.0000   1.0000   1.0000   1.0000   1.0000   1.0000
     1.0000   1.0000   1.0000   1.0000   1.0000   1.0000   1.0000   1.0000
     1.0000   1.0000   1.0000   1.0000   1.0000   1.0000   1.0000   1.0000
     1.0000   1.0000   1.0000   1.0000   1.0000   1.0000   1.0000   1.0000
     1.0000   1.0000   1.0000   1.0000   1.0000   1.0000   1.0000   1.0000
     0.0000   0.0000   0.0000   0.0000   0.0000   0.0000   0.0000   0.0000
     0.0000   0.0000   0.0000   0.0000   0.0000   0.0000

          k =-0.3664 0.7005-0.3485 (  8077 PWs)   bands (ev):

   -17.4230 -17.3792 -17.3630 -17.3494 -17.3452 -17.2947 -17.2783 -17.2464
   -17.2427 -17.2365 -17.2336 -17.2303 -17.2149 -17.2113 -17.1945 -17.1845
   -17.1822 -17.1739 -17.1633 -17.1523 -17.1467 -17.1431 -17.1237 -17.1055
   -17.1028 -17.0944 -17.0830 -17.0674 -17.0598 -17.0494 -17.0363 -17.0264
   -17.0162 -17.0049 -16.9783 -16.9717 -16.9701 -16.9474 -16.9392 -16.9020
    -4.6711  -3.6995  -3.6106  -2.7815  -2.7310  -2.3200  -2.1525  -1.5147
    -0.6873   0.0596   0.1538   0.6047   0.9294   1.5905   1.6873   2.8670
     3.5181   3.6222   3.7611   3.8758   4.1748   4.3285   4.5187   4.7788
     4.9457   5.0575   5.2012   5.2804   5.5528   5.7043   5.8263   7.0387
     8.3704   8.6925   8.9529   9.1666   9.3611   9.5050   9.6074   9.7501
     9.9263   9.9858  10.2514  10.2966  10.4583  10.5203

     occupation numbers 
     1.0000   1.0000   1.0000   1.0000   1.0000   1.0000   1.0000   1.0000
     1.0000   1.0000   1.0000   1.0000   1.0000   1.0000   1.0000   1.0000
     1.0000   1.0000   1.0000   1.0000   1.0000   1.0000   1.0000   1.0000
     1.0000   1.0000   1.0000   1.0000   1.0000   1.0000   1.0000   1.0000
     1.0000   1.0000   1.0000   1.0000   1.0000   1.0000   1.0000   1.0000
     1.0000   1.0000   1.0000   1.0000   1.0000   1.0000   1.0000   1.0000
     1.0000   1.0000   1.0000   1.0000   1.0000   1.0000   1.0000   1.0000
     1.0000   1.0000   1.0000   1.0000   1.0000   1.0000   1.0000   1.0000
     1.0000   1.0000   1.0000   1.0000   1.0000   1.0000   1.0000   0.9862
     0.0000   0.0000   0.0000   0.0000   0.0000   0.0000   0.0000   0.0000
     0.0000   0.0000   0.0000   0.0000   0.0000   0.0000

          k =-0.9133 0.1780 0.1772 (  8077 PWs)   bands (ev):

   -17.4230 -17.3792 -17.3629 -17.3494 -17.3452 -17.2947 -17.2780 -17.2466
   -17.2426 -17.2365 -17.2332 -17.2302 -17.2150 -17.2112 -17.1945 -17.1843
   -17.1822 -17.1738 -17.1630 -17.1523 -17.1468 -17.1438 -17.1241 -17.1052
   -17.1025 -17.0941 -17.0830 -17.0670 -17.0597 -17.0493 -17.0364 -17.0263
   -17.0169 -17.0048 -16.9781 -16.9716 -16.9700 -16.9474 -16.9391 -16.9019
    -4.4874  -3.9207  -3.4382  -3.0727  -2.9739  -2.2890  -1.8616  -1.7463
    -0.4025  -0.1872   0.2424   0.8539   1.2224   1.8165   2.3405   3.0418
     3.1048   3.2731   3.6962   3.8875   3.9992   4.2220   4.3049   4.5026
     4.6823   4.9743   5.0709   5.1004   5.3536   5.7966   5.9192   6.2794
     8.1908   8.5524   9.0588   9.1986   9.5560   9.6952   9.8417   9.9840
    10.0781  10.3937  10.5408  10.6604  10.8579  11.2528

     occupation numbers 
     1.0000   1.0000   1.0000   1.0000   1.0000   1.0000   1.0000   1.0000
     1.0000   1.0000   1.0000   1.0000   1.0000   1.0000   1.0000   1.0000
     1.0000   1.0000   1.0000   1.0000   1.0000   1.0000   1.0000   1.0000
     1.0000   1.0000   1.0000   1.0000   1.0000   1.0000   1.0000   1.0000
     1.0000   1.0000   1.0000   1.0000   1.0000   1.0000   1.0000   1.0000
     1.0000   1.0000   1.0000   1.0000   1.0000   1.0000   1.0000   1.0000
     1.0000   1.0000   1.0000   1.0000   1.0000   1.0000   1.0000   1.0000
     1.0000   1.0000   1.0000   1.0000   1.0000   1.0000   1.0000   1.0000
     1.0000   1.0000   1.0000   1.0000   1.0000   1.0000   1.0000   1.0000
     0.0000   0.0000   0.0000   0.0000   0.0000   0.0000   0.0000   0.0000
     0.0000   0.0000   0.0000   0.0000   0.0000   0.0000

          k =-0.7310 0.3522 0.0020 (  8079 PWs)   bands (ev):

   -17.4231 -17.3791 -17.3631 -17.3495 -17.3452 -17.2945 -17.2781 -17.2465
   -17.2425 -17.2365 -17.2333 -17.2304 -17.2150 -17.2111 -17.1945 -17.1849
   -17.1822 -17.1738 -17.1631 -17.1522 -17.1468 -17.1431 -17.1236 -17.1056
   -17.1026 -17.0940 -17.0831 -17.0674 -17.0599 -17.0495 -17.0363 -17.0263
   -17.0164 -17.0050 -16.9780 -16.9717 -16.9699 -16.9475 -16.9391 -16.9020
    -4.1436  -4.0010  -3.6734  -3.6347  -2.4538  -2.1689  -2.0670  -1.8807
    -0.1695  -0.0286   0.3321   0.5395   2.1506   2.3927   2.5243   2.7059
     2.9315   3.0315   3.1096   3.2240   4.1697   4.3423   4.4669   4.4860
     4.5493   4.5913   4.6940   4.7624   5.6000   5.6944   5.8080   5.9345
     9.1487   9.2880   9.5094   9.6133   9.6434   9.7252  10.1675  10.2637
    10.3012  10.4347  10.5486  10.7038  11.2093  11.4281

     occupation numbers 
     1.0000   1.0000   1.0000   1.0000   1.0000   1.0000   1.0000   1.0000
     1.0000   1.0000   1.0000   1.0000   1.0000   1.0000   1.0000   1.0000
     1.0000   1.0000   1.0000   1.0000   1.0000   1.0000   1.0000   1.0000
     1.0000   1.0000   1.0000   1.0000   1.0000   1.0000   1.0000   1.0000
     1.0000   1.0000   1.0000   1.0000   1.0000   1.0000   1.0000   1.0000
     1.0000   1.0000   1.0000   1.0000   1.0000   1.0000   1.0000   1.0000
     1.0000   1.0000   1.0000   1.0000   1.0000   1.0000   1.0000   1.0000
     1.0000   1.0000   1.0000   1.0000   1.0000   1.0000   1.0000   1.0000
     1.0000   1.0000   1.0000   1.0000   1.0000   1.0000   1.0000   1.0000
     0.0000   0.0000   0.0000   0.0000   0.0000   0.0000   0.0000   0.0000
     0.0000   0.0000   0.0000   0.0000   0.0000   0.0000

          k =-0.3658 0.3515 0.0019 (  8078 PWs)   bands (ev):

   -17.4230 -17.3793 -17.3629 -17.3496 -17.3452 -17.2944 -17.2779 -17.2462
   -17.2426 -17.2365 -17.2335 -17.2307 -17.2150 -17.2112 -17.1946 -17.1851
   -17.1824 -17.1741 -17.1632 -17.1520 -17.1467 -17.1423 -17.1231 -17.1060
   -17.1029 -17.0944 -17.0830 -17.0678 -17.0599 -17.0493 -17.0363 -17.0258
   -17.0162 -17.0049 -16.9787 -16.9717 -16.9701 -16.9474 -16.9394 -16.9017
    -4.6546  -3.7667  -3.5692  -2.8863  -2.5115  -2.3966  -2.2244  -1.4872
    -0.6183  -0.1097   0.2106   0.7246   0.9140   1.5664   1.6898   2.9109
     3.5613   3.6267   3.7303   3.8353   4.1733   4.3387   4.4607   4.7548
     4.9036   5.0233   5.2184   5.3163   5.5799   5.6838   5.7916   7.0362
     8.3541   8.7409   8.9806   9.1702   9.3502   9.5143   9.5921   9.7713
     9.8084  10.0635  10.1963  10.3513  10.4498  10.5810

     occupation numbers 
     1.0000   1.0000   1.0000   1.0000   1.0000   1.0000   1.0000   1.0000
     1.0000   1.0000   1.0000   1.0000   1.0000   1.0000   1.0000   1.0000
     1.0000   1.0000   1.0000   1.0000   1.0000   1.0000   1.0000   1.0000
     1.0000   1.0000   1.0000   1.0000   1.0000   1.0000   1.0000   1.0000
     1.0000   1.0000   1.0000   1.0000   1.0000   1.0000   1.0000   1.0000
     1.0000   1.0000   1.0000   1.0000   1.0000   1.0000   1.0000   1.0000
     1.0000   1.0000   1.0000   1.0000   1.0000   1.0000   1.0000   1.0000
     1.0000   1.0000   1.0000   1.0000   1.0000   1.0000   1.0000   1.0000
     1.0000   1.0000   1.0000   1.0000   1.0000   1.0000   1.0000   0.9868
     0.0000   0.0000   0.0000   0.0000   0.0000   0.0000   0.0000   0.0000
     0.0000   0.0000   0.0000   0.0000   0.0000   0.0000

          k =-0.1835 0.5257-0.1733 (  8083 PWs)   bands (ev):

   -17.4230 -17.3793 -17.3629 -17.3495 -17.3452 -17.2947 -17.2784 -17.2462
   -17.2428 -17.2365 -17.2333 -17.2307 -17.2150 -17.2113 -17.1946 -17.1844
   -17.1820 -17.1740 -17.1631 -17.1522 -17.1469 -17.1433 -17.1237 -17.1062
   -17.1031 -17.0944 -17.0830 -17.0674 -17.0597 -17.0493 -17.0363 -17.0259
   -17.0157 -17.0051 -16.9791 -16.9718 -16.9701 -16.9474 -16.9393 -16.9018
    -4.5110  -3.9288  -3.4466  -3.0441  -3.0063  -2.2639  -1.7658  -1.6829
    -0.4267  -0.1520   0.3184   0.7942   1.0734   1.7102   2.2249   2.9544
     3.1323   3.2493   3.5644   3.7164   3.7849   4.1832   4.2393   4.5024
     4.7810   5.0888   5.1608   5.4427   5.5142   5.9164   6.0499   6.5592
     8.5016   8.8363   9.2465   9.3381   9.4577   9.5222   9.7437  10.0150
    10.1707  10.3728  10.6222  10.8380  10.9795  11.0451

     occupation numbers 
     1.0000   1.0000   1.0000   1.0000   1.0000   1.0000   1.0000   1.0000
     1.0000   1.0000   1.0000   1.0000   1.0000   1.0000   1.0000   1.0000
     1.0000   1.0000   1.0000   1.0000   1.0000   1.0000   1.0000   1.0000
     1.0000   1.0000   1.0000   1.0000   1.0000   1.0000   1.0000   1.0000
     1.0000   1.0000   1.0000   1.0000   1.0000   1.0000   1.0000   1.0000
     1.0000   1.0000   1.0000   1.0000   1.0000   1.0000   1.0000   1.0000
     1.0000   1.0000   1.0000   1.0000   1.0000   1.0000   1.0000   1.0000
     1.0000   1.0000   1.0000   1.0000   1.0000   1.0000   1.0000   1.0000
     1.0000   1.0000   1.0000   1.0000   1.0000   1.0000   1.0000   1.0000
     0.0000   0.0000   0.0000   0.0000   0.0000   0.0000   0.0000   0.0000
     0.0000   0.0000   0.0000   0.0000   0.0000   0.0000

          k =-0.7304 0.0032 0.3524 (  8095 PWs)   bands (ev):

   -17.4231 -17.3794 -17.3628 -17.3495 -17.3452 -17.2947 -17.2781 -17.2464
   -17.2427 -17.2364 -17.2329 -17.2306 -17.2150 -17.2112 -17.1945 -17.1842
   -17.1821 -17.1738 -17.1630 -17.1522 -17.1469 -17.1440 -17.1241 -17.1060
   -17.1028 -17.0940 -17.0830 -17.0671 -17.0595 -17.0493 -17.0363 -17.0258
   -17.0163 -17.0050 -16.9789 -16.9717 -16.9699 -16.9475 -16.9393 -16.9016
    -4.1530  -3.9164  -3.8218  -3.5854  -2.4128  -2.1232  -2.0789  -1.9185
    -0.1899   0.0755   0.2619   0.5048   2.1864   2.3352   2.4826   2.7762
     2.9371   2.9621   3.1053   3.2347   4.1961   4.3061   4.4540   4.4800
     4.5298   4.6080   4.7333   4.7703   5.6125   5.7417   5.8564   5.9109
     9.1256   9.2859   9.4846   9.5561   9.6845   9.7638  10.1722  10.2859
    10.3699  10.4734  10.5823  10.7553  11.2759  11.3934

     occupation numbers 
     1.0000   1.0000   1.0000   1.0000   1.0000   1.0000   1.0000   1.0000
     1.0000   1.0000   1.0000   1.0000   1.0000   1.0000   1.0000   1.0000
     1.0000   1.0000   1.0000   1.0000   1.0000   1.0000   1.0000   1.0000
     1.0000   1.0000   1.0000   1.0000   1.0000   1.0000   1.0000   1.0000
     1.0000   1.0000   1.0000   1.0000   1.0000   1.0000   1.0000   1.0000
     1.0000   1.0000   1.0000   1.0000   1.0000   1.0000   1.0000   1.0000
     1.0000   1.0000   1.0000   1.0000   1.0000   1.0000   1.0000   1.0000
     1.0000   1.0000   1.0000   1.0000   1.0000   1.0000   1.0000   1.0000
     1.0000   1.0000   1.0000   1.0000   1.0000   1.0000   1.0000   1.0000
     0.0000   0.0000   0.0000   0.0000   0.0000   0.0000   0.0000   0.0000
     0.0000   0.0000   0.0000   0.0000   0.0000   0.0000

          k =-0.5481 0.1774 0.1772 (  8084 PWs)   bands (ev):

   -17.4231 -17.3792 -17.3629 -17.3496 -17.3453 -17.2944 -17.2777 -17.2465
   -17.2424 -17.2365 -17.2330 -17.2307 -17.2150 -17.2111 -17.1944 -17.1850
   -17.1824 -17.1739 -17.1632 -17.1520 -17.1468 -17.1431 -17.1236 -17.1057
   -17.1026 -17.0941 -17.0830 -17.0675 -17.0598 -17.0493 -17.0364 -17.0259
   -17.0168 -17.0048 -16.9785 -16.9716 -16.9699 -16.9475 -16.9394 -16.9015
    -4.4446  -4.0035  -3.4144  -3.0357  -2.9923  -2.2948  -1.8637  -1.7561
    -0.3817  -0.2179   0.2821   0.8526   1.2098   1.9129   2.2689   3.0794
     3.1233   3.2951   3.6999   3.8572   3.9514   4.2229   4.2728   4.4739
     4.6352   4.9226   5.0757   5.1599   5.3778   5.7156   5.9834   6.2845
     8.1770   8.6399   8.9374   9.3033   9.5214   9.6272   9.8534  10.0089
    10.1595  10.3517  10.4584  10.7541  10.8502  11.1478

     occupation numbers 
     1.0000   1.0000   1.0000   1.0000   1.0000   1.0000   1.0000   1.0000
     1.0000   1.0000   1.0000   1.0000   1.0000   1.0000   1.0000   1.0000
     1.0000   1.0000   1.0000   1.0000   1.0000   1.0000   1.0000   1.0000
     1.0000   1.0000   1.0000   1.0000   1.0000   1.0000   1.0000   1.0000
     1.0000   1.0000   1.0000   1.0000   1.0000   1.0000   1.0000   1.0000
     1.0000   1.0000   1.0000   1.0000   1.0000   1.0000   1.0000   1.0000
     1.0000   1.0000   1.0000   1.0000   1.0000   1.0000   1.0000   1.0000
     1.0000   1.0000   1.0000   1.0000   1.0000   1.0000   1.0000   1.0000
     1.0000   1.0000   1.0000   1.0000   1.0000   1.0000   1.0000   1.0000
     0.0000   0.0000   0.0000   0.0000   0.0000   0.0000   0.0000   0.0000
     0.0000   0.0000   0.0000   0.0000   0.0000   0.0000

          k = 0.3658-0.3535-0.3543 (  8088 PWs)   bands (ev):

   -17.4233 -17.3792 -17.3628 -17.3496 -17.3452 -17.2950 -17.2773 -17.2461
   -17.2427 -17.2365 -17.2331 -17.2307 -17.2149 -17.2111 -17.1944 -17.1854
   -17.1817 -17.1736 -17.1634 -17.1521 -17.1468 -17.1423 -17.1245 -17.1060
   -17.1027 -17.0941 -17.0821 -17.0679 -17.0596 -17.0494 -17.0362 -17.0253
   -17.0170 -17.0052 -16.9790 -16.9717 -16.9700 -16.9473 -16.9395 -16.9012
    -4.4137  -4.3724  -2.9696  -2.6783  -2.5804  -2.3527  -2.3242  -2.2013
    -0.0221   0.1124   0.3435   0.4700   0.7480   0.8878   2.7663   3.2011
     3.4689   3.5121   3.5694   3.6214   3.7188   3.7934   4.5133   4.8690
     4.8894   4.9390   5.1802   5.3159   6.1235   6.3945   6.4494   6.8005
     8.0100   8.3652   8.4829   8.5404   8.6225   8.7064   8.7818   9.2526
    10.4750  10.6638  10.9239  10.9836  11.3264  11.5620

     occupation numbers 
     1.0000   1.0000   1.0000   1.0000   1.0000   1.0000   1.0000   1.0000
     1.0000   1.0000   1.0000   1.0000   1.0000   1.0000   1.0000   1.0000
     1.0000   1.0000   1.0000   1.0000   1.0000   1.0000   1.0000   1.0000
     1.0000   1.0000   1.0000   1.0000   1.0000   1.0000   1.0000   1.0000
     1.0000   1.0000   1.0000   1.0000   1.0000   1.0000   1.0000   1.0000
     1.0000   1.0000   1.0000   1.0000   1.0000   1.0000   1.0000   1.0000
     1.0000   1.0000   1.0000   1.0000   1.0000   1.0000   1.0000   1.0000
     1.0000   1.0000   1.0000   1.0000   1.0000   1.0000   1.0000   1.0000
     1.0000   1.0000   1.0000   1.0000   1.0000   1.0000   1.0000   0.9999
     0.0000   0.0000   0.0000   0.0000   0.0000   0.0000   0.0000   0.0000
     0.0000   0.0000   0.0000   0.0000   0.0000   0.0000

          k = 0.5481-0.1793-0.5296 (  8082 PWs)   bands (ev):

   -17.4231 -17.3793 -17.3628 -17.3496 -17.3452 -17.2952 -17.2778 -17.2460
   -17.2428 -17.2365 -17.2331 -17.2307 -17.2149 -17.2113 -17.1946 -17.1846
   -17.1813 -17.1736 -17.1633 -17.1523 -17.1469 -17.1432 -17.1251 -17.1063
   -17.1028 -17.0939 -17.0821 -17.0674 -17.0594 -17.0493 -17.0361 -17.0253
   -17.0164 -17.0054 -16.9793 -16.9717 -16.9701 -16.9473 -16.9395 -16.9013
    -4.4693  -3.9724  -3.5491  -3.0017  -2.8418  -2.3954  -1.7603  -1.7063
    -0.3012  -0.2037   0.2223   0.8916   1.0247   1.7927   2.2263   3.0711
     3.1363   3.1665   3.6071   3.6967   3.8011   4.1003   4.2734   4.5187
     4.6880   4.9650   5.3299   5.3930   5.4870   5.8521   6.0245   6.6046
     8.4864   8.9330   9.0190   9.2810   9.3903   9.4618   9.7492  10.0687
    10.1919  10.3416  10.6481  10.8358  10.9063  11.0437

     occupation numbers 
     1.0000   1.0000   1.0000   1.0000   1.0000   1.0000   1.0000   1.0000
     1.0000   1.0000   1.0000   1.0000   1.0000   1.0000   1.0000   1.0000
     1.0000   1.0000   1.0000   1.0000   1.0000   1.0000   1.0000   1.0000
     1.0000   1.0000   1.0000   1.0000   1.0000   1.0000   1.0000   1.0000
     1.0000   1.0000   1.0000   1.0000   1.0000   1.0000   1.0000   1.0000
     1.0000   1.0000   1.0000   1.0000   1.0000   1.0000   1.0000   1.0000
     1.0000   1.0000   1.0000   1.0000   1.0000   1.0000   1.0000   1.0000
     1.0000   1.0000   1.0000   1.0000   1.0000   1.0000   1.0000   1.0000
     1.0000   1.0000   1.0000   1.0000   1.0000   1.0000   1.0000   1.0000
     0.0000   0.0000   0.0000   0.0000   0.0000   0.0000   0.0000   0.0000
     0.0000   0.0000   0.0000   0.0000   0.0000   0.0000

          k = 0.0013-0.7018-0.0038 (  8092 PWs)   bands (ev):

   -17.4229 -17.3793 -17.3627 -17.3496 -17.3452 -17.2953 -17.2782 -17.2460
   -17.2429 -17.2364 -17.2331 -17.2306 -17.2150 -17.2113 -17.1946 -17.1839
   -17.1809 -17.1736 -17.1631 -17.1524 -17.1471 -17.1442 -17.1257 -17.1065
   -17.1030 -17.0939 -17.0821 -17.0669 -17.0592 -17.0492 -17.0360 -17.0253
   -17.0160 -17.0057 -16.9796 -16.9718 -16.9701 -16.9473 -16.9394 -16.9014
    -4.2234  -4.1356  -3.3713  -3.1953  -3.0444  -2.9137  -1.1152  -1.0002
    -0.8660  -0.7747   1.0144   1.2341   1.2892   1.4203   2.8582   3.1165
     3.2217   3.2714   3.3184   3.3619   3.4472   3.4603   3.5218   3.6144
     5.1517   5.3395   5.4980   5.5128   5.8385   5.9843   6.0506   6.2082
     8.1926   8.4465   9.3313   9.4244   9.4911   9.6381  10.1332  10.1692
    11.1324  11.2052  11.3703  11.4528  11.5144  11.5987

     occupation numbers 
     1.0000   1.0000   1.0000   1.0000   1.0000   1.0000   1.0000   1.0000
     1.0000   1.0000   1.0000   1.0000   1.0000   1.0000   1.0000   1.0000
     1.0000   1.0000   1.0000   1.0000   1.0000   1.0000   1.0000   1.0000
     1.0000   1.0000   1.0000   1.0000   1.0000   1.0000   1.0000   1.0000
     1.0000   1.0000   1.0000   1.0000   1.0000   1.0000   1.0000   1.0000
     1.0000   1.0000   1.0000   1.0000   1.0000   1.0000   1.0000   1.0000
     1.0000   1.0000   1.0000   1.0000   1.0000   1.0000   1.0000   1.0000
     1.0000   1.0000   1.0000   1.0000   1.0000   1.0000   1.0000   1.0000
     1.0000   1.0000   1.0000   1.0000   1.0000   1.0000   1.0000   1.0000
     0.0000   0.0000   0.0000   0.0000   0.0000   0.0000   0.0000   0.0000
     0.0000   0.0000   0.0000   0.0000   0.0000   0.0000

          k = 0.5487-0.5283-0.1791 (  8073 PWs)   bands (ev):

   -17.4231 -17.3792 -17.3630 -17.3496 -17.3452 -17.2950 -17.2777 -17.2461
   -17.2427 -17.2366 -17.2334 -17.2304 -17.2150 -17.2112 -17.1946 -17.1854
   -17.1815 -17.1736 -17.1634 -17.1522 -17.1468 -17.1424 -17.1244 -17.1060
   -17.1027 -17.0940 -17.0821 -17.0678 -17.0597 -17.0494 -17.0361 -17.0258
   -17.0165 -17.0054 -16.9786 -16.9717 -16.9701 -16.9474 -16.9393 -16.9017
    -4.4671  -4.0005  -3.4393  -3.1366  -2.7926  -2.3908  -1.8603  -1.6031
    -0.3682  -0.2310   0.2870   0.9416   1.0353   1.7612   2.2298   3.0684
     3.1256   3.1919   3.5960   3.7454   3.7836   4.1417   4.2889   4.5321
     4.7163   4.9806   5.2950   5.3196   5.4612   5.8182   5.9858   6.5793
     8.4814   8.8913   9.0801   9.2700   9.4379   9.4944   9.6801  10.0347
    10.2136  10.3383  10.6177  10.8132  10.9021  11.0958

     occupation numbers 
     1.0000   1.0000   1.0000   1.0000   1.0000   1.0000   1.0000   1.0000
     1.0000   1.0000   1.0000   1.0000   1.0000   1.0000   1.0000   1.0000
     1.0000   1.0000   1.0000   1.0000   1.0000   1.0000   1.0000   1.0000
     1.0000   1.0000   1.0000   1.0000   1.0000   1.0000   1.0000   1.0000
     1.0000   1.0000   1.0000   1.0000   1.0000   1.0000   1.0000   1.0000
     1.0000   1.0000   1.0000   1.0000   1.0000   1.0000   1.0000   1.0000
     1.0000   1.0000   1.0000   1.0000   1.0000   1.0000   1.0000   1.0000
     1.0000   1.0000   1.0000   1.0000   1.0000   1.0000   1.0000   1.0000
     1.0000   1.0000   1.0000   1.0000   1.0000   1.0000   1.0000   1.0000
     0.0000   0.0000   0.0000   0.0000   0.0000   0.0000   0.0000   0.0000
     0.0000   0.0000   0.0000   0.0000   0.0000   0.0000

          k = 0.7310-0.3541-0.3543 (  8090 PWs)   bands (ev):

   -17.4230 -17.3793 -17.3630 -17.3495 -17.3453 -17.2952 -17.2778 -17.2463
   -17.2427 -17.2365 -17.2335 -17.2304 -17.2150 -17.2112 -17.1945 -17.1847
   -17.1816 -17.1736 -17.1634 -17.1524 -17.1469 -17.1432 -17.1251 -17.1057
   -17.1025 -17.0941 -17.0822 -17.0674 -17.0595 -17.0493 -17.0362 -17.0258
   -17.0171 -17.0053 -16.9786 -16.9717 -16.9701 -16.9474 -16.9393 -16.9016
    -4.6622  -3.7632  -3.5131  -2.8074  -2.7034  -2.3870  -2.2505  -1.4756
    -0.4386  -0.0844   0.1060   0.6205   0.9630   1.5493   1.7071   2.9314
     3.4829   3.6231   3.8648   3.9695   4.2397   4.3235   4.4460   4.5235
     5.0540   5.1190   5.2713   5.3275   5.3876   5.6003   5.8163   6.8053
     8.0111   8.8342   8.8967   9.1967   9.2592   9.4556   9.7153   9.9049
    10.1500  10.3114  10.3858  10.5189  10.6444  10.6843

     occupation numbers 
     1.0000   1.0000   1.0000   1.0000   1.0000   1.0000   1.0000   1.0000
     1.0000   1.0000   1.0000   1.0000   1.0000   1.0000   1.0000   1.0000
     1.0000   1.0000   1.0000   1.0000   1.0000   1.0000   1.0000   1.0000
     1.0000   1.0000   1.0000   1.0000   1.0000   1.0000   1.0000   1.0000
     1.0000   1.0000   1.0000   1.0000   1.0000   1.0000   1.0000   1.0000
     1.0000   1.0000   1.0000   1.0000   1.0000   1.0000   1.0000   1.0000
     1.0000   1.0000   1.0000   1.0000   1.0000   1.0000   1.0000   1.0000
     1.0000   1.0000   1.0000   1.0000   1.0000   1.0000   1.0000   1.0000
     1.0000   1.0000   1.0000   1.0000   1.0000   1.0000   1.0000   0.9999
     0.0000   0.0000   0.0000   0.0000   0.0000   0.0000   0.0000   0.0000
     0.0000   0.0000   0.0000   0.0000   0.0000   0.0000

          k = 0.1842-0.8766 0.1714 (  8074 PWs)   bands (ev):

   -17.4227 -17.3793 -17.3629 -17.3494 -17.3451 -17.2953 -17.2781 -17.2463
   -17.2428 -17.2364 -17.2334 -17.2303 -17.2149 -17.2113 -17.1945 -17.1839
   -17.1812 -17.1736 -17.1632 -17.1525 -17.1469 -17.1441 -17.1256 -17.1059
   -17.1027 -17.0940 -17.0820 -17.0670 -17.0592 -17.0492 -17.0360 -17.0258
   -17.0165 -17.0055 -16.9789 -16.9717 -16.9701 -16.9472 -16.9393 -16.9016
    -4.5013  -3.9533  -3.4228  -3.0484  -2.9945  -2.2864  -1.8171  -1.6412
    -0.3728  -0.1527   0.2113   0.8027   1.1109   1.7655   2.2084   3.0045
     3.0999   3.2218   3.5846   3.7714   3.8218   4.1179   4.2711   4.5249
     4.7462   5.0375   5.2408   5.3997   5.4981   5.8642   6.0487   6.5479
     8.5401   8.9001   9.0788   9.2836   9.3525   9.4898   9.7019  10.0410
    10.1241  10.3189  10.5530  10.8860  10.9656  11.0502

     occupation numbers 
     1.0000   1.0000   1.0000   1.0000   1.0000   1.0000   1.0000   1.0000
     1.0000   1.0000   1.0000   1.0000   1.0000   1.0000   1.0000   1.0000
     1.0000   1.0000   1.0000   1.0000   1.0000   1.0000   1.0000   1.0000
     1.0000   1.0000   1.0000   1.0000   1.0000   1.0000   1.0000   1.0000
     1.0000   1.0000   1.0000   1.0000   1.0000   1.0000   1.0000   1.0000
     1.0000   1.0000   1.0000   1.0000   1.0000   1.0000   1.0000   1.0000
     1.0000   1.0000   1.0000   1.0000   1.0000   1.0000   1.0000   1.0000
     1.0000   1.0000   1.0000   1.0000   1.0000   1.0000   1.0000   1.0000
     1.0000   1.0000   1.0000   1.0000   1.0000   1.0000   1.0000   1.0000
     0.0000   0.0000   0.0000   0.0000   0.0000   0.0000   0.0000   0.0000
     0.0000   0.0000   0.0000   0.0000   0.0000   0.0000

          k = 0.3665-0.7024-0.0039 (  8067 PWs)   bands (ev):

   -17.4229 -17.3792 -17.3629 -17.3496 -17.3451 -17.2951 -17.2781 -17.2461
   -17.2428 -17.2365 -17.2332 -17.2304 -17.2149 -17.2113 -17.1947 -17.1846
   -17.1811 -17.1735 -17.1632 -17.1524 -17.1469 -17.1433 -17.1250 -17.1062
   -17.1029 -17.0938 -17.0820 -17.0673 -17.0595 -17.0494 -17.0360 -17.0259
   -17.0160 -17.0056 -16.9790 -16.9717 -16.9701 -16.9472 -16.9393 -16.9018
    -4.1449  -3.9563  -3.8578  -3.5689  -2.3860  -2.1683  -1.9511  -1.8252
    -0.1988  -0.0632   0.3705   0.4417   2.1016   2.2788   2.4153   2.6796
     2.8749   2.9212   2.9894   3.1066   4.2559   4.3273   4.4527   4.5233
     4.6910   4.7398   4.8096   4.8832   5.7025   5.7915   5.8327   5.9949
     9.4733   9.5461   9.6321   9.6882   9.8204   9.9777  10.0686  10.2101
    10.4785  10.5571  10.7504  11.0052  11.1820  11.2528

     occupation numbers 
     1.0000   1.0000   1.0000   1.0000   1.0000   1.0000   1.0000   1.0000
     1.0000   1.0000   1.0000   1.0000   1.0000   1.0000   1.0000   1.0000
     1.0000   1.0000   1.0000   1.0000   1.0000   1.0000   1.0000   1.0000
     1.0000   1.0000   1.0000   1.0000   1.0000   1.0000   1.0000   1.0000
     1.0000   1.0000   1.0000   1.0000   1.0000   1.0000   1.0000   1.0000
     1.0000   1.0000   1.0000   1.0000   1.0000   1.0000   1.0000   1.0000
     1.0000   1.0000   1.0000   1.0000   1.0000   1.0000   1.0000   1.0000
     1.0000   1.0000   1.0000   1.0000   1.0000   1.0000   1.0000   1.0000
     1.0000   1.0000   1.0000   1.0000   1.0000   1.0000   1.0000   1.0000
     0.0000   0.0000   0.0000   0.0000   0.0000   0.0000   0.0000   0.0000
     0.0000   0.0000   0.0000   0.0000   0.0000   0.0000

          k = 0.0000-0.0038-0.7047 (  8072 PWs)   bands (ev):

   -17.4229 -17.3792 -17.3631 -17.3496 -17.3453 -17.2949 -17.2782 -17.2462
   -17.2427 -17.2367 -17.2336 -17.2302 -17.2150 -17.2112 -17.1947 -17.1854
   -17.1814 -17.1736 -17.1634 -17.1524 -17.1470 -17.1424 -17.1244 -17.1061
   -17.1027 -17.0939 -17.0822 -17.0678 -17.0598 -17.0495 -17.0360 -17.0265
   -17.0161 -17.0056 -16.9783 -16.9718 -16.9700 -16.9474 -16.9392 -16.9021
    -4.2679  -4.0735  -3.3705  -3.1971  -3.0338  -2.9351  -1.1879  -0.9972
    -0.9646  -0.6567   1.0729   1.2219   1.3417   1.3994   2.9259   2.9979
     3.1832   3.3181   3.3467   3.4061   3.4462   3.5038   3.5425   3.6404
     5.2561   5.3019   5.3847   5.4517   5.8168   5.9345   6.0436   6.1297
     8.2545   8.3340   9.3488   9.4032   9.4799   9.5922  10.0893  10.2017
    11.1319  11.2668  11.3545  11.4586  11.5835  11.6396

     occupation numbers 
     1.0000   1.0000   1.0000   1.0000   1.0000   1.0000   1.0000   1.0000
     1.0000   1.0000   1.0000   1.0000   1.0000   1.0000   1.0000   1.0000
     1.0000   1.0000   1.0000   1.0000   1.0000   1.0000   1.0000   1.0000
     1.0000   1.0000   1.0000   1.0000   1.0000   1.0000   1.0000   1.0000
     1.0000   1.0000   1.0000   1.0000   1.0000   1.0000   1.0000   1.0000
     1.0000   1.0000   1.0000   1.0000   1.0000   1.0000   1.0000   1.0000
     1.0000   1.0000   1.0000   1.0000   1.0000   1.0000   1.0000   1.0000
     1.0000   1.0000   1.0000   1.0000   1.0000   1.0000   1.0000   1.0000
     1.0000   1.0000   1.0000   1.0000   1.0000   1.0000   1.0000   1.0000
     0.0000   0.0000   0.0000   0.0000   0.0000   0.0000   0.0000   0.0000
     0.0000   0.0000   0.0000   0.0000   0.0000   0.0000

          k = 0.1823 0.1703-0.8800 (  8081 PWs)   bands (ev):

   -17.4228 -17.3792 -17.3631 -17.3494 -17.3452 -17.2951 -17.2782 -17.2464
   -17.2427 -17.2366 -17.2335 -17.2301 -17.2150 -17.2112 -17.1946 -17.1847
   -17.1814 -17.1736 -17.1633 -17.1526 -17.1468 -17.1432 -17.1250 -17.1057
   -17.1026 -17.0940 -17.0821 -17.0674 -17.0596 -17.0494 -17.0360 -17.0264
   -17.0166 -17.0054 -16.9782 -16.9716 -16.9701 -16.9473 -16.9391 -16.9020
    -4.5044  -3.9303  -3.4798  -3.0576  -2.8870  -2.3603  -1.7892  -1.6907
    -0.3600  -0.1706   0.2402   0.8699   1.0576   1.7505   2.2557   2.9607
     3.1111   3.2630   3.6102   3.7924   3.8288   4.0582   4.2938   4.5228
     4.7420   5.0383   5.2654   5.3633   5.4472   5.8817   6.0477   6.4953
     8.5134   8.9056   9.1404   9.2100   9.3220   9.4725   9.6823  10.0862
    10.1252  10.2486  10.6154  10.9030  10.9522  11.0823

     occupation numbers 
     1.0000   1.0000   1.0000   1.0000   1.0000   1.0000   1.0000   1.0000
     1.0000   1.0000   1.0000   1.0000   1.0000   1.0000   1.0000   1.0000
     1.0000   1.0000   1.0000   1.0000   1.0000   1.0000   1.0000   1.0000
     1.0000   1.0000   1.0000   1.0000   1.0000   1.0000   1.0000   1.0000
     1.0000   1.0000   1.0000   1.0000   1.0000   1.0000   1.0000   1.0000
     1.0000   1.0000   1.0000   1.0000   1.0000   1.0000   1.0000   1.0000
     1.0000   1.0000   1.0000   1.0000   1.0000   1.0000   1.0000   1.0000
     1.0000   1.0000   1.0000   1.0000   1.0000   1.0000   1.0000   1.0000
     1.0000   1.0000   1.0000   1.0000   1.0000   1.0000   1.0000   1.0000
     0.0000   0.0000   0.0000   0.0000   0.0000   0.0000   0.0000   0.0000
     0.0000   0.0000   0.0000   0.0000   0.0000   0.0000

          k =-0.3645-0.3522-0.3543 (  8096 PWs)   bands (ev):

   -17.4226 -17.3793 -17.3630 -17.3492 -17.3451 -17.2952 -17.2781 -17.2466
   -17.2427 -17.2365 -17.2336 -17.2299 -17.2149 -17.2111 -17.1944 -17.1839
   -17.1814 -17.1735 -17.1631 -17.1526 -17.1469 -17.1439 -17.1256 -17.1052
   -17.1023 -17.0941 -17.0821 -17.0670 -17.0593 -17.0493 -17.0361 -17.0263
   -17.0171 -17.0053 -16.9781 -16.9715 -16.9701 -16.9472 -16.9391 -16.9020
    -4.5528  -4.2190  -2.8328  -2.7271  -2.7167  -2.3766  -2.3403  -2.1049
     0.0029   0.1520   0.2596   0.4703   0.7181   0.8447   2.8439   2.9826
     3.4299   3.4842   3.6246   3.6800   3.7977   3.8766   4.5787   4.7251
     4.9503   5.0514   5.1882   5.2716   6.2687   6.3706   6.5465   6.6679
     8.2454   8.2862   8.3298   8.5230   8.7010   8.7086   8.8370   8.9296
    10.4863  10.7463  10.8360  10.9403  11.3678  11.4941

     occupation numbers 
     1.0000   1.0000   1.0000   1.0000   1.0000   1.0000   1.0000   1.0000
     1.0000   1.0000   1.0000   1.0000   1.0000   1.0000   1.0000   1.0000
     1.0000   1.0000   1.0000   1.0000   1.0000   1.0000   1.0000   1.0000
     1.0000   1.0000   1.0000   1.0000   1.0000   1.0000   1.0000   1.0000
     1.0000   1.0000   1.0000   1.0000   1.0000   1.0000   1.0000   1.0000
     1.0000   1.0000   1.0000   1.0000   1.0000   1.0000   1.0000   1.0000
     1.0000   1.0000   1.0000   1.0000   1.0000   1.0000   1.0000   1.0000
     1.0000   1.0000   1.0000   1.0000   1.0000   1.0000   1.0000   1.0000
     1.0000   1.0000   1.0000   1.0000   1.0000   1.0000   1.0000   1.0000
     0.0000   0.0000   0.0000   0.0000   0.0000   0.0000   0.0000   0.0000
     0.0000   0.0000   0.0000   0.0000   0.0000   0.0000

     the Fermi energy is     7.3564 ev

!    total energy              =   -1781.91172979 Ry
     Harris-Foulkes estimate   =   -1781.91172978 Ry
     estimated scf accuracy    <          1.4E-10 Ry

     The total energy is the sum of the following terms:

     one-electron contribution =   -1269.94340461 Ry
     hartree contribution      =     749.95553350 Ry
     xc contribution           =    -495.08363761 Ry
     ewald contribution        =    -766.83928127 Ry
     smearing contrib. (-TS)   =      -0.00093979 Ry

     convergence has been achieved in  13 iterations

     Forces acting on atoms (Ry/au):

     atom    1 type  1   force =   0.58485035E-01  0.25100626E-01 -0.19609927E-01
     atom    2 type  2   force =   0.30648642E-01 -0.89854714E-02 -0.17304124E-01
     atom    3 type  1   force =  -0.29197093E-01 -0.38566471E-01 -0.21927258E-02
     atom    4 type  2   force =  -0.10067474E-01 -0.44307737E-02  0.42336475E-01
     atom    5 type  1   force =  -0.32750882E-01  0.27618205E-01  0.26278704E-01
     atom    6 type  2   force =  -0.34736219E-01  0.12288076E-01 -0.15820564E-02
     atom    7 type  1   force =   0.66580503E-02  0.73427816E-02  0.61852196E-02
     atom    8 type  1   force =  -0.16311932E-01  0.18694868E-01  0.84912995E-02
     atom    9 type  2   force =   0.15152221E-01  0.20249595E-01 -0.49126056E-02
     atom   10 type  2   force =   0.47088670E-03 -0.19714257E-02 -0.12746154E-01
     atom   11 type  2   force =  -0.12617752E-01 -0.22668140E-02  0.10792257E-01
     atom   12 type  1   force =  -0.41817925E-02 -0.33340435E-01  0.34929165E-01
     atom   13 type  1   force =  -0.24241296E-03 -0.11663720E-02  0.13519211E-01
     atom   14 type  1   force =   0.24112957E-01 -0.11606092E-03 -0.43188743E-01
     atom   15 type  2   force =  -0.93988948E-03 -0.11521104E-01 -0.12539220E-02
     atom   16 type  2   force =   0.55176536E-02 -0.89292232E-02 -0.39742074E-01
     The non-local contrib.  to forces
     atom    1 type  1   force =   0.31546773E-01  0.26797327E-01 -0.16624373E-01
     atom    2 type  2   force =   0.32899750E-01  0.18562583E-01 -0.13726816E-02
     atom    3 type  1   force =  -0.34398060E-01 -0.29295984E-01  0.44344374E-01
     atom    4 type  2   force =  -0.17140816E-02  0.24099615E-01  0.51536849E-01
     atom    5 type  1   force =  -0.39360349E-01  0.68580635E-01  0.37456281E-01
     atom    6 type  2   force =  -0.59689845E-02  0.24620759E-01  0.61509085E-02
     atom    7 type  1   force =  -0.45332024E-01  0.70500687E-02  0.32347131E-03
     atom    8 type  1   force =  -0.24113230E-01  0.22356087E-01  0.13759421E-01
     atom    9 type  2   force =   0.43433346E-01 -0.16790460E-01 -0.37158937E-01
     atom   10 type  2   force =  -0.21958494E-03 -0.26187041E-01 -0.91374032E-01
     atom   11 type  2   force =  -0.26938530E-01 -0.44274435E-01 -0.32056519E-01
     atom   12 type  1   force =   0.39450295E-02 -0.41419205E-01  0.26242181E-01
     atom   13 type  1   force =  -0.30919250E-02 -0.17784273E-01 -0.14080808E-01
     atom   14 type  1   force =   0.58598079E-01 -0.15594306E-02 -0.39224405E-01
     atom   15 type  2   force =   0.22144328E-01 -0.22364721E-01 -0.38321083E-02
     atom   16 type  2   force =   0.94793674E-02 -0.34305329E-01 -0.28342189E-01
     The ionic contribution  to forces
     atom    1 type  1   force =   0.78977098E-01  0.49360275E+00  0.21949194E+00
     atom    2 type  2   force =   0.62143800E+01 -0.61099382E+01 -0.58126562E+01
     atom    3 type  1   force =  -0.10749387E+01 -0.38222057E+00 -0.34256260E+01
     atom    4 type  2   force =   0.49650138E+01 -0.65918039E+01 -0.50933849E+01
     atom    5 type  1   force =  -0.55570474E+00 -0.29703739E+01 -0.13292423E+00
     atom    6 type  2   force =  -0.15841986E+01  0.65759689E+00 -0.43164636E+00
     atom    7 type  1   force =   0.16820262E+01  0.23946798E+01  0.22503640E+01
     atom    8 type  1   force =   0.13170561E+01 -0.12862469E+01 -0.15476891E+01
     atom    9 type  2   force =  -0.10719037E+02  0.69843918E+00 -0.56866940E+00
     atom   10 type  2   force =   0.13943187E+01  0.32612122E-01  0.12047763E+02
     atom   11 type  2   force =   0.64373725E+01  0.47312369E+01  0.58638522E+01
     atom   12 type  1   force =  -0.17797230E+01  0.14021822E+01  0.20657397E+01
     atom   13 type  1   force =   0.19355529E+01  0.11381682E+01  0.13759504E+01
     atom   14 type  1   force =  -0.30649289E+01  0.20995667E+00 -0.58764580E+00
     atom   15 type  2   force =  -0.49624222E+01 -0.62980507E+01 -0.58441425E+01
     atom   16 type  2   force =  -0.28374405E+00  0.11880160E+02 -0.37877682E+00
     The local contribution  to forces
     atom    1 type  1   force =  -0.49695545E-01 -0.49279060E+00 -0.22350050E+00
     atom    2 type  2   force =  -0.62137961E+01  0.60835676E+01  0.57955269E+01
     atom    3 type  1   force =   0.10763860E+01  0.36991255E+00  0.33830239E+01
     atom    4 type  2   force =  -0.49751512E+01  0.65607447E+01  0.50898432E+01
     atom    5 type  1   force =   0.55877166E+00  0.29359231E+01  0.12454406E+00
     atom    6 type  2   force =   0.15540797E+01 -0.66924744E+00  0.42199840E+00
     atom    7 type  1   force =  -0.16342772E+01 -0.23932520E+01 -0.22440936E+01
     atom    8 type  1   force =  -0.13113745E+01  0.12853242E+01  0.15436509E+01
     atom    9 type  2   force =   0.10696053E+02 -0.65794912E+00  0.60037373E+00
     atom   10 type  2   force =  -0.13927078E+01 -0.73542309E-02 -0.11971819E+02
     atom   11 type  2   force =  -0.64239294E+01 -0.46935018E+01 -0.58215641E+01
     atom   12 type  1   force =   0.17720115E+01 -0.13977948E+01 -0.20547792E+01
     atom   13 type  1   force =  -0.19328897E+01 -0.11239476E+01 -0.13500716E+01
     atom   14 type  1   force =   0.30360094E+01 -0.20908399E+00  0.57962796E+00
     atom   15 type  2   force =   0.49396690E+01  0.63080538E+01  0.58471692E+01
     atom   16 type  2   force =   0.28096232E+00 -0.11857396E+02  0.36487498E+00
     The core correction contribution to forces
     atom    1 type  1   force =  -0.23427880E-02 -0.25088851E-02  0.10225633E-02
     atom    2 type  2   force =  -0.28235052E-02 -0.11659303E-02  0.12024525E-02
     atom    3 type  1   force =   0.37541802E-02  0.30375724E-02 -0.39346869E-02
     atom    4 type  2   force =   0.17741295E-02  0.25174021E-02 -0.56541072E-02
     atom    5 type  1   force =   0.35446871E-02 -0.65122270E-02 -0.27971062E-02
     atom    6 type  2   force =   0.13448515E-02 -0.67363875E-03  0.19070859E-02
     atom    7 type  1   force =   0.42421388E-02 -0.11363618E-02 -0.40804927E-03
     atom    8 type  1   force =   0.21186702E-02 -0.27374141E-02 -0.12268810E-02
     atom    9 type  2   force =  -0.53047005E-02 -0.34438408E-02  0.54350213E-03
     atom   10 type  2   force =  -0.90896305E-03 -0.10528437E-02  0.26779117E-02
     atom   11 type  2   force =   0.87509461E-03  0.42769757E-02  0.56318692E-03
     atom   12 type  1   force =  -0.41317179E-03  0.36899274E-02 -0.22714796E-02
     atom   13 type  1   force =   0.18642276E-03  0.23973319E-02  0.17221686E-02
     atom   14 type  1   force =  -0.55629129E-02  0.57191638E-03  0.40523828E-02
     atom   15 type  2   force =  -0.32910782E-03  0.83675500E-03 -0.44628993E-03
     atom   16 type  2   force =  -0.11852985E-02  0.26063330E-02  0.24928320E-02
     The Hubbard contrib.    to forces
     atom    1 type  1   force =   0.00000000E+00  0.00000000E+00  0.00000000E+00
     atom    2 type  2   force =   0.00000000E+00  0.00000000E+00  0.00000000E+00
     atom    3 type  1   force =   0.00000000E+00  0.00000000E+00  0.00000000E+00
     atom    4 type  2   force =   0.00000000E+00  0.00000000E+00  0.00000000E+00
     atom    5 type  1   force =   0.00000000E+00  0.00000000E+00  0.00000000E+00
     atom    6 type  2   force =   0.00000000E+00  0.00000000E+00  0.00000000E+00
     atom    7 type  1   force =   0.00000000E+00  0.00000000E+00  0.00000000E+00
     atom    8 type  1   force =   0.00000000E+00  0.00000000E+00  0.00000000E+00
     atom    9 type  2   force =   0.00000000E+00  0.00000000E+00  0.00000000E+00
     atom   10 type  2   force =   0.00000000E+00  0.00000000E+00  0.00000000E+00
     atom   11 type  2   force =   0.00000000E+00  0.00000000E+00  0.00000000E+00
     atom   12 type  1   force =   0.00000000E+00  0.00000000E+00  0.00000000E+00
     atom   13 type  1   force =   0.00000000E+00  0.00000000E+00  0.00000000E+00
     atom   14 type  1   force =   0.00000000E+00  0.00000000E+00  0.00000000E+00
     atom   15 type  2   force =   0.00000000E+00  0.00000000E+00  0.00000000E+00
     atom   16 type  2   force =   0.00000000E+00  0.00000000E+00  0.00000000E+00
     The SCF correction term to forces
     atom    1 type  1   force =   0.13621284E-06 -0.36482173E-07  0.97267998E-06
     atom    2 type  2   force =  -0.10861615E-04 -0.11561367E-04 -0.40928590E-05
     atom    3 type  1   force =   0.16500413E-06 -0.11744174E-06  0.20667932E-06
     atom    4 type  2   force =   0.10577843E-04  0.11321159E-04 -0.40975189E-05
     atom    5 type  1   force =  -0.14980218E-05  0.55550877E-06  0.22620467E-06
     atom    6 type  2   force =   0.74140841E-05 -0.85627481E-05  0.84375675E-05
     atom    7 type  1   force =  -0.50399965E-06  0.11587227E-05 -0.23776131E-07
     atom    8 type  1   force =   0.15884123E-05 -0.11696601E-05 -0.25023193E-05
     atom    9 type  2   force =   0.85288933E-05 -0.62339725E-05 -0.97118298E-06
     atom   10 type  2   force =  -0.10808592E-04  0.10495234E-04  0.69360038E-05
     atom   11 type  2   force =   0.32967871E-05 -0.46129083E-05 -0.20363063E-05
     atom   12 type  1   force =  -0.14484695E-05  0.14225336E-05 -0.15651643E-05
     atom   13 type  1   force =   0.49496376E-06 -0.12116682E-06 -0.45350572E-06
     atom   14 type  1   force =  -0.20151072E-05 -0.12981842E-05  0.16495330E-05
     atom   15 type  2   force =  -0.12241965E-05  0.36740804E-05 -0.16507174E-05
     atom   16 type  2   force =   0.59567281E-05  0.57769279E-05  0.96551835E-05

     Total force =     0.150462     Total SCF correction =     0.000037


     entering subroutine stress ...

          total   stress  (Ry/bohr**3)                   (kbar)     P=   -3.95
   0.0000907128  -0.0000235200  -0.0000105936         13.34     -3.46     -1.56
  -0.0000235200  -0.0000918135   0.0000355206         -3.46    -13.51      5.23
  -0.0000105936   0.0000355206  -0.0000795100         -1.56      5.23    -11.70

     kinetic stress (kbar)   6380.28      0.02     -0.83
                                0.02   6342.16      6.48
                               -0.83      6.48   6346.34

     local   stress (kbar)  -1849.94     34.68   1068.41
                               34.68  -3088.63   -670.74
                             1068.41   -670.74  -3621.77

     nonloc. stress (kbar)   2466.51     -2.13      0.13
                               -2.13   2480.46      0.25
                                0.13      0.25   2477.10

     hartree stress (kbar)  15544.84     16.09   -523.79
                               16.09  15987.71    289.57
                             -523.79    289.57  16240.35

     exc-cor stress (kbar)  10857.34     -0.07      0.04
                               -0.07  10857.94     -0.04
                                0.04     -0.04  10857.90

     corecor stress (kbar) -16480.05      0.21      0.15
                                0.21 -16481.16     -0.19
                                0.15     -0.19 -16480.82

     ewald   stress (kbar) -16905.63    -52.26   -545.68
                              -52.26 -16111.99    379.89
                             -545.68    379.89 -15830.79

     hubbard stress (kbar)      0.00      0.00      0.00
                                0.00      0.00      0.00
                                0.00      0.00      0.00

     london  stress (kbar)      0.00      0.00      0.00
                                0.00      0.00      0.00
                                0.00      0.00      0.00

     XDM     stress (kbar)      0.00      0.00      0.00
                                0.00      0.00      0.00
                                0.00      0.00      0.00

     dft-nl  stress (kbar)      0.00      0.00      0.00
                                0.00      0.00      0.00
                                0.00      0.00      0.00



     Writing output data file Si_diamond.scf.in.super.222.replace4299.save

     init_run     :     13.85s CPU     12.59s WALL (       1 calls)
     electrons    :    602.15s CPU    544.66s WALL (       1 calls)
     forces       :      6.94s CPU      5.67s WALL (       1 calls)
     stress       :     11.80s CPU     11.62s WALL (       1 calls)

     Called by init_run:
     wfcinit      :     12.28s CPU     11.00s WALL (       1 calls)
     potinit      :      0.40s CPU      0.41s WALL (       1 calls)

     Called by electrons:
     c_bands      :    534.97s CPU    480.24s WALL (      14 calls)
     sum_band     :     62.18s CPU     59.28s WALL (      14 calls)
     v_of_rho     :      0.60s CPU      0.65s WALL (      14 calls)
     v_h          :      0.04s CPU      0.04s WALL (      14 calls)
     v_xc         :      0.63s CPU      0.69s WALL (      16 calls)
     newd         :      3.84s CPU      3.87s WALL (      14 calls)
     mix_rho      :      0.75s CPU      0.78s WALL (      14 calls)

     Called by c_bands:
     init_us_2    :      2.72s CPU      2.81s WALL (    1116 calls)
     cegterg      :    523.78s CPU    468.45s WALL (     504 calls)

     Called by sum_band:
     sum_band:bec :      0.95s CPU      0.98s WALL (     504 calls)
     addusdens    :      4.29s CPU      4.32s WALL (      14 calls)

     Called by *egterg:
     h_psi        :    237.53s CPU    224.19s WALL (    1958 calls)
     s_psi        :     34.89s CPU     23.65s WALL (    1958 calls)
     g_psi        :      0.44s CPU      0.44s WALL (    1418 calls)
     cdiaghg      :    149.05s CPU    134.36s WALL (    1886 calls)
     cegterg:over :     47.41s CPU     40.16s WALL (    1418 calls)
     cegterg:upda :     20.02s CPU     13.40s WALL (    1418 calls)
     cegterg:last :     13.09s CPU      8.09s WALL (     504 calls)

     Called by h_psi:
     h_psi:vloc   :    150.70s CPU    159.01s WALL (    1958 calls)
     h_psi:vnl    :     86.42s CPU     64.82s WALL (    1958 calls)
     add_vuspsi   :     38.23s CPU     26.00s WALL (    1958 calls)

     General routines
     calbec       :     71.05s CPU     57.28s WALL (    2534 calls)
     fft          :      0.95s CPU      1.01s WALL (     249 calls)
     ffts         :      0.52s CPU      0.56s WALL (     394 calls)
     fftw         :    174.83s CPU    184.00s WALL (  248588 calls)
     interpolate  :      0.12s CPU      0.14s WALL (      28 calls)

     Parallel routines
     fft_scatter  :     81.55s CPU     87.60s WALL (  249231 calls)

     PWSCF        : 10m37.02s CPU     9m37.38s WALL


   This run was terminated on:  20:11: 9   4Apr2018            

=------------------------------------------------------------------------------=
   JOB DONE.
=------------------------------------------------------------------------------=
