
     Program PWSCF v.5.1 starts on  4Apr2018 at 20:40:48 

     This program is part of the open-source Quantum ESPRESSO suite
     for quantum simulation of materials; please cite
         "P. Giannozzi et al., J. Phys.:Condens. Matter 21 395502 (2009);
          URL http://www.quantum-espresso.org", 
     in publications or presentations arising from this work. More details at
     http://www.quantum-espresso.org/quote

     Parallel version (MPI), running on    16 processors
     R & G space division:  proc/nbgrp/npool/nimage =      16
     Waiting for input...
     Reading input from standard input
Warning: card &IONS ignored
Warning: card   ION_DYNAMICS='BFGS', ignored
Warning: card / ignored
Warning: card &CELL ignored
Warning: card  CELL_DYNAMICS = 'BFGS' ignored
Warning: card / ignored

     Current dimensions of program PWSCF are:
     Max number of different atomic species (ntypx) = 10
     Max number of k-points (npk) =  40000
     Max angular momentum in pseudopotentials (lmaxx) =  3
 kfg - two_fermi_energies  F

     Subspace diagonalization in iterative solution of the eigenvalue problem:
     a serial algorithm will be used


     Parallelization info
     --------------------
     sticks:   dense  smooth     PW     G-vecs:    dense   smooth      PW
     Min         189     133     37                 6876     4009     608
     Max         190     134     38                 6880     4043     610
     Sum        3033    2137    603               110045    64467    9739



     bravais-lattice index     =            0
     lattice parameter (alat)  =    14.918119739  a.u.
     unit-cell volume          =    2304.2364 (a.u.)^3
     number of atoms/cell      =           16
     number of atomic types    =            2
     number of electrons       =       134.00
     number of Kohn-Sham states=           80
     kinetic-energy cutoff     =      35.0000  Ry
     charge density cutoff     =     200.0000  Ry
     convergence threshold     =      1.0E-09
     mixing beta               =       0.3000
     number of iterations used =            8  local-TF  mixing
     Exchange-correlation      = SLA  PW   PSX  PSC ( 1  4 10  8 0)
     A smooth kinetic-energy cutoff is imposed at      34.5000 Ry
     height of the smooth step-function =             800.0000 Ry
     width of the smooth step-function  =               1.0000 Ry


     celldm(1)=  14.918120  celldm(2)=   0.000000  celldm(3)=   0.000000
     celldm(4)=   0.000000  celldm(5)=   0.000000  celldm(6)=   0.000000

     crystal axes: (cart. coord. in units of alat)
               a(1) = (  -0.008087593906   0.718098229044   0.695894765226 )  
               a(2) = (   0.692248702863  -0.007272228384   0.695079399704 )  
               a(3) = (   0.686757805629   0.711791966289  -0.001781331151 )  

     reciprocal axes: (cart. coord. in units 2 pi/alat)
               b(1) = ( -0.712839  0.689563  0.717150 )  
               b(2) = (  0.715537 -0.688572  0.718858 )  
               b(3) = (  0.726465  0.702198 -0.716160 )  


     PseudoPot. # 1 for Si read from file:
     /users/kfg/psuedo/gbrv_1.5/si.pbesol.UPF
     MD5 check sum: ef58ba74faed4df802eb8a9742fc00a8
     Pseudo is Ultrasoft + core correction, Zval =  4.0
     Generated by new atomic code, or converted to UPF format
     Using radial grid of  899 points,  6 beta functions with: 
                l(1) =   0
                l(2) =   0
                l(3) =   1
                l(4) =   1
                l(5) =   2
                l(6) =   2
     Q(r) pseudized with  8 coefficients,  rinner =    0.900   0.900   0.900
                                                       0.900   0.900

     PseudoPot. # 2 for Ge read from file:
     /users/kfg/psuedo/gbrv_1.5/ge.pbesol.UPF
     MD5 check sum: 7bed0412183f5e553a4d27ec7023354d
     Pseudo is Ultrasoft + core correction, Zval = 14.0
     Generated by new atomic code, or converted to UPF format
     Using radial grid of  873 points,  6 beta functions with: 
                l(1) =   0
                l(2) =   0
                l(3) =   1
                l(4) =   1
                l(5) =   2
                l(6) =   2
     Q(r) pseudized with  8 coefficients,  rinner =    1.400   1.400   1.400
                                                       1.400   1.400

     atomic species   valence    mass     pseudopotential
        Si             4.00    28.08550     Si( 1.00)
        Ge            14.00    72.59000     Ge( 1.00)

     No symmetry found


                                    s                        frac. trans.

      isym =  1     identity                                     

 cryst.   s( 1) = (     1          0          0      )
                  (     0          1          0      )
                  (     0          0          1      )

 cart.    s( 1) = (  1.0000000  0.0000000  0.0000000 )
                  (  0.0000000  1.0000000  0.0000000 )
                  ( -0.0000000 -0.0000000  1.0000000 )


     point group C_1 (1)    
     there are  1 classes
     the character table:

       E    
A      1.00

     the symmetry operations in each class:
     E        1

   Cartesian axes

     site n.     atom                  positions (alat units)
         1           Ge  tau(   1) = (   -0.01492372606   -0.02342206271    0.00251804459  )
         2           Ge  tau(   2) = (    0.15397955319    0.17205219010    0.17393595857  )
         3           Ge  tau(   3) = (    0.34449391878    0.36121426958   -0.00081246016  )
         4           Ge  tau(   4) = (    0.51857163816    0.53050378995    0.20389987917  )
         5           Si  tau(   5) = (    0.34426666840   -0.00127031474    0.32699473432  )
         6           Si  tau(   6) = (    0.51761047958    0.16138979387    0.51693973023  )
         7           Si  tau(   7) = (    0.70017894715    0.33819519094    0.35556390651  )
         8           Si  tau(   8) = (    0.87301550020    0.53665232179    0.50966825217  )
         9           Si  tau(   9) = (   -0.01513721861    0.37104139859    0.34885990643  )
        10           Si  tau(  10) = (    0.16278965304    0.53352973823    0.50640727651  )
        11           Si  tau(  11) = (    0.32854282589    0.73231485498    0.35394454053  )
        12           Ge  tau(  12) = (    0.51608185576    0.90451601842    0.53735200566  )
        13           Ge  tau(  13) = (    0.35085235217    0.34752529038    0.68580200302  )
        14           Si  tau(  14) = (    0.51501396842    0.53768496377    0.87010950575  )
        15           Si  tau(  15) = (    0.69777805914    0.70566865784    0.70051902676  )
        16           Ge  tau(  16) = (    0.86148009773    0.90549373375    0.85426185884  )

   Crystallographic axes

     site n.     atom                  positions (cryst. coord.)
         1           Ge  tau(   1) = (   -0.00370695044    0.00725941504   -0.02909180916  )
         2           Ge  tau(   2) = (    0.13361638030    0.11674291866    0.10810951633  )
         3           Ge  tau(   3) = (    0.00292854981   -0.00280796921    0.50448850221  )
         4           Ge  tau(   4) = (    0.14238443449    0.15234205965    0.60321788709  )
         5           Si  tau(   5) = (   -0.01177823341    0.48227283139    0.01502519344  )
         6           Si  tau(   6) = (    0.11303900985    0.63084693146    0.11914203597  )
         7           Si  tau(   7) = (   -0.01091522104    0.52373191746    0.49149485598  )
         8           Si  tau(   8) = (    0.11324476922    0.62152990674    0.64604741663  )
         9           Si  tau(   9) = (    0.51683166930   -0.01553932697   -0.00029153656  )
        10           Si  tau(  10) = (    0.61502951542    0.11314311681    0.13023599503  )
        11           Si  tau(  11) = (    0.52461029643   -0.01473123645    0.49942401445  )
        12           Ge  tau(  12) = (    0.64119939865    0.13273080882    0.62523480963  )
        13           Ge  tau(  13) = (    0.48136239408    0.50474560663    0.00776973224  )
        14           Si  tau(  14) = (    0.62764480403    0.62376152507    0.12856351593  )
        15           Si  tau(  15) = (    0.49157686608    0.51695569615    0.50074687217  )
        16           Ge  tau(  16) = (    0.62293231724    0.60701579875    0.64988299861  )

     number of k points=    36  gaussian smearing, width (Ry)=  0.0150
                       cart. coord. in units 2pi/alat
        k(    1) = (   0.0000000   0.0000000   0.0000000), wk =   0.0312500
        k(    2) = (   0.1816162   0.1755495  -0.1790399), wk =   0.0625000
        k(    3) = (  -0.3632324  -0.3510990   0.3580798), wk =   0.0312500
        k(    4) = (   0.1788842  -0.1721430   0.1797144), wk =   0.0625000
        k(    5) = (   0.3605004   0.0034065   0.0006745), wk =   0.0625000
        k(    6) = (  -0.1843482  -0.5232420   0.5377942), wk =   0.0625000
        k(    7) = (  -0.0027320  -0.3476925   0.3587543), wk =   0.0625000
        k(    8) = (  -0.3577684   0.3442860  -0.3594288), wk =   0.0312500
        k(    9) = (  -0.1761522   0.5198355  -0.5384687), wk =   0.0625000
        k(   10) = (  -0.7210008  -0.0068130  -0.0013490), wk =   0.0312500
        k(   11) = (  -0.1782097   0.1723907   0.1792876), wk =   0.0625000
        k(   12) = (   0.0034065   0.3479401   0.0002477), wk =   0.0625000
        k(   13) = (  -0.5414421  -0.1787083   0.5373674), wk =   0.0625000
        k(   14) = (  -0.3598259  -0.0031588   0.3583275), wk =   0.0625000
        k(   15) = (   0.0006745   0.0002477   0.3590020), wk =   0.0625000
        k(   16) = (   0.1822907   0.1757972   0.1799621), wk =   0.0625000
        k(   17) = (  -0.3625579  -0.3508513   0.7170818), wk =   0.0625000
        k(   18) = (  -0.1809417  -0.1753018   0.5380419), wk =   0.0625000
        k(   19) = (  -0.5359781   0.5166766  -0.1801412), wk =   0.0625000
        k(   20) = (  -0.3543619   0.6922261  -0.3591811), wk =   0.0625000
        k(   21) = (  -0.8992106   0.1655776   0.1779386), wk =   0.0625000
        k(   22) = (  -0.7175943   0.3411271  -0.0011013), wk =   0.0625000
        k(   23) = (  -0.3570939   0.3445336  -0.0004268), wk =   0.0625000
        k(   24) = (  -0.1754777   0.5200831  -0.1794667), wk =   0.0625000
        k(   25) = (  -0.7203263  -0.0065653   0.3576530), wk =   0.0625000
        k(   26) = (  -0.5387101   0.1689841   0.1786131), wk =   0.0625000
        k(   27) = (   0.3564194  -0.3447813  -0.3585752), wk =   0.0312500
        k(   28) = (   0.5380356  -0.1692318  -0.5376151), wk =   0.0625000
        k(   29) = (  -0.0068130  -0.6958803  -0.0004953), wk =   0.0312500
        k(   30) = (   0.5353036  -0.5169243  -0.1788608), wk =   0.0625000
        k(   31) = (   0.7169198  -0.3413748  -0.3579007), wk =   0.0625000
        k(   32) = (   0.1720712  -0.8680233   0.1792191), wk =   0.0625000
        k(   33) = (   0.3536874  -0.6924738   0.0001792), wk =   0.0625000
        k(   34) = (  -0.0013490  -0.0004953  -0.7180040), wk =   0.0312500
        k(   35) = (   0.1802672   0.1750541  -0.8970439), wk =   0.0625000
        k(   36) = (  -0.3645814  -0.3515943  -0.3599241), wk =   0.0312500

                       cryst. coord.
        k(    1) = (   0.0000000   0.0000000   0.0000000), wk =   0.0312500
        k(    2) = (   0.0000000   0.0000000   0.2500000), wk =   0.0625000
        k(    3) = (   0.0000000  -0.0000000  -0.5000000), wk =   0.0312500
        k(    4) = (   0.0000000   0.2500000  -0.0000000), wk =   0.0625000
        k(    5) = (   0.0000000   0.2500000   0.2500000), wk =   0.0625000
        k(    6) = (   0.0000000   0.2500000  -0.5000000), wk =   0.0625000
        k(    7) = (   0.0000000   0.2500000  -0.2500000), wk =   0.0625000
        k(    8) = (   0.0000000  -0.5000000   0.0000000), wk =   0.0312500
        k(    9) = (   0.0000000  -0.5000000   0.2500000), wk =   0.0625000
        k(   10) = (  -0.0000000  -0.5000000  -0.5000000), wk =   0.0312500
        k(   11) = (   0.2500000   0.0000000  -0.0000000), wk =   0.0625000
        k(   12) = (   0.2500000   0.0000000   0.2500000), wk =   0.0625000
        k(   13) = (   0.2500000   0.0000000  -0.5000000), wk =   0.0625000
        k(   14) = (   0.2500000   0.0000000  -0.2500000), wk =   0.0625000
        k(   15) = (   0.2500000   0.2500000  -0.0000000), wk =   0.0625000
        k(   16) = (   0.2500000   0.2500000   0.2500000), wk =   0.0625000
        k(   17) = (   0.2500000   0.2500000  -0.5000000), wk =   0.0625000
        k(   18) = (   0.2500000   0.2500000  -0.2500000), wk =   0.0625000
        k(   19) = (   0.2500000  -0.5000000   0.0000000), wk =   0.0625000
        k(   20) = (   0.2500000  -0.5000000   0.2500000), wk =   0.0625000
        k(   21) = (   0.2500000  -0.5000000  -0.5000000), wk =   0.0625000
        k(   22) = (   0.2500000  -0.5000000  -0.2500000), wk =   0.0625000
        k(   23) = (   0.2500000  -0.2500000   0.0000000), wk =   0.0625000
        k(   24) = (   0.2500000  -0.2500000   0.2500000), wk =   0.0625000
        k(   25) = (   0.2500000  -0.2500000  -0.5000000), wk =   0.0625000
        k(   26) = (   0.2500000  -0.2500000  -0.2500000), wk =   0.0625000
        k(   27) = (  -0.5000000   0.0000000   0.0000000), wk =   0.0312500
        k(   28) = (  -0.5000000   0.0000000   0.2500000), wk =   0.0625000
        k(   29) = (  -0.5000000  -0.0000000  -0.5000000), wk =   0.0312500
        k(   30) = (  -0.5000000   0.2500000  -0.0000000), wk =   0.0625000
        k(   31) = (  -0.5000000   0.2500000   0.2500000), wk =   0.0625000
        k(   32) = (  -0.5000000   0.2500000  -0.5000000), wk =   0.0625000
        k(   33) = (  -0.5000000   0.2500000  -0.2500000), wk =   0.0625000
        k(   34) = (  -0.5000000  -0.5000000   0.0000000), wk =   0.0312500
        k(   35) = (  -0.5000000  -0.5000000   0.2500000), wk =   0.0625000
        k(   36) = (  -0.5000000  -0.5000000  -0.5000000), wk =   0.0312500

     Dense  grid:   110045 G-vectors     FFT dimensions: (  72,  72,  72)

     Smooth grid:    64467 G-vectors     FFT dimensions: (  60,  60,  60)

     Largest allocated arrays     est. size (Mb)     dimensions
        Kohn-Sham Wavefunctions         0.63 Mb     (     520,   80)
        NL pseudopotentials             2.29 Mb     (     520,  288)
        Each V/rho on FFT grid          0.40 Mb     (   25920)
        Each G-vector array             0.05 Mb     (    6880)
        G-vector shells                 0.05 Mb     (    6755)
     Largest temporary arrays     est. size (Mb)     dimensions
        Auxiliary wavefunctions         2.54 Mb     (     520,  320)
        Each subspace H/S matrix        1.56 Mb     (     320,  320)
        Each <psi_i|beta_j> matrix      0.35 Mb     (     288,   80)
        Arrays for rho mixing           3.16 Mb     (   25920,    8)

     Initial potential from superposition of free atoms

     starting charge  133.98851, renormalised to  134.00000
     Starting wfc are   99 randomized atomic wfcs

     total cpu time spent up to now is       12.6 secs

     Self-consistent Calculation

     iteration #  1     ecut=    35.00 Ry     beta=0.30
     Davidson diagonalization with overlap
     ethr =  1.00E-02,  avg # of iterations =  3.1

     Threshold (ethr) on eigenvalues was too large:
     Diagonalizing with lowered threshold

     Davidson diagonalization with overlap
     ethr =  2.64E-04,  avg # of iterations =  5.4

     total cpu time spent up to now is       98.0 secs

     total energy              =   -1578.32500978 Ry
     Harris-Foulkes estimate   =   -1578.36196705 Ry
     estimated scf accuracy    <       0.35337994 Ry

     iteration #  2     ecut=    35.00 Ry     beta=0.30
     Davidson diagonalization with overlap
     ethr =  2.64E-04,  avg # of iterations =  1.0

     total cpu time spent up to now is      123.4 secs

     total energy              =   -1578.25453545 Ry
     Harris-Foulkes estimate   =   -1578.32692080 Ry
     estimated scf accuracy    <       0.21742214 Ry

     iteration #  3     ecut=    35.00 Ry     beta=0.30
     Davidson diagonalization with overlap
     ethr =  1.62E-04,  avg # of iterations =  2.0

     total cpu time spent up to now is      154.9 secs

     total energy              =   -1578.26867863 Ry
     Harris-Foulkes estimate   =   -1578.26859017 Ry
     estimated scf accuracy    <       0.00292880 Ry

     iteration #  4     ecut=    35.00 Ry     beta=0.30
     Davidson diagonalization with overlap
     ethr =  2.19E-06,  avg # of iterations =  8.6

     total cpu time spent up to now is      231.7 secs

     total energy              =   -1578.26936839 Ry
     Harris-Foulkes estimate   =   -1578.26934897 Ry
     estimated scf accuracy    <       0.00142062 Ry

     iteration #  5     ecut=    35.00 Ry     beta=0.30
     Davidson diagonalization with overlap
     ethr =  1.06E-06,  avg # of iterations =  2.0

     total cpu time spent up to now is      265.4 secs

     total energy              =   -1578.26946562 Ry
     Harris-Foulkes estimate   =   -1578.26948822 Ry
     estimated scf accuracy    <       0.00011745 Ry

     iteration #  6     ecut=    35.00 Ry     beta=0.30
     Davidson diagonalization with overlap
     ethr =  8.76E-08,  avg # of iterations =  1.6

     total cpu time spent up to now is      293.6 secs

     total energy              =   -1578.26945656 Ry
     Harris-Foulkes estimate   =   -1578.26947175 Ry
     estimated scf accuracy    <       0.00003843 Ry

     iteration #  7     ecut=    35.00 Ry     beta=0.30
     Davidson diagonalization with overlap
     ethr =  2.87E-08,  avg # of iterations =  2.4

     total cpu time spent up to now is      327.8 secs

     total energy              =   -1578.26946358 Ry
     Harris-Foulkes estimate   =   -1578.26946300 Ry
     estimated scf accuracy    <       0.00000498 Ry

     iteration #  8     ecut=    35.00 Ry     beta=0.30
     Davidson diagonalization with overlap
     ethr =  3.72E-09,  avg # of iterations =  1.8

     total cpu time spent up to now is      356.1 secs

     total energy              =   -1578.26946326 Ry
     Harris-Foulkes estimate   =   -1578.26946384 Ry
     estimated scf accuracy    <       0.00000227 Ry

     iteration #  9     ecut=    35.00 Ry     beta=0.30
     Davidson diagonalization with overlap
     ethr =  1.69E-09,  avg # of iterations =  2.1

     total cpu time spent up to now is      388.7 secs

     total energy              =   -1578.26946363 Ry
     Harris-Foulkes estimate   =   -1578.26946359 Ry
     estimated scf accuracy    <       0.00000027 Ry

     iteration # 10     ecut=    35.00 Ry     beta=0.30
     Davidson diagonalization with overlap
     ethr =  2.02E-10,  avg # of iterations =  2.1

     total cpu time spent up to now is      419.5 secs

     total energy              =   -1578.26946364 Ry
     Harris-Foulkes estimate   =   -1578.26946366 Ry
     estimated scf accuracy    <       0.00000012 Ry

     iteration # 11     ecut=    35.00 Ry     beta=0.30
     Davidson diagonalization with overlap
     ethr =  9.09E-11,  avg # of iterations =  2.1

     total cpu time spent up to now is      452.9 secs

     total energy              =   -1578.26946368 Ry
     Harris-Foulkes estimate   =   -1578.26946366 Ry
     estimated scf accuracy    <          7.5E-09 Ry

     iteration # 12     ecut=    35.00 Ry     beta=0.30
     Davidson diagonalization with overlap
     ethr =  5.62E-12,  avg # of iterations =  3.0

     total cpu time spent up to now is      498.0 secs

     total energy              =   -1578.26946369 Ry
     Harris-Foulkes estimate   =   -1578.26946368 Ry
     estimated scf accuracy    <          4.6E-09 Ry

     iteration # 13     ecut=    35.00 Ry     beta=0.30
     Davidson diagonalization with overlap
     ethr =  3.45E-12,  avg # of iterations =  2.0

     total cpu time spent up to now is      531.4 secs

     End of self-consistent calculation

          k = 0.0000 0.0000 0.0000 (  8025 PWs)   bands (ev):

   -17.7026 -17.5580 -17.5520 -17.4783 -17.4773 -17.4468 -17.4415 -17.4042
   -17.3924 -17.3873 -17.3838 -17.3383 -17.3094 -17.3006 -17.2843 -17.2777
   -17.2703 -17.2636 -17.2567 -17.2335 -17.2216 -17.2136 -17.2117 -17.1951
   -17.1856 -17.1738 -17.1652 -17.1436 -17.1268 -17.1071 -17.0996 -17.0943
   -17.0868 -17.0463 -17.0296  -5.2677  -3.5077  -3.0492  -2.9536  -2.7104
    -1.5989  -1.5159  -1.1681  -1.1163  -0.8781  -0.8363  -0.3361  -0.2307
     0.0110   0.1077   3.9389   4.0069   4.0319   4.1406   4.2003   4.3740
     5.4666   5.5688   5.6312   5.7686   5.8289   5.8559   6.0228   6.1273
     6.8934   7.0466   7.1975   7.3606   7.5288   7.5696   7.6446   7.7148
     7.8043   7.8464   7.9448   8.1221   8.2712   8.7375   9.4888   9.5655

     occupation numbers 
     1.0000   1.0000   1.0000   1.0000   1.0000   1.0000   1.0000   1.0000
     1.0000   1.0000   1.0000   1.0000   1.0000   1.0000   1.0000   1.0000
     1.0000   1.0000   1.0000   1.0000   1.0000   1.0000   1.0000   1.0000
     1.0000   1.0000   1.0000   1.0000   1.0000   1.0000   1.0000   1.0000
     1.0000   1.0000   1.0000   1.0000   1.0000   1.0000   1.0000   1.0000
     1.0000   1.0000   1.0000   1.0000   1.0000   1.0000   1.0000   1.0000
     1.0000   1.0000   1.0000   1.0000   1.0000   1.0000   1.0000   1.0000
     1.0000   1.0000   1.0000   1.0000   1.0000   1.0000   1.0000   1.0000
     0.9948   0.9331   0.6750   0.2494   0.0327   0.0168   0.0041   0.0009
     0.0001   0.0000   0.0000   0.0000   0.0000   0.0000   0.0000   0.0000

          k = 0.1816 0.1755-0.1790 (  8061 PWs)   bands (ev):

   -17.7026 -17.5580 -17.5521 -17.4783 -17.4773 -17.4468 -17.4415 -17.4057
   -17.3922 -17.3873 -17.3827 -17.3419 -17.3093 -17.3011 -17.2789 -17.2761
   -17.2704 -17.2640 -17.2538 -17.2318 -17.2228 -17.2134 -17.2114 -17.1987
   -17.1847 -17.1746 -17.1621 -17.1435 -17.1344 -17.1110 -17.0988 -17.0957
   -17.0802 -17.0471 -17.0280  -5.0748  -3.6258  -3.3916  -2.9543  -2.6354
    -2.3190  -1.9632  -1.6950  -0.6121  -0.3001  -0.0438   0.0246   0.1903
     0.3375   0.8424   3.4522   3.5055   3.6037   4.1130   4.2022   4.4000
     4.5116   4.6206   4.6981   5.2521   5.3189   5.4097   5.7389   5.7702
     6.1089   6.6737   7.0102   7.5443   7.7718   7.9258   8.1259   8.5771
     8.6535   8.7763   8.8450   9.0427   9.1442   9.2020   9.9459  10.0522

     occupation numbers 
     1.0000   1.0000   1.0000   1.0000   1.0000   1.0000   1.0000   1.0000
     1.0000   1.0000   1.0000   1.0000   1.0000   1.0000   1.0000   1.0000
     1.0000   1.0000   1.0000   1.0000   1.0000   1.0000   1.0000   1.0000
     1.0000   1.0000   1.0000   1.0000   1.0000   1.0000   1.0000   1.0000
     1.0000   1.0000   1.0000   1.0000   1.0000   1.0000   1.0000   1.0000
     1.0000   1.0000   1.0000   1.0000   1.0000   1.0000   1.0000   1.0000
     1.0000   1.0000   1.0000   1.0000   1.0000   1.0000   1.0000   1.0000
     1.0000   1.0000   1.0000   1.0000   1.0000   1.0000   1.0000   1.0000
     1.0000   1.0000   0.9601   0.0256   0.0002   0.0000   0.0000   0.0000
     0.0000   0.0000   0.0000   0.0000   0.0000   0.0000   0.0000   0.0000

          k =-0.3632-0.3511 0.3581 (  8060 PWs)   bands (ev):

   -17.7025 -17.5579 -17.5520 -17.4782 -17.4772 -17.4468 -17.4415 -17.4069
   -17.3919 -17.3871 -17.3817 -17.3452 -17.3092 -17.3007 -17.2779 -17.2711
   -17.2698 -17.2653 -17.2494 -17.2305 -17.2239 -17.2123 -17.2113 -17.2041
   -17.1838 -17.1753 -17.1543 -17.1453 -17.1427 -17.1137 -17.0993 -17.0970
   -17.0738 -17.0483 -17.0265  -4.6406  -4.3158  -3.3067  -2.8967  -2.5557
    -2.4843  -2.3939  -2.1342  -0.1623   0.0093   0.3852   0.4312   0.5233
     0.7705   2.6972   2.7933   3.1254   3.1760   3.3595   3.4419   3.5602
     3.7850   4.5311   4.5823   4.7601   4.8062   4.9712   5.1951   6.0630
     6.1746   6.3035   6.6851   7.8972   8.1840   8.2242   8.4094   8.5062
     8.5484   8.7180   8.8731  10.3388  10.4676  10.7385  10.8203  11.1794

     occupation numbers 
     1.0000   1.0000   1.0000   1.0000   1.0000   1.0000   1.0000   1.0000
     1.0000   1.0000   1.0000   1.0000   1.0000   1.0000   1.0000   1.0000
     1.0000   1.0000   1.0000   1.0000   1.0000   1.0000   1.0000   1.0000
     1.0000   1.0000   1.0000   1.0000   1.0000   1.0000   1.0000   1.0000
     1.0000   1.0000   1.0000   1.0000   1.0000   1.0000   1.0000   1.0000
     1.0000   1.0000   1.0000   1.0000   1.0000   1.0000   1.0000   1.0000
     1.0000   1.0000   1.0000   1.0000   1.0000   1.0000   1.0000   1.0000
     1.0000   1.0000   1.0000   1.0000   1.0000   1.0000   1.0000   1.0000
     1.0000   1.0000   1.0000   0.0000   0.0000   0.0000   0.0000   0.0000
     0.0000   0.0000   0.0000   0.0000   0.0000   0.0000   0.0000   0.0000

          k = 0.1789-0.1721 0.1797 (  8039 PWs)   bands (ev):

   -17.7026 -17.5580 -17.5521 -17.4782 -17.4772 -17.4467 -17.4413 -17.4042
   -17.3925 -17.3873 -17.3837 -17.3383 -17.3093 -17.3006 -17.2845 -17.2776
   -17.2703 -17.2636 -17.2567 -17.2334 -17.2216 -17.2135 -17.2117 -17.1953
   -17.1854 -17.1737 -17.1652 -17.1435 -17.1267 -17.1070 -17.0996 -17.0944
   -17.0867 -17.0462 -17.0295  -5.0802  -3.8231  -3.0163  -2.9230  -2.7858
    -2.1641  -2.0025  -1.8746  -0.4277  -0.2392  -0.1599  -0.0835   0.1220
     0.2300   0.8854   3.4395   3.5119   3.7472   4.1835   4.2941   4.3351
     4.4048   4.6779   4.7951   5.1360   5.3838   5.5078   5.5942   5.8798
     5.9268   6.8464   6.9642   7.6769   7.7823   7.9145   8.0136   8.5804
     8.6967   8.7421   8.9119   8.9544   9.0067   9.3019   9.8675  10.0487

     occupation numbers 
     1.0000   1.0000   1.0000   1.0000   1.0000   1.0000   1.0000   1.0000
     1.0000   1.0000   1.0000   1.0000   1.0000   1.0000   1.0000   1.0000
     1.0000   1.0000   1.0000   1.0000   1.0000   1.0000   1.0000   1.0000
     1.0000   1.0000   1.0000   1.0000   1.0000   1.0000   1.0000   1.0000
     1.0000   1.0000   1.0000   1.0000   1.0000   1.0000   1.0000   1.0000
     1.0000   1.0000   1.0000   1.0000   1.0000   1.0000   1.0000   1.0000
     1.0000   1.0000   1.0000   1.0000   1.0000   1.0000   1.0000   1.0000
     1.0000   1.0000   1.0000   1.0000   1.0000   1.0000   1.0000   1.0000
     1.0000   0.9981   0.9808   0.0021   0.0002   0.0000   0.0000   0.0000
     0.0000   0.0000   0.0000   0.0000   0.0000   0.0000   0.0000   0.0000

          k = 0.3605 0.0034 0.0007 (  8032 PWs)   bands (ev):

   -17.7026 -17.5580 -17.5522 -17.4782 -17.4771 -17.4467 -17.4413 -17.4057
   -17.3922 -17.3873 -17.3826 -17.3419 -17.3093 -17.3010 -17.2789 -17.2761
   -17.2704 -17.2640 -17.2537 -17.2317 -17.2228 -17.2134 -17.2114 -17.1986
   -17.1846 -17.1746 -17.1618 -17.1436 -17.1343 -17.1111 -17.0988 -17.0955
   -17.0802 -17.0471 -17.0280  -5.0055  -3.6378  -3.2354  -3.1061  -2.9102
    -2.7439  -1.3694  -1.2178  -1.0608  -0.9479   0.1537   0.3223   0.4858
     0.7057   0.9901   3.4350   3.5209   3.6289   3.7376   4.2347   4.2746
     4.4191   4.5127   4.5774   4.7227   5.3857   5.5198   5.6564   5.6895
     5.7885   6.1881   6.4081   7.4565   8.2726   8.5209   8.5889   8.7005
     8.8074   8.9183   8.9797   9.1746   9.2265   9.3629  10.1782  10.4129

     occupation numbers 
     1.0000   1.0000   1.0000   1.0000   1.0000   1.0000   1.0000   1.0000
     1.0000   1.0000   1.0000   1.0000   1.0000   1.0000   1.0000   1.0000
     1.0000   1.0000   1.0000   1.0000   1.0000   1.0000   1.0000   1.0000
     1.0000   1.0000   1.0000   1.0000   1.0000   1.0000   1.0000   1.0000
     1.0000   1.0000   1.0000   1.0000   1.0000   1.0000   1.0000   1.0000
     1.0000   1.0000   1.0000   1.0000   1.0000   1.0000   1.0000   1.0000
     1.0000   1.0000   1.0000   1.0000   1.0000   1.0000   1.0000   1.0000
     1.0000   1.0000   1.0000   1.0000   1.0000   1.0000   1.0000   1.0000
     1.0000   1.0000   1.0000   0.0900   0.0000   0.0000   0.0000   0.0000
     0.0000   0.0000   0.0000   0.0000   0.0000   0.0000   0.0000   0.0000

          k =-0.1843-0.5232 0.5378 (  8059 PWs)   bands (ev):

   -17.7025 -17.5579 -17.5520 -17.4782 -17.4770 -17.4466 -17.4412 -17.4068
   -17.3919 -17.3872 -17.3817 -17.3451 -17.3090 -17.3006 -17.2778 -17.2711
   -17.2697 -17.2654 -17.2493 -17.2303 -17.2239 -17.2123 -17.2112 -17.2040
   -17.1837 -17.1752 -17.1542 -17.1452 -17.1429 -17.1138 -17.0990 -17.0970
   -17.0738 -17.0483 -17.0264  -4.5812  -4.0329  -3.6567  -3.2739  -2.9897
    -2.3593  -1.9241  -1.7908  -0.4534  -0.2404   0.0592   0.7664   1.0679
     1.7889   2.1020   2.8343   2.8817   3.0262   3.4359   3.6366   3.7268
     3.9956   4.1883   4.2302   4.6601   4.7564   4.9532   5.0555   5.1867
     5.6622   5.8792   6.2930   8.1448   8.5499   8.8170   9.1616   9.2380
     9.3053   9.5635   9.7959   9.9280  10.1081  10.2458  10.5019  10.7140

     occupation numbers 
     1.0000   1.0000   1.0000   1.0000   1.0000   1.0000   1.0000   1.0000
     1.0000   1.0000   1.0000   1.0000   1.0000   1.0000   1.0000   1.0000
     1.0000   1.0000   1.0000   1.0000   1.0000   1.0000   1.0000   1.0000
     1.0000   1.0000   1.0000   1.0000   1.0000   1.0000   1.0000   1.0000
     1.0000   1.0000   1.0000   1.0000   1.0000   1.0000   1.0000   1.0000
     1.0000   1.0000   1.0000   1.0000   1.0000   1.0000   1.0000   1.0000
     1.0000   1.0000   1.0000   1.0000   1.0000   1.0000   1.0000   1.0000
     1.0000   1.0000   1.0000   1.0000   1.0000   1.0000   1.0000   1.0000
     1.0000   1.0000   1.0000   0.0000   0.0000   0.0000   0.0000   0.0000
     0.0000   0.0000   0.0000   0.0000   0.0000   0.0000   0.0000   0.0000

          k =-0.0027-0.3477 0.3588 (  8055 PWs)   bands (ev):

   -17.7025 -17.5580 -17.5519 -17.4782 -17.4771 -17.4466 -17.4412 -17.4055
   -17.3922 -17.3872 -17.3827 -17.3419 -17.3092 -17.3011 -17.2789 -17.2760
   -17.2703 -17.2640 -17.2538 -17.2316 -17.2227 -17.2131 -17.2113 -17.1988
   -17.1845 -17.1745 -17.1620 -17.1432 -17.1343 -17.1109 -17.0987 -17.0955
   -17.0801 -17.0470 -17.0279  -4.7783  -3.8855  -3.6928  -2.9924  -2.6958
    -2.3950  -2.3546  -1.5641  -0.5918  -0.1593   0.0241   0.4965   0.8126
     1.3853   1.5226   2.7396   3.3395   3.3737   3.6403   3.7822   3.9884
     4.1441   4.2922   4.4311   4.8753   4.9412   5.0308   5.1853   5.3640
     5.4868   5.6966   6.8075   7.9908   8.5476   8.7992   8.9514   9.1036
     9.3100   9.5639   9.6214   9.7702   9.9874  10.1265  10.3222  10.3782

     occupation numbers 
     1.0000   1.0000   1.0000   1.0000   1.0000   1.0000   1.0000   1.0000
     1.0000   1.0000   1.0000   1.0000   1.0000   1.0000   1.0000   1.0000
     1.0000   1.0000   1.0000   1.0000   1.0000   1.0000   1.0000   1.0000
     1.0000   1.0000   1.0000   1.0000   1.0000   1.0000   1.0000   1.0000
     1.0000   1.0000   1.0000   1.0000   1.0000   1.0000   1.0000   1.0000
     1.0000   1.0000   1.0000   1.0000   1.0000   1.0000   1.0000   1.0000
     1.0000   1.0000   1.0000   1.0000   1.0000   1.0000   1.0000   1.0000
     1.0000   1.0000   1.0000   1.0000   1.0000   1.0000   1.0000   1.0000
     1.0000   1.0000   0.9992   0.0000   0.0000   0.0000   0.0000   0.0000
     0.0000   0.0000   0.0000   0.0000   0.0000   0.0000   0.0000   0.0000

          k =-0.3578 0.3443-0.3594 (  8044 PWs)   bands (ev):

   -17.7026 -17.5579 -17.5519 -17.4782 -17.4772 -17.4467 -17.4412 -17.4041
   -17.3925 -17.3873 -17.3835 -17.3384 -17.3092 -17.3006 -17.2845 -17.2775
   -17.2704 -17.2638 -17.2567 -17.2333 -17.2215 -17.2134 -17.2116 -17.1954
   -17.1853 -17.1736 -17.1651 -17.1432 -17.1266 -17.1067 -17.0996 -17.0944
   -17.0867 -17.0461 -17.0295  -4.5741  -4.5124  -2.9569  -2.8118  -2.5694
    -2.4754  -2.4461  -2.3207  -0.0267   0.1262   0.1662   0.3486   0.4012
     0.5435   2.6611   2.8857   3.2598   3.3956   3.4204   3.5533   3.5666
     3.6476   4.4962   4.6126   4.6738   4.9072   5.0226   5.1650   5.9976
     6.0745   6.5515   6.6797   8.0775   8.1243   8.2198   8.3740   8.4419
     8.6250   8.6872   8.9605  10.1724  10.4809  10.6544  10.8530  10.9773

     occupation numbers 
     1.0000   1.0000   1.0000   1.0000   1.0000   1.0000   1.0000   1.0000
     1.0000   1.0000   1.0000   1.0000   1.0000   1.0000   1.0000   1.0000
     1.0000   1.0000   1.0000   1.0000   1.0000   1.0000   1.0000   1.0000
     1.0000   1.0000   1.0000   1.0000   1.0000   1.0000   1.0000   1.0000
     1.0000   1.0000   1.0000   1.0000   1.0000   1.0000   1.0000   1.0000
     1.0000   1.0000   1.0000   1.0000   1.0000   1.0000   1.0000   1.0000
     1.0000   1.0000   1.0000   1.0000   1.0000   1.0000   1.0000   1.0000
     1.0000   1.0000   1.0000   1.0000   1.0000   1.0000   1.0000   1.0000
     1.0000   1.0000   1.0000   0.0000   0.0000   0.0000   0.0000   0.0000
     0.0000   0.0000   0.0000   0.0000   0.0000   0.0000   0.0000   0.0000

          k =-0.1762 0.5198-0.5385 (  8058 PWs)   bands (ev):

   -17.7026 -17.5581 -17.5521 -17.4782 -17.4771 -17.4467 -17.4412 -17.4057
   -17.3922 -17.3872 -17.3827 -17.3420 -17.3092 -17.3011 -17.2789 -17.2762
   -17.2705 -17.2642 -17.2538 -17.2316 -17.2228 -17.2133 -17.2114 -17.1987
   -17.1845 -17.1745 -17.1620 -17.1434 -17.1344 -17.1110 -17.0988 -17.0955
   -17.0802 -17.0471 -17.0279  -4.5781  -4.1775  -3.4619  -3.2520  -2.9771
    -2.3905  -1.9146  -1.8087  -0.4550  -0.2785   0.0419   0.6944   1.0310
     1.6812   2.0891   2.8687   2.9717   3.0886   3.4968   3.6537   3.7848
     4.0454   4.1467   4.3518   4.6284   4.6910   4.9188   5.0790   5.1751
     5.6367   5.8141   6.3501   8.1079   8.6243   8.8365   9.1964   9.2911
     9.3987   9.5266   9.7782   9.9553  10.1693  10.3208  10.4747  10.6194

     occupation numbers 
     1.0000   1.0000   1.0000   1.0000   1.0000   1.0000   1.0000   1.0000
     1.0000   1.0000   1.0000   1.0000   1.0000   1.0000   1.0000   1.0000
     1.0000   1.0000   1.0000   1.0000   1.0000   1.0000   1.0000   1.0000
     1.0000   1.0000   1.0000   1.0000   1.0000   1.0000   1.0000   1.0000
     1.0000   1.0000   1.0000   1.0000   1.0000   1.0000   1.0000   1.0000
     1.0000   1.0000   1.0000   1.0000   1.0000   1.0000   1.0000   1.0000
     1.0000   1.0000   1.0000   1.0000   1.0000   1.0000   1.0000   1.0000
     1.0000   1.0000   1.0000   1.0000   1.0000   1.0000   1.0000   1.0000
     1.0000   1.0000   1.0000   0.0000   0.0000   0.0000   0.0000   0.0000
     0.0000   0.0000   0.0000   0.0000   0.0000   0.0000   0.0000   0.0000

          k =-0.7210-0.0068-0.0013 (  8060 PWs)   bands (ev):

   -17.7025 -17.5579 -17.5520 -17.4782 -17.4771 -17.4467 -17.4412 -17.4068
   -17.3919 -17.3873 -17.3818 -17.3451 -17.3090 -17.3006 -17.2779 -17.2711
   -17.2698 -17.2655 -17.2493 -17.2303 -17.2240 -17.2123 -17.2112 -17.2039
   -17.1837 -17.1752 -17.1542 -17.1452 -17.1430 -17.1139 -17.0990 -17.0971
   -17.0739 -17.0483 -17.0264  -4.2918  -4.2097  -3.6283  -3.2856  -3.2232
    -2.9384  -1.2729  -1.1569  -0.9938  -0.8806   0.8898   1.1250   1.2001
     1.5821   2.9316   2.9831   3.0482   3.0990   3.1750   3.2470   3.3165
     3.4117   3.5418   3.6132   4.8955   5.0076   5.0465   5.1279   5.4424
     5.6696   5.6782   5.8953   7.8601   7.9861   8.9291   8.9936   9.1560
     9.2926   9.8353   9.9734  11.1192  11.1441  11.2230  11.3095  11.4483

     occupation numbers 
     1.0000   1.0000   1.0000   1.0000   1.0000   1.0000   1.0000   1.0000
     1.0000   1.0000   1.0000   1.0000   1.0000   1.0000   1.0000   1.0000
     1.0000   1.0000   1.0000   1.0000   1.0000   1.0000   1.0000   1.0000
     1.0000   1.0000   1.0000   1.0000   1.0000   1.0000   1.0000   1.0000
     1.0000   1.0000   1.0000   1.0000   1.0000   1.0000   1.0000   1.0000
     1.0000   1.0000   1.0000   1.0000   1.0000   1.0000   1.0000   1.0000
     1.0000   1.0000   1.0000   1.0000   1.0000   1.0000   1.0000   1.0000
     1.0000   1.0000   1.0000   1.0000   1.0000   1.0000   1.0000   1.0000
     1.0000   1.0000   1.0000   0.0000   0.0000   0.0000   0.0000   0.0000
     0.0000   0.0000   0.0000   0.0000   0.0000   0.0000   0.0000   0.0000

          k =-0.1782 0.1724 0.1793 (  8046 PWs)   bands (ev):

   -17.7025 -17.5580 -17.5521 -17.4782 -17.4772 -17.4466 -17.4414 -17.4042
   -17.3923 -17.3874 -17.3840 -17.3382 -17.3093 -17.3005 -17.2843 -17.2774
   -17.2704 -17.2633 -17.2557 -17.2332 -17.2227 -17.2135 -17.2116 -17.1953
   -17.1860 -17.1738 -17.1655 -17.1435 -17.1264 -17.1070 -17.0994 -17.0942
   -17.0863 -17.0463 -17.0299  -5.0804  -3.7877  -3.1544  -2.8897  -2.7199
    -2.1888  -2.0743  -1.7758  -0.4127  -0.2910  -0.1205  -0.0263   0.1639
     0.2067   0.8361   3.4370   3.5048   3.5962   4.1343   4.3002   4.4409
     4.5272   4.6208   4.6917   5.1289   5.3524   5.4208   5.6886   5.7891
     6.1823   6.7012   7.0774   7.6727   7.8744   7.9930   8.1422   8.4855
     8.6526   8.7040   8.8547   9.0101   9.0596   9.1571   9.9097  10.1267

     occupation numbers 
     1.0000   1.0000   1.0000   1.0000   1.0000   1.0000   1.0000   1.0000
     1.0000   1.0000   1.0000   1.0000   1.0000   1.0000   1.0000   1.0000
     1.0000   1.0000   1.0000   1.0000   1.0000   1.0000   1.0000   1.0000
     1.0000   1.0000   1.0000   1.0000   1.0000   1.0000   1.0000   1.0000
     1.0000   1.0000   1.0000   1.0000   1.0000   1.0000   1.0000   1.0000
     1.0000   1.0000   1.0000   1.0000   1.0000   1.0000   1.0000   1.0000
     1.0000   1.0000   1.0000   1.0000   1.0000   1.0000   1.0000   1.0000
     1.0000   1.0000   1.0000   1.0000   1.0000   1.0000   1.0000   1.0000
     1.0000   1.0000   0.9008   0.0023   0.0000   0.0000   0.0000   0.0000
     0.0000   0.0000   0.0000   0.0000   0.0000   0.0000   0.0000   0.0000

          k = 0.0034 0.3479 0.0002 (  8065 PWs)   bands (ev):

   -17.7025 -17.5579 -17.5520 -17.4782 -17.4771 -17.4466 -17.4414 -17.4056
   -17.3922 -17.3872 -17.3826 -17.3419 -17.3092 -17.3011 -17.2786 -17.2759
   -17.2702 -17.2642 -17.2546 -17.2317 -17.2217 -17.2131 -17.2113 -17.1983
   -17.1850 -17.1748 -17.1618 -17.1434 -17.1344 -17.1110 -17.0982 -17.0957
   -17.0801 -17.0470 -17.0281  -5.0245  -3.6050  -3.2776  -3.0692  -2.8772
    -2.8093  -1.3372  -1.1997  -0.9650  -0.8144   0.1245   0.2740   0.4977
     0.5908   0.7793   3.4780   3.5281   3.5468   3.5996   4.1882   4.2831
     4.3489   4.4003   4.5169   4.6494   5.2414   5.6761   5.8099   5.9312
     6.0603   6.4322   6.5451   7.7047   8.3237   8.5680   8.6522   8.7554
     8.8406   8.8770   8.9749   9.0885   9.2046   9.4752  10.1390  10.3128

     occupation numbers 
     1.0000   1.0000   1.0000   1.0000   1.0000   1.0000   1.0000   1.0000
     1.0000   1.0000   1.0000   1.0000   1.0000   1.0000   1.0000   1.0000
     1.0000   1.0000   1.0000   1.0000   1.0000   1.0000   1.0000   1.0000
     1.0000   1.0000   1.0000   1.0000   1.0000   1.0000   1.0000   1.0000
     1.0000   1.0000   1.0000   1.0000   1.0000   1.0000   1.0000   1.0000
     1.0000   1.0000   1.0000   1.0000   1.0000   1.0000   1.0000   1.0000
     1.0000   1.0000   1.0000   1.0000   1.0000   1.0000   1.0000   1.0000
     1.0000   1.0000   1.0000   1.0000   1.0000   1.0000   1.0000   1.0000
     1.0000   1.0000   1.0000   0.0011   0.0000   0.0000   0.0000   0.0000
     0.0000   0.0000   0.0000   0.0000   0.0000   0.0000   0.0000   0.0000

          k =-0.5414-0.1787 0.5374 (  8068 PWs)   bands (ev):

   -17.7025 -17.5581 -17.5520 -17.4782 -17.4770 -17.4466 -17.4415 -17.4069
   -17.3920 -17.3871 -17.3817 -17.3453 -17.3092 -17.3008 -17.2779 -17.2711
   -17.2695 -17.2658 -17.2502 -17.2303 -17.2229 -17.2122 -17.2113 -17.2036
   -17.1842 -17.1755 -17.1543 -17.1452 -17.1427 -17.1137 -17.0989 -17.0971
   -17.0739 -17.0482 -17.0266  -4.6186  -4.0039  -3.6704  -3.3130  -2.9086
    -2.3396  -2.0127  -1.6342  -0.4818  -0.1105  -0.0434   0.7675   1.0327
     1.6249   2.0103   2.7425   2.9512   3.0552   3.3730   3.4871   3.6274
     3.9844   4.0422   4.2222   4.5576   4.9728   5.0483   5.1903   5.4331
     5.7600   5.9081   6.5493   8.3927   8.7959   8.9860   9.1136   9.2279
     9.3393   9.6048   9.6986   9.8835  10.0033  10.4738  10.6560  10.7455

     occupation numbers 
     1.0000   1.0000   1.0000   1.0000   1.0000   1.0000   1.0000   1.0000
     1.0000   1.0000   1.0000   1.0000   1.0000   1.0000   1.0000   1.0000
     1.0000   1.0000   1.0000   1.0000   1.0000   1.0000   1.0000   1.0000
     1.0000   1.0000   1.0000   1.0000   1.0000   1.0000   1.0000   1.0000
     1.0000   1.0000   1.0000   1.0000   1.0000   1.0000   1.0000   1.0000
     1.0000   1.0000   1.0000   1.0000   1.0000   1.0000   1.0000   1.0000
     1.0000   1.0000   1.0000   1.0000   1.0000   1.0000   1.0000   1.0000
     1.0000   1.0000   1.0000   1.0000   1.0000   1.0000   1.0000   1.0000
     1.0000   1.0000   1.0000   0.0000   0.0000   0.0000   0.0000   0.0000
     0.0000   0.0000   0.0000   0.0000   0.0000   0.0000   0.0000   0.0000

          k =-0.3598-0.0032 0.3583 (  8054 PWs)   bands (ev):

   -17.7024 -17.5579 -17.5521 -17.4782 -17.4771 -17.4466 -17.4415 -17.4057
   -17.3922 -17.3872 -17.3830 -17.3418 -17.3091 -17.3010 -17.2789 -17.2757
   -17.2704 -17.2637 -17.2528 -17.2316 -17.2239 -17.2132 -17.2113 -17.1988
   -17.1853 -17.1746 -17.1622 -17.1434 -17.1342 -17.1109 -17.0983 -17.0953
   -17.0797 -17.0472 -17.0282  -4.7627  -3.9542  -3.6431  -3.0618  -2.6020
    -2.5269  -2.1634  -1.6000  -0.7719  -0.1412   0.1280   0.5563   0.8797
     1.3098   1.5730   2.6491   3.3477   3.4646   3.5372   3.6131   4.0119
     4.1663   4.1876   4.7151   4.7645   4.8670   4.9843   5.0518   5.3741
     5.6623   5.7559   7.0271   8.3053   8.6847   8.8238   8.9554   9.1512
     9.3163   9.3713   9.5063   9.5547   9.7118   9.9826  10.0807  10.2153

     occupation numbers 
     1.0000   1.0000   1.0000   1.0000   1.0000   1.0000   1.0000   1.0000
     1.0000   1.0000   1.0000   1.0000   1.0000   1.0000   1.0000   1.0000
     1.0000   1.0000   1.0000   1.0000   1.0000   1.0000   1.0000   1.0000
     1.0000   1.0000   1.0000   1.0000   1.0000   1.0000   1.0000   1.0000
     1.0000   1.0000   1.0000   1.0000   1.0000   1.0000   1.0000   1.0000
     1.0000   1.0000   1.0000   1.0000   1.0000   1.0000   1.0000   1.0000
     1.0000   1.0000   1.0000   1.0000   1.0000   1.0000   1.0000   1.0000
     1.0000   1.0000   1.0000   1.0000   1.0000   1.0000   1.0000   1.0000
     1.0000   1.0000   0.9489   0.0000   0.0000   0.0000   0.0000   0.0000
     0.0000   0.0000   0.0000   0.0000   0.0000   0.0000   0.0000   0.0000

          k = 0.0007 0.0002 0.3590 (  8059 PWs)   bands (ev):

   -17.7026 -17.5580 -17.5520 -17.4781 -17.4773 -17.4466 -17.4414 -17.4042
   -17.3924 -17.3872 -17.3840 -17.3383 -17.3093 -17.3006 -17.2844 -17.2773
   -17.2703 -17.2633 -17.2557 -17.2332 -17.2226 -17.2134 -17.2116 -17.1953
   -17.1859 -17.1736 -17.1656 -17.1433 -17.1265 -17.1068 -17.0994 -17.0943
   -17.0862 -17.0462 -17.0299  -5.0108  -3.6288  -3.2160  -3.1150  -2.8982
    -2.7626  -1.4564  -1.3103  -0.9402  -0.8070   0.1357   0.2680   0.5135
     0.6311   0.9945   3.4645   3.5166   3.5987   3.7408   4.2016   4.3498
     4.4243   4.4577   4.6011   4.6382   5.4148   5.5053   5.6168   5.7293
     5.8189   6.1732   6.5365   7.4232   8.3029   8.5489   8.6361   8.7746
     8.7995   8.8756   9.0179   9.0730   9.1917   9.3410  10.2261  10.4393

     occupation numbers 
     1.0000   1.0000   1.0000   1.0000   1.0000   1.0000   1.0000   1.0000
     1.0000   1.0000   1.0000   1.0000   1.0000   1.0000   1.0000   1.0000
     1.0000   1.0000   1.0000   1.0000   1.0000   1.0000   1.0000   1.0000
     1.0000   1.0000   1.0000   1.0000   1.0000   1.0000   1.0000   1.0000
     1.0000   1.0000   1.0000   1.0000   1.0000   1.0000   1.0000   1.0000
     1.0000   1.0000   1.0000   1.0000   1.0000   1.0000   1.0000   1.0000
     1.0000   1.0000   1.0000   1.0000   1.0000   1.0000   1.0000   1.0000
     1.0000   1.0000   1.0000   1.0000   1.0000   1.0000   1.0000   1.0000
     1.0000   1.0000   1.0000   0.1335   0.0000   0.0000   0.0000   0.0000
     0.0000   0.0000   0.0000   0.0000   0.0000   0.0000   0.0000   0.0000

          k = 0.1823 0.1758 0.1800 (  8054 PWs)   bands (ev):

   -17.7026 -17.5580 -17.5522 -17.4782 -17.4772 -17.4466 -17.4414 -17.4057
   -17.3923 -17.3874 -17.3826 -17.3420 -17.3093 -17.3012 -17.2787 -17.2761
   -17.2702 -17.2644 -17.2546 -17.2318 -17.2217 -17.2132 -17.2114 -17.1986
   -17.1849 -17.1748 -17.1620 -17.1436 -17.1345 -17.1112 -17.0984 -17.0959
   -17.0802 -17.0471 -17.0281  -5.0745  -3.7202  -3.2851  -2.8900  -2.6751
    -2.2577  -1.9996  -1.7624  -0.5002  -0.3390  -0.1404  -0.0307   0.0668
     0.3628   0.9652   3.5131   3.5809   3.7085   4.1113   4.1927   4.3591
     4.5531   4.6949   4.8136   5.2703   5.3200   5.4654   5.5443   5.7944
     5.9715   6.6513   6.8412   7.5964   7.6778   7.8132   7.9940   8.6083
     8.6726   8.7801   8.8225   8.9843   9.1225   9.3006   9.9505  10.0906

     occupation numbers 
     1.0000   1.0000   1.0000   1.0000   1.0000   1.0000   1.0000   1.0000
     1.0000   1.0000   1.0000   1.0000   1.0000   1.0000   1.0000   1.0000
     1.0000   1.0000   1.0000   1.0000   1.0000   1.0000   1.0000   1.0000
     1.0000   1.0000   1.0000   1.0000   1.0000   1.0000   1.0000   1.0000
     1.0000   1.0000   1.0000   1.0000   1.0000   1.0000   1.0000   1.0000
     1.0000   1.0000   1.0000   1.0000   1.0000   1.0000   1.0000   1.0000
     1.0000   1.0000   1.0000   1.0000   1.0000   1.0000   1.0000   1.0000
     1.0000   1.0000   1.0000   1.0000   1.0000   1.0000   1.0000   1.0000
     1.0000   1.0000   0.9983   0.0104   0.0020   0.0001   0.0000   0.0000
     0.0000   0.0000   0.0000   0.0000   0.0000   0.0000   0.0000   0.0000

          k =-0.3626-0.3509 0.7171 (  8060 PWs)   bands (ev):

   -17.7024 -17.5579 -17.5521 -17.4782 -17.4771 -17.4466 -17.4413 -17.4069
   -17.3920 -17.3872 -17.3817 -17.3453 -17.3092 -17.3008 -17.2779 -17.2711
   -17.2694 -17.2658 -17.2501 -17.2304 -17.2229 -17.2123 -17.2112 -17.2036
   -17.1842 -17.1755 -17.1543 -17.1452 -17.1429 -17.1139 -17.0990 -17.0971
   -17.0739 -17.0482 -17.0265  -4.7640  -3.8894  -3.5931  -3.2366  -2.6071
    -2.5135  -2.2019  -1.5411  -0.6192  -0.2772   0.1135   0.3952   0.9673
     1.3446   1.6596   2.7257   3.3870   3.4136   3.6063   3.7627   4.0833
     4.1923   4.2665   4.4068   4.8268   4.9359   5.0649   5.1787   5.2475
     5.4707   5.6263   6.6948   7.9005   8.5673   8.7148   8.9814   9.1395
     9.2438   9.3721   9.6516   9.7337   9.9023  10.1390  10.2025  10.3702

     occupation numbers 
     1.0000   1.0000   1.0000   1.0000   1.0000   1.0000   1.0000   1.0000
     1.0000   1.0000   1.0000   1.0000   1.0000   1.0000   1.0000   1.0000
     1.0000   1.0000   1.0000   1.0000   1.0000   1.0000   1.0000   1.0000
     1.0000   1.0000   1.0000   1.0000   1.0000   1.0000   1.0000   1.0000
     1.0000   1.0000   1.0000   1.0000   1.0000   1.0000   1.0000   1.0000
     1.0000   1.0000   1.0000   1.0000   1.0000   1.0000   1.0000   1.0000
     1.0000   1.0000   1.0000   1.0000   1.0000   1.0000   1.0000   1.0000
     1.0000   1.0000   1.0000   1.0000   1.0000   1.0000   1.0000   1.0000
     1.0000   1.0000   1.0000   0.0000   0.0000   0.0000   0.0000   0.0000
     0.0000   0.0000   0.0000   0.0000   0.0000   0.0000   0.0000   0.0000

          k =-0.1809-0.1753 0.5380 (  8062 PWs)   bands (ev):

   -17.7025 -17.5579 -17.5519 -17.4781 -17.4772 -17.4466 -17.4413 -17.4056
   -17.3922 -17.3872 -17.3830 -17.3418 -17.3091 -17.3010 -17.2789 -17.2756
   -17.2703 -17.2637 -17.2528 -17.2316 -17.2238 -17.2131 -17.2111 -17.1986
   -17.1851 -17.1744 -17.1623 -17.1432 -17.1342 -17.1108 -17.0982 -17.0953
   -17.0797 -17.0472 -17.0282  -4.6010  -4.0027  -3.5837  -3.4241  -2.8914
    -2.3672  -2.0825  -1.6164  -0.5832  -0.0929   0.1131   0.6115   1.1142
     1.7345   2.0929   2.7540   2.9289   3.1328   3.3592   3.6410   3.7549
     3.9821   4.1871   4.2736   4.6187   4.7760   5.0003   5.0389   5.2458
     5.6139   5.9432   6.1784   8.0675   8.4673   8.9158   9.0810   9.2233
     9.5109   9.6483   9.8129  10.0900  10.2417  10.3367  10.6698  10.7471

     occupation numbers 
     1.0000   1.0000   1.0000   1.0000   1.0000   1.0000   1.0000   1.0000
     1.0000   1.0000   1.0000   1.0000   1.0000   1.0000   1.0000   1.0000
     1.0000   1.0000   1.0000   1.0000   1.0000   1.0000   1.0000   1.0000
     1.0000   1.0000   1.0000   1.0000   1.0000   1.0000   1.0000   1.0000
     1.0000   1.0000   1.0000   1.0000   1.0000   1.0000   1.0000   1.0000
     1.0000   1.0000   1.0000   1.0000   1.0000   1.0000   1.0000   1.0000
     1.0000   1.0000   1.0000   1.0000   1.0000   1.0000   1.0000   1.0000
     1.0000   1.0000   1.0000   1.0000   1.0000   1.0000   1.0000   1.0000
     1.0000   1.0000   1.0000   0.0000   0.0000   0.0000   0.0000   0.0000
     0.0000   0.0000   0.0000   0.0000   0.0000   0.0000   0.0000   0.0000

          k =-0.5360 0.5167-0.1801 (  8061 PWs)   bands (ev):

   -17.7025 -17.5579 -17.5519 -17.4781 -17.4772 -17.4465 -17.4413 -17.4041
   -17.3923 -17.3873 -17.3839 -17.3383 -17.3091 -17.3006 -17.2843 -17.2773
   -17.2703 -17.2634 -17.2556 -17.2331 -17.2226 -17.2133 -17.2115 -17.1951
   -17.1859 -17.1736 -17.1655 -17.1432 -17.1264 -17.1067 -17.0993 -17.0942
   -17.0861 -17.0461 -17.0298  -4.5913  -4.1681  -3.5161  -3.0765  -3.0230
    -2.5162  -1.8669  -1.8136  -0.4046  -0.2650   0.0345   0.7646   0.9017
     1.6424   2.1116   2.9208   2.9751   3.1243   3.4461   3.6202   3.7266
     4.0239   4.0970   4.2852   4.6313   4.7420   4.9958   5.1130   5.1973
     5.6995   5.7793   6.4448   8.1311   8.6572   8.8948   9.1466   9.3267
     9.3636   9.4451   9.7178   9.8677  10.1388  10.2173  10.4550  10.7132

     occupation numbers 
     1.0000   1.0000   1.0000   1.0000   1.0000   1.0000   1.0000   1.0000
     1.0000   1.0000   1.0000   1.0000   1.0000   1.0000   1.0000   1.0000
     1.0000   1.0000   1.0000   1.0000   1.0000   1.0000   1.0000   1.0000
     1.0000   1.0000   1.0000   1.0000   1.0000   1.0000   1.0000   1.0000
     1.0000   1.0000   1.0000   1.0000   1.0000   1.0000   1.0000   1.0000
     1.0000   1.0000   1.0000   1.0000   1.0000   1.0000   1.0000   1.0000
     1.0000   1.0000   1.0000   1.0000   1.0000   1.0000   1.0000   1.0000
     1.0000   1.0000   1.0000   1.0000   1.0000   1.0000   1.0000   1.0000
     1.0000   1.0000   1.0000   0.0000   0.0000   0.0000   0.0000   0.0000
     0.0000   0.0000   0.0000   0.0000   0.0000   0.0000   0.0000   0.0000

          k =-0.3544 0.6922-0.3592 (  8051 PWs)   bands (ev):

   -17.7025 -17.5581 -17.5521 -17.4782 -17.4771 -17.4466 -17.4413 -17.4055
   -17.3923 -17.3874 -17.3825 -17.3420 -17.3092 -17.3012 -17.2787 -17.2762
   -17.2703 -17.2644 -17.2546 -17.2317 -17.2217 -17.2131 -17.2114 -17.1985
   -17.1850 -17.1747 -17.1619 -17.1434 -17.1344 -17.1111 -17.0984 -17.0959
   -17.0802 -17.0470 -17.0280  -4.7596  -4.0112  -3.6551  -2.7643  -2.6621
    -2.4880  -2.3848  -1.6042  -0.6614  -0.1492  -0.0853   0.5298   0.7447
     1.4535   1.5733   2.7712   3.4374   3.4925   3.6373   3.6985   4.0696
     4.2635   4.3370   4.5963   4.7545   4.8328   4.9253   5.0554   5.4105
     5.4981   5.6157   6.8524   8.1345   8.6617   8.7479   8.9583   9.0158
     9.2635   9.4063   9.4829   9.6132   9.7429   9.9900  10.0203  10.1998

     occupation numbers 
     1.0000   1.0000   1.0000   1.0000   1.0000   1.0000   1.0000   1.0000
     1.0000   1.0000   1.0000   1.0000   1.0000   1.0000   1.0000   1.0000
     1.0000   1.0000   1.0000   1.0000   1.0000   1.0000   1.0000   1.0000
     1.0000   1.0000   1.0000   1.0000   1.0000   1.0000   1.0000   1.0000
     1.0000   1.0000   1.0000   1.0000   1.0000   1.0000   1.0000   1.0000
     1.0000   1.0000   1.0000   1.0000   1.0000   1.0000   1.0000   1.0000
     1.0000   1.0000   1.0000   1.0000   1.0000   1.0000   1.0000   1.0000
     1.0000   1.0000   1.0000   1.0000   1.0000   1.0000   1.0000   1.0000
     1.0000   1.0000   0.9978   0.0000   0.0000   0.0000   0.0000   0.0000
     0.0000   0.0000   0.0000   0.0000   0.0000   0.0000   0.0000   0.0000

          k =-0.8992 0.1656 0.1779 (  8062 PWs)   bands (ev):

   -17.7024 -17.5579 -17.5521 -17.4782 -17.4770 -17.4466 -17.4411 -17.4069
   -17.3920 -17.3872 -17.3815 -17.3452 -17.3091 -17.3007 -17.2779 -17.2711
   -17.2694 -17.2659 -17.2501 -17.2303 -17.2229 -17.2123 -17.2112 -17.2036
   -17.1841 -17.1754 -17.1543 -17.1452 -17.1429 -17.1139 -17.0989 -17.0971
   -17.0739 -17.0482 -17.0265  -4.5710  -4.1020  -3.6256  -3.1304  -3.0445
    -2.4453  -1.8718  -1.7794  -0.4705  -0.3137   0.0541   0.7781   0.9542
     1.7053   2.2120   2.8710   2.9549   3.2255   3.4991   3.6998   3.8118
     3.9529   4.0426   4.3040   4.6631   4.7468   4.9698   5.0591   5.1153
     5.6398   5.7784   6.1681   8.1369   8.5311   8.8454   8.9958   9.1118
     9.4157   9.4387   9.5834   9.9089  10.0232  10.4009  10.4871  10.7164

     occupation numbers 
     1.0000   1.0000   1.0000   1.0000   1.0000   1.0000   1.0000   1.0000
     1.0000   1.0000   1.0000   1.0000   1.0000   1.0000   1.0000   1.0000
     1.0000   1.0000   1.0000   1.0000   1.0000   1.0000   1.0000   1.0000
     1.0000   1.0000   1.0000   1.0000   1.0000   1.0000   1.0000   1.0000
     1.0000   1.0000   1.0000   1.0000   1.0000   1.0000   1.0000   1.0000
     1.0000   1.0000   1.0000   1.0000   1.0000   1.0000   1.0000   1.0000
     1.0000   1.0000   1.0000   1.0000   1.0000   1.0000   1.0000   1.0000
     1.0000   1.0000   1.0000   1.0000   1.0000   1.0000   1.0000   1.0000
     1.0000   1.0000   1.0000   0.0000   0.0000   0.0000   0.0000   0.0000
     0.0000   0.0000   0.0000   0.0000   0.0000   0.0000   0.0000   0.0000

          k =-0.7176 0.3411-0.0011 (  8078 PWs)   bands (ev):

   -17.7025 -17.5578 -17.5519 -17.4781 -17.4771 -17.4465 -17.4412 -17.4057
   -17.3921 -17.3873 -17.3830 -17.3418 -17.3091 -17.3010 -17.2788 -17.2756
   -17.2703 -17.2637 -17.2527 -17.2314 -17.2239 -17.2132 -17.2111 -17.1986
   -17.1851 -17.1744 -17.1622 -17.1433 -17.1342 -17.1109 -17.0983 -17.0952
   -17.0798 -17.0473 -17.0282  -4.2743  -4.0546  -3.8641  -3.7463  -2.5741
    -2.3259  -2.0823  -1.9670  -0.1598   0.0085   0.0547   0.3092   2.1236
     2.2501   2.3847   2.6236   2.7202   2.8546   2.9545   3.0957   4.0633
     4.0979   4.1832   4.2933   4.3837   4.4271   4.5054   4.6090   5.3839
     5.5000   5.5872   5.8826   8.9543   9.0881   9.1732   9.3792   9.5160
     9.7253   9.7811   9.9035  10.0669  10.1952  10.2998  10.4532  10.9997

     occupation numbers 
     1.0000   1.0000   1.0000   1.0000   1.0000   1.0000   1.0000   1.0000
     1.0000   1.0000   1.0000   1.0000   1.0000   1.0000   1.0000   1.0000
     1.0000   1.0000   1.0000   1.0000   1.0000   1.0000   1.0000   1.0000
     1.0000   1.0000   1.0000   1.0000   1.0000   1.0000   1.0000   1.0000
     1.0000   1.0000   1.0000   1.0000   1.0000   1.0000   1.0000   1.0000
     1.0000   1.0000   1.0000   1.0000   1.0000   1.0000   1.0000   1.0000
     1.0000   1.0000   1.0000   1.0000   1.0000   1.0000   1.0000   1.0000
     1.0000   1.0000   1.0000   1.0000   1.0000   1.0000   1.0000   1.0000
     1.0000   1.0000   1.0000   0.0000   0.0000   0.0000   0.0000   0.0000
     0.0000   0.0000   0.0000   0.0000   0.0000   0.0000   0.0000   0.0000

          k =-0.3571 0.3445-0.0004 (  8044 PWs)   bands (ev):

   -17.7025 -17.5579 -17.5520 -17.4781 -17.4771 -17.4465 -17.4412 -17.4041
   -17.3923 -17.3873 -17.3839 -17.3382 -17.3092 -17.3006 -17.2843 -17.2773
   -17.2704 -17.2634 -17.2556 -17.2330 -17.2226 -17.2134 -17.2115 -17.1951
   -17.1859 -17.1736 -17.1653 -17.1434 -17.1264 -17.1068 -17.0992 -17.0940
   -17.0861 -17.0462 -17.0299  -4.7829  -4.0179  -3.5770  -2.8027  -2.7069
    -2.4895  -2.3724  -1.5920  -0.5876  -0.1350   0.0222   0.5338   0.7046
     1.2608   1.5451   2.7173   3.3359   3.4583   3.6418   3.7507   3.9999
     4.1370   4.3590   4.5273   4.8241   4.9358   5.0250   5.1709   5.3766
     5.5756   5.6424   6.8879   8.0940   8.6138   8.8246   8.9440   9.0470
     9.3286   9.5681   9.6170   9.8057   9.9291  10.1100  10.2276  10.3425

     occupation numbers 
     1.0000   1.0000   1.0000   1.0000   1.0000   1.0000   1.0000   1.0000
     1.0000   1.0000   1.0000   1.0000   1.0000   1.0000   1.0000   1.0000
     1.0000   1.0000   1.0000   1.0000   1.0000   1.0000   1.0000   1.0000
     1.0000   1.0000   1.0000   1.0000   1.0000   1.0000   1.0000   1.0000
     1.0000   1.0000   1.0000   1.0000   1.0000   1.0000   1.0000   1.0000
     1.0000   1.0000   1.0000   1.0000   1.0000   1.0000   1.0000   1.0000
     1.0000   1.0000   1.0000   1.0000   1.0000   1.0000   1.0000   1.0000
     1.0000   1.0000   1.0000   1.0000   1.0000   1.0000   1.0000   1.0000
     1.0000   1.0000   0.9953   0.0000   0.0000   0.0000   0.0000   0.0000
     0.0000   0.0000   0.0000   0.0000   0.0000   0.0000   0.0000   0.0000

          k =-0.1755 0.5201-0.1795 (  8063 PWs)   bands (ev):

   -17.7025 -17.5580 -17.5519 -17.4782 -17.4770 -17.4465 -17.4412 -17.4054
   -17.3922 -17.3871 -17.3824 -17.3419 -17.3091 -17.3011 -17.2787 -17.2760
   -17.2702 -17.2644 -17.2546 -17.2316 -17.2216 -17.2129 -17.2113 -17.1984
   -17.1849 -17.1748 -17.1619 -17.1431 -17.1344 -17.1109 -17.0983 -17.0957
   -17.0801 -17.0469 -17.0280  -4.6206  -4.1375  -3.5802  -3.0815  -2.9706
    -2.4791  -1.8157  -1.7983  -0.3634  -0.2672   0.0684   0.6435   0.8438
     1.5912   2.0816   2.8334   2.9831   3.0245   3.4310   3.5293   3.5425
     4.0377   4.0966   4.4145   4.5949   4.7521   5.1770   5.2852   5.4283
     5.6423   5.8873   6.4773   8.2490   8.8322   8.9149   9.0610   9.1841
     9.4313   9.6991   9.8113  10.1054  10.2674  10.5726  10.6734  10.7496

     occupation numbers 
     1.0000   1.0000   1.0000   1.0000   1.0000   1.0000   1.0000   1.0000
     1.0000   1.0000   1.0000   1.0000   1.0000   1.0000   1.0000   1.0000
     1.0000   1.0000   1.0000   1.0000   1.0000   1.0000   1.0000   1.0000
     1.0000   1.0000   1.0000   1.0000   1.0000   1.0000   1.0000   1.0000
     1.0000   1.0000   1.0000   1.0000   1.0000   1.0000   1.0000   1.0000
     1.0000   1.0000   1.0000   1.0000   1.0000   1.0000   1.0000   1.0000
     1.0000   1.0000   1.0000   1.0000   1.0000   1.0000   1.0000   1.0000
     1.0000   1.0000   1.0000   1.0000   1.0000   1.0000   1.0000   1.0000
     1.0000   1.0000   1.0000   0.0000   0.0000   0.0000   0.0000   0.0000
     0.0000   0.0000   0.0000   0.0000   0.0000   0.0000   0.0000   0.0000

          k =-0.7203-0.0066 0.3577 (  8056 PWs)   bands (ev):

   -17.7025 -17.5580 -17.5520 -17.4782 -17.4771 -17.4466 -17.4413 -17.4069
   -17.3921 -17.3872 -17.3816 -17.3453 -17.3091 -17.3008 -17.2779 -17.2711
   -17.2695 -17.2660 -17.2502 -17.2303 -17.2229 -17.2123 -17.2112 -17.2037
   -17.1842 -17.1755 -17.1543 -17.1452 -17.1428 -17.1138 -17.0988 -17.0972
   -17.0740 -17.0483 -17.0265  -4.2877  -4.0472  -3.9297  -3.7299  -2.5160
    -2.1608  -2.1345  -1.9712  -0.2205  -0.0191   0.0737   0.2962   2.1154
     2.2158   2.3689   2.5006   2.6353   2.7610   2.9059   2.9729   4.0029
     4.1051   4.2539   4.3640   4.3846   4.5174   4.6023   4.7915   5.3996
     5.5403   5.7487   5.8877   9.0598   9.1895   9.3073   9.4322   9.5649
     9.7211   9.9635  10.0571  10.3664  10.3917  10.4953  10.6595  10.9955

     occupation numbers 
     1.0000   1.0000   1.0000   1.0000   1.0000   1.0000   1.0000   1.0000
     1.0000   1.0000   1.0000   1.0000   1.0000   1.0000   1.0000   1.0000
     1.0000   1.0000   1.0000   1.0000   1.0000   1.0000   1.0000   1.0000
     1.0000   1.0000   1.0000   1.0000   1.0000   1.0000   1.0000   1.0000
     1.0000   1.0000   1.0000   1.0000   1.0000   1.0000   1.0000   1.0000
     1.0000   1.0000   1.0000   1.0000   1.0000   1.0000   1.0000   1.0000
     1.0000   1.0000   1.0000   1.0000   1.0000   1.0000   1.0000   1.0000
     1.0000   1.0000   1.0000   1.0000   1.0000   1.0000   1.0000   1.0000
     1.0000   1.0000   1.0000   0.0000   0.0000   0.0000   0.0000   0.0000
     0.0000   0.0000   0.0000   0.0000   0.0000   0.0000   0.0000   0.0000

          k =-0.5387 0.1690 0.1786 (  8061 PWs)   bands (ev):

   -17.7025 -17.5580 -17.5521 -17.4782 -17.4772 -17.4466 -17.4413 -17.4057
   -17.3922 -17.3873 -17.3831 -17.3418 -17.3092 -17.3010 -17.2788 -17.2758
   -17.2704 -17.2638 -17.2528 -17.2316 -17.2239 -17.2133 -17.2112 -17.1987
   -17.1852 -17.1745 -17.1622 -17.1435 -17.1342 -17.1110 -17.0983 -17.0953
   -17.0798 -17.0473 -17.0283  -4.5837  -4.1444  -3.5443  -3.1372  -3.0503
    -2.4256  -1.8812  -1.8005  -0.4600  -0.2796   0.1263   0.7683   0.8978
     1.7517   2.0814   2.7788   2.9484   3.1627   3.3411   3.6558   3.7508
     3.9933   4.1170   4.3104   4.6523   4.8314   5.0152   5.1073   5.1586
     5.6601   5.9397   6.2004   8.1103   8.5489   8.9170   9.1272   9.3140
     9.4419   9.5728   9.7928   9.9631  10.2355  10.3654  10.6118  10.7127

     occupation numbers 
     1.0000   1.0000   1.0000   1.0000   1.0000   1.0000   1.0000   1.0000
     1.0000   1.0000   1.0000   1.0000   1.0000   1.0000   1.0000   1.0000
     1.0000   1.0000   1.0000   1.0000   1.0000   1.0000   1.0000   1.0000
     1.0000   1.0000   1.0000   1.0000   1.0000   1.0000   1.0000   1.0000
     1.0000   1.0000   1.0000   1.0000   1.0000   1.0000   1.0000   1.0000
     1.0000   1.0000   1.0000   1.0000   1.0000   1.0000   1.0000   1.0000
     1.0000   1.0000   1.0000   1.0000   1.0000   1.0000   1.0000   1.0000
     1.0000   1.0000   1.0000   1.0000   1.0000   1.0000   1.0000   1.0000
     1.0000   1.0000   1.0000   0.0000   0.0000   0.0000   0.0000   0.0000
     0.0000   0.0000   0.0000   0.0000   0.0000   0.0000   0.0000   0.0000

          k = 0.3564-0.3448-0.3586 (  8060 PWs)   bands (ev):

   -17.7025 -17.5579 -17.5522 -17.4781 -17.4771 -17.4464 -17.4414 -17.4042
   -17.3923 -17.3873 -17.3843 -17.3381 -17.3092 -17.3006 -17.2843 -17.2771
   -17.2704 -17.2631 -17.2544 -17.2330 -17.2238 -17.2134 -17.2115 -17.1953
   -17.1865 -17.1736 -17.1657 -17.1435 -17.1262 -17.1069 -17.0989 -17.0940
   -17.0856 -17.0463 -17.0302  -4.6158  -4.4486  -3.0579  -2.7497  -2.6098
    -2.5813  -2.4207  -2.1963   0.0084   0.1406   0.2533   0.2670   0.4803
     0.5564   2.6239   2.7887   3.1496   3.2431   3.4272   3.5139   3.5644
     3.6670   4.5211   4.6820   4.7817   4.9009   4.9947   5.1242   5.9951
     6.2412   6.4861   6.7290   8.1477   8.2640   8.2768   8.4111   8.4971
     8.6136   8.6864   8.8203  10.3079  10.5794  10.6436  10.7171  11.0190

     occupation numbers 
     1.0000   1.0000   1.0000   1.0000   1.0000   1.0000   1.0000   1.0000
     1.0000   1.0000   1.0000   1.0000   1.0000   1.0000   1.0000   1.0000
     1.0000   1.0000   1.0000   1.0000   1.0000   1.0000   1.0000   1.0000
     1.0000   1.0000   1.0000   1.0000   1.0000   1.0000   1.0000   1.0000
     1.0000   1.0000   1.0000   1.0000   1.0000   1.0000   1.0000   1.0000
     1.0000   1.0000   1.0000   1.0000   1.0000   1.0000   1.0000   1.0000
     1.0000   1.0000   1.0000   1.0000   1.0000   1.0000   1.0000   1.0000
     1.0000   1.0000   1.0000   1.0000   1.0000   1.0000   1.0000   1.0000
     1.0000   1.0000   0.9999   0.0000   0.0000   0.0000   0.0000   0.0000
     0.0000   0.0000   0.0000   0.0000   0.0000   0.0000   0.0000   0.0000

          k = 0.5380-0.1692-0.5376 (  8057 PWs)   bands (ev):

   -17.7025 -17.5579 -17.5520 -17.4781 -17.4770 -17.4464 -17.4414 -17.4056
   -17.3923 -17.3872 -17.3828 -17.3418 -17.3091 -17.3010 -17.2786 -17.2757
   -17.2702 -17.2640 -17.2538 -17.2315 -17.2228 -17.2130 -17.2111 -17.1985
   -17.1856 -17.1747 -17.1621 -17.1433 -17.1343 -17.1109 -17.0977 -17.0955
   -17.0797 -17.0471 -17.0283  -4.6240  -4.1188  -3.4947  -3.3256  -2.8953
    -2.3373  -2.0371  -1.6347  -0.4565  -0.1424  -0.0391   0.7194   1.0031
     1.5506   1.9579   2.7438   2.9339   3.0795   3.3812   3.5364   3.6486
     4.0321   4.0899   4.2872   4.5932   4.9595   5.0166   5.1708   5.3657
     5.7483   5.9890   6.5674   8.4445   8.8948   8.9435   9.1680   9.2727
     9.3636   9.6122   9.7208   9.8699  10.2707  10.4796  10.6638  10.7315

     occupation numbers 
     1.0000   1.0000   1.0000   1.0000   1.0000   1.0000   1.0000   1.0000
     1.0000   1.0000   1.0000   1.0000   1.0000   1.0000   1.0000   1.0000
     1.0000   1.0000   1.0000   1.0000   1.0000   1.0000   1.0000   1.0000
     1.0000   1.0000   1.0000   1.0000   1.0000   1.0000   1.0000   1.0000
     1.0000   1.0000   1.0000   1.0000   1.0000   1.0000   1.0000   1.0000
     1.0000   1.0000   1.0000   1.0000   1.0000   1.0000   1.0000   1.0000
     1.0000   1.0000   1.0000   1.0000   1.0000   1.0000   1.0000   1.0000
     1.0000   1.0000   1.0000   1.0000   1.0000   1.0000   1.0000   1.0000
     1.0000   1.0000   1.0000   0.0000   0.0000   0.0000   0.0000   0.0000
     0.0000   0.0000   0.0000   0.0000   0.0000   0.0000   0.0000   0.0000

          k =-0.0068-0.6959-0.0005 (  8080 PWs)   bands (ev):

   -17.7024 -17.5580 -17.5519 -17.4780 -17.4769 -17.4464 -17.4414 -17.4069
   -17.3920 -17.3870 -17.3813 -17.3454 -17.3092 -17.3009 -17.2779 -17.2709
   -17.2692 -17.2662 -17.2509 -17.2302 -17.2218 -17.2121 -17.2112 -17.2031
   -17.1846 -17.1757 -17.1542 -17.1451 -17.1426 -17.1138 -17.0986 -17.0971
   -17.0740 -17.0480 -17.0266  -4.4495  -4.1365  -3.5748  -3.3268  -3.0879
    -2.9490  -1.2792  -1.1392  -0.9096  -0.7356   0.7874   1.0007   1.2047
     1.4035   2.7084   2.9403   3.0070   3.0399   3.0942   3.1294   3.1749
     3.2846   3.4114   3.4868   5.0485   5.1101   5.2212   5.3793   5.8027
     5.9352   5.9384   6.1413   8.1026   8.2635   9.1575   9.2689   9.5507
     9.5794   9.9139   9.9585  10.8412  10.9684  11.0399  11.1087  11.2005

     occupation numbers 
     1.0000   1.0000   1.0000   1.0000   1.0000   1.0000   1.0000   1.0000
     1.0000   1.0000   1.0000   1.0000   1.0000   1.0000   1.0000   1.0000
     1.0000   1.0000   1.0000   1.0000   1.0000   1.0000   1.0000   1.0000
     1.0000   1.0000   1.0000   1.0000   1.0000   1.0000   1.0000   1.0000
     1.0000   1.0000   1.0000   1.0000   1.0000   1.0000   1.0000   1.0000
     1.0000   1.0000   1.0000   1.0000   1.0000   1.0000   1.0000   1.0000
     1.0000   1.0000   1.0000   1.0000   1.0000   1.0000   1.0000   1.0000
     1.0000   1.0000   1.0000   1.0000   1.0000   1.0000   1.0000   1.0000
     1.0000   1.0000   1.0000   0.0000   0.0000   0.0000   0.0000   0.0000
     0.0000   0.0000   0.0000   0.0000   0.0000   0.0000   0.0000   0.0000

          k = 0.5353-0.5169-0.1789 (  8066 PWs)   bands (ev):

   -17.7025 -17.5578 -17.5520 -17.4781 -17.4772 -17.4464 -17.4413 -17.4041
   -17.3923 -17.3873 -17.3843 -17.3381 -17.3091 -17.3006 -17.2842 -17.2771
   -17.2704 -17.2631 -17.2544 -17.2329 -17.2238 -17.2133 -17.2114 -17.1951
   -17.1864 -17.1736 -17.1658 -17.1433 -17.1262 -17.1067 -17.0990 -17.0940
   -17.0856 -17.0463 -17.0302  -4.5967  -4.1363  -3.5508  -3.0899  -3.0339
    -2.4963  -1.8904  -1.7884  -0.4121  -0.2408   0.0782   0.7526   0.9281
     1.6781   2.0882   2.8572   2.9304   3.0058   3.4298   3.6379   3.7388
     4.0053   4.1724   4.2385   4.6969   4.8002   4.9707   5.0871   5.1736
     5.6616   5.9048   6.4343   8.1714   8.6023   8.9837   9.1707   9.2798
     9.3999   9.5704   9.7413   9.8333  10.0482  10.2393  10.5137  10.7419

     occupation numbers 
     1.0000   1.0000   1.0000   1.0000   1.0000   1.0000   1.0000   1.0000
     1.0000   1.0000   1.0000   1.0000   1.0000   1.0000   1.0000   1.0000
     1.0000   1.0000   1.0000   1.0000   1.0000   1.0000   1.0000   1.0000
     1.0000   1.0000   1.0000   1.0000   1.0000   1.0000   1.0000   1.0000
     1.0000   1.0000   1.0000   1.0000   1.0000   1.0000   1.0000   1.0000
     1.0000   1.0000   1.0000   1.0000   1.0000   1.0000   1.0000   1.0000
     1.0000   1.0000   1.0000   1.0000   1.0000   1.0000   1.0000   1.0000
     1.0000   1.0000   1.0000   1.0000   1.0000   1.0000   1.0000   1.0000
     1.0000   1.0000   1.0000   0.0000   0.0000   0.0000   0.0000   0.0000
     0.0000   0.0000   0.0000   0.0000   0.0000   0.0000   0.0000   0.0000

          k = 0.7169-0.3414-0.3579 (  8058 PWs)   bands (ev):

   -17.7025 -17.5579 -17.5521 -17.4781 -17.4771 -17.4464 -17.4413 -17.4056
   -17.3922 -17.3873 -17.3829 -17.3418 -17.3091 -17.3011 -17.2786 -17.2757
   -17.2701 -17.2639 -17.2537 -17.2316 -17.2228 -17.2131 -17.2111 -17.1985
   -17.1855 -17.1747 -17.1622 -17.1434 -17.1343 -17.1110 -17.0978 -17.0955
   -17.0797 -17.0472 -17.0283  -4.7776  -3.8802  -3.7311  -2.8427  -2.7471
    -2.4946  -2.3262  -1.5437  -0.5610  -0.2033  -0.0437   0.5515   0.7349
     1.3964   1.5565   2.7281   3.3973   3.4527   3.6515   3.7452   4.0835
     4.2253   4.2788   4.4615   4.7853   4.8702   5.1408   5.1569   5.3211
     5.4548   5.6994   6.6477   7.9929   8.6251   8.7338   8.8852   9.1413
     9.2875   9.4102   9.7184   9.7575   9.8912  10.0795  10.2350  10.3354

     occupation numbers 
     1.0000   1.0000   1.0000   1.0000   1.0000   1.0000   1.0000   1.0000
     1.0000   1.0000   1.0000   1.0000   1.0000   1.0000   1.0000   1.0000
     1.0000   1.0000   1.0000   1.0000   1.0000   1.0000   1.0000   1.0000
     1.0000   1.0000   1.0000   1.0000   1.0000   1.0000   1.0000   1.0000
     1.0000   1.0000   1.0000   1.0000   1.0000   1.0000   1.0000   1.0000
     1.0000   1.0000   1.0000   1.0000   1.0000   1.0000   1.0000   1.0000
     1.0000   1.0000   1.0000   1.0000   1.0000   1.0000   1.0000   1.0000
     1.0000   1.0000   1.0000   1.0000   1.0000   1.0000   1.0000   1.0000
     1.0000   1.0000   1.0000   0.0000   0.0000   0.0000   0.0000   0.0000
     0.0000   0.0000   0.0000   0.0000   0.0000   0.0000   0.0000   0.0000

          k = 0.1721-0.8680 0.1792 (  8062 PWs)   bands (ev):

   -17.7025 -17.5580 -17.5521 -17.4782 -17.4770 -17.4465 -17.4413 -17.4069
   -17.3921 -17.3872 -17.3815 -17.3454 -17.3092 -17.3009 -17.2778 -17.2710
   -17.2691 -17.2663 -17.2509 -17.2304 -17.2218 -17.2122 -17.2113 -17.2032
   -17.1846 -17.1757 -17.1543 -17.1451 -17.1429 -17.1139 -17.0989 -17.0971
   -17.0740 -17.0481 -17.0265  -4.6118  -4.0584  -3.6868  -3.1064  -2.9822
    -2.4579  -1.8499  -1.7447  -0.3577  -0.3228   0.0638   0.6669   0.8722
     1.6132   2.1860   2.8651   2.9846   3.0325   3.4399   3.5250   3.7310
     3.9910   4.0166   4.3067   4.5852   4.8256   5.0926   5.2173   5.3297
     5.7377   5.8807   6.3733   8.3378   8.6569   8.9151   9.0069   9.1657
     9.3064   9.5581   9.6779   9.9613  10.1010  10.6190  10.7131  10.8034

     occupation numbers 
     1.0000   1.0000   1.0000   1.0000   1.0000   1.0000   1.0000   1.0000
     1.0000   1.0000   1.0000   1.0000   1.0000   1.0000   1.0000   1.0000
     1.0000   1.0000   1.0000   1.0000   1.0000   1.0000   1.0000   1.0000
     1.0000   1.0000   1.0000   1.0000   1.0000   1.0000   1.0000   1.0000
     1.0000   1.0000   1.0000   1.0000   1.0000   1.0000   1.0000   1.0000
     1.0000   1.0000   1.0000   1.0000   1.0000   1.0000   1.0000   1.0000
     1.0000   1.0000   1.0000   1.0000   1.0000   1.0000   1.0000   1.0000
     1.0000   1.0000   1.0000   1.0000   1.0000   1.0000   1.0000   1.0000
     1.0000   1.0000   1.0000   0.0000   0.0000   0.0000   0.0000   0.0000
     0.0000   0.0000   0.0000   0.0000   0.0000   0.0000   0.0000   0.0000

          k = 0.3537-0.6925 0.0002 (  8064 PWs)   bands (ev):

   -17.7025 -17.5580 -17.5519 -17.4782 -17.4771 -17.4464 -17.4413 -17.4055
   -17.3922 -17.3872 -17.3829 -17.3418 -17.3090 -17.3011 -17.2787 -17.2757
   -17.2702 -17.2640 -17.2538 -17.2316 -17.2227 -17.2129 -17.2111 -17.1983
   -17.1856 -17.1747 -17.1622 -17.1432 -17.1343 -17.1108 -17.0979 -17.0956
   -17.0797 -17.0471 -17.0282  -4.3183  -4.0678  -3.8727  -3.7113  -2.5608
    -2.2366  -2.1279  -1.8600  -0.2439  -0.0396   0.1786   0.2364   2.0592
     2.1764   2.2781   2.5708   2.6792   2.7586   2.8787   2.9925   4.0778
     4.1279   4.2506   4.3112   4.3949   4.5321   4.6481   4.6924   5.4204
     5.5526   5.7105   5.9539   9.0954   9.1778   9.3689   9.4321   9.6388
     9.6801   9.9336  10.1268  10.2067  10.4588  10.5802  10.6424  10.9745

     occupation numbers 
     1.0000   1.0000   1.0000   1.0000   1.0000   1.0000   1.0000   1.0000
     1.0000   1.0000   1.0000   1.0000   1.0000   1.0000   1.0000   1.0000
     1.0000   1.0000   1.0000   1.0000   1.0000   1.0000   1.0000   1.0000
     1.0000   1.0000   1.0000   1.0000   1.0000   1.0000   1.0000   1.0000
     1.0000   1.0000   1.0000   1.0000   1.0000   1.0000   1.0000   1.0000
     1.0000   1.0000   1.0000   1.0000   1.0000   1.0000   1.0000   1.0000
     1.0000   1.0000   1.0000   1.0000   1.0000   1.0000   1.0000   1.0000
     1.0000   1.0000   1.0000   1.0000   1.0000   1.0000   1.0000   1.0000
     1.0000   1.0000   1.0000   0.0000   0.0000   0.0000   0.0000   0.0000
     0.0000   0.0000   0.0000   0.0000   0.0000   0.0000   0.0000   0.0000

          k =-0.0013-0.0005-0.7180 (  8080 PWs)   bands (ev):

   -17.7025 -17.5579 -17.5519 -17.4781 -17.4772 -17.4464 -17.4413 -17.4040
   -17.3923 -17.3873 -17.3843 -17.3382 -17.3090 -17.3005 -17.2842 -17.2771
   -17.2704 -17.2631 -17.2544 -17.2329 -17.2237 -17.2133 -17.2114 -17.1950
   -17.1864 -17.1736 -17.1658 -17.1432 -17.1262 -17.1066 -17.0991 -17.0941
   -17.0856 -17.0462 -17.0302  -4.4178  -4.0343  -3.6878  -3.2790  -3.1856
    -2.9577  -1.3777  -1.2469  -0.8723  -0.7413   0.8530   1.0932   1.2272
     1.4939   2.7784   3.0359   3.0435   3.1448   3.1900   3.2136   3.3458
     3.4740   3.5154   3.5672   4.8434   4.9876   5.1204   5.1670   5.5134
     5.5583   5.6798   6.0667   7.7917   8.0468   8.8959   9.0473   9.1741
     9.3873   9.8661  10.0939  11.0942  11.1902  11.2587  11.3969  11.4476

     occupation numbers 
     1.0000   1.0000   1.0000   1.0000   1.0000   1.0000   1.0000   1.0000
     1.0000   1.0000   1.0000   1.0000   1.0000   1.0000   1.0000   1.0000
     1.0000   1.0000   1.0000   1.0000   1.0000   1.0000   1.0000   1.0000
     1.0000   1.0000   1.0000   1.0000   1.0000   1.0000   1.0000   1.0000
     1.0000   1.0000   1.0000   1.0000   1.0000   1.0000   1.0000   1.0000
     1.0000   1.0000   1.0000   1.0000   1.0000   1.0000   1.0000   1.0000
     1.0000   1.0000   1.0000   1.0000   1.0000   1.0000   1.0000   1.0000
     1.0000   1.0000   1.0000   1.0000   1.0000   1.0000   1.0000   1.0000
     1.0000   1.0000   1.0000   0.0001   0.0000   0.0000   0.0000   0.0000
     0.0000   0.0000   0.0000   0.0000   0.0000   0.0000   0.0000   0.0000

          k = 0.1803 0.1751-0.8970 (  8061 PWs)   bands (ev):

   -17.7025 -17.5580 -17.5520 -17.4781 -17.4772 -17.4464 -17.4413 -17.4055
   -17.3922 -17.3873 -17.3829 -17.3418 -17.3091 -17.3012 -17.2786 -17.2757
   -17.2701 -17.2640 -17.2538 -17.2316 -17.2227 -17.2130 -17.2110 -17.1984
   -17.1855 -17.1746 -17.1622 -17.1433 -17.1343 -17.1109 -17.0978 -17.0957
   -17.0797 -17.0471 -17.0283  -4.5923  -4.0759  -3.5088  -3.4013  -2.8779
    -2.3857  -2.0883  -1.6221  -0.5605  -0.1159   0.0116   0.5742   1.1118
     1.6649   2.1445   2.8520   2.9741   3.2054   3.5154   3.6944   3.7935
     4.0482   4.1094   4.3635   4.5985   4.7331   4.9268   4.9874   5.1330
     5.5995   5.8294   6.2025   8.0917   8.4998   8.8379   8.9652   9.2404
     9.3321   9.5941   9.7493   9.9465  10.1934  10.3314  10.5874  10.6227

     occupation numbers 
     1.0000   1.0000   1.0000   1.0000   1.0000   1.0000   1.0000   1.0000
     1.0000   1.0000   1.0000   1.0000   1.0000   1.0000   1.0000   1.0000
     1.0000   1.0000   1.0000   1.0000   1.0000   1.0000   1.0000   1.0000
     1.0000   1.0000   1.0000   1.0000   1.0000   1.0000   1.0000   1.0000
     1.0000   1.0000   1.0000   1.0000   1.0000   1.0000   1.0000   1.0000
     1.0000   1.0000   1.0000   1.0000   1.0000   1.0000   1.0000   1.0000
     1.0000   1.0000   1.0000   1.0000   1.0000   1.0000   1.0000   1.0000
     1.0000   1.0000   1.0000   1.0000   1.0000   1.0000   1.0000   1.0000
     1.0000   1.0000   1.0000   0.0000   0.0000   0.0000   0.0000   0.0000
     0.0000   0.0000   0.0000   0.0000   0.0000   0.0000   0.0000   0.0000

          k =-0.3646-0.3516-0.3599 (  8058 PWs)   bands (ev):

   -17.7026 -17.5579 -17.5522 -17.4782 -17.4772 -17.4464 -17.4412 -17.4069
   -17.3922 -17.3874 -17.3815 -17.3455 -17.3091 -17.3010 -17.2779 -17.2712
   -17.2691 -17.2663 -17.2509 -17.2304 -17.2218 -17.2123 -17.2113 -17.2032
   -17.1845 -17.1756 -17.1543 -17.1452 -17.1430 -17.1140 -17.0990 -17.0971
   -17.0740 -17.0482 -17.0266  -4.6093  -4.3943  -3.2374  -2.7539  -2.5804
    -2.4960  -2.4113  -2.2220  -0.0666   0.0266   0.1578   0.3089   0.4592
     0.7376   2.7827   2.9772   3.3021   3.3775   3.4152   3.5621   3.6190
     3.8897   4.5030   4.6585   4.7076   4.7375   4.8772   4.9379   6.0442
     6.0894   6.3588   6.4539   8.0484   8.0964   8.2048   8.2354   8.3816
     8.4121   8.5166   8.7555  10.3262  10.4859  10.5742  10.7178  11.2048

     occupation numbers 
     1.0000   1.0000   1.0000   1.0000   1.0000   1.0000   1.0000   1.0000
     1.0000   1.0000   1.0000   1.0000   1.0000   1.0000   1.0000   1.0000
     1.0000   1.0000   1.0000   1.0000   1.0000   1.0000   1.0000   1.0000
     1.0000   1.0000   1.0000   1.0000   1.0000   1.0000   1.0000   1.0000
     1.0000   1.0000   1.0000   1.0000   1.0000   1.0000   1.0000   1.0000
     1.0000   1.0000   1.0000   1.0000   1.0000   1.0000   1.0000   1.0000
     1.0000   1.0000   1.0000   1.0000   1.0000   1.0000   1.0000   1.0000
     1.0000   1.0000   1.0000   1.0000   1.0000   1.0000   1.0000   1.0000
     1.0000   1.0000   1.0000   0.0000   0.0000   0.0000   0.0000   0.0000
     0.0000   0.0000   0.0000   0.0000   0.0000   0.0000   0.0000   0.0000

     the Fermi energy is     7.2630 ev

!    total energy              =   -1578.26946370 Ry
     Harris-Foulkes estimate   =   -1578.26946369 Ry
     estimated scf accuracy    <          3.9E-10 Ry

     The total energy is the sum of the following terms:

     one-electron contribution =   -1165.87672622 Ry
     hartree contribution      =     686.72109008 Ry
     xc contribution           =    -441.65239883 Ry
     ewald contribution        =    -657.46049056 Ry
     smearing contrib. (-TS)   =      -0.00093817 Ry

     convergence has been achieved in  13 iterations

     Forces acting on atoms (Ry/au):

     atom    1 type  2   force =   0.24981289E-01  0.17442968E-01 -0.27906868E-01
     atom    2 type  2   force =   0.22220416E-03  0.34606899E-01 -0.20387983E-01
     atom    3 type  2   force =  -0.26503824E-01  0.19456474E-01  0.43639141E-01
     atom    4 type  2   force =  -0.43693422E-01 -0.86431423E-02  0.22942701E-02
     atom    5 type  1   force =   0.56568770E-02  0.70009334E-02  0.31994754E-01
     atom    6 type  1   force =   0.81728080E-02 -0.14413643E-01 -0.91734719E-02
     atom    7 type  1   force =  -0.63831303E-02  0.26686507E-01  0.12821857E-01
     atom    8 type  1   force =  -0.17803042E-01 -0.11784149E-01  0.17694208E-01
     atom    9 type  1   force =   0.87884166E-02 -0.40750639E-01 -0.13981008E-01
     atom   10 type  1   force =   0.23958749E-01  0.20604124E-01  0.38848919E-01
     atom   11 type  1   force =   0.27261182E-01 -0.10325650E-01  0.11721429E-02
     atom   12 type  2   force =   0.87627417E-02 -0.46698399E-01 -0.26306617E-01
     atom   13 type  2   force =   0.21438794E-01  0.66603231E-01 -0.42617903E-01
     atom   14 type  1   force =  -0.13661725E-02 -0.53507237E-02 -0.26526104E-01
     atom   15 type  1   force =  -0.10593013E-01  0.99681195E-03 -0.32918648E-01
     atom   16 type  2   force =  -0.22900460E-01 -0.55431602E-01  0.51353311E-01
     The non-local contrib.  to forces
     atom    1 type  2   force =   0.48110511E-02  0.52820397E-01 -0.14586077E-01
     atom    2 type  2   force =   0.28376653E-01  0.22481307E-02  0.52177941E-01
     atom    3 type  2   force =  -0.12487268E-01 -0.26523832E-01 -0.26500152E-01
     atom    4 type  2   force =   0.20418661E-01  0.17344632E-01 -0.39529057E-01
     atom    5 type  1   force =   0.58791266E-02  0.80109212E-02  0.64562834E-02
     atom    6 type  1   force =   0.25255426E-02  0.25328690E-02  0.95586826E-02
     atom    7 type  1   force =  -0.16882206E-02  0.64127674E-02 -0.79261443E-02
     atom    8 type  1   force =  -0.23184118E-01 -0.16311373E-02  0.30699464E-01
     atom    9 type  1   force =  -0.60845122E-02 -0.64922475E-01 -0.40456498E-01
     atom   10 type  1   force =   0.45394574E-01  0.13997908E-01  0.75354031E-01
     atom   11 type  1   force =   0.26562888E-01 -0.59691494E-02 -0.16727958E-01
     atom   12 type  2   force =   0.16250966E-01 -0.10299699E-01 -0.93349682E-02
     atom   13 type  2   force =  -0.30040243E-01 -0.11111372E-01  0.40260650E-01
     atom   14 type  1   force =  -0.19986299E-01 -0.12074714E-01 -0.42027088E-01
     atom   15 type  1   force =  -0.10163496E-01  0.68122738E-02 -0.34620288E-01
     atom   16 type  2   force =   0.25013493E-01  0.23101897E-01  0.76737516E-02
     The ionic contribution  to forces
     atom    1 type  2   force =   0.15097976E+01  0.15166290E+01 -0.13957540E+02
     atom    2 type  2   force =   0.77771246E+00  0.21825029E+01  0.96142630E+01
     atom    3 type  2   force =  -0.92130001E+01  0.63613243E+01 -0.41430916E+01
     atom    4 type  2   force =  -0.21838487E+01 -0.13324253E+01  0.15118187E+02
     atom    5 type  1   force =   0.23373527E+01 -0.17982076E+01  0.16654316E+01
     atom    6 type  1   force =   0.17602864E+00 -0.21250767E+00 -0.35031789E+01
     atom    7 type  1   force =   0.14972633E-01 -0.56373948E+00  0.37184026E+01
     atom    8 type  1   force =  -0.15861979E+01  0.17316121E+01 -0.12174717E+01
     atom    9 type  1   force =   0.13765071E+00  0.35024280E+01 -0.10943064E+01
     atom   10 type  1   force =   0.44271929E+00  0.43029754E+00 -0.30544157E+01
     atom   11 type  1   force =  -0.20825578E+01 -0.14280568E+01  0.14215834E+01
     atom   12 type  2   force =   0.62129041E+01 -0.84507477E+01 -0.58259869E+01
     atom   13 type  2   force =   0.86568518E+01  0.77348894E+01 -0.72651696E+01
     atom   14 type  1   force =   0.16139545E+01  0.18497127E+01  0.12389383E+01
     atom   15 type  1   force =  -0.36957970E+00 -0.40221978E+01  0.81727463E-01
     atom   16 type  2   force =  -0.64447604E+01 -0.75015136E+01  0.72026275E+01
     The local contribution  to forces
     atom    1 type  2   force =  -0.14885593E+01 -0.15516491E+01  0.13941576E+02
     atom    2 type  2   force =  -0.80737708E+00 -0.21466507E+01 -0.96873523E+01
     atom    3 type  2   force =   0.91958815E+01 -0.63140117E+01  0.42167599E+01
     atom    4 type  2   force =   0.21166916E+01  0.13060000E+01 -0.15073256E+02
     atom    5 type  1   force =  -0.23371215E+01  0.17984200E+01 -0.16399784E+01
     atom    6 type  1   force =  -0.17012320E+00  0.19527187E+00  0.34854033E+01
     atom    7 type  1   force =  -0.19591949E-01  0.58407777E+00 -0.36978752E+01
     atom    8 type  1   force =   0.15897702E+01 -0.17416083E+01  0.12069802E+01
     atom    9 type  1   force =  -0.12359860E+00 -0.34843492E+01  0.11169659E+01
     atom   10 type  1   force =  -0.45965249E+00 -0.42254521E+00  0.30247547E+01
     atom   11 type  1   force =   0.20854928E+01  0.14240395E+01 -0.14052534E+01
     atom   12 type  2   force =  -0.62174445E+01  0.84096158E+01  0.58091166E+01
     atom   13 type  2   force =  -0.86032543E+01 -0.76517273E+01  0.71791044E+01
     atom   14 type  1   force =  -0.15973555E+01 -0.18441325E+01 -0.12272505E+01
     atom   15 type  1   force =   0.36843434E+00  0.40164496E+01 -0.83193808E-01
     atom   16 type  2   force =   0.63960268E+01  0.74223909E+01 -0.71571724E+01
     The core correction contribution to forces
     atom    1 type  2   force =  -0.10777363E-02 -0.34313024E-03  0.26262457E-02
     atom    2 type  2   force =   0.15208541E-02 -0.35071410E-02  0.55256323E-03
     atom    3 type  2   force =   0.30833461E-02 -0.13154791E-02 -0.35448604E-02
     atom    4 type  2   force =   0.30596934E-02  0.42780907E-03 -0.31012589E-02
     atom    5 type  1   force =  -0.45275705E-03 -0.12227490E-02  0.88363515E-04
     atom    6 type  1   force =  -0.26217357E-03  0.28837722E-03 -0.95890748E-03
     atom    7 type  1   force =  -0.77492564E-04 -0.65308162E-04  0.22461931E-03
     atom    8 type  1   force =   0.18074258E-02 -0.15344479E-03 -0.25148623E-02
     atom    9 type  1   force =   0.81913867E-03  0.60953858E-02  0.38147299E-02
     atom   10 type  1   force =  -0.45056556E-02 -0.11483823E-02 -0.68439261E-02
     atom   11 type  1   force =  -0.22392396E-02 -0.33863555E-03  0.15706318E-02
     atom   12 type  2   force =  -0.29263740E-02  0.47260595E-02 -0.10047482E-03
     atom   13 type  2   force =  -0.20926633E-02 -0.54443164E-02  0.31844211E-02
     atom   14 type  1   force =   0.20195253E-02  0.11465830E-02  0.38152291E-02
     atom   15 type  1   force =   0.71418505E-03 -0.69594839E-04  0.31686424E-02
     atom   16 type  2   force =   0.79273734E-03  0.58304369E-03 -0.17818490E-02
     The Hubbard contrib.    to forces
     atom    1 type  2   force =   0.00000000E+00  0.00000000E+00  0.00000000E+00
     atom    2 type  2   force =   0.00000000E+00  0.00000000E+00  0.00000000E+00
     atom    3 type  2   force =   0.00000000E+00  0.00000000E+00  0.00000000E+00
     atom    4 type  2   force =   0.00000000E+00  0.00000000E+00  0.00000000E+00
     atom    5 type  1   force =   0.00000000E+00  0.00000000E+00  0.00000000E+00
     atom    6 type  1   force =   0.00000000E+00  0.00000000E+00  0.00000000E+00
     atom    7 type  1   force =   0.00000000E+00  0.00000000E+00  0.00000000E+00
     atom    8 type  1   force =   0.00000000E+00  0.00000000E+00  0.00000000E+00
     atom    9 type  1   force =   0.00000000E+00  0.00000000E+00  0.00000000E+00
     atom   10 type  1   force =   0.00000000E+00  0.00000000E+00  0.00000000E+00
     atom   11 type  1   force =   0.00000000E+00  0.00000000E+00  0.00000000E+00
     atom   12 type  2   force =   0.00000000E+00  0.00000000E+00  0.00000000E+00
     atom   13 type  2   force =   0.00000000E+00  0.00000000E+00  0.00000000E+00
     atom   14 type  1   force =   0.00000000E+00  0.00000000E+00  0.00000000E+00
     atom   15 type  1   force =   0.00000000E+00  0.00000000E+00  0.00000000E+00
     atom   16 type  2   force =   0.00000000E+00  0.00000000E+00  0.00000000E+00
     The SCF correction term to forces
     atom    1 type  2   force =   0.82366260E-05 -0.14150181E-04  0.17337743E-04
     atom    2 type  2   force =  -0.12152170E-04  0.13777592E-04 -0.28635235E-04
     atom    3 type  2   force =   0.17212051E-04 -0.16634691E-04  0.16368954E-04
     atom    4 type  2   force =  -0.16163591E-04  0.98355846E-05 -0.54803272E-05
     atom    5 type  1   force =  -0.22314062E-05  0.52989158E-06 -0.25341954E-05
     atom    6 type  1   force =   0.25261337E-05  0.10155239E-05  0.28948241E-05
     atom    7 type  1   force =   0.42772225E-06  0.86476414E-06 -0.34880296E-05
     atom    8 type  1   force =  -0.14122975E-06 -0.32139443E-05  0.15946163E-05
     atom    9 type  1   force =   0.20777918E-06 -0.21595314E-05  0.17100752E-05
     atom   10 type  1   force =   0.15551114E-05  0.23715267E-05  0.31998966E-06
     atom   11 type  1   force =   0.10675217E-05 -0.44836318E-06 -0.93715884E-07
     atom   12 type  2   force =  -0.22910952E-04  0.72185365E-05 -0.40762097E-06
     atom   13 type  2   force =  -0.27350279E-04 -0.30633330E-05  0.27988020E-05
     atom   14 type  1   force =   0.93655870E-07 -0.26848711E-05 -0.14667011E-05
     atom   15 type  1   force =   0.18772275E-06  0.24282665E-05 -0.15177439E-06
     atom   16 type  2   force =   0.25452847E-04  0.62243028E-05  0.67829520E-05

     Total force =     0.185913     Total SCF correction =     0.000072


     entering subroutine stress ...

          total   stress  (Ry/bohr**3)                   (kbar)     P=   -8.56
   0.0000230351   0.0000925751  -0.0000507935          3.39     13.62     -7.47
   0.0000925751  -0.0001933336  -0.0000183173         13.62    -28.44     -2.69
  -0.0000507935  -0.0000183173  -0.0000043113         -7.47     -2.69     -0.63

     kinetic stress (kbar)   5838.66     11.39     10.06
                               11.39   5802.15      5.23
                               10.06      5.23   5833.58

     local   stress (kbar)  -5496.84  -4834.79   3847.55
                            -4834.79  -4165.54  -1792.83
                             3847.55  -1792.83  -1752.07

     nonloc. stress (kbar)   2390.74      2.47     -6.21
                                2.47   2400.97     -2.53
                               -6.21     -2.53   2392.32

     hartree stress (kbar)  15494.67   2325.54  -1752.67
                             2325.54  14748.32    923.31
                            -1752.67    923.31  13598.05

     exc-cor stress (kbar)   9638.92     -0.10     -0.31
                               -0.10   9639.33     -0.10
                               -0.31     -0.10   9639.05

     corecor stress (kbar) -14684.74     -0.72      0.48
                               -0.72 -14685.57      0.32
                                0.48      0.32 -14684.67

     ewald   stress (kbar) -13178.01   2509.80  -2106.37
                             2509.80 -13768.12    863.90
                            -2106.37    863.90 -15026.89

     hubbard stress (kbar)      0.00      0.00      0.00
                                0.00      0.00      0.00
                                0.00      0.00      0.00

     london  stress (kbar)      0.00      0.00      0.00
                                0.00      0.00      0.00
                                0.00      0.00      0.00

     XDM     stress (kbar)      0.00      0.00      0.00
                                0.00      0.00      0.00
                                0.00      0.00      0.00

     dft-nl  stress (kbar)      0.00      0.00      0.00
                                0.00      0.00      0.00
                                0.00      0.00      0.00



     Writing output data file Si_diamond.scf.in.super.222.replace746.save

     init_run     :     13.46s CPU     12.40s WALL (       1 calls)
     electrons    :    572.37s CPU    518.79s WALL (       1 calls)
     forces       :      6.53s CPU      5.47s WALL (       1 calls)
     stress       :     11.26s CPU     11.14s WALL (       1 calls)

     Called by init_run:
     wfcinit      :     11.83s CPU     10.76s WALL (       1 calls)
     potinit      :      0.44s CPU      0.45s WALL (       1 calls)

     Called by electrons:
     c_bands      :    508.09s CPU    456.30s WALL (      14 calls)
     sum_band     :     59.10s CPU     57.13s WALL (      14 calls)
     v_of_rho     :      0.60s CPU      0.64s WALL (      14 calls)
     v_h          :      0.04s CPU      0.03s WALL (      14 calls)
     v_xc         :      0.64s CPU      0.70s WALL (      16 calls)
     newd         :      4.09s CPU      4.11s WALL (      14 calls)
     mix_rho      :      0.70s CPU      0.77s WALL (      14 calls)

     Called by c_bands:
     init_us_2    :      2.69s CPU      2.84s WALL (    1116 calls)
     cegterg      :    496.82s CPU    444.36s WALL (     504 calls)

     Called by sum_band:
     sum_band:bec :      1.00s CPU      0.89s WALL (     504 calls)
     addusdens    :      4.46s CPU      4.49s WALL (      14 calls)

     Called by *egterg:
     h_psi        :    230.91s CPU    216.63s WALL (    1950 calls)
     s_psi        :     33.45s CPU     22.80s WALL (    1950 calls)
     g_psi        :      0.46s CPU      0.43s WALL (    1410 calls)
     cdiaghg      :    137.38s CPU    123.45s WALL (    1878 calls)
     cegterg:over :     45.57s CPU     39.35s WALL (    1410 calls)
     cegterg:upda :     19.27s CPU     13.02s WALL (    1410 calls)
     cegterg:last :     11.81s CPU      7.69s WALL (     504 calls)

     Called by h_psi:
     h_psi:vloc   :    148.38s CPU    153.61s WALL (    1950 calls)
     h_psi:vnl    :     82.20s CPU     62.68s WALL (    1950 calls)
     add_vuspsi   :     35.97s CPU     24.94s WALL (    1950 calls)

     General routines
     calbec       :     66.86s CPU     54.96s WALL (    2526 calls)
     fft          :      1.11s CPU      1.14s WALL (     249 calls)
     ffts         :      0.54s CPU      0.55s WALL (     396 calls)
     fftw         :    171.18s CPU    177.10s WALL (  237034 calls)
     interpolate  :      0.13s CPU      0.14s WALL (      28 calls)

     Parallel routines
     fft_scatter  :     79.62s CPU     82.62s WALL (  237679 calls)

     PWSCF        : 10m 5.94s CPU     9m10.63s WALL


   This run was terminated on:  20:49:58   4Apr2018            

=------------------------------------------------------------------------------=
   JOB DONE.
=------------------------------------------------------------------------------=
