
     Program PWSCF v.5.1 starts on 27Sep2017 at 16:55:22 

     This program is part of the open-source Quantum ESPRESSO suite
     for quantum simulation of materials; please cite
         "P. Giannozzi et al., J. Phys.:Condens. Matter 21 395502 (2009);
          URL http://www.quantum-espresso.org", 
     in publications or presentations arising from this work. More details at
     http://www.quantum-espresso.org/quote

     Parallel version (MPI), running on     8 processors
     R & G space division:  proc/nbgrp/npool/nimage =       8
     Reading input from /tmp/Si_diamond.scf.in.super.222.largdist.a.02.11914/Si_diamond.scf.in.super.222.largdist.a.02.t
Warning: card &IONS ignored
Warning: card   ION_DYNAMICS='BFGS', ignored
Warning: card / ignored
Warning: card &CELL ignored
Warning: card  CELL_DYNAMICS = 'BFGS' ignored
Warning: card / ignored
     Message from routine read_cards :
     DEPRECATED: no units specified in CELL_PARAMETERS card

     Current dimensions of program PWSCF are:
     Max number of different atomic species (ntypx) = 10
     Max number of k-points (npk) =  40000
     Max angular momentum in pseudopotentials (lmaxx) =  3
 kfg - two_fermi_energies  F

     Subspace diagonalization in iterative solution of the eigenvalue problem:
     a serial algorithm will be used


     Parallelization info
     --------------------
     sticks:   dense  smooth     PW     G-vecs:    dense   smooth      PW
     Min         363     256     71                12921     7555    1109
     Max         364     257     73                12925     7568    1110
     Sum        2905    2053    571               103379    60495    8873



     bravais-lattice index     =            0
     lattice parameter (alat)  =    14.515605984  a.u.
     unit-cell volume          =    2162.6713 (a.u.)^3
     number of atoms/cell      =           16
     number of atomic types    =            1
     number of electrons       =        64.00
     number of Kohn-Sham states=           38
     kinetic-energy cutoff     =      35.0000  Ry
     charge density cutoff     =     200.0000  Ry
     convergence threshold     =      1.0E-09
     mixing beta               =       0.3000
     number of iterations used =            8  local-TF  mixing
     Exchange-correlation      = SLA  PW   PSX  PSC ( 1  4 10  8 0)
     A smooth kinetic-energy cutoff is imposed at      34.5000 Ry
     height of the smooth step-function =             800.0000 Ry
     width of the smooth step-function  =               1.0000 Ry


     celldm(1)=  14.515606  celldm(2)=   0.000000  celldm(3)=   0.000000
     celldm(4)=   0.000000  celldm(5)=   0.000000  celldm(6)=   0.000000

     crystal axes: (cart. coord. in units of alat)
               a(1) = (  -0.000000000000   0.707106781187   0.707106781187 )  
               a(2) = (   0.707106781187  -0.000000000000   0.707106781187 )  
               a(3) = (   0.707106781187   0.707106781187   0.000000000000 )  

     reciprocal axes: (cart. coord. in units 2 pi/alat)
               b(1) = ( -0.707107  0.707107  0.707107 )  
               b(2) = (  0.707107 -0.707107  0.707107 )  
               b(3) = (  0.707107  0.707107 -0.707107 )  


     PseudoPot. # 1 for Si read from file:
     /users/kfg/psuedo/gbrv_1.5/si.pbesol.UPF
     MD5 check sum: ef58ba74faed4df802eb8a9742fc00a8
     Pseudo is Ultrasoft + core correction, Zval =  4.0
     Generated by new atomic code, or converted to UPF format
     Using radial grid of  899 points,  6 beta functions with: 
                l(1) =   0
                l(2) =   0
                l(3) =   1
                l(4) =   1
                l(5) =   2
                l(6) =   2
     Q(r) pseudized with  8 coefficients,  rinner =    0.900   0.900   0.900
                                                       0.900   0.900

     atomic species   valence    mass     pseudopotential
        Si             4.00    28.08550     Si( 1.00)

     No symmetry found


                                    s                        frac. trans.

      isym =  1     identity                                     

 cryst.   s( 1) = (     1          0          0      )
                  (     0          1          0      )
                  (     0          0          1      )

 cart.    s( 1) = (  1.0000000  0.0000000  0.0000000 )
                  (  0.0000000  1.0000000  0.0000000 )
                  (  0.0000000  0.0000000  1.0000000 )


     point group C_1 (1)    
     there are  1 classes
     the character table:

       E    
A      1.00

     the symmetry operations in each class:
     E        1

   Cartesian axes

     site n.     atom                  positions (alat units)
         1           Si  tau(   1) = (   -0.03116919367   -0.00333008997    0.00899753266  )
         2           Si  tau(   2) = (    0.15519486822    0.17900678431    0.14973541528  )
         3           Si  tau(   3) = (    0.35582525808    0.36557557586   -0.00380306024  )
         4           Si  tau(   4) = (    0.50820745370    0.52738128334    0.18400875937  )
         5           Si  tau(   5) = (    0.37694654510    0.03427780049    0.35973207496  )
         6           Si  tau(   6) = (    0.50106343225    0.16488299594    0.51307369067  )
         7           Si  tau(   7) = (    0.73978101730    0.37937745107    0.35828692179  )
         8           Si  tau(   8) = (    0.84963725042    0.53174341675    0.55693723680  )
         9           Si  tau(   9) = (   -0.01982841115    0.32968579249    0.32411982163  )
        10           Si  tau(  10) = (    0.17584470920    0.54411328098    0.54969429698  )
        11           Si  tau(  11) = (    0.36507819858    0.69246713164    0.36568047587  )
        12           Si  tau(  12) = (    0.50537438151    0.85057242577    0.53724563366  )
        13           Si  tau(  13) = (    0.34644380344    0.32378537462    0.73174974030  )
        14           Si  tau(  14) = (    0.50684122720    0.56053642481    0.86035125230  )
        15           Si  tau(  15) = (    0.69218616710    0.69948734387    0.71600222455  )
        16           Si  tau(  16) = (    0.86180552225    0.86777701851    0.84997722783  )

   Crystallographic axes

     site n.     atom                  positions (cryst. coord.)
         1           Si  tau(   1) = (    0.02604743537   -0.01332300266   -0.03075689376  )
         2           Si  tau(   2) = (    0.12271649488    0.08904136018    0.13043732726  )
         3           Si  tau(   3) = (    0.00420534614   -0.00958368551    0.51279659132  )
         4           Si  tau(   4) = (    0.14367178651    0.11655589660    0.60215797693  )
         5           Si  tau(   5) = (    0.01206559660    0.49667238264    0.03641053374  )
         6           Si  tau(   6) = (    0.12508241970    0.60051335214    0.10809734936  )
         7           Si  tau(   7) = (   -0.00149669363    0.50819091766    0.53801743019  )
         8           Si  tau(   8) = (    0.16902921135    0.61859898232    0.58296954033  )
         9           Si  tau(   9) = (    0.47633118730   -0.01795653972   -0.01008506824  )
        10           Si  tau(  10) = (    0.64909776938    0.12828736057    0.12039461205  )
        11           Si  tau(  11) = (    0.49007407889    0.02707620958    0.48922233018  )
        12           Si  tau(  12) = (    0.62398190867    0.13579815278    0.57890915163  )
        13           Si  tau(  13) = (    0.50140327482    0.53344713217   -0.04350160674  )
        14           Si  tau(  14) = (    0.64632844306    0.57039196635    0.14638977112  )
        15           Si  tau(  15) = (    0.51145273992    0.50112731672    0.47777174848  )
        16           Si  tau(  16) = (    0.60524714716    0.59680217615    0.62197488154  )

     number of k points=    36  gaussian smearing, width (Ry)=  0.0150
                       cart. coord. in units 2pi/alat
        k(    1) = (   0.0000000   0.0000000   0.0000000), wk =   0.0312500
        k(    2) = (   0.1767767   0.1767767  -0.1767767), wk =   0.0625000
        k(    3) = (  -0.3535534  -0.3535534   0.3535534), wk =   0.0312500
        k(    4) = (   0.3535534   0.0000000   0.0000000), wk =   0.0625000
        k(    5) = (  -0.1767767  -0.5303301   0.5303301), wk =   0.0625000
        k(    6) = (   0.0000000  -0.3535534   0.3535534), wk =   0.0625000
        k(    7) = (  -0.7071068   0.0000000   0.0000000), wk =   0.0312500
        k(    8) = (  -0.7071068   0.3535534   0.0000000), wk =   0.0625000
        k(    9) = (  -0.1767767  -0.1767767  -0.1767767), wk =   0.0625000
        k(   10) = (  -0.1767767   0.1767767   0.1767767), wk =   0.0625000
        k(   11) = (   0.1767767  -0.1767767   0.1767767), wk =   0.0625000
        k(   12) = (   0.3535534   0.3535534   0.3535534), wk =   0.0312500
        k(   13) = (   0.3535534  -0.3535534  -0.3535534), wk =   0.0312500
        k(   14) = (  -0.3535534   0.3535534  -0.3535534), wk =   0.0312500
        k(   15) = (   0.0000000   0.3535534   0.0000000), wk =   0.0625000
        k(   16) = (   0.0000000   0.0000000   0.3535534), wk =   0.0625000
        k(   17) = (   0.1767767   0.5303301   0.5303301), wk =   0.0625000
        k(   18) = (   0.1767767  -0.5303301  -0.5303301), wk =   0.0625000
        k(   19) = (  -0.1767767   0.5303301  -0.5303301), wk =   0.0625000
        k(   20) = (  -0.5303301  -0.1767767  -0.5303301), wk =   0.0625000
        k(   21) = (   0.5303301   0.1767767  -0.5303301), wk =   0.0625000
        k(   22) = (  -0.5303301   0.1767767   0.5303301), wk =   0.0625000
        k(   23) = (   0.5303301  -0.1767767   0.5303301), wk =   0.0625000
        k(   24) = (   0.5303301   0.5303301  -0.1767767), wk =   0.0625000
        k(   25) = (  -0.5303301   0.5303301   0.1767767), wk =   0.0625000
        k(   26) = (   0.5303301  -0.5303301   0.1767767), wk =   0.0625000
        k(   27) = (  -0.5303301  -0.5303301  -0.1767767), wk =   0.0625000
        k(   28) = (   0.0000000   0.3535534   0.3535534), wk =   0.0625000
        k(   29) = (  -0.3535534   0.0000000  -0.3535534), wk =   0.0625000
        k(   30) = (   0.3535534   0.0000000  -0.3535534), wk =   0.0625000
        k(   31) = (   0.3535534   0.3535534   0.0000000), wk =   0.0625000
        k(   32) = (  -0.3535534   0.3535534   0.0000000), wk =   0.0625000
        k(   33) = (   0.0000000  -0.7071068   0.0000000), wk =   0.0312500
        k(   34) = (   0.0000000   0.0000000  -0.7071068), wk =   0.0312500
        k(   35) = (   0.3535534  -0.7071068   0.0000000), wk =   0.0625000
        k(   36) = (   0.7071068   0.0000000   0.3535534), wk =   0.0625000

                       cryst. coord.
        k(    1) = (   0.0000000   0.0000000   0.0000000), wk =   0.0312500
        k(    2) = (   0.0000000   0.0000000   0.2500000), wk =   0.0625000
        k(    3) = (   0.0000000   0.0000000  -0.5000000), wk =   0.0312500
        k(    4) = (   0.0000000   0.2500000   0.2500000), wk =   0.0625000
        k(    5) = (   0.0000000   0.2500000  -0.5000000), wk =   0.0625000
        k(    6) = (   0.0000000   0.2500000  -0.2500000), wk =   0.0625000
        k(    7) = (   0.0000000  -0.5000000  -0.5000000), wk =   0.0312500
        k(    8) = (   0.2500000  -0.5000000  -0.2500000), wk =   0.0625000
        k(    9) = (  -0.2500000  -0.2500000  -0.2500000), wk =   0.0625000
        k(   10) = (   0.2500000   0.0000000   0.0000000), wk =   0.0625000
        k(   11) = (   0.0000000   0.2500000   0.0000000), wk =   0.0625000
        k(   12) = (   0.5000000   0.5000000   0.5000000), wk =   0.0312500
        k(   13) = (  -0.5000000   0.0000000   0.0000000), wk =   0.0312500
        k(   14) = (   0.0000000  -0.5000000   0.0000000), wk =   0.0312500
        k(   15) = (   0.2500000   0.0000000   0.2500000), wk =   0.0625000
        k(   16) = (   0.2500000   0.2500000   0.0000000), wk =   0.0625000
        k(   17) = (   0.7500000   0.5000000   0.5000000), wk =   0.0625000
        k(   18) = (  -0.7500000  -0.2500000  -0.2500000), wk =   0.0625000
        k(   19) = (   0.0000000  -0.5000000   0.2500000), wk =   0.0625000
        k(   20) = (  -0.5000000  -0.7500000  -0.5000000), wk =   0.0625000
        k(   21) = (  -0.2500000   0.0000000   0.5000000), wk =   0.0625000
        k(   22) = (   0.5000000   0.0000000  -0.2500000), wk =   0.0625000
        k(   23) = (   0.2500000   0.7500000   0.2500000), wk =   0.0625000
        k(   24) = (   0.2500000   0.2500000   0.7500000), wk =   0.0625000
        k(   25) = (   0.5000000  -0.2500000   0.0000000), wk =   0.0625000
        k(   26) = (  -0.2500000   0.5000000   0.0000000), wk =   0.0625000
        k(   27) = (  -0.5000000  -0.5000000  -0.7500000), wk =   0.0625000
        k(   28) = (   0.5000000   0.2500000   0.2500000), wk =   0.0625000
        k(   29) = (  -0.2500000  -0.5000000  -0.2500000), wk =   0.0625000
        k(   30) = (  -0.2500000   0.0000000   0.2500000), wk =   0.0625000
        k(   31) = (   0.2500000   0.2500000   0.5000000), wk =   0.0625000
        k(   32) = (   0.2500000  -0.2500000   0.0000000), wk =   0.0625000
        k(   33) = (  -0.5000000   0.0000000  -0.5000000), wk =   0.0312500
        k(   34) = (  -0.5000000  -0.5000000   0.0000000), wk =   0.0312500
        k(   35) = (  -0.5000000   0.2500000  -0.2500000), wk =   0.0625000
        k(   36) = (   0.2500000   0.7500000   0.5000000), wk =   0.0625000

     Dense  grid:   103379 G-vectors     FFT dimensions: (  72,  72,  72)

     Smooth grid:    60495 G-vectors     FFT dimensions: (  60,  60,  60)

     Largest allocated arrays     est. size (Mb)     dimensions
        Kohn-Sham Wavefunctions         0.56 Mb     (     974,   38)
        NL pseudopotentials             4.28 Mb     (     974,  288)
        Each V/rho on FFT grid          0.71 Mb     (   46656)
        Each G-vector array             0.10 Mb     (   12923)
        G-vector shells                 0.01 Mb     (     706)
     Largest temporary arrays     est. size (Mb)     dimensions
        Auxiliary wavefunctions         2.26 Mb     (     974,  152)
        Each subspace H/S matrix        0.35 Mb     (     152,  152)
        Each <psi_i|beta_j> matrix      0.17 Mb     (     288,   38)
        Arrays for rho mixing           5.70 Mb     (   46656,    8)

     Initial potential from superposition of free atoms

     starting charge   63.98963, renormalised to   64.00000
     Starting wfc are   64 randomized atomic wfcs

     total cpu time spent up to now is       19.1 secs

     per-process dynamical memory:    37.0 Mb

     Self-consistent Calculation

     iteration #  1     ecut=    35.00 Ry     beta=0.30
     Davidson diagonalization with overlap
     ethr =  1.00E-02,  avg # of iterations =  3.0

     Threshold (ethr) on eigenvalues was too large:
     Diagonalizing with lowered threshold

     Davidson diagonalization with overlap
     ethr =  8.33E-04,  avg # of iterations =  1.6

     total cpu time spent up to now is       93.4 secs

     total energy              =    -152.39378629 Ry
     Harris-Foulkes estimate   =    -152.45970904 Ry
     estimated scf accuracy    <       0.53085024 Ry

     iteration #  2     ecut=    35.00 Ry     beta=0.30
     Davidson diagonalization with overlap
     ethr =  8.29E-04,  avg # of iterations =  1.0

     total cpu time spent up to now is      122.1 secs

     total energy              =    -152.26279677 Ry
     Harris-Foulkes estimate   =    -152.39773257 Ry
     estimated scf accuracy    <       0.32549903 Ry

     iteration #  3     ecut=    35.00 Ry     beta=0.30
     Davidson diagonalization with overlap
     ethr =  5.09E-04,  avg # of iterations =  2.2

     total cpu time spent up to now is      157.6 secs

     total energy              =    -152.30378794 Ry
     Harris-Foulkes estimate   =    -152.30532887 Ry
     estimated scf accuracy    <       0.01017505 Ry

     iteration #  4     ecut=    35.00 Ry     beta=0.30
     Davidson diagonalization with overlap
     ethr =  1.59E-05,  avg # of iterations =  8.8

     total cpu time spent up to now is      223.5 secs

     total energy              =    -152.30482793 Ry
     Harris-Foulkes estimate   =    -152.30553402 Ry
     estimated scf accuracy    <       0.00553895 Ry

     iteration #  5     ecut=    35.00 Ry     beta=0.30
     Davidson diagonalization with overlap
     ethr =  8.65E-06,  avg # of iterations =  1.1

     total cpu time spent up to now is      250.7 secs

     total energy              =    -152.30471562 Ry
     Harris-Foulkes estimate   =    -152.30511429 Ry
     estimated scf accuracy    <       0.00153045 Ry

     iteration #  6     ecut=    35.00 Ry     beta=0.30
     Davidson diagonalization with overlap
     ethr =  2.39E-06,  avg # of iterations =  3.5

     total cpu time spent up to now is      290.2 secs

     total energy              =    -152.30511310 Ry
     Harris-Foulkes estimate   =    -152.30513473 Ry
     estimated scf accuracy    <       0.00032656 Ry

     iteration #  7     ecut=    35.00 Ry     beta=0.30
     Davidson diagonalization with overlap
     ethr =  5.10E-07,  avg # of iterations =  1.4

     total cpu time spent up to now is      317.5 secs

     total energy              =    -152.30504081 Ry
     Harris-Foulkes estimate   =    -152.30512029 Ry
     estimated scf accuracy    <       0.00024334 Ry

     iteration #  8     ecut=    35.00 Ry     beta=0.30
     Davidson diagonalization with overlap
     ethr =  3.80E-07,  avg # of iterations =  2.0

     total cpu time spent up to now is      354.1 secs

     total energy              =    -152.30508175 Ry
     Harris-Foulkes estimate   =    -152.30508130 Ry
     estimated scf accuracy    <       0.00000445 Ry

     iteration #  9     ecut=    35.00 Ry     beta=0.30
     Davidson diagonalization with overlap
     ethr =  6.95E-09,  avg # of iterations =  3.3

     total cpu time spent up to now is      409.5 secs

     total energy              =    -152.30508145 Ry
     Harris-Foulkes estimate   =    -152.30508468 Ry
     estimated scf accuracy    <       0.00001135 Ry

     iteration # 10     ecut=    35.00 Ry     beta=0.30
     Davidson diagonalization with overlap
     ethr =  6.95E-09,  avg # of iterations =  2.0

     total cpu time spent up to now is      450.0 secs

     total energy              =    -152.30508209 Ry
     Harris-Foulkes estimate   =    -152.30508245 Ry
     estimated scf accuracy    <       0.00000084 Ry

     iteration # 11     ecut=    35.00 Ry     beta=0.30
     Davidson diagonalization with overlap
     ethr =  1.31E-09,  avg # of iterations =  2.6

     total cpu time spent up to now is      490.6 secs

     total energy              =    -152.30508228 Ry
     Harris-Foulkes estimate   =    -152.30508230 Ry
     estimated scf accuracy    <       0.00000009 Ry

     iteration # 12     ecut=    35.00 Ry     beta=0.30
     Davidson diagonalization with overlap
     ethr =  1.36E-10,  avg # of iterations =  2.0

     total cpu time spent up to now is      527.7 secs

     total energy              =    -152.30508229 Ry
     Harris-Foulkes estimate   =    -152.30508229 Ry
     estimated scf accuracy    <          4.2E-09 Ry

     iteration # 13     ecut=    35.00 Ry     beta=0.30
     Davidson diagonalization with overlap
     ethr =  6.59E-12,  avg # of iterations =  3.2

     total cpu time spent up to now is      573.9 secs

     total energy              =    -152.30508230 Ry
     Harris-Foulkes estimate   =    -152.30508229 Ry
     estimated scf accuracy    <          1.3E-09 Ry

     iteration # 14     ecut=    35.00 Ry     beta=0.30
     Davidson diagonalization with overlap
     ethr =  2.11E-12,  avg # of iterations =  2.0

     total cpu time spent up to now is      609.3 secs

     End of self-consistent calculation

          k = 0.0000 0.0000 0.0000 (  7631 PWs)   bands (ev):

    -6.2101  -4.3508  -4.1793  -3.5985  -3.3846  -2.7812  -2.2729  -2.1714
    -1.9515  -1.5146  -1.2613  -1.1529  -0.4380  -0.3532  -0.2412   2.6309
     2.8514   3.0206   3.1901   3.2243   3.5888   3.9164   4.2057   4.4525
     4.5274   4.9079   5.2356   5.4412   5.6679   5.7886   6.0499   6.2392
     6.3741   6.5152   6.6728   6.8447   7.1429   7.1736

     occupation numbers 
     1.0000   1.0000   1.0000   1.0000   1.0000   1.0000   1.0000   1.0000
     1.0000   1.0000   1.0000   1.0000   1.0000   1.0000   1.0000   1.0000
     1.0000   1.0000   1.0000   1.0000   1.0000   1.0000   1.0000   1.0000
     1.0000   1.0000   1.0000   1.0000   1.0000   1.0000   0.9817   0.7816
     0.4375   0.1282   0.0130   0.0003   0.0000   0.0000

          k = 0.1768 0.1768-0.1768 (  7564 PWs)   bands (ev):

    -6.0421  -4.6632  -4.1802  -3.6739  -3.3251  -3.1270  -2.7994  -2.4062
    -1.4089  -1.1142  -1.0332  -0.7577  -0.1012   0.0672   0.4395   2.2655
     2.4152   2.6438   2.9671   3.2577   3.3820   3.5642   3.6365   4.0086
     4.3063   4.4706   4.5475   4.8667   5.0448   5.4407   5.9397   6.1256
     6.4603   6.6296   6.8861   7.2331   7.3498   7.5457

     occupation numbers 
     1.0000   1.0000   1.0000   1.0000   1.0000   1.0000   1.0000   1.0000
     1.0000   1.0000   1.0000   1.0000   1.0000   1.0000   1.0000   1.0000
     1.0000   1.0000   1.0000   1.0000   1.0000   1.0000   1.0000   1.0000
     1.0000   1.0000   1.0000   1.0000   1.0000   1.0000   0.9978   0.9412
     0.2253   0.0269   0.0001   0.0000   0.0000   0.0000

          k =-0.3536-0.3536 0.3536 (  7570 PWs)   bands (ev):

    -5.7365  -5.1588  -4.0785  -3.5977  -3.5062  -3.3343  -3.0179  -2.5896
    -1.1574  -0.8284  -0.6918  -0.1959   0.1648   0.4428   1.5822   1.7442
     2.1787   2.4863   2.5427   2.8738   2.9922   3.2015   3.4035   3.6731
     3.7239   3.8413   4.1694   4.3724   4.4703   5.5574   5.7364   6.3365
     6.4980   6.8509   6.9183   7.1739   7.4196   7.6309

     occupation numbers 
     1.0000   1.0000   1.0000   1.0000   1.0000   1.0000   1.0000   1.0000
     1.0000   1.0000   1.0000   1.0000   1.0000   1.0000   1.0000   1.0000
     1.0000   1.0000   1.0000   1.0000   1.0000   1.0000   1.0000   1.0000
     1.0000   1.0000   1.0000   1.0000   1.0000   1.0000   1.0000   0.5412
     0.1549   0.0003   0.0000   0.0000   0.0000   0.0000

          k = 0.3536 0.0000 0.0000 (  7563 PWs)   bands (ev):

    -5.9683  -4.6092  -4.2615  -3.8602  -3.6804  -3.2977  -2.3609  -1.8571
    -1.7072  -1.3813  -0.8398  -0.5194   0.0517   0.3028   0.5919   2.1922
     2.3397   2.4966   2.6311   2.9993   3.2272   3.3868   3.6452   3.8152
     3.9625   4.1956   4.4752   4.9585   5.2607   5.6247   5.7874   5.9255
     6.2000   7.0464   7.1539   7.3477   7.6388   7.9178

     occupation numbers 
     1.0000   1.0000   1.0000   1.0000   1.0000   1.0000   1.0000   1.0000
     1.0000   1.0000   1.0000   1.0000   1.0000   1.0000   1.0000   1.0000
     1.0000   1.0000   1.0000   1.0000   1.0000   1.0000   1.0000   1.0000
     1.0000   1.0000   1.0000   1.0000   1.0000   1.0000   1.0000   0.9984
     0.8529   0.0000   0.0000   0.0000   0.0000   0.0000

          k =-0.1768-0.5303 0.5303 (  7554 PWs)   bands (ev):

    -5.6432  -5.0172  -4.4128  -3.9253  -3.8277  -3.1604  -2.6853  -2.2074
    -1.2697  -0.9354  -0.4478  -0.0867   0.1446   1.1190   1.5191   1.7194
     2.0094   2.2554   2.4499   2.6029   2.9219   3.0313   3.2164   3.4713
     3.6229   3.8858   3.9913   4.2738   4.6881   4.9414   5.3961   5.7589
     6.6119   7.1793   7.5490   7.8522   8.1526   8.2940

     occupation numbers 
     1.0000   1.0000   1.0000   1.0000   1.0000   1.0000   1.0000   1.0000
     1.0000   1.0000   1.0000   1.0000   1.0000   1.0000   1.0000   1.0000
     1.0000   1.0000   1.0000   1.0000   1.0000   1.0000   1.0000   1.0000
     1.0000   1.0000   1.0000   1.0000   1.0000   1.0000   1.0000   1.0000
     0.0355   0.0000   0.0000   0.0000   0.0000   0.0000

          k = 0.0000-0.3536 0.3536 (  7592 PWs)   bands (ev):

    -5.7967  -4.8373  -4.5502  -3.6665  -3.5677  -3.0614  -2.8008  -2.4826
    -1.3465  -0.9421  -0.8016  -0.3873   0.2469   0.8537   1.0453   1.9143
     2.2901   2.5722   2.7576   2.8677   3.1111   3.2617   3.3543   3.6363
     3.8182   3.8966   4.2399   4.4276   4.6804   4.7501   5.0948   5.9495
     6.4355   7.1126   7.5197   7.6133   7.8637   8.2695

     occupation numbers 
     1.0000   1.0000   1.0000   1.0000   1.0000   1.0000   1.0000   1.0000
     1.0000   1.0000   1.0000   1.0000   1.0000   1.0000   1.0000   1.0000
     1.0000   1.0000   1.0000   1.0000   1.0000   1.0000   1.0000   1.0000
     1.0000   1.0000   1.0000   1.0000   1.0000   1.0000   1.0000   0.9973
     0.2802   0.0000   0.0000   0.0000   0.0000   0.0000

          k =-0.7071 0.0000 0.0000 (  7528 PWs)   bands (ev):

    -5.4410  -5.1132  -4.3560  -4.2586  -3.9647  -3.4209  -2.2919  -1.6835
    -1.4635  -1.2269  -0.1902   0.2520   0.6193   1.0469   1.6812   1.8384
     1.9411   2.0387   2.0859   2.3943   2.4937   2.6997   2.8412   3.1253
     3.6771   3.8287   4.1940   4.3439   4.9141   5.1135   5.4120   5.6202
     6.6241   6.8386   7.6536   7.8199   8.4214   8.6078

     occupation numbers 
     1.0000   1.0000   1.0000   1.0000   1.0000   1.0000   1.0000   1.0000
     1.0000   1.0000   1.0000   1.0000   1.0000   1.0000   1.0000   1.0000
     1.0000   1.0000   1.0000   1.0000   1.0000   1.0000   1.0000   1.0000
     1.0000   1.0000   1.0000   1.0000   1.0000   1.0000   1.0000   1.0000
     0.0294   0.0004   0.0000   0.0000   0.0000   0.0000

          k =-0.7071 0.3536 0.0000 (  7564 PWs)   bands (ev):

    -5.4499  -4.9835  -4.6330  -4.4812  -3.2888  -3.0945  -2.8851  -2.2836
    -1.2380  -0.7092  -0.3191  -0.0594   0.8247   1.3421   1.4983   1.6995
     1.9492   2.0365   2.1423   2.4664   2.7194   2.9465   3.1343   3.2491
     3.4310   3.6017   3.7818   4.1257   4.5376   5.1109   5.2078   5.4661
     7.4404   7.6918   7.8770   7.9942   8.4509   8.6355

     occupation numbers 
     1.0000   1.0000   1.0000   1.0000   1.0000   1.0000   1.0000   1.0000
     1.0000   1.0000   1.0000   1.0000   1.0000   1.0000   1.0000   1.0000
     1.0000   1.0000   1.0000   1.0000   1.0000   1.0000   1.0000   1.0000
     1.0000   1.0000   1.0000   1.0000   1.0000   1.0000   1.0000   1.0000
     0.0000   0.0000   0.0000   0.0000   0.0000   0.0000

          k =-0.1768-0.1768-0.1768 (  7564 PWs)   bands (ev):

    -6.0217  -4.6452  -4.0760  -3.9021  -3.4831  -3.1281  -2.8694  -2.1523
    -1.2956  -1.0217  -0.8449  -0.6316  -0.0885   0.0571   0.2552   2.0093
     2.1560   2.4390   2.9551   3.1251   3.2538   3.4035   3.5364   3.8123
     4.4257   4.6465   4.7625   5.1429   5.2664   5.5598   5.9180   6.3893
     6.4678   6.8900   7.1205   7.2562   7.4065   7.7277

     occupation numbers 
     1.0000   1.0000   1.0000   1.0000   1.0000   1.0000   1.0000   1.0000
     1.0000   1.0000   1.0000   1.0000   1.0000   1.0000   1.0000   1.0000
     1.0000   1.0000   1.0000   1.0000   1.0000   1.0000   1.0000   1.0000
     1.0000   1.0000   1.0000   1.0000   1.0000   1.0000   0.9987   0.3966
     0.2099   0.0001   0.0000   0.0000   0.0000   0.0000

          k =-0.1768 0.1768 0.1768 (  7564 PWs)   bands (ev):

    -6.0279  -4.6842  -4.1177  -3.8564  -3.3224  -3.1326  -2.5706  -2.3693
    -1.8651  -1.0635  -0.6857  -0.5339  -0.1464   0.0757   0.3215   2.0614
     2.3581   2.6234   3.0046   3.1355   3.3075   3.5300   3.6873   3.9321
     4.1877   4.3678   4.4945   5.0282   5.1010   5.7270   6.1100   6.3891
     6.4775   6.7279   6.9414   7.2251   7.3354   7.5289

     occupation numbers 
     1.0000   1.0000   1.0000   1.0000   1.0000   1.0000   1.0000   1.0000
     1.0000   1.0000   1.0000   1.0000   1.0000   1.0000   1.0000   1.0000
     1.0000   1.0000   1.0000   1.0000   1.0000   1.0000   1.0000   1.0000
     1.0000   1.0000   1.0000   1.0000   1.0000   1.0000   0.9528   0.3970
     0.1912   0.0045   0.0000   0.0000   0.0000   0.0000

          k = 0.1768-0.1768 0.1768 (  7564 PWs)   bands (ev):

    -6.0395  -4.7021  -4.1884  -3.6015  -3.3914  -3.0708  -2.6486  -2.4359
    -1.6436  -1.0899  -1.0252  -0.6338  -0.3756   0.0566   0.5427   2.3729
     2.5591   2.7773   3.0253   3.1658   3.3338   3.5509   3.8595   3.9787
     4.0607   4.2317   4.6138   4.8686   5.2658   5.5208   5.9076   6.1246
     6.3589   6.4272   6.9452   7.1747   7.3970   7.5614

     occupation numbers 
     1.0000   1.0000   1.0000   1.0000   1.0000   1.0000   1.0000   1.0000
     1.0000   1.0000   1.0000   1.0000   1.0000   1.0000   1.0000   1.0000
     1.0000   1.0000   1.0000   1.0000   1.0000   1.0000   1.0000   1.0000
     1.0000   1.0000   1.0000   1.0000   1.0000   1.0000   0.9989   0.9420
     0.4793   0.2997   0.0000   0.0000   0.0000   0.0000

          k = 0.3536 0.3536 0.3536 (  7570 PWs)   bands (ev):

    -5.6142  -5.2553  -4.0041  -3.8706  -3.4404  -3.4088  -3.3228  -2.3061
    -0.6345  -0.5893  -0.3616  -0.0287   0.3240   0.3478   1.2191   1.6783
     1.7139   1.9354   1.9634   2.1360   2.3071   3.4871   3.6822   3.7561
     3.9395   4.2404   4.2583   4.5291   5.2642   5.3545   5.8881   6.0877
     6.7899   7.2126   7.3832   7.6531   7.7256   7.9434

     occupation numbers 
     1.0000   1.0000   1.0000   1.0000   1.0000   1.0000   1.0000   1.0000
     1.0000   1.0000   1.0000   1.0000   1.0000   1.0000   1.0000   1.0000
     1.0000   1.0000   1.0000   1.0000   1.0000   1.0000   1.0000   1.0000
     1.0000   1.0000   1.0000   1.0000   1.0000   1.0000   0.9993   0.9662
     0.0012   0.0000   0.0000   0.0000   0.0000   0.0000

          k = 0.3536-0.3536-0.3536 (  7570 PWs)   bands (ev):

    -5.6537  -5.2444  -4.0679  -3.9050  -3.4897  -3.1242  -2.8167  -2.6516
    -1.6398  -0.6194  -0.2422   0.0782   0.2509   0.4684   1.2627   1.8813
     2.0727   2.1535   2.3336   2.5546   2.7929   2.8516   3.3088   3.6543
     3.8766   4.0344   4.1895   4.4186   4.8976   5.6059   6.2983   6.3810
     6.6638   6.7560   6.9778   7.2862   7.5346   7.7495

     occupation numbers 
     1.0000   1.0000   1.0000   1.0000   1.0000   1.0000   1.0000   1.0000
     1.0000   1.0000   1.0000   1.0000   1.0000   1.0000   1.0000   1.0000
     1.0000   1.0000   1.0000   1.0000   1.0000   1.0000   1.0000   1.0000
     1.0000   1.0000   1.0000   1.0000   1.0000   1.0000   0.6436   0.4187
     0.0152   0.0025   0.0000   0.0000   0.0000   0.0000

          k =-0.3536 0.3536-0.3536 (  7570 PWs)   bands (ev):

    -5.7147  -5.2164  -4.1363  -3.5853  -3.4982  -3.1047  -2.8294  -2.7985
    -1.3687  -0.7788  -0.6300  -0.2539  -0.1796   0.3321   1.8324   2.0491
     2.3547   2.5868   2.6670   2.9842   3.0468   3.1772   3.3553   3.5499
     3.6672   3.8694   3.9720   4.0672   4.7637   5.5027   5.9730   6.0101
     6.4511   6.7186   7.0260   7.2666   7.3808   7.5185

     occupation numbers 
     1.0000   1.0000   1.0000   1.0000   1.0000   1.0000   1.0000   1.0000
     1.0000   1.0000   1.0000   1.0000   1.0000   1.0000   1.0000   1.0000
     1.0000   1.0000   1.0000   1.0000   1.0000   1.0000   1.0000   1.0000
     1.0000   1.0000   1.0000   1.0000   1.0000   1.0000   0.9956   0.9910
     0.2448   0.0055   0.0000   0.0000   0.0000   0.0000

          k = 0.0000 0.3536 0.0000 (  7563 PWs)   bands (ev):

    -5.9798  -4.4890  -4.2831  -3.9603  -3.7456  -3.1753  -2.5574  -1.8825
    -1.4995  -1.3021  -0.8294  -0.5861  -0.0408   0.3275   0.6358   2.1208
     2.2738   2.4947   2.7222   3.0200   3.1159   3.4885   3.5955   3.7128
     3.9587   4.4355   4.5917   4.9285   5.2664   5.3969   5.5739   6.1134
     6.4488   6.9195   7.2303   7.4015   7.6073   7.7426

     occupation numbers 
     1.0000   1.0000   1.0000   1.0000   1.0000   1.0000   1.0000   1.0000
     1.0000   1.0000   1.0000   1.0000   1.0000   1.0000   1.0000   1.0000
     1.0000   1.0000   1.0000   1.0000   1.0000   1.0000   1.0000   1.0000
     1.0000   1.0000   1.0000   1.0000   1.0000   1.0000   1.0000   0.9504
     0.2498   0.0000   0.0000   0.0000   0.0000   0.0000

          k = 0.0000 0.0000 0.3536 (  7563 PWs)   bands (ev):

    -5.9746  -4.6201  -4.2274  -3.8547  -3.5995  -3.3647  -2.3455  -2.0408
    -1.8878  -1.0272  -0.8726  -0.4076   0.0769   0.2164   0.5559   2.0489
     2.3449   2.5472   2.7644   3.0122   3.2572   3.3673   3.4632   3.7305
     3.9647   4.2496   4.7219   4.8013   5.3926   5.6132   5.7769   6.0232
     6.2067   6.7991   7.2134   7.4143   7.5790   7.7829

     occupation numbers 
     1.0000   1.0000   1.0000   1.0000   1.0000   1.0000   1.0000   1.0000
     1.0000   1.0000   1.0000   1.0000   1.0000   1.0000   1.0000   1.0000
     1.0000   1.0000   1.0000   1.0000   1.0000   1.0000   1.0000   1.0000
     1.0000   1.0000   1.0000   1.0000   1.0000   1.0000   1.0000   0.9885
     0.8420   0.0010   0.0000   0.0000   0.0000   0.0000

          k = 0.1768 0.5303 0.5303 (  7554 PWs)   bands (ev):

    -5.5856  -5.0325  -4.4449  -4.1477  -3.6514  -3.1775  -2.8756  -2.0441
    -1.0529  -0.8705  -0.5334   0.2852   0.4633   0.9116   1.3504   1.5616
     1.6990   2.0124   2.2714   2.4525   2.5842   3.0321   3.1594   3.4244
     3.7383   3.9236   4.2489   4.5839   4.7186   4.9462   5.3918   5.9546
     7.2150   7.5136   7.7981   8.0762   8.2335   8.4485

     occupation numbers 
     1.0000   1.0000   1.0000   1.0000   1.0000   1.0000   1.0000   1.0000
     1.0000   1.0000   1.0000   1.0000   1.0000   1.0000   1.0000   1.0000
     1.0000   1.0000   1.0000   1.0000   1.0000   1.0000   1.0000   1.0000
     1.0000   1.0000   1.0000   1.0000   1.0000   1.0000   1.0000   0.9970
     0.0000   0.0000   0.0000   0.0000   0.0000   0.0000

          k = 0.1768-0.5303-0.5303 (  7554 PWs)   bands (ev):

    -5.6066  -5.0216  -4.4561  -4.1816  -3.5931  -2.9719  -2.7917  -2.2781
    -1.4014  -0.9106  -0.4662   0.2652   0.6463   0.8692   1.1171   1.6830
     1.8484   2.2953   2.4394   2.6926   2.8677   3.0202   3.1809   3.3164
     3.5036   3.7217   3.9694   4.2261   4.6673   5.2298   5.5055   6.1216
     7.0998   7.4532   7.5995   7.7843   8.1564   8.2901

     occupation numbers 
     1.0000   1.0000   1.0000   1.0000   1.0000   1.0000   1.0000   1.0000
     1.0000   1.0000   1.0000   1.0000   1.0000   1.0000   1.0000   1.0000
     1.0000   1.0000   1.0000   1.0000   1.0000   1.0000   1.0000   1.0000
     1.0000   1.0000   1.0000   1.0000   1.0000   1.0000   1.0000   0.9443
     0.0000   0.0000   0.0000   0.0000   0.0000   0.0000

          k =-0.1768 0.5303-0.5303 (  7554 PWs)   bands (ev):

    -5.6305  -5.0568  -4.4266  -3.9431  -3.7520  -3.1566  -2.5722  -2.2479
    -1.3708  -0.9656  -0.4961  -0.2785   0.3435   1.0014   1.5776   1.8622
     2.0401   2.2142   2.5453   2.6478   2.8696   3.0170   3.3694   3.4938
     3.6237   3.8169   3.9546   4.4273   4.6479   4.8933   5.2714   5.6811
     6.6139   7.1598   7.3451   7.9298   8.0800   8.3617

     occupation numbers 
     1.0000   1.0000   1.0000   1.0000   1.0000   1.0000   1.0000   1.0000
     1.0000   1.0000   1.0000   1.0000   1.0000   1.0000   1.0000   1.0000
     1.0000   1.0000   1.0000   1.0000   1.0000   1.0000   1.0000   1.0000
     1.0000   1.0000   1.0000   1.0000   1.0000   1.0000   1.0000   1.0000
     0.0345   0.0000   0.0000   0.0000   0.0000   0.0000

          k =-0.5303-0.1768-0.5303 (  7554 PWs)   bands (ev):

    -5.6170  -4.9793  -4.4128  -4.1264  -3.7205  -3.2234  -2.8866  -2.1077
    -0.9256  -0.7798  -0.2689   0.0030   0.2754   1.0554   1.2371   1.5685
     1.8213   1.8990   2.1360   2.4373   2.6373   2.9761   3.2933   3.5017
     3.8507   3.9733   4.2494   4.4867   4.8176   4.9462   5.4459   5.6648
     7.1523   7.5289   7.7433   8.1451   8.3080   8.3608

     occupation numbers 
     1.0000   1.0000   1.0000   1.0000   1.0000   1.0000   1.0000   1.0000
     1.0000   1.0000   1.0000   1.0000   1.0000   1.0000   1.0000   1.0000
     1.0000   1.0000   1.0000   1.0000   1.0000   1.0000   1.0000   1.0000
     1.0000   1.0000   1.0000   1.0000   1.0000   1.0000   1.0000   1.0000
     0.0000   0.0000   0.0000   0.0000   0.0000   0.0000

          k = 0.5303 0.1768-0.5303 (  7554 PWs)   bands (ev):

    -5.6768  -4.9171  -4.4011  -4.1320  -3.6960  -3.0615  -2.8903  -2.1022
    -1.3375  -0.8239  -0.5922  -0.1014   0.5915   0.9344   1.4187   1.5201
     1.9775   2.2546   2.4223   2.6727   2.9987   3.0537   3.3669   3.4659
     3.6423   3.8727   3.9642   4.1662   4.6928   4.9253   5.1315   6.0733
     6.8757   7.2872   7.5600   7.7643   8.0823   8.1618

     occupation numbers 
     1.0000   1.0000   1.0000   1.0000   1.0000   1.0000   1.0000   1.0000
     1.0000   1.0000   1.0000   1.0000   1.0000   1.0000   1.0000   1.0000
     1.0000   1.0000   1.0000   1.0000   1.0000   1.0000   1.0000   1.0000
     1.0000   1.0000   1.0000   1.0000   1.0000   1.0000   1.0000   0.9730
     0.0001   0.0000   0.0000   0.0000   0.0000   0.0000

          k =-0.5303 0.1768 0.5303 (  7554 PWs)   bands (ev):

    -5.6323  -4.9990  -4.3556  -4.1763  -3.6921  -3.0978  -2.8282  -2.1147
    -1.4187  -0.7906  -0.4580   0.1368   0.5470   0.9692   1.3017   1.6707
     1.8974   1.9826   2.2866   2.5493   2.8371   3.1257   3.1761   3.4109
     3.6645   3.8901   4.0693   4.3593   4.8253   4.9015   5.3952   6.0648
     6.9677   7.1763   7.5459   7.8534   8.0999   8.2828

     occupation numbers 
     1.0000   1.0000   1.0000   1.0000   1.0000   1.0000   1.0000   1.0000
     1.0000   1.0000   1.0000   1.0000   1.0000   1.0000   1.0000   1.0000
     1.0000   1.0000   1.0000   1.0000   1.0000   1.0000   1.0000   1.0000
     1.0000   1.0000   1.0000   1.0000   1.0000   1.0000   1.0000   0.9765
     0.0000   0.0000   0.0000   0.0000   0.0000   0.0000

          k = 0.5303-0.1768 0.5303 (  7554 PWs)   bands (ev):

    -5.6678  -4.9436  -4.4718  -4.0663  -3.6570  -3.0299  -2.7920  -2.2472
    -1.2785  -0.9812  -0.5309  -0.0611   0.2989   0.9779   1.4009   1.6909
     2.0848   2.3765   2.5127   2.6894   2.8697   3.1246   3.3042   3.5162
     3.7451   3.8757   4.0041   4.1607   4.2641   5.0778   5.4208   5.6610
     7.0230   7.3415   7.5494   7.8626   7.9353   8.2169

     occupation numbers 
     1.0000   1.0000   1.0000   1.0000   1.0000   1.0000   1.0000   1.0000
     1.0000   1.0000   1.0000   1.0000   1.0000   1.0000   1.0000   1.0000
     1.0000   1.0000   1.0000   1.0000   1.0000   1.0000   1.0000   1.0000
     1.0000   1.0000   1.0000   1.0000   1.0000   1.0000   1.0000   1.0000
     0.0000   0.0000   0.0000   0.0000   0.0000   0.0000

          k = 0.5303 0.5303-0.1768 (  7554 PWs)   bands (ev):

    -5.6683  -4.9461  -4.4470  -4.0532  -3.7065  -3.0454  -2.7179  -2.3547
    -1.2493  -1.0618  -0.4540   0.0087   0.4909   1.0091   1.2596   1.7925
     2.1152   2.3310   2.4236   2.5497   2.9082   2.9983   3.2490   3.4231
     3.6255   3.7583   3.8163   4.3815   4.6091   5.0826   5.4034   5.9381
     7.0285   7.2517   7.6068   7.8186   7.9478   8.0879

     occupation numbers 
     1.0000   1.0000   1.0000   1.0000   1.0000   1.0000   1.0000   1.0000
     1.0000   1.0000   1.0000   1.0000   1.0000   1.0000   1.0000   1.0000
     1.0000   1.0000   1.0000   1.0000   1.0000   1.0000   1.0000   1.0000
     1.0000   1.0000   1.0000   1.0000   1.0000   1.0000   1.0000   0.9979
     0.0000   0.0000   0.0000   0.0000   0.0000   0.0000

          k =-0.5303 0.5303 0.1768 (  7554 PWs)   bands (ev):

    -5.6227  -5.0204  -4.4105  -4.1557  -3.5765  -3.1950  -2.5478  -2.3378
    -1.6916  -0.5574  -0.3063  -0.0248   0.4961   1.1429   1.2584   1.6471
     1.8645   2.0965   2.3361   2.6119   2.7498   3.0098   3.1687   3.3340
     3.5146   3.8580   4.1621   4.3118   4.8191   5.2959   5.4635   6.0293
     6.7165   6.9727   7.6853   7.7829   8.1429   8.2742

     occupation numbers 
     1.0000   1.0000   1.0000   1.0000   1.0000   1.0000   1.0000   1.0000
     1.0000   1.0000   1.0000   1.0000   1.0000   1.0000   1.0000   1.0000
     1.0000   1.0000   1.0000   1.0000   1.0000   1.0000   1.0000   1.0000
     1.0000   1.0000   1.0000   1.0000   1.0000   1.0000   1.0000   0.9872
     0.0057   0.0000   0.0000   0.0000   0.0000   0.0000

          k = 0.5303-0.5303 0.1768 (  7554 PWs)   bands (ev):

    -5.6565  -4.9883  -4.4639  -4.0905  -3.4864  -3.1378  -2.7179  -2.3368
    -1.4680  -0.7551  -0.5690  -0.1244   0.3613   0.9249   1.4673   1.9613
     2.0982   2.3407   2.3878   2.5396   2.9310   3.0736   3.2257   3.4502
     3.5136   3.8054   4.1997   4.3640   4.6606   4.8206   5.4403   5.8532
     6.5063   7.2911   7.4247   7.5258   8.0323   8.3821

     occupation numbers 
     1.0000   1.0000   1.0000   1.0000   1.0000   1.0000   1.0000   1.0000
     1.0000   1.0000   1.0000   1.0000   1.0000   1.0000   1.0000   1.0000
     1.0000   1.0000   1.0000   1.0000   1.0000   1.0000   1.0000   1.0000
     1.0000   1.0000   1.0000   1.0000   1.0000   1.0000   1.0000   0.9997
     0.1416   0.0000   0.0000   0.0000   0.0000   0.0000

          k =-0.5303-0.5303-0.1768 (  7554 PWs)   bands (ev):

    -5.6041  -5.0231  -4.4169  -4.0870  -3.7050  -3.2300  -2.8437  -2.0926
    -1.1784  -0.8339  -0.3509   0.2371   0.6188   1.0261   1.1857   1.5320
     1.6367   1.8138   2.1328   2.5646   2.7264   3.0297   3.3786   3.5532
     3.7049   3.8529   3.9605   4.4336   4.8998   5.1442   5.5023   5.7860
     7.1511   7.5227   7.7047   7.8654   8.3318   8.4827

     occupation numbers 
     1.0000   1.0000   1.0000   1.0000   1.0000   1.0000   1.0000   1.0000
     1.0000   1.0000   1.0000   1.0000   1.0000   1.0000   1.0000   1.0000
     1.0000   1.0000   1.0000   1.0000   1.0000   1.0000   1.0000   1.0000
     1.0000   1.0000   1.0000   1.0000   1.0000   1.0000   1.0000   1.0000
     0.0000   0.0000   0.0000   0.0000   0.0000   0.0000

          k = 0.0000 0.3536 0.3536 (  7592 PWs)   bands (ev):

    -5.7348  -4.8839  -4.5063  -3.9016  -3.4589  -3.3333  -2.9416  -1.9539
    -1.5376  -0.8676  -0.3383   0.1251   0.4425   0.6765   0.9366   1.4639
     1.8888   2.1130   2.4247   2.6567   2.7858   3.0083   3.3965   3.6310
     3.8799   4.1523   4.2144   4.4440   4.8241   5.0883   5.4647   6.5154
     7.0353   7.4646   7.7573   7.8963   8.1280   8.2208

     occupation numbers 
     1.0000   1.0000   1.0000   1.0000   1.0000   1.0000   1.0000   1.0000
     1.0000   1.0000   1.0000   1.0000   1.0000   1.0000   1.0000   1.0000
     1.0000   1.0000   1.0000   1.0000   1.0000   1.0000   1.0000   1.0000
     1.0000   1.0000   1.0000   1.0000   1.0000   1.0000   1.0000   0.1279
     0.0000   0.0000   0.0000   0.0000   0.0000   0.0000

          k =-0.3536 0.0000-0.3536 (  7592 PWs)   bands (ev):

    -5.7510  -4.9534  -4.3670  -3.9186  -3.4398  -3.3143  -2.9072  -2.1013
    -1.3411  -0.9746  -0.4884  -0.0960   0.1663   0.7232   1.1172   1.6147
     2.0366   2.3032   2.4218   2.6138   3.1092   3.2783   3.4019   3.6198
     3.8466   3.9930   4.2981   4.6089   4.7796   4.9944   5.1578   5.9618
     6.8907   7.3817   7.5977   7.8327   8.0283   8.2342

     occupation numbers 
     1.0000   1.0000   1.0000   1.0000   1.0000   1.0000   1.0000   1.0000
     1.0000   1.0000   1.0000   1.0000   1.0000   1.0000   1.0000   1.0000
     1.0000   1.0000   1.0000   1.0000   1.0000   1.0000   1.0000   1.0000
     1.0000   1.0000   1.0000   1.0000   1.0000   1.0000   1.0000   0.9965
     0.0001   0.0000   0.0000   0.0000   0.0000   0.0000

          k = 0.3536 0.0000-0.3536 (  7592 PWs)   bands (ev):

    -5.7693  -4.9379  -4.3393  -3.9509  -3.5014  -3.1612  -2.7448  -2.3891
    -1.3931  -1.1255  -0.4963  -0.0034   0.4169   0.5772   1.0675   1.7537
     2.1871   2.3497   2.6013   2.7516   3.0099   3.1647   3.3879   3.5889
     3.7726   3.8687   4.1524   4.4224   4.8178   5.0061   5.2083   6.4378
     6.6911   7.1631   7.4505   7.6632   7.9634   8.0727

     occupation numbers 
     1.0000   1.0000   1.0000   1.0000   1.0000   1.0000   1.0000   1.0000
     1.0000   1.0000   1.0000   1.0000   1.0000   1.0000   1.0000   1.0000
     1.0000   1.0000   1.0000   1.0000   1.0000   1.0000   1.0000   1.0000
     1.0000   1.0000   1.0000   1.0000   1.0000   1.0000   1.0000   0.2747
     0.0093   0.0000   0.0000   0.0000   0.0000   0.0000

          k = 0.3536 0.3536 0.0000 (  7592 PWs)   bands (ev):

    -5.7644  -4.8593  -4.4548  -3.8491  -3.5633  -3.3317  -2.9482  -1.8685
    -1.4725  -1.0238  -0.3457  -0.0441   0.1891   0.7396   1.1012   1.4639
     2.0182   2.1396   2.7072   2.8022   2.9063   3.0867   3.3530   3.5958
     3.7575   4.0766   4.2804   4.4491   4.7720   4.9921   5.2496   6.3834
     6.9263   7.4481   7.6656   7.8851   8.0405   8.1507

     occupation numbers 
     1.0000   1.0000   1.0000   1.0000   1.0000   1.0000   1.0000   1.0000
     1.0000   1.0000   1.0000   1.0000   1.0000   1.0000   1.0000   1.0000
     1.0000   1.0000   1.0000   1.0000   1.0000   1.0000   1.0000   1.0000
     1.0000   1.0000   1.0000   1.0000   1.0000   1.0000   1.0000   0.4122
     0.0000   0.0000   0.0000   0.0000   0.0000   0.0000

          k =-0.3536 0.3536 0.0000 (  7592 PWs)   bands (ev):

    -5.7691  -4.9041  -4.4613  -3.9953  -3.1989  -3.1167  -2.7729  -2.5490
    -1.5354  -0.9731  -0.4748  -0.1440   0.2188   0.6963   1.0823   1.6759
     2.2847   2.5105   2.6310   2.9477   2.9832   3.2350   3.4920   3.5792
     3.7670   3.8806   4.0737   4.2048   4.6005   5.0682   5.6197   6.1522
     6.4507   7.1449   7.3959   7.6347   7.8362   8.1907

     occupation numbers 
     1.0000   1.0000   1.0000   1.0000   1.0000   1.0000   1.0000   1.0000
     1.0000   1.0000   1.0000   1.0000   1.0000   1.0000   1.0000   1.0000
     1.0000   1.0000   1.0000   1.0000   1.0000   1.0000   1.0000   1.0000
     1.0000   1.0000   1.0000   1.0000   1.0000   1.0000   1.0000   0.9162
     0.2458   0.0000   0.0000   0.0000   0.0000   0.0000

          k = 0.0000-0.7071 0.0000 (  7528 PWs)   bands (ev):

    -5.5585  -4.8243  -4.4455  -4.2708  -4.0866  -3.3342  -2.5178  -1.7015
    -1.2753  -1.1809  -0.0167   0.4611   0.5717   0.8247   1.4979   1.6217
     1.8159   2.0351   2.1931   2.3804   2.4676   2.6794   2.9220   3.1721
     4.0086   4.0553   4.3432   4.4780   4.5479   4.7153   5.3693   5.7632
     6.7119   7.0210   7.5528   7.9821   8.1362   8.5077

     occupation numbers 
     1.0000   1.0000   1.0000   1.0000   1.0000   1.0000   1.0000   1.0000
     1.0000   1.0000   1.0000   1.0000   1.0000   1.0000   1.0000   1.0000
     1.0000   1.0000   1.0000   1.0000   1.0000   1.0000   1.0000   1.0000
     1.0000   1.0000   1.0000   1.0000   1.0000   1.0000   1.0000   1.0000
     0.0062   0.0000   0.0000   0.0000   0.0000   0.0000

          k = 0.0000 0.0000-0.7071 (  7528 PWs)   bands (ev):

    -5.5345  -4.8508  -4.6722  -4.1162  -3.8658  -3.4702  -2.1199  -1.9659
    -1.8602  -0.8416  -0.0828   0.4766   0.6195   1.0090   1.6445   1.7059
     1.8219   2.1265   2.2254   2.2972   2.4156   2.6491   2.8391   3.1663
     3.3928   3.7690   4.2311   4.6312   5.1281   5.1978   5.3931   5.6530
     6.6014   6.7508   7.6552   7.8469   8.2084   8.4999

     occupation numbers 
     1.0000   1.0000   1.0000   1.0000   1.0000   1.0000   1.0000   1.0000
     1.0000   1.0000   1.0000   1.0000   1.0000   1.0000   1.0000   1.0000
     1.0000   1.0000   1.0000   1.0000   1.0000   1.0000   1.0000   1.0000
     1.0000   1.0000   1.0000   1.0000   1.0000   1.0000   1.0000   1.0000
     0.0416   0.0028   0.0000   0.0000   0.0000   0.0000

          k = 0.3536-0.7071 0.0000 (  7564 PWs)   bands (ev):

    -5.4935  -4.8773  -4.7274  -4.3713  -3.4224  -3.0927  -2.9373  -2.2220
    -1.1825  -0.5529  -0.4400  -0.0699   0.9906   1.2272   1.4667   1.6010
     1.8577   1.9679   2.1340   2.6194   2.7162   2.9589   3.1138   3.2799
     3.3623   3.6210   3.9057   4.1770   4.6618   4.9130   5.0907   5.5414
     7.5665   7.7758   7.9503   8.0781   8.3110   8.5678

     occupation numbers 
     1.0000   1.0000   1.0000   1.0000   1.0000   1.0000   1.0000   1.0000
     1.0000   1.0000   1.0000   1.0000   1.0000   1.0000   1.0000   1.0000
     1.0000   1.0000   1.0000   1.0000   1.0000   1.0000   1.0000   1.0000
     1.0000   1.0000   1.0000   1.0000   1.0000   1.0000   1.0000   1.0000
     0.0000   0.0000   0.0000   0.0000   0.0000   0.0000

          k = 0.7071 0.0000 0.3536 (  7564 PWs)   bands (ev):

    -5.4559  -4.9784  -4.6516  -4.4183  -3.3847  -3.1351  -2.8803  -2.2358
    -1.0249  -0.6808  -0.4398  -0.0831   0.7247   1.3258   1.5143   1.6170
     1.7677   2.0887   2.3384   2.5065   2.6067   3.0118   3.1463   3.3808
     3.5279   3.6404   3.7767   4.0882   4.5235   4.7724   5.1730   5.5388
     7.7076   7.8516   7.9385   8.1437   8.2865   8.4882

     occupation numbers 
     1.0000   1.0000   1.0000   1.0000   1.0000   1.0000   1.0000   1.0000
     1.0000   1.0000   1.0000   1.0000   1.0000   1.0000   1.0000   1.0000
     1.0000   1.0000   1.0000   1.0000   1.0000   1.0000   1.0000   1.0000
     1.0000   1.0000   1.0000   1.0000   1.0000   1.0000   1.0000   1.0000
     0.0000   0.0000   0.0000   0.0000   0.0000   0.0000

     the Fermi energy is     6.3514 ev

!    total energy              =    -152.30508230 Ry
     Harris-Foulkes estimate   =    -152.30508230 Ry
     estimated scf accuracy    <          2.2E-10 Ry

     The total energy is the sum of the following terms:

     one-electron contribution =      38.75353774 Ry
     hartree contribution      =       9.63468820 Ry
     xc contribution           =     -68.32011819 Ry
     ewald contribution        =    -132.36807452 Ry
     smearing contrib. (-TS)   =      -0.00511552 Ry

     convergence has been achieved in  14 iterations

     Forces acting on atoms (Ry/au):

     atom    1 type  1   force =   0.15281867E-01 -0.47661641E-02 -0.54754355E-01
     atom    2 type  1   force =   0.68697735E-01 -0.22065150E-02  0.26356082E-01
     atom    3 type  1   force =  -0.49602723E-01 -0.60005866E-01 -0.27120412E-01
     atom    4 type  1   force =   0.91938056E-01 -0.34784706E-01  0.18006744E-01
     atom    5 type  1   force =  -0.33967884E+00 -0.29295038E+00 -0.33279396E+00
     atom    6 type  1   force =   0.31205785E+00  0.31122910E+00  0.33463178E+00
     atom    7 type  1   force =  -0.11743118E+00 -0.11620832E+00 -0.11291763E+00
     atom    8 type  1   force =   0.15711627E+00  0.25543216E-01 -0.99366586E-02
     atom    9 type  1   force =  -0.28624733E-01  0.74478211E-01  0.80532326E-01
     atom   10 type  1   force =  -0.35604957E-01 -0.77881100E-01 -0.18052589E-01
     atom   11 type  1   force =  -0.15463094E+00 -0.16649733E-01 -0.60645518E-01
     atom   12 type  1   force =   0.86206537E-01  0.15091999E+00  0.22416673E-01
     atom   13 type  1   force =   0.47709797E-01  0.99515854E-01 -0.96853826E-01
     atom   14 type  1   force =  -0.65536445E-01 -0.13268615E+00  0.11636871E+00
     atom   15 type  1   force =  -0.36623242E-01  0.33393468E-01 -0.75048990E-01
     atom   16 type  1   force =   0.48724944E-01  0.43059092E-01  0.18981164E+00
     The non-local contrib.  to forces
     atom    1 type  1   force =  -0.73878511E-02 -0.54570290E-02 -0.52637096E-01
     atom    2 type  1   force =   0.11200503E+00 -0.41840610E-01  0.37061629E-02
     atom    3 type  1   force =  -0.76115308E-02 -0.48487778E-01 -0.52151275E-01
     atom    4 type  1   force =   0.76607826E-01 -0.71191215E-01  0.10024824E-01
     atom    5 type  1   force =  -0.34750556E+00 -0.30272624E+00 -0.31546810E+00
     atom    6 type  1   force =   0.30658367E+00  0.31481469E+00  0.30895649E+00
     atom    7 type  1   force =  -0.85431901E-01 -0.12694689E+00 -0.13319893E+00
     atom    8 type  1   force =   0.15787889E+00  0.44500308E-01  0.69142650E-03
     atom    9 type  1   force =  -0.69711756E-01  0.85220731E-01  0.99133424E-01
     atom   10 type  1   force =  -0.35081916E-01 -0.72216623E-01 -0.11900533E-01
     atom   11 type  1   force =  -0.16367755E+00  0.93812404E-02 -0.98832185E-01
     atom   12 type  1   force =   0.74915494E-01  0.17384765E+00  0.72384976E-01
     atom   13 type  1   force =   0.86093830E-01  0.11725930E+00 -0.50383494E-01
     atom   14 type  1   force =  -0.10591813E+00 -0.14336699E+00  0.89805298E-01
     atom   15 type  1   force =  -0.68102526E-02  0.51258999E-01 -0.67849951E-01
     atom   16 type  1   force =   0.25583804E-03  0.25281536E-01  0.20926915E+00
     The ionic contribution  to forces
     atom    1 type  1   force =   0.29149408E-01 -0.18701123E+00 -0.28078034E+00
     atom    2 type  1   force =   0.29443507E+00 -0.12291894E+00  0.83298718E-01
     atom    3 type  1   force =   0.23252582E+00 -0.58421040E-01 -0.34803167E+00
     atom    4 type  1   force =   0.21212054E+00 -0.44006527E+00  0.34728776E-01
     atom    5 type  1   force =  -0.87894156E+00 -0.73323006E+00 -0.53206730E+00
     atom    6 type  1   force =   0.79276203E+00  0.78364492E+00  0.36672441E+00
     atom    7 type  1   force =   0.93203745E-01 -0.45873993E+00 -0.40285617E+00
     atom    8 type  1   force =   0.59927500E+00  0.57797301E-01 -0.29503021E+00
     atom    9 type  1   force =  -0.14384157E+00  0.45887262E+00  0.61996809E+00
     atom   10 type  1   force =  -0.45055863E+00 -0.41508673E+00 -0.18664686E+00
     atom   11 type  1   force =  -0.69043633E+00  0.89616186E-01 -0.29368133E+00
     atom   12 type  1   force =   0.16617022E+00  0.84938354E+00 -0.16063742E-01
     atom   13 type  1   force =   0.14474059E+00  0.30177545E+00  0.56927015E-02
     atom   14 type  1   force =  -0.44302370E+00 -0.50704907E+00  0.57506482E+00
     atom   15 type  1   force =   0.91659419E-01  0.22331198E+00 -0.12397804E-01
     atom   16 type  1   force =  -0.49240052E-01  0.15812027E+00  0.68207791E+00
     The local contribution  to forces
     atom    1 type  1   force =  -0.82640151E-02  0.18716694E+00  0.27403860E+00
     atom    2 type  1   force =  -0.32676739E+00  0.15832070E+00 -0.61010810E-01
     atom    3 type  1   force =  -0.27438065E+00  0.42840929E-01  0.36780778E+00
     atom    4 type  1   force =  -0.19006830E+00  0.46931554E+00 -0.25341141E-01
     atom    5 type  1   force =   0.85575236E+00  0.71679949E+00  0.48801117E+00
     atom    6 type  1   force =  -0.75990524E+00 -0.75894428E+00 -0.31502831E+00
     atom    7 type  1   force =  -0.13221518E+00  0.45757255E+00  0.41086537E+00
     atom    8 type  1   force =  -0.58561434E+00 -0.71755758E-01  0.28481182E+00
     atom    9 type  1   force =   0.17827000E+00 -0.46147458E+00 -0.62911057E+00
     atom   10 type  1   force =   0.44666652E+00  0.40247099E+00  0.17955290E+00
     atom   11 type  1   force =   0.68453921E+00 -0.11437231E+00  0.32216006E+00
     atom   12 type  1   force =  -0.14816765E+00 -0.85675311E+00 -0.27038614E-01
     atom   13 type  1   force =  -0.17468335E+00 -0.30935514E+00 -0.56135986E-01
     atom   14 type  1   force =   0.47334509E+00  0.50514884E+00 -0.54068898E+00
     atom   15 type  1   force =  -0.12212464E+00 -0.23652702E+00 -0.56264867E-03
     atom   16 type  1   force =   0.97208219E-01 -0.13902671E+00 -0.68277500E+00
     The core correction contribution to forces
     atom    1 type  1   force =   0.17861556E-02  0.53655791E-03  0.46253059E-02
     atom    2 type  1   force =  -0.10976076E-01  0.42296982E-02  0.36059868E-03
     atom    3 type  1   force =  -0.13816227E-03  0.40611170E-02  0.52578900E-02
     atom    4 type  1   force =  -0.67202421E-02  0.71582621E-02 -0.14056935E-02
     atom    5 type  1   force =   0.31015971E-01  0.26207817E-01  0.26728242E-01
     atom    6 type  1   force =  -0.27382506E-01 -0.28286028E-01 -0.26019052E-01
     atom    7 type  1   force =   0.70093447E-02  0.11908011E-01  0.12273205E-01
     atom    8 type  1   force =  -0.14425934E-01 -0.49988062E-02 -0.40938392E-03
     atom    9 type  1   force =   0.66611687E-02 -0.81418246E-02 -0.94620548E-02
     atom   10 type  1   force =   0.33699551E-02  0.69525857E-02  0.94534698E-03
     atom   11 type  1   force =   0.14945661E-01 -0.12776200E-02  0.97098446E-02
     atom   12 type  1   force =  -0.67120304E-02 -0.15562307E-01 -0.68647165E-02
     atom   13 type  1   force =  -0.84399526E-02 -0.10162312E-01  0.39697107E-02
     atom   14 type  1   force =   0.10058886E-01  0.12582910E-01 -0.78148105E-02
     atom   15 type  1   force =   0.64947866E-03 -0.46527042E-02  0.57612334E-02
     atom   16 type  1   force =   0.50120568E-03 -0.13152130E-02 -0.18762972E-01
     The Hubbard contrib.    to forces
     atom    1 type  1   force =   0.00000000E+00  0.00000000E+00  0.00000000E+00
     atom    2 type  1   force =   0.00000000E+00  0.00000000E+00  0.00000000E+00
     atom    3 type  1   force =   0.00000000E+00  0.00000000E+00  0.00000000E+00
     atom    4 type  1   force =   0.00000000E+00  0.00000000E+00  0.00000000E+00
     atom    5 type  1   force =   0.00000000E+00  0.00000000E+00  0.00000000E+00
     atom    6 type  1   force =   0.00000000E+00  0.00000000E+00  0.00000000E+00
     atom    7 type  1   force =   0.00000000E+00  0.00000000E+00  0.00000000E+00
     atom    8 type  1   force =   0.00000000E+00  0.00000000E+00  0.00000000E+00
     atom    9 type  1   force =   0.00000000E+00  0.00000000E+00  0.00000000E+00
     atom   10 type  1   force =   0.00000000E+00  0.00000000E+00  0.00000000E+00
     atom   11 type  1   force =   0.00000000E+00  0.00000000E+00  0.00000000E+00
     atom   12 type  1   force =   0.00000000E+00  0.00000000E+00  0.00000000E+00
     atom   13 type  1   force =   0.00000000E+00  0.00000000E+00  0.00000000E+00
     atom   14 type  1   force =   0.00000000E+00  0.00000000E+00  0.00000000E+00
     atom   15 type  1   force =   0.00000000E+00  0.00000000E+00  0.00000000E+00
     atom   16 type  1   force =   0.00000000E+00  0.00000000E+00  0.00000000E+00
     The SCF correction term to forces
     atom    1 type  1   force =  -0.19176374E-05 -0.14152467E-05 -0.87271455E-06
     atom    2 type  1   force =   0.10101667E-05  0.26174013E-05  0.13593193E-05
     atom    3 type  1   force =   0.17194182E-05  0.89000692E-06 -0.31932127E-05
     atom    4 type  1   force =  -0.18595107E-05 -0.20306574E-05 -0.73990580E-07
     atom    5 type  1   force =  -0.14355307E-06 -0.13971030E-05  0.19778238E-05
     atom    6 type  1   force =  -0.18820196E-06 -0.21848859E-06 -0.18161700E-05
     atom    7 type  1   force =   0.27309039E-05 -0.20786377E-05 -0.11649278E-05
     atom    8 type  1   force =   0.25706021E-05  0.15566788E-06 -0.36544137E-06
     atom    9 type  1   force =  -0.26581382E-05  0.12539704E-05  0.33837670E-05
     atom   10 type  1   force =  -0.97655175E-06 -0.13339417E-05 -0.34929883E-05
     atom   11 type  1   force =  -0.20078551E-05  0.27551035E-05 -0.19663878E-05
     atom   12 type  1   force =   0.41873574E-06  0.41928735E-05 -0.12832981E-05
     atom   13 type  1   force =  -0.14104358E-05 -0.14638139E-05  0.31900745E-05
     atom   14 type  1   force =   0.13177860E-05 -0.18581962E-05  0.23294442E-05
     atom   15 type  1   force =   0.26619722E-05  0.21907250E-05  0.12719737E-06
     atom   16 type  1   force =  -0.35431860E-06 -0.81354240E-06  0.25017809E-05

     Total force =     0.945277     Total SCF correction =     0.000013


     entering subroutine stress ...

          total   stress  (Ry/bohr**3)                   (kbar)     P=   66.14
   0.0004064698   0.0004986537   0.0001668270         59.79     73.35     24.54
   0.0004986537   0.0004256064   0.0006274088         73.35     62.61     92.30
   0.0001668270   0.0006274088   0.0005166579         24.54     92.30     76.00

     kinetic stress (kbar)   2212.19     -4.63     -6.82
                               -4.63   2214.06    -27.31
                               -6.82    -27.31   2209.30

     local   stress (kbar)   -355.83   -232.56    -23.58
                             -232.56   -295.39   -513.10
                              -23.58   -513.10   -393.85

     nonloc. stress (kbar)   1979.66     36.62      5.69
                               36.62   1979.22     63.89
                                5.69     63.89   1991.23

     hartree stress (kbar)    226.33     24.94      5.73
                               24.94    206.29     61.83
                                5.73     61.83    222.72

     exc-cor stress (kbar)    994.53      0.35      0.02
                                0.35    994.51      0.69
                                0.02      0.69    994.63

     corecor stress (kbar)  -1992.13     -4.14     -0.40
                               -4.14  -1992.03     -7.38
                               -0.40     -7.38  -1993.36

     ewald   stress (kbar)  -3004.95    252.78     43.89
                              252.78  -3044.04    513.67
                               43.89    513.67  -2954.69

     hubbard stress (kbar)      0.00      0.00      0.00
                                0.00      0.00      0.00
                                0.00      0.00      0.00

     london  stress (kbar)      0.00      0.00      0.00
                                0.00      0.00      0.00
                                0.00      0.00      0.00

     XDM     stress (kbar)      0.00      0.00      0.00
                                0.00      0.00      0.00
                                0.00      0.00      0.00

     dft-nl  stress (kbar)      0.00      0.00      0.00
                                0.00      0.00      0.00
                                0.00      0.00      0.00



     Writing output data file Si_diamond.scf.in.super.222.largdist.a.022.save

     init_run     :     17.85s CPU     18.95s WALL (       1 calls)
     electrons    :    545.84s CPU    590.19s WALL (       1 calls)
     forces       :      5.52s CPU      5.53s WALL (       1 calls)
     stress       :     23.99s CPU     24.33s WALL (       1 calls)

     Called by init_run:
     wfcinit      :     16.65s CPU     17.68s WALL (       1 calls)
     potinit      :      0.18s CPU      0.21s WALL (       1 calls)

     Called by electrons:
     c_bands      :    457.26s CPU    497.87s WALL (      15 calls)
     sum_band     :     77.06s CPU     80.44s WALL (      15 calls)
     v_of_rho     :      1.58s CPU      1.65s WALL (      15 calls)
     v_h          :      0.10s CPU      0.10s WALL (      15 calls)
     v_xc         :      1.66s CPU      1.74s WALL (      17 calls)
     newd         :      9.02s CPU      9.25s WALL (      15 calls)
     mix_rho      :      1.50s CPU      1.56s WALL (      15 calls)

     Called by c_bands:
     init_us_2    :      5.36s CPU      5.71s WALL (    1188 calls)
     cegterg      :    430.90s CPU    469.64s WALL (     540 calls)

     Called by sum_band:
     sum_band:bec :      0.34s CPU      0.44s WALL (     540 calls)
     addusdens    :      9.87s CPU     10.08s WALL (      15 calls)

     Called by *egterg:
     h_psi        :    293.80s CPU    307.98s WALL (    1995 calls)
     s_psi        :     25.85s CPU     24.97s WALL (    1995 calls)
     g_psi        :      0.63s CPU      0.65s WALL (    1419 calls)
     cdiaghg      :     22.33s CPU     25.53s WALL (    1923 calls)
     cegterg:over :     48.94s CPU     57.88s WALL (    1419 calls)
     cegterg:upda :      9.73s CPU     15.37s WALL (    1419 calls)
     cegterg:last :      3.40s CPU      4.46s WALL (     540 calls)

     Called by h_psi:
     h_psi:vloc   :    216.29s CPU    225.95s WALL (    1995 calls)
     h_psi:vnl    :     76.99s CPU     81.43s WALL (    1995 calls)
     add_vuspsi   :     25.97s CPU     26.88s WALL (    1995 calls)

     General routines
     calbec       :     75.10s CPU     79.62s WALL (    2607 calls)
     fft          :      2.79s CPU      2.92s WALL (     265 calls)
     ffts         :      0.84s CPU      0.88s WALL (     281 calls)
     fftw         :    231.93s CPU    242.67s WALL (  131124 calls)
     interpolate  :      0.32s CPU      0.32s WALL (      30 calls)

     Parallel routines
     fft_scatter  :    128.07s CPU    133.98s WALL (  131670 calls)

     PWSCF        :  9m54.90s CPU    10m41.13s WALL


   This run was terminated on:  17: 6: 3  27Sep2017            

=------------------------------------------------------------------------------=
   JOB DONE.
=------------------------------------------------------------------------------=
