
     Program PWSCF v.5.1 starts on  4Apr2018 at 19:44:50 

     This program is part of the open-source Quantum ESPRESSO suite
     for quantum simulation of materials; please cite
         "P. Giannozzi et al., J. Phys.:Condens. Matter 21 395502 (2009);
          URL http://www.quantum-espresso.org", 
     in publications or presentations arising from this work. More details at
     http://www.quantum-espresso.org/quote

     Parallel version (MPI), running on    16 processors
     R & G space division:  proc/nbgrp/npool/nimage =      16
     Waiting for input...
     Reading input from standard input
Warning: card &IONS ignored
Warning: card   ION_DYNAMICS='BFGS', ignored
Warning: card / ignored
Warning: card &CELL ignored
Warning: card  CELL_DYNAMICS = 'BFGS' ignored
Warning: card / ignored

     Current dimensions of program PWSCF are:
     Max number of different atomic species (ntypx) = 10
     Max number of k-points (npk) =  40000
     Max angular momentum in pseudopotentials (lmaxx) =  3
 kfg - two_fermi_energies  F

     Subspace diagonalization in iterative solution of the eigenvalue problem:
     a serial algorithm will be used


     Parallelization info
     --------------------
     sticks:   dense  smooth     PW     G-vecs:    dense   smooth      PW
     Min         181     127     36                 6627     3874     592
     Max         182     128     37                 6629     3892     594
     Sum        2905    2043    583               106049    62119    9485



     bravais-lattice index     =            0
     lattice parameter (alat)  =    14.626646958  a.u.
     unit-cell volume          =    2220.1404 (a.u.)^3
     number of atoms/cell      =           16
     number of atomic types    =            2
     number of electrons       =       134.00
     number of Kohn-Sham states=           80
     kinetic-energy cutoff     =      35.0000  Ry
     charge density cutoff     =     200.0000  Ry
     convergence threshold     =      1.0E-09
     mixing beta               =       0.3000
     number of iterations used =            8  local-TF  mixing
     Exchange-correlation      = SLA  PW   PSX  PSC ( 1  4 10  8 0)
     A smooth kinetic-energy cutoff is imposed at      34.5000 Ry
     height of the smooth step-function =             800.0000 Ry
     width of the smooth step-function  =               1.0000 Ry


     celldm(1)=  14.626647  celldm(2)=   0.000000  celldm(3)=   0.000000
     celldm(4)=   0.000000  celldm(5)=   0.000000  celldm(6)=   0.000000

     crystal axes: (cart. coord. in units of alat)
               a(1) = (  -0.008507120592   0.694789668321   0.719162669841 )  
               a(2) = (   0.691973930817  -0.000553370530   0.711208919780 )  
               a(3) = (   0.706214610699   0.701076598141  -0.014794050412 )  

     reciprocal axes: (cart. coord. in units 2 pi/alat)
               b(1) = ( -0.702764  0.722355  0.684319 )  
               b(2) = (  0.725122 -0.715666  0.699989 )  
               b(3) = (  0.697034  0.709936 -0.677630 )  


     PseudoPot. # 1 for Si read from file:
     /users/kfg/psuedo/gbrv_1.5/si.pbesol.UPF
     MD5 check sum: ef58ba74faed4df802eb8a9742fc00a8
     Pseudo is Ultrasoft + core correction, Zval =  4.0
     Generated by new atomic code, or converted to UPF format
     Using radial grid of  899 points,  6 beta functions with: 
                l(1) =   0
                l(2) =   0
                l(3) =   1
                l(4) =   1
                l(5) =   2
                l(6) =   2
     Q(r) pseudized with  8 coefficients,  rinner =    0.900   0.900   0.900
                                                       0.900   0.900

     PseudoPot. # 2 for Ge read from file:
     /users/kfg/psuedo/gbrv_1.5/ge.pbesol.UPF
     MD5 check sum: 7bed0412183f5e553a4d27ec7023354d
     Pseudo is Ultrasoft + core correction, Zval = 14.0
     Generated by new atomic code, or converted to UPF format
     Using radial grid of  873 points,  6 beta functions with: 
                l(1) =   0
                l(2) =   0
                l(3) =   1
                l(4) =   1
                l(5) =   2
                l(6) =   2
     Q(r) pseudized with  8 coefficients,  rinner =    1.400   1.400   1.400
                                                       1.400   1.400

     atomic species   valence    mass     pseudopotential
        Si             4.00    28.08550     Si( 1.00)
        Ge            14.00    72.59000     Ge( 1.00)

     No symmetry found


                                    s                        frac. trans.

      isym =  1     identity                                     

 cryst.   s( 1) = (     1          0          0      )
                  (     0          1          0      )
                  (     0          0          1      )

 cart.    s( 1) = (  1.0000000  0.0000000  0.0000000 )
                  (  0.0000000  1.0000000  0.0000000 )
                  (  0.0000000 -0.0000000  1.0000000 )


     point group C_1 (1)    
     there are  1 classes
     the character table:

       E    
A      1.00

     the symmetry operations in each class:
     E        1

   Cartesian axes

     site n.     atom                  positions (alat units)
         1           Si  tau(   1) = (   -0.00163574513   -0.01988544341    0.00806377860  )
         2           Ge  tau(   2) = (    0.17637613094    0.19071822946    0.15803366687  )
         3           Ge  tau(   3) = (    0.36218612859    0.36242310620   -0.01438608032  )
         4           Si  tau(   4) = (    0.52445110775    0.52734706164    0.19502058909  )
         5           Si  tau(   5) = (    0.35041206692    0.02464012860    0.33458397741  )
         6           Ge  tau(   6) = (    0.52281388054    0.18102534935    0.54233752600  )
         7           Si  tau(   7) = (    0.69945074681    0.34719469446    0.36685606911  )
         8           Si  tau(   8) = (    0.90054367165    0.55117399698    0.50198093595  )
         9           Ge  tau(   9) = (   -0.01240042965    0.33462898269    0.35890789354  )
        10           Si  tau(  10) = (    0.15811115783    0.50022843096    0.54337069503  )
        11           Si  tau(  11) = (    0.32000621365    0.68000540009    0.36633570130  )
        12           Si  tau(  12) = (    0.52257275678    0.85104797535    0.53049600458  )
        13           Ge  tau(  13) = (    0.33399965394    0.33414796291    0.72000501079  )
        14           Ge  tau(  14) = (    0.50964945142    0.52375934038    0.87648012053  )
        15           Si  tau(  15) = (    0.72223885975    0.71125672266    0.69380800021  )
        16           Ge  tau(  16) = (    0.85963145284    0.87685254133    0.89599380736  )

   Crystallographic axes

     site n.     atom                  positions (cryst. coord.)
         1           Si  tau(   1) = (   -0.00769660130    0.01868976463   -0.02072181844  )
         2           Ge  tau(   2) = (    0.12196092895    0.10202559401    0.15124951300  )
         3           Ge  tau(   3) = (   -0.00257796832   -0.00681454822    0.51950169489  )
         4           Si  tau(   4) = (    0.14582269232    0.13939932620    0.60779107763  )
         5           Si  tau(   5) = (    0.00050425349    0.47066253582    0.03501789865  )
         6           Ge  tau(   6) = (    0.13448185532    0.62918056805    0.12543125233  )
         7           Si  tau(   7) = (    0.01029569902    0.51550721000    0.48543428286  )
         8           Si  tau(   8) = (    0.10878882159    0.60992911125    0.67885045052  )
         9           Ge  tau(   9) = (    0.49604300376    0.00275720118   -0.01428523735  )
        10           Si  tau(  10) = (    0.62206662023    0.13700702406    0.09713458707  )
        11           Si  tau(  11) = (    0.51700689174    0.00181808361    0.45757533512  )
        12           Si  tau(  12) = (    0.61054191942    0.14120469534    0.60896041503  )
        13           Ge  tau(  13) = (    0.49936380886    0.50704779551   -0.01786433458  )
        14           Ge  tau(  14) = (    0.61996908822    0.60824787235    0.13314923063  )
        15           Si  tau(  15) = (    0.48100248178    0.50034738341    0.53822655952  )
        16           Ge  tau(  16) = (    0.64242650491    0.62299038280    0.61454909311  )

     number of k points=    36  gaussian smearing, width (Ry)=  0.0150
                       cart. coord. in units 2pi/alat
        k(    1) = (   0.0000000   0.0000000   0.0000000), wk =   0.0312500
        k(    2) = (   0.1742585   0.1774840  -0.1694075), wk =   0.0625000
        k(    3) = (  -0.3485171  -0.3549679   0.3388151), wk =   0.0312500
        k(    4) = (   0.1812806  -0.1789164   0.1749972), wk =   0.0625000
        k(    5) = (   0.3555391  -0.0014324   0.0055896), wk =   0.0625000
        k(    6) = (  -0.1672365  -0.5338843   0.5138122), wk =   0.0625000
        k(    7) = (   0.0070221  -0.3564003   0.3444047), wk =   0.0625000
        k(    8) = (  -0.3625612   0.3578328  -0.3499943), wk =   0.0312500
        k(    9) = (  -0.1883026   0.5353167  -0.5194019), wk =   0.0625000
        k(   10) = (  -0.7110783   0.0028649  -0.0111793), wk =   0.0312500
        k(   11) = (  -0.1756910   0.1805887   0.1710798), wk =   0.0625000
        k(   12) = (  -0.0014324   0.3580726   0.0016723), wk =   0.0625000
        k(   13) = (  -0.5242081  -0.1743792   0.5098949), wk =   0.0625000
        k(   14) = (  -0.3499495   0.0031047   0.3404874), wk =   0.0625000
        k(   15) = (   0.0055896   0.0016723   0.3460770), wk =   0.0625000
        k(   16) = (   0.1798482   0.1791562   0.1766695), wk =   0.0625000
        k(   17) = (  -0.3429275  -0.3532956   0.6848921), wk =   0.0625000
        k(   18) = (  -0.1686689  -0.1758117   0.5154845), wk =   0.0625000
        k(   19) = (  -0.5382522   0.5384214  -0.1789145), wk =   0.0625000
        k(   20) = (  -0.3639936   0.7159054  -0.3483220), wk =   0.0625000
        k(   21) = (  -0.8867692   0.1834535   0.1599006), wk =   0.0625000
        k(   22) = (  -0.7125107   0.3609375  -0.0095070), wk =   0.0625000
        k(   23) = (  -0.3569716   0.3595051  -0.0039173), wk =   0.0625000
        k(   24) = (  -0.1827130   0.5369890  -0.1733249), wk =   0.0625000
        k(   25) = (  -0.7054887   0.0045371   0.3348977), wk =   0.0625000
        k(   26) = (  -0.5312301   0.1820211   0.1654902), wk =   0.0625000
        k(   27) = (   0.3513819  -0.3611774  -0.3421597), wk =   0.0312500
        k(   28) = (   0.5256405  -0.1836934  -0.5115672), wk =   0.0625000
        k(   29) = (   0.0028649  -0.7161453  -0.0033446), wk =   0.0312500
        k(   30) = (   0.5326625  -0.5400937  -0.1671625), wk =   0.0625000
        k(   31) = (   0.7069211  -0.3626098  -0.3365700), wk =   0.0625000
        k(   32) = (   0.1841455  -0.8950616   0.1716526), wk =   0.0625000
        k(   33) = (   0.3584040  -0.7175777   0.0022450), wk =   0.0625000
        k(   34) = (  -0.0111793  -0.0033446  -0.6921540), wk =   0.0312500
        k(   35) = (   0.1630793   0.1741394  -0.8615615), wk =   0.0625000
        k(   36) = (  -0.3596963  -0.3583125  -0.3533389), wk =   0.0312500

                       cryst. coord.
        k(    1) = (   0.0000000   0.0000000   0.0000000), wk =   0.0312500
        k(    2) = (   0.0000000  -0.0000000   0.2500000), wk =   0.0625000
        k(    3) = (  -0.0000000   0.0000000  -0.5000000), wk =   0.0312500
        k(    4) = (   0.0000000   0.2500000  -0.0000000), wk =   0.0625000
        k(    5) = (   0.0000000   0.2500000   0.2500000), wk =   0.0625000
        k(    6) = (   0.0000000   0.2500000  -0.5000000), wk =   0.0625000
        k(    7) = (  -0.0000000   0.2500000  -0.2500000), wk =   0.0625000
        k(    8) = (   0.0000000  -0.5000000   0.0000000), wk =   0.0312500
        k(    9) = (   0.0000000  -0.5000000   0.2500000), wk =   0.0625000
        k(   10) = (  -0.0000000  -0.5000000  -0.5000000), wk =   0.0312500
        k(   11) = (   0.2500000  -0.0000000  -0.0000000), wk =   0.0625000
        k(   12) = (   0.2500000  -0.0000000   0.2500000), wk =   0.0625000
        k(   13) = (   0.2500000  -0.0000000  -0.5000000), wk =   0.0625000
        k(   14) = (   0.2500000   0.0000000  -0.2500000), wk =   0.0625000
        k(   15) = (   0.2500000   0.2500000  -0.0000000), wk =   0.0625000
        k(   16) = (   0.2500000   0.2500000   0.2500000), wk =   0.0625000
        k(   17) = (   0.2500000   0.2500000  -0.5000000), wk =   0.0625000
        k(   18) = (   0.2500000   0.2500000  -0.2500000), wk =   0.0625000
        k(   19) = (   0.2500000  -0.5000000  -0.0000000), wk =   0.0625000
        k(   20) = (   0.2500000  -0.5000000   0.2500000), wk =   0.0625000
        k(   21) = (   0.2500000  -0.5000000  -0.5000000), wk =   0.0625000
        k(   22) = (   0.2500000  -0.5000000  -0.2500000), wk =   0.0625000
        k(   23) = (   0.2500000  -0.2500000  -0.0000000), wk =   0.0625000
        k(   24) = (   0.2500000  -0.2500000   0.2500000), wk =   0.0625000
        k(   25) = (   0.2500000  -0.2500000  -0.5000000), wk =   0.0625000
        k(   26) = (   0.2500000  -0.2500000  -0.2500000), wk =   0.0625000
        k(   27) = (  -0.5000000   0.0000000   0.0000000), wk =   0.0312500
        k(   28) = (  -0.5000000  -0.0000000   0.2500000), wk =   0.0625000
        k(   29) = (  -0.5000000   0.0000000  -0.5000000), wk =   0.0312500
        k(   30) = (  -0.5000000   0.2500000   0.0000000), wk =   0.0625000
        k(   31) = (  -0.5000000   0.2500000   0.2500000), wk =   0.0625000
        k(   32) = (  -0.5000000   0.2500000  -0.5000000), wk =   0.0625000
        k(   33) = (  -0.5000000   0.2500000  -0.2500000), wk =   0.0625000
        k(   34) = (  -0.5000000  -0.5000000   0.0000000), wk =   0.0312500
        k(   35) = (  -0.5000000  -0.5000000   0.2500000), wk =   0.0625000
        k(   36) = (  -0.5000000  -0.5000000  -0.5000000), wk =   0.0312500

     Dense  grid:   106049 G-vectors     FFT dimensions: (  72,  72,  72)

     Smooth grid:    62119 G-vectors     FFT dimensions: (  60,  60,  60)

     Largest allocated arrays     est. size (Mb)     dimensions
        Kohn-Sham Wavefunctions         0.61 Mb     (     498,   80)
        NL pseudopotentials             2.19 Mb     (     498,  288)
        Each V/rho on FFT grid          0.40 Mb     (   25920)
        Each G-vector array             0.05 Mb     (    6629)
        G-vector shells                 0.05 Mb     (    6540)
     Largest temporary arrays     est. size (Mb)     dimensions
        Auxiliary wavefunctions         2.43 Mb     (     498,  320)
        Each subspace H/S matrix        1.56 Mb     (     320,  320)
        Each <psi_i|beta_j> matrix      0.35 Mb     (     288,   80)
        Arrays for rho mixing           3.16 Mb     (   25920,    8)

     Initial potential from superposition of free atoms

     starting charge  133.98851, renormalised to  134.00000
     Starting wfc are   99 randomized atomic wfcs

     total cpu time spent up to now is       13.0 secs

     Self-consistent Calculation

     iteration #  1     ecut=    35.00 Ry     beta=0.30
     Davidson diagonalization with overlap
     ethr =  1.00E-02,  avg # of iterations =  3.1

     Threshold (ethr) on eigenvalues was too large:
     Diagonalizing with lowered threshold

     Davidson diagonalization with overlap
     ethr =  2.82E-04,  avg # of iterations =  4.8

     total cpu time spent up to now is       95.6 secs

     total energy              =   -1578.30739205 Ry
     Harris-Foulkes estimate   =   -1578.34836172 Ry
     estimated scf accuracy    <       0.37685287 Ry

     iteration #  2     ecut=    35.00 Ry     beta=0.30
     Davidson diagonalization with overlap
     ethr =  2.81E-04,  avg # of iterations =  1.1

     total cpu time spent up to now is      121.0 secs

     total energy              =   -1578.22925076 Ry
     Harris-Foulkes estimate   =   -1578.30948941 Ry
     estimated scf accuracy    <       0.23129763 Ry

     iteration #  3     ecut=    35.00 Ry     beta=0.30
     Davidson diagonalization with overlap
     ethr =  1.73E-04,  avg # of iterations =  2.4

     total cpu time spent up to now is      153.1 secs

     total energy              =   -1578.24604356 Ry
     Harris-Foulkes estimate   =   -1578.24608204 Ry
     estimated scf accuracy    <       0.00321012 Ry

     iteration #  4     ecut=    35.00 Ry     beta=0.30
     Davidson diagonalization with overlap
     ethr =  2.40E-06,  avg # of iterations =  8.7

     total cpu time spent up to now is      227.2 secs

     total energy              =   -1578.24660557 Ry
     Harris-Foulkes estimate   =   -1578.24659857 Ry
     estimated scf accuracy    <       0.00167734 Ry

     iteration #  5     ecut=    35.00 Ry     beta=0.30
     Davidson diagonalization with overlap
     ethr =  1.25E-06,  avg # of iterations =  2.0

     total cpu time spent up to now is      260.5 secs

     total energy              =   -1578.24673804 Ry
     Harris-Foulkes estimate   =   -1578.24675612 Ry
     estimated scf accuracy    <       0.00009852 Ry

     iteration #  6     ecut=    35.00 Ry     beta=0.30
     Davidson diagonalization with overlap
     ethr =  7.35E-08,  avg # of iterations =  2.0

     total cpu time spent up to now is      290.3 secs

     total energy              =   -1578.24673140 Ry
     Harris-Foulkes estimate   =   -1578.24674542 Ry
     estimated scf accuracy    <       0.00003594 Ry

     iteration #  7     ecut=    35.00 Ry     beta=0.30
     Davidson diagonalization with overlap
     ethr =  2.68E-08,  avg # of iterations =  2.1

     total cpu time spent up to now is      323.0 secs

     total energy              =   -1578.24673681 Ry
     Harris-Foulkes estimate   =   -1578.24673637 Ry
     estimated scf accuracy    <       0.00000276 Ry

     iteration #  8     ecut=    35.00 Ry     beta=0.30
     Davidson diagonalization with overlap
     ethr =  2.06E-09,  avg # of iterations =  2.1

     total cpu time spent up to now is      352.6 secs

     total energy              =   -1578.24673681 Ry
     Harris-Foulkes estimate   =   -1578.24673699 Ry
     estimated scf accuracy    <       0.00000136 Ry

     iteration #  9     ecut=    35.00 Ry     beta=0.30
     Davidson diagonalization with overlap
     ethr =  1.02E-09,  avg # of iterations =  2.1

     total cpu time spent up to now is      385.8 secs

     total energy              =   -1578.24673711 Ry
     Harris-Foulkes estimate   =   -1578.24673710 Ry
     estimated scf accuracy    <       0.00000023 Ry

     iteration # 10     ecut=    35.00 Ry     beta=0.30
     Davidson diagonalization with overlap
     ethr =  1.75E-10,  avg # of iterations =  1.7

     total cpu time spent up to now is      413.4 secs

     total energy              =   -1578.24673712 Ry
     Harris-Foulkes estimate   =   -1578.24673713 Ry
     estimated scf accuracy    <       0.00000010 Ry

     iteration # 11     ecut=    35.00 Ry     beta=0.30
     Davidson diagonalization with overlap
     ethr =  7.11E-11,  avg # of iterations =  2.0

     total cpu time spent up to now is      446.0 secs

     total energy              =   -1578.24673715 Ry
     Harris-Foulkes estimate   =   -1578.24673714 Ry
     estimated scf accuracy    <          6.5E-09 Ry

     iteration # 12     ecut=    35.00 Ry     beta=0.30
     Davidson diagonalization with overlap
     ethr =  4.84E-12,  avg # of iterations =  2.5

     total cpu time spent up to now is      482.3 secs

     total energy              =   -1578.24673716 Ry
     Harris-Foulkes estimate   =   -1578.24673716 Ry
     estimated scf accuracy    <          4.6E-09 Ry

     iteration # 13     ecut=    35.00 Ry     beta=0.30
     Davidson diagonalization with overlap
     ethr =  3.47E-12,  avg # of iterations =  2.0

     total cpu time spent up to now is      513.8 secs

     End of self-consistent calculation

          k = 0.0000 0.0000 0.0000 (  7773 PWs)   bands (ev):

   -17.2993 -17.2873 -17.2013 -17.1766 -17.1700 -17.1267 -17.1135 -17.0900
   -17.0762 -17.0381 -17.0107 -17.0053 -16.9997 -16.9725 -16.9685 -16.9618
   -16.9175 -16.8946 -16.8783 -16.8718 -16.8509 -16.8135 -16.8100 -16.8024
   -16.7995 -16.7825 -16.7695 -16.7593 -16.7506 -16.7307 -16.7185 -16.7159
   -16.6972 -16.6900 -16.6478  -5.1393  -3.2376  -2.8918  -2.7088  -2.2840
    -1.3245  -1.2988  -0.9058  -0.7739  -0.6096  -0.5083  -0.0088   0.1454
     0.3284   0.3832   4.1185   4.3567   4.4599   4.5526   4.6257   4.6476
     5.7165   5.8286   6.0480   6.1885   6.2793   6.4186   6.4851   6.5280
     7.2730   7.5388   7.6107   7.6995   7.8329   7.9133   7.9904   8.1290
     8.2869   8.4585   8.5634   8.7222   8.8740   9.3993   9.9802  10.1384

     occupation numbers 
     1.0000   1.0000   1.0000   1.0000   1.0000   1.0000   1.0000   1.0000
     1.0000   1.0000   1.0000   1.0000   1.0000   1.0000   1.0000   1.0000
     1.0000   1.0000   1.0000   1.0000   1.0000   1.0000   1.0000   1.0000
     1.0000   1.0000   1.0000   1.0000   1.0000   1.0000   1.0000   1.0000
     1.0000   1.0000   1.0000   1.0000   1.0000   1.0000   1.0000   1.0000
     1.0000   1.0000   1.0000   1.0000   1.0000   1.0000   1.0000   1.0000
     1.0000   1.0000   1.0000   1.0000   1.0000   1.0000   1.0000   1.0000
     1.0000   1.0000   1.0000   1.0000   1.0000   1.0000   1.0000   1.0000
     0.9941   0.7508   0.5709   0.3312   0.0868   0.0276   0.0071   0.0003
     0.0000   0.0000   0.0000   0.0000   0.0000   0.0000   0.0000   0.0000

          k = 0.1743 0.1775-0.1694 (  7771 PWs)   bands (ev):

   -17.2995 -17.2873 -17.2014 -17.1764 -17.1686 -17.1268 -17.1139 -17.0907
   -17.0758 -17.0368 -17.0103 -17.0054 -16.9996 -16.9725 -16.9686 -16.9618
   -16.9179 -16.8945 -16.8776 -16.8714 -16.8506 -16.8136 -16.8111 -16.8022
   -16.7995 -16.7821 -16.7688 -16.7588 -16.7505 -16.7305 -16.7184 -16.7159
   -16.6968 -16.6902 -16.6480  -4.9535  -3.5439  -3.0624  -2.6122  -2.2299
    -2.1129  -1.5642  -1.4140  -0.3623   0.0652   0.1855   0.2737   0.5103
     0.6546   1.1302   3.6148   3.7602   3.9528   4.5360   4.6517   4.6848
     4.8022   4.9465   5.1334   5.5597   5.8130   5.9301   6.0260   6.4207
     6.5894   7.3145   7.3951   8.0880   8.3075   8.5124   8.7236   8.8674
     9.1148   9.2517   9.3644   9.5000   9.6254   9.7893  10.3310  10.5565

     occupation numbers 
     1.0000   1.0000   1.0000   1.0000   1.0000   1.0000   1.0000   1.0000
     1.0000   1.0000   1.0000   1.0000   1.0000   1.0000   1.0000   1.0000
     1.0000   1.0000   1.0000   1.0000   1.0000   1.0000   1.0000   1.0000
     1.0000   1.0000   1.0000   1.0000   1.0000   1.0000   1.0000   1.0000
     1.0000   1.0000   1.0000   1.0000   1.0000   1.0000   1.0000   1.0000
     1.0000   1.0000   1.0000   1.0000   1.0000   1.0000   1.0000   1.0000
     1.0000   1.0000   1.0000   1.0000   1.0000   1.0000   1.0000   1.0000
     1.0000   1.0000   1.0000   1.0000   1.0000   1.0000   1.0000   1.0000
     1.0000   0.9872   0.9528   0.0009   0.0000   0.0000   0.0000   0.0000
     0.0000   0.0000   0.0000   0.0000   0.0000   0.0000   0.0000   0.0000

          k =-0.3485-0.3550 0.3388 (  7784 PWs)   bands (ev):

   -17.3000 -17.2874 -17.2015 -17.1763 -17.1674 -17.1269 -17.1145 -17.0914
   -17.0755 -17.0356 -17.0101 -17.0057 -16.9996 -16.9726 -16.9687 -16.9618
   -16.9183 -16.8946 -16.8770 -16.8710 -16.8504 -16.8137 -16.8123 -16.8023
   -16.7996 -16.7818 -16.7683 -16.7583 -16.7506 -16.7305 -16.7182 -16.7161
   -16.6965 -16.6906 -16.6482  -4.5488  -4.1962  -2.8478  -2.6739  -2.4068
    -2.1011  -1.9166  -1.8316   0.1265   0.3963   0.5183   0.6560   0.8556
     1.0830   2.8247   3.0822   3.4392   3.5332   3.6111   3.6711   3.8846
     4.0932   4.9764   5.0893   5.1736   5.3157   5.4148   5.5647   6.7365
     6.7941   6.8478   7.0564   8.4139   8.8557   8.8782   9.0401   9.1367
     9.2496   9.3083   9.3532  10.7497  10.9734  11.1774  11.2084  11.2315

     occupation numbers 
     1.0000   1.0000   1.0000   1.0000   1.0000   1.0000   1.0000   1.0000
     1.0000   1.0000   1.0000   1.0000   1.0000   1.0000   1.0000   1.0000
     1.0000   1.0000   1.0000   1.0000   1.0000   1.0000   1.0000   1.0000
     1.0000   1.0000   1.0000   1.0000   1.0000   1.0000   1.0000   1.0000
     1.0000   1.0000   1.0000   1.0000   1.0000   1.0000   1.0000   1.0000
     1.0000   1.0000   1.0000   1.0000   1.0000   1.0000   1.0000   1.0000
     1.0000   1.0000   1.0000   1.0000   1.0000   1.0000   1.0000   1.0000
     1.0000   1.0000   1.0000   1.0000   1.0000   1.0000   1.0000   1.0000
     1.0000   1.0000   1.0000   0.0000   0.0000   0.0000   0.0000   0.0000
     0.0000   0.0000   0.0000   0.0000   0.0000   0.0000   0.0000   0.0000

          k = 0.1813-0.1789 0.1750 (  7754 PWs)   bands (ev):

   -17.2993 -17.2873 -17.2013 -17.1766 -17.1699 -17.1267 -17.1135 -17.0899
   -17.0762 -17.0381 -17.0104 -17.0054 -16.9997 -16.9724 -16.9687 -16.9619
   -16.9175 -16.8947 -16.8784 -16.8716 -16.8501 -16.8135 -16.8100 -16.8024
   -16.7996 -16.7835 -16.7695 -16.7596 -16.7503 -16.7303 -16.7186 -16.7155
   -16.6968 -16.6899 -16.6483  -4.9448  -3.5421  -2.8426  -2.7427  -2.4098
    -1.9482  -1.8216  -1.4888  -0.1551   0.0139   0.1427   0.3245   0.5433
     0.6932   1.2499   3.7620   3.9395   3.9698   4.3171   4.5873   4.7816
     4.8641   5.1067   5.2323   5.5194   5.7439   5.8300   5.9988   6.2289
     6.4884   7.0427   7.3554   7.8738   8.1626   8.2672   8.3672   9.0003
     9.1468   9.3338   9.4709   9.5239   9.6019   9.7554  10.4065  10.5870

     occupation numbers 
     1.0000   1.0000   1.0000   1.0000   1.0000   1.0000   1.0000   1.0000
     1.0000   1.0000   1.0000   1.0000   1.0000   1.0000   1.0000   1.0000
     1.0000   1.0000   1.0000   1.0000   1.0000   1.0000   1.0000   1.0000
     1.0000   1.0000   1.0000   1.0000   1.0000   1.0000   1.0000   1.0000
     1.0000   1.0000   1.0000   1.0000   1.0000   1.0000   1.0000   1.0000
     1.0000   1.0000   1.0000   1.0000   1.0000   1.0000   1.0000   1.0000
     1.0000   1.0000   1.0000   1.0000   1.0000   1.0000   1.0000   1.0000
     1.0000   1.0000   1.0000   1.0000   1.0000   1.0000   1.0000   1.0000
     1.0000   1.0000   0.9743   0.0501   0.0001   0.0000   0.0000   0.0000
     0.0000   0.0000   0.0000   0.0000   0.0000   0.0000   0.0000   0.0000

          k = 0.3555-0.0014 0.0056 (  7745 PWs)   bands (ev):

   -17.2996 -17.2874 -17.2015 -17.1766 -17.1688 -17.1269 -17.1141 -17.0908
   -17.0759 -17.0368 -17.0104 -17.0055 -16.9997 -16.9725 -16.9689 -16.9619
   -16.9180 -16.8947 -16.8776 -16.8713 -16.8501 -16.8137 -16.8112 -16.8026
   -16.7999 -16.7834 -16.7690 -16.7591 -16.7503 -16.7303 -16.7185 -16.7157
   -16.6965 -16.6903 -16.6487  -4.8786  -3.4074  -3.0970  -2.8070  -2.5646
    -2.4729  -1.0633  -0.9108  -0.7671  -0.5584   0.4432   0.6497   0.7994
     0.9238   1.4649   3.6135   3.9174   3.9863   4.0069   4.5739   4.6585
     4.7397   4.7954   4.9990   5.0977   5.7768   5.8774   6.0723   6.2375
     6.3006   6.6574   6.8302   7.9068   8.6571   8.8329   8.9779   9.1613
     9.3197   9.3986   9.5372   9.6264   9.8192   9.8834  10.6134  10.8729

     occupation numbers 
     1.0000   1.0000   1.0000   1.0000   1.0000   1.0000   1.0000   1.0000
     1.0000   1.0000   1.0000   1.0000   1.0000   1.0000   1.0000   1.0000
     1.0000   1.0000   1.0000   1.0000   1.0000   1.0000   1.0000   1.0000
     1.0000   1.0000   1.0000   1.0000   1.0000   1.0000   1.0000   1.0000
     1.0000   1.0000   1.0000   1.0000   1.0000   1.0000   1.0000   1.0000
     1.0000   1.0000   1.0000   1.0000   1.0000   1.0000   1.0000   1.0000
     1.0000   1.0000   1.0000   1.0000   1.0000   1.0000   1.0000   1.0000
     1.0000   1.0000   1.0000   1.0000   1.0000   1.0000   1.0000   1.0000
     1.0000   1.0000   1.0000   0.0305   0.0000   0.0000   0.0000   0.0000
     0.0000   0.0000   0.0000   0.0000   0.0000   0.0000   0.0000   0.0000

          k =-0.1672-0.5339 0.5138 (  7770 PWs)   bands (ev):

   -17.3001 -17.2874 -17.2015 -17.1763 -17.1675 -17.1270 -17.1146 -17.0915
   -17.0755 -17.0357 -17.0101 -17.0059 -16.9996 -16.9727 -16.9689 -16.9619
   -16.9184 -16.8946 -16.8769 -16.8709 -16.8498 -16.8138 -16.8123 -16.8026
   -16.7999 -16.7830 -16.7684 -16.7586 -16.7504 -16.7302 -16.7183 -16.7158
   -16.6961 -16.6906 -16.6490  -4.4855  -3.9321  -3.2874  -3.0379  -2.6685
    -2.0308  -1.6601  -1.3613  -0.1453   0.0278   0.3980   1.1464   1.2738
     2.0583   2.4325   3.0057   3.1953   3.4131   3.6791   4.0023   4.0578
     4.4132   4.4525   4.6276   5.0992   5.2227   5.2637   5.5017   5.6865
     6.2327   6.2893   6.7627   8.6128   9.0824   9.4937   9.6824   9.8560
    10.0198  10.1617  10.2981  10.4218  10.7261  10.8847  10.9716  11.1395

     occupation numbers 
     1.0000   1.0000   1.0000   1.0000   1.0000   1.0000   1.0000   1.0000
     1.0000   1.0000   1.0000   1.0000   1.0000   1.0000   1.0000   1.0000
     1.0000   1.0000   1.0000   1.0000   1.0000   1.0000   1.0000   1.0000
     1.0000   1.0000   1.0000   1.0000   1.0000   1.0000   1.0000   1.0000
     1.0000   1.0000   1.0000   1.0000   1.0000   1.0000   1.0000   1.0000
     1.0000   1.0000   1.0000   1.0000   1.0000   1.0000   1.0000   1.0000
     1.0000   1.0000   1.0000   1.0000   1.0000   1.0000   1.0000   1.0000
     1.0000   1.0000   1.0000   1.0000   1.0000   1.0000   1.0000   1.0000
     1.0000   1.0000   1.0000   0.0000   0.0000   0.0000   0.0000   0.0000
     0.0000   0.0000   0.0000   0.0000   0.0000   0.0000   0.0000   0.0000

          k = 0.0070-0.3564 0.3444 (  7777 PWs)   bands (ev):

   -17.2996 -17.2873 -17.2013 -17.1764 -17.1686 -17.1268 -17.1139 -17.0907
   -17.0757 -17.0368 -17.0101 -17.0056 -16.9995 -16.9726 -16.9687 -16.9619
   -16.9179 -16.8946 -16.8776 -16.8712 -16.8499 -16.8136 -16.8111 -16.8024
   -16.7997 -16.7831 -16.7689 -16.7590 -16.7504 -16.7302 -16.7184 -16.7156
   -16.6965 -16.6902 -16.6485  -4.6545  -3.7372  -3.4246  -2.6672  -2.4185
    -2.2413  -1.9025  -1.2874  -0.2655   0.1728   0.2769   0.9078   1.1901
     1.7024   1.8970   2.9393   3.5496   3.8342   3.8644   4.0803   4.3820
     4.4990   4.6843   4.9546   5.1769   5.2713   5.4131   5.6630   5.7990
     5.9177   6.0552   7.2638   8.4976   8.9129   9.2665   9.4784   9.6901
     9.8757   9.9686  10.0541  10.2321  10.4258  10.6771  10.7345  10.7691

     occupation numbers 
     1.0000   1.0000   1.0000   1.0000   1.0000   1.0000   1.0000   1.0000
     1.0000   1.0000   1.0000   1.0000   1.0000   1.0000   1.0000   1.0000
     1.0000   1.0000   1.0000   1.0000   1.0000   1.0000   1.0000   1.0000
     1.0000   1.0000   1.0000   1.0000   1.0000   1.0000   1.0000   1.0000
     1.0000   1.0000   1.0000   1.0000   1.0000   1.0000   1.0000   1.0000
     1.0000   1.0000   1.0000   1.0000   1.0000   1.0000   1.0000   1.0000
     1.0000   1.0000   1.0000   1.0000   1.0000   1.0000   1.0000   1.0000
     1.0000   1.0000   1.0000   1.0000   1.0000   1.0000   1.0000   1.0000
     1.0000   1.0000   0.9951   0.0000   0.0000   0.0000   0.0000   0.0000
     0.0000   0.0000   0.0000   0.0000   0.0000   0.0000   0.0000   0.0000

          k =-0.3626 0.3578-0.3500 (  7770 PWs)   bands (ev):

   -17.2993 -17.2874 -17.2012 -17.1767 -17.1699 -17.1267 -17.1135 -17.0899
   -17.0761 -17.0381 -17.0102 -17.0055 -16.9996 -16.9724 -16.9689 -16.9620
   -16.9176 -16.8948 -16.8783 -16.8714 -16.8494 -16.8136 -16.8100 -16.8026
   -16.7998 -16.7846 -16.7696 -16.7598 -16.7501 -16.7300 -16.7186 -16.7154
   -16.6964 -16.6898 -16.6489  -4.5234  -4.1637  -2.7168  -2.6069  -2.4490
    -2.2757  -2.1837  -1.9014   0.2933   0.4284   0.5306   0.6624   0.9142
     1.1188   3.0510   3.4097   3.5826   3.6398   3.7279   3.8841   3.9124
     4.0477   4.7611   4.9475   5.1008   5.2472   5.3188   5.4219   6.3515
     6.5328   6.8259   6.8892   8.4041   8.5157   8.5239   8.7040   8.8277
     8.9989   9.0885   9.1506  10.8404  10.9415  11.0959  11.3412  11.5834

     occupation numbers 
     1.0000   1.0000   1.0000   1.0000   1.0000   1.0000   1.0000   1.0000
     1.0000   1.0000   1.0000   1.0000   1.0000   1.0000   1.0000   1.0000
     1.0000   1.0000   1.0000   1.0000   1.0000   1.0000   1.0000   1.0000
     1.0000   1.0000   1.0000   1.0000   1.0000   1.0000   1.0000   1.0000
     1.0000   1.0000   1.0000   1.0000   1.0000   1.0000   1.0000   1.0000
     1.0000   1.0000   1.0000   1.0000   1.0000   1.0000   1.0000   1.0000
     1.0000   1.0000   1.0000   1.0000   1.0000   1.0000   1.0000   1.0000
     1.0000   1.0000   1.0000   1.0000   1.0000   1.0000   1.0000   1.0000
     1.0000   1.0000   1.0000   0.0000   0.0000   0.0000   0.0000   0.0000
     0.0000   0.0000   0.0000   0.0000   0.0000   0.0000   0.0000   0.0000

          k =-0.1883 0.5353-0.5194 (  7757 PWs)   bands (ev):

   -17.2997 -17.2874 -17.2015 -17.1765 -17.1687 -17.1270 -17.1141 -17.0908
   -17.0758 -17.0368 -17.0101 -17.0057 -16.9996 -16.9726 -16.9690 -16.9620
   -16.9181 -16.8948 -16.8775 -16.8711 -16.8493 -16.8138 -16.8112 -16.8029
   -16.8001 -16.7844 -16.7691 -16.7593 -16.7502 -16.7300 -16.7185 -16.7154
   -16.6961 -16.6902 -16.6493  -4.4677  -3.9058  -3.3460  -2.9498  -2.6604
    -2.1638  -1.7620  -1.3690  -0.0711   0.0842   0.3105   1.1778   1.3847
     2.0817   2.5207   3.1445   3.2738   3.4672   3.8292   3.9429   4.1818
     4.2419   4.4665   4.6556   4.9241   5.1274   5.2076   5.5139   5.5789
     6.0549   6.3047   6.7077   8.6841   9.1018   9.3240   9.4212   9.5201
     9.6463   9.8727  10.1261  10.3209  10.4984  10.6501  10.8999  11.2308

     occupation numbers 
     1.0000   1.0000   1.0000   1.0000   1.0000   1.0000   1.0000   1.0000
     1.0000   1.0000   1.0000   1.0000   1.0000   1.0000   1.0000   1.0000
     1.0000   1.0000   1.0000   1.0000   1.0000   1.0000   1.0000   1.0000
     1.0000   1.0000   1.0000   1.0000   1.0000   1.0000   1.0000   1.0000
     1.0000   1.0000   1.0000   1.0000   1.0000   1.0000   1.0000   1.0000
     1.0000   1.0000   1.0000   1.0000   1.0000   1.0000   1.0000   1.0000
     1.0000   1.0000   1.0000   1.0000   1.0000   1.0000   1.0000   1.0000
     1.0000   1.0000   1.0000   1.0000   1.0000   1.0000   1.0000   1.0000
     1.0000   1.0000   1.0000   0.0000   0.0000   0.0000   0.0000   0.0000
     0.0000   0.0000   0.0000   0.0000   0.0000   0.0000   0.0000   0.0000

          k =-0.7111 0.0029-0.0112 (  7758 PWs)   bands (ev):

   -17.3003 -17.2875 -17.2016 -17.1763 -17.1677 -17.1272 -17.1148 -17.0916
   -17.0756 -17.0358 -17.0100 -17.0061 -16.9997 -16.9728 -16.9691 -16.9621
   -16.9185 -16.8948 -16.8768 -16.8708 -16.8493 -16.8140 -16.8124 -16.8030
   -16.8003 -16.7843 -16.7687 -16.7589 -16.7503 -16.7300 -16.7184 -16.7155
   -16.6957 -16.6906 -16.6498  -4.2866  -3.8936  -3.4590  -3.0922  -2.7448
    -2.7243  -0.9348  -0.8495  -0.7009  -0.4729   1.2933   1.3890   1.6401
     1.8272   3.2269   3.3317   3.4002   3.4346   3.5116   3.5809   3.6933
     3.7030   3.7826   3.8987   5.1890   5.3655   5.5023   5.6792   5.7900
     6.0429   6.2371   6.3490   8.3709   8.4374   9.2587   9.5597   9.6883
     9.8222  10.2305  10.3687  11.3159  11.4126  11.6750  11.8287  11.9038

     occupation numbers 
     1.0000   1.0000   1.0000   1.0000   1.0000   1.0000   1.0000   1.0000
     1.0000   1.0000   1.0000   1.0000   1.0000   1.0000   1.0000   1.0000
     1.0000   1.0000   1.0000   1.0000   1.0000   1.0000   1.0000   1.0000
     1.0000   1.0000   1.0000   1.0000   1.0000   1.0000   1.0000   1.0000
     1.0000   1.0000   1.0000   1.0000   1.0000   1.0000   1.0000   1.0000
     1.0000   1.0000   1.0000   1.0000   1.0000   1.0000   1.0000   1.0000
     1.0000   1.0000   1.0000   1.0000   1.0000   1.0000   1.0000   1.0000
     1.0000   1.0000   1.0000   1.0000   1.0000   1.0000   1.0000   1.0000
     1.0000   1.0000   1.0000   0.0000   0.0000   0.0000   0.0000   0.0000
     0.0000   0.0000   0.0000   0.0000   0.0000   0.0000   0.0000   0.0000

          k =-0.1757 0.1806 0.1711 (  7764 PWs)   bands (ev):

   -17.2996 -17.2873 -17.2012 -17.1766 -17.1688 -17.1268 -17.1140 -17.0907
   -17.0759 -17.0369 -17.0106 -17.0055 -16.9997 -16.9726 -16.9688 -16.9619
   -16.9179 -16.8947 -16.8775 -16.8712 -16.8500 -16.8136 -16.8111 -16.8025
   -16.7995 -16.7833 -16.7689 -16.7591 -16.7503 -16.7304 -16.7185 -16.7157
   -16.6965 -16.6901 -16.6485  -4.9471  -3.5447  -2.9909  -2.7302  -2.2291
    -2.0250  -1.7080  -1.3773  -0.2770  -0.0054   0.0762   0.3018   0.5143
     0.7517   1.1856   3.6196   3.8756   3.9834   4.5109   4.5552   4.7730
     4.9054   4.9540   5.2465   5.5658   5.7424   5.9266   5.9533   6.2685
     6.5220   7.2017   7.4113   8.0652   8.1577   8.4268   8.5315   8.9055
     9.0741   9.2603   9.3856   9.4986   9.6362   9.7586  10.3445  10.5484

     occupation numbers 
     1.0000   1.0000   1.0000   1.0000   1.0000   1.0000   1.0000   1.0000
     1.0000   1.0000   1.0000   1.0000   1.0000   1.0000   1.0000   1.0000
     1.0000   1.0000   1.0000   1.0000   1.0000   1.0000   1.0000   1.0000
     1.0000   1.0000   1.0000   1.0000   1.0000   1.0000   1.0000   1.0000
     1.0000   1.0000   1.0000   1.0000   1.0000   1.0000   1.0000   1.0000
     1.0000   1.0000   1.0000   1.0000   1.0000   1.0000   1.0000   1.0000
     1.0000   1.0000   1.0000   1.0000   1.0000   1.0000   1.0000   1.0000
     1.0000   1.0000   1.0000   1.0000   1.0000   1.0000   1.0000   1.0000
     1.0000   0.9987   0.9407   0.0015   0.0002   0.0000   0.0000   0.0000
     0.0000   0.0000   0.0000   0.0000   0.0000   0.0000   0.0000   0.0000

          k =-0.0014 0.3581 0.0017 (  7762 PWs)   bands (ev):

   -17.2993 -17.2874 -17.2015 -17.1764 -17.1697 -17.1268 -17.1135 -17.0900
   -17.0759 -17.0380 -17.0105 -17.0053 -16.9997 -16.9725 -16.9687 -16.9619
   -16.9175 -16.8946 -16.8784 -16.8717 -16.8502 -16.8135 -16.8100 -16.8023
   -16.7995 -16.7834 -16.7696 -16.7596 -16.7503 -16.7306 -16.7187 -16.7156
   -16.6969 -16.6897 -16.6481  -4.8838  -3.3907  -3.0440  -2.8834  -2.5440
    -2.4224  -1.1982  -1.1164  -0.6498  -0.4493   0.5245   0.6374   0.7757
     1.0042   1.4280   3.7604   3.8523   3.9579   3.9949   4.3906   4.6761
     4.7418   5.0103   5.0347   5.0796   5.7426   5.8376   6.0025   6.1560
     6.3339   6.5511   6.8792   7.7705   8.6836   8.9832   9.0780   9.1515
     9.2719   9.3391   9.5442   9.6789   9.7906   9.8592  10.7430  11.0017

     occupation numbers 
     1.0000   1.0000   1.0000   1.0000   1.0000   1.0000   1.0000   1.0000
     1.0000   1.0000   1.0000   1.0000   1.0000   1.0000   1.0000   1.0000
     1.0000   1.0000   1.0000   1.0000   1.0000   1.0000   1.0000   1.0000
     1.0000   1.0000   1.0000   1.0000   1.0000   1.0000   1.0000   1.0000
     1.0000   1.0000   1.0000   1.0000   1.0000   1.0000   1.0000   1.0000
     1.0000   1.0000   1.0000   1.0000   1.0000   1.0000   1.0000   1.0000
     1.0000   1.0000   1.0000   1.0000   1.0000   1.0000   1.0000   1.0000
     1.0000   1.0000   1.0000   1.0000   1.0000   1.0000   1.0000   1.0000
     1.0000   1.0000   1.0000   0.1765   0.0000   0.0000   0.0000   0.0000
     0.0000   0.0000   0.0000   0.0000   0.0000   0.0000   0.0000   0.0000

          k =-0.5242-0.1744 0.5099 (  7764 PWs)   bands (ev):

   -17.2997 -17.2875 -17.2015 -17.1762 -17.1685 -17.1269 -17.1141 -17.0908
   -17.0755 -17.0367 -17.0103 -17.0056 -16.9996 -16.9726 -16.9689 -16.9619
   -16.9179 -16.8945 -16.8777 -16.8713 -16.8500 -16.8136 -16.8112 -16.8023
   -16.7996 -16.7831 -16.7689 -16.7590 -16.7503 -16.7306 -16.7186 -16.7157
   -16.6965 -16.6900 -16.6484  -4.5039  -3.9097  -3.2364  -3.1063  -2.4401
    -2.2596  -1.8076  -1.2147  -0.3476   0.2157   0.4516   1.0100   1.4900
     2.0694   2.3531   3.0579   3.2202   3.3509   3.7474   3.9840   4.0778
     4.3475   4.3966   4.6234   5.0353   5.1298   5.4008   5.5211   5.6033
     6.2290   6.3285   6.8016   8.5976   9.1860   9.4290   9.6916   9.8755
     9.9319  10.0871  10.1514  10.3919  10.5601  10.6914  10.8750  11.2306

     occupation numbers 
     1.0000   1.0000   1.0000   1.0000   1.0000   1.0000   1.0000   1.0000
     1.0000   1.0000   1.0000   1.0000   1.0000   1.0000   1.0000   1.0000
     1.0000   1.0000   1.0000   1.0000   1.0000   1.0000   1.0000   1.0000
     1.0000   1.0000   1.0000   1.0000   1.0000   1.0000   1.0000   1.0000
     1.0000   1.0000   1.0000   1.0000   1.0000   1.0000   1.0000   1.0000
     1.0000   1.0000   1.0000   1.0000   1.0000   1.0000   1.0000   1.0000
     1.0000   1.0000   1.0000   1.0000   1.0000   1.0000   1.0000   1.0000
     1.0000   1.0000   1.0000   1.0000   1.0000   1.0000   1.0000   1.0000
     1.0000   1.0000   1.0000   0.0000   0.0000   0.0000   0.0000   0.0000
     0.0000   0.0000   0.0000   0.0000   0.0000   0.0000   0.0000   0.0000

          k =-0.3499 0.0031 0.3405 (  7778 PWs)   bands (ev):

   -17.3000 -17.2874 -17.2013 -17.1765 -17.1677 -17.1268 -17.1146 -17.0915
   -17.0755 -17.0357 -17.0104 -17.0057 -16.9995 -16.9726 -16.9690 -16.9619
   -16.9183 -16.8947 -16.8770 -16.8708 -16.8498 -16.8137 -16.8123 -16.8025
   -16.7997 -16.7830 -16.7684 -16.7585 -16.7503 -16.7305 -16.7184 -16.7158
   -16.6961 -16.6903 -16.6488  -4.6541  -3.8220  -3.2815  -2.8408  -2.4527
    -2.1124  -1.7417  -1.3419  -0.2424   0.1296   0.3594   0.6974   1.2494
     1.6067   1.8880   2.8846   3.5320   3.7263   3.9544   4.1058   4.3977
     4.4521   4.6510   5.0002   5.1491   5.2675   5.5788   5.6977   5.8624
     5.8932   6.1057   7.3268   8.5931   9.0614   9.3676   9.4758   9.6831
     9.8020  10.0510  10.1843  10.2663  10.4412  10.6316  10.7342  10.8238

     occupation numbers 
     1.0000   1.0000   1.0000   1.0000   1.0000   1.0000   1.0000   1.0000
     1.0000   1.0000   1.0000   1.0000   1.0000   1.0000   1.0000   1.0000
     1.0000   1.0000   1.0000   1.0000   1.0000   1.0000   1.0000   1.0000
     1.0000   1.0000   1.0000   1.0000   1.0000   1.0000   1.0000   1.0000
     1.0000   1.0000   1.0000   1.0000   1.0000   1.0000   1.0000   1.0000
     1.0000   1.0000   1.0000   1.0000   1.0000   1.0000   1.0000   1.0000
     1.0000   1.0000   1.0000   1.0000   1.0000   1.0000   1.0000   1.0000
     1.0000   1.0000   1.0000   1.0000   1.0000   1.0000   1.0000   1.0000
     1.0000   1.0000   0.9841   0.0000   0.0000   0.0000   0.0000   0.0000
     0.0000   0.0000   0.0000   0.0000   0.0000   0.0000   0.0000   0.0000

          k = 0.0056 0.0017 0.3461 (  7791 PWs)   bands (ev):

   -17.2996 -17.2874 -17.2012 -17.1766 -17.1689 -17.1268 -17.1140 -17.0908
   -17.0759 -17.0369 -17.0103 -17.0056 -16.9996 -16.9726 -16.9687 -16.9619
   -16.9178 -16.8947 -16.8777 -16.8716 -16.8505 -16.8136 -16.8112 -16.8026
   -16.7997 -16.7821 -16.7689 -16.7589 -16.7505 -16.7304 -16.7185 -16.7160
   -16.6969 -16.6904 -16.6481  -4.8867  -3.3984  -3.1113  -2.7829  -2.6881
    -2.3928  -1.0788  -0.7420  -0.6638  -0.5011   0.2959   0.6271   0.7972
     0.8991   1.2724   3.6261   3.7871   3.9074   3.9821   4.3986   4.6384
     4.7711   4.8493   4.9559   5.0046   5.6956   6.1225   6.2762   6.3895
     6.5052   6.8034   6.8947   8.1006   8.6390   8.9268   9.0113   9.1777
     9.2432   9.4214   9.5347   9.6001   9.7817   9.9956  10.6190  10.7547

     occupation numbers 
     1.0000   1.0000   1.0000   1.0000   1.0000   1.0000   1.0000   1.0000
     1.0000   1.0000   1.0000   1.0000   1.0000   1.0000   1.0000   1.0000
     1.0000   1.0000   1.0000   1.0000   1.0000   1.0000   1.0000   1.0000
     1.0000   1.0000   1.0000   1.0000   1.0000   1.0000   1.0000   1.0000
     1.0000   1.0000   1.0000   1.0000   1.0000   1.0000   1.0000   1.0000
     1.0000   1.0000   1.0000   1.0000   1.0000   1.0000   1.0000   1.0000
     1.0000   1.0000   1.0000   1.0000   1.0000   1.0000   1.0000   1.0000
     1.0000   1.0000   1.0000   1.0000   1.0000   1.0000   1.0000   1.0000
     1.0000   1.0000   1.0000   0.0007   0.0000   0.0000   0.0000   0.0000
     0.0000   0.0000   0.0000   0.0000   0.0000   0.0000   0.0000   0.0000

          k = 0.1798 0.1792 0.1767 (  7747 PWs)   bands (ev):

   -17.2993 -17.2875 -17.2014 -17.1764 -17.1697 -17.1268 -17.1135 -17.0899
   -17.0760 -17.0379 -17.0104 -17.0054 -16.9996 -16.9724 -16.9685 -16.9618
   -16.9174 -16.8945 -16.8783 -16.8719 -16.8508 -16.8135 -16.8100 -16.8024
   -16.7996 -16.7824 -16.7695 -16.7593 -16.7503 -16.7304 -16.7185 -16.7158
   -16.6972 -16.6900 -16.6478  -4.9436  -3.5560  -2.8157  -2.7073  -2.4797
    -1.9221  -1.8288  -1.4872  -0.1504   0.0727   0.1561   0.2668   0.4195
     0.7474   1.3110   3.8295   3.9220   3.9752   4.2931   4.5290   4.7553
     5.0314   5.1177   5.1706   5.5226   5.7151   5.8898   6.0056   6.1134
     6.4522   7.0399   7.3188   7.8300   8.1094   8.2554   8.4236   8.9506
     9.1406   9.3374   9.4349   9.5823   9.6534   9.8824  10.4322  10.4936

     occupation numbers 
     1.0000   1.0000   1.0000   1.0000   1.0000   1.0000   1.0000   1.0000
     1.0000   1.0000   1.0000   1.0000   1.0000   1.0000   1.0000   1.0000
     1.0000   1.0000   1.0000   1.0000   1.0000   1.0000   1.0000   1.0000
     1.0000   1.0000   1.0000   1.0000   1.0000   1.0000   1.0000   1.0000
     1.0000   1.0000   1.0000   1.0000   1.0000   1.0000   1.0000   1.0000
     1.0000   1.0000   1.0000   1.0000   1.0000   1.0000   1.0000   1.0000
     1.0000   1.0000   1.0000   1.0000   1.0000   1.0000   1.0000   1.0000
     1.0000   1.0000   1.0000   1.0000   1.0000   1.0000   1.0000   1.0000
     1.0000   1.0000   0.9862   0.0900   0.0005   0.0000   0.0000   0.0000
     0.0000   0.0000   0.0000   0.0000   0.0000   0.0000   0.0000   0.0000

          k =-0.3429-0.3533 0.6849 (  7763 PWs)   bands (ev):

   -17.2997 -17.2875 -17.2015 -17.1763 -17.1685 -17.1269 -17.1140 -17.0907
   -17.0756 -17.0367 -17.0102 -17.0057 -16.9996 -16.9725 -16.9687 -16.9618
   -16.9179 -16.8946 -16.8776 -16.8716 -16.8506 -16.8136 -16.8112 -16.8023
   -16.7998 -16.7822 -16.7689 -16.7589 -16.7503 -16.7303 -16.7184 -16.7159
   -16.6968 -16.6904 -16.6482  -4.6441  -3.7510  -3.4734  -2.5835  -2.4431
    -2.2313  -1.8368  -1.3254  -0.4297   0.1757   0.3667   0.8713   1.1984
     1.7389   1.9491   2.9875   3.6370   3.7420   3.9402   3.9722   4.4057
     4.5298   4.5830   5.0005   5.1144   5.2418   5.4101   5.5612   5.8025
     5.9579   6.1130   7.3785   8.7011   9.0043   9.1471   9.3811   9.7106
     9.7933   9.9425  10.0263  10.1400  10.2612  10.4560  10.5648  10.6404

     occupation numbers 
     1.0000   1.0000   1.0000   1.0000   1.0000   1.0000   1.0000   1.0000
     1.0000   1.0000   1.0000   1.0000   1.0000   1.0000   1.0000   1.0000
     1.0000   1.0000   1.0000   1.0000   1.0000   1.0000   1.0000   1.0000
     1.0000   1.0000   1.0000   1.0000   1.0000   1.0000   1.0000   1.0000
     1.0000   1.0000   1.0000   1.0000   1.0000   1.0000   1.0000   1.0000
     1.0000   1.0000   1.0000   1.0000   1.0000   1.0000   1.0000   1.0000
     1.0000   1.0000   1.0000   1.0000   1.0000   1.0000   1.0000   1.0000
     1.0000   1.0000   1.0000   1.0000   1.0000   1.0000   1.0000   1.0000
     1.0000   1.0000   0.9631   0.0000   0.0000   0.0000   0.0000   0.0000
     0.0000   0.0000   0.0000   0.0000   0.0000   0.0000   0.0000   0.0000

          k =-0.1687-0.1758 0.5155 (  7784 PWs)   bands (ev):

   -17.3000 -17.2874 -17.2012 -17.1764 -17.1676 -17.1268 -17.1145 -17.0914
   -17.0754 -17.0357 -17.0100 -17.0058 -16.9995 -16.9726 -16.9689 -16.9619
   -16.9182 -16.8946 -16.8770 -16.8711 -16.8503 -16.8137 -16.8123 -16.8024
   -16.7998 -16.7817 -16.7682 -16.7583 -16.7505 -16.7303 -16.7183 -16.7160
   -16.6965 -16.6906 -16.6484  -4.4948  -3.9276  -3.3556  -2.9819  -2.7057
    -1.9491  -1.6247  -1.3396  -0.1356   0.1588   0.3929   0.9066   1.3220
     1.9928   2.3593   2.9821   3.1639   3.1978   3.7398   3.8275   3.9791
     4.3855   4.4976   4.7599   5.0652   5.2743   5.4624   5.6631   5.7374
     6.2207   6.3645   6.9440   8.8247   9.2876   9.5182   9.7269   9.8141
    10.0603  10.1149  10.3200  10.4832  10.7622  10.9194  11.1212  11.1643

     occupation numbers 
     1.0000   1.0000   1.0000   1.0000   1.0000   1.0000   1.0000   1.0000
     1.0000   1.0000   1.0000   1.0000   1.0000   1.0000   1.0000   1.0000
     1.0000   1.0000   1.0000   1.0000   1.0000   1.0000   1.0000   1.0000
     1.0000   1.0000   1.0000   1.0000   1.0000   1.0000   1.0000   1.0000
     1.0000   1.0000   1.0000   1.0000   1.0000   1.0000   1.0000   1.0000
     1.0000   1.0000   1.0000   1.0000   1.0000   1.0000   1.0000   1.0000
     1.0000   1.0000   1.0000   1.0000   1.0000   1.0000   1.0000   1.0000
     1.0000   1.0000   1.0000   1.0000   1.0000   1.0000   1.0000   1.0000
     1.0000   1.0000   1.0000   0.0000   0.0000   0.0000   0.0000   0.0000
     0.0000   0.0000   0.0000   0.0000   0.0000   0.0000   0.0000   0.0000

          k =-0.5383 0.5384-0.1789 (  7769 PWs)   bands (ev):

   -17.2996 -17.2874 -17.2011 -17.1766 -17.1688 -17.1267 -17.1140 -17.0907
   -17.0757 -17.0368 -17.0101 -17.0057 -16.9995 -16.9724 -16.9687 -16.9620
   -16.9177 -16.8947 -16.8776 -16.8713 -16.8498 -16.8136 -16.8111 -16.8026
   -16.8000 -16.7831 -16.7688 -16.7591 -16.7502 -16.7300 -16.7184 -16.7156
   -16.6964 -16.6902 -16.6487  -4.4795  -3.8905  -3.3940  -2.9719  -2.6576
    -2.0976  -1.6517  -1.4010  -0.0066   0.1258   0.3271   1.0293   1.3002
     2.0604   2.4699   3.0519   3.2791   3.3677   3.6875   3.9611   4.0523
     4.1932   4.4638   4.7118   4.8320   5.3164   5.4372   5.6589   5.7311
     6.1207   6.2916   6.8221   8.7325   9.0650   9.2056   9.4204   9.6152
     9.7281   9.9532  10.2676  10.4771  10.7887  11.0934  11.1921  11.2600

     occupation numbers 
     1.0000   1.0000   1.0000   1.0000   1.0000   1.0000   1.0000   1.0000
     1.0000   1.0000   1.0000   1.0000   1.0000   1.0000   1.0000   1.0000
     1.0000   1.0000   1.0000   1.0000   1.0000   1.0000   1.0000   1.0000
     1.0000   1.0000   1.0000   1.0000   1.0000   1.0000   1.0000   1.0000
     1.0000   1.0000   1.0000   1.0000   1.0000   1.0000   1.0000   1.0000
     1.0000   1.0000   1.0000   1.0000   1.0000   1.0000   1.0000   1.0000
     1.0000   1.0000   1.0000   1.0000   1.0000   1.0000   1.0000   1.0000
     1.0000   1.0000   1.0000   1.0000   1.0000   1.0000   1.0000   1.0000
     1.0000   1.0000   1.0000   0.0000   0.0000   0.0000   0.0000   0.0000
     0.0000   0.0000   0.0000   0.0000   0.0000   0.0000   0.0000   0.0000

          k =-0.3640 0.7159-0.3483 (  7750 PWs)   bands (ev):

   -17.2993 -17.2874 -17.2015 -17.1765 -17.1698 -17.1268 -17.1136 -17.0900
   -17.0759 -17.0380 -17.0103 -17.0056 -16.9997 -16.9724 -16.9687 -16.9619
   -16.9175 -16.8946 -16.8784 -16.8718 -16.8501 -16.8136 -16.8100 -16.8027
   -16.7998 -16.7835 -16.7696 -16.7596 -16.7500 -16.7302 -16.7186 -16.7156
   -16.6968 -16.6900 -16.6484  -4.6346  -3.8152  -3.2048  -2.6888  -2.5370
    -2.2761  -2.1025  -1.1776  -0.2022   0.0911   0.2560   0.9378   1.2061
     1.8735   1.9764   3.0701   3.6722   3.8249   3.9837   4.1010   4.5361
     4.5832   4.6175   4.6866   5.1477   5.3028   5.4212   5.5825   5.6138
     5.6896   6.0381   7.0239   8.1070   9.0574   9.1371   9.2409   9.4662
     9.6909   9.9650  10.1074  10.3796  10.5010  10.5604  10.7019  10.8302

     occupation numbers 
     1.0000   1.0000   1.0000   1.0000   1.0000   1.0000   1.0000   1.0000
     1.0000   1.0000   1.0000   1.0000   1.0000   1.0000   1.0000   1.0000
     1.0000   1.0000   1.0000   1.0000   1.0000   1.0000   1.0000   1.0000
     1.0000   1.0000   1.0000   1.0000   1.0000   1.0000   1.0000   1.0000
     1.0000   1.0000   1.0000   1.0000   1.0000   1.0000   1.0000   1.0000
     1.0000   1.0000   1.0000   1.0000   1.0000   1.0000   1.0000   1.0000
     1.0000   1.0000   1.0000   1.0000   1.0000   1.0000   1.0000   1.0000
     1.0000   1.0000   1.0000   1.0000   1.0000   1.0000   1.0000   1.0000
     1.0000   1.0000   1.0000   0.0006   0.0000   0.0000   0.0000   0.0000
     0.0000   0.0000   0.0000   0.0000   0.0000   0.0000   0.0000   0.0000

          k =-0.8868 0.1835 0.1599 (  7763 PWs)   bands (ev):

   -17.2997 -17.2876 -17.2016 -17.1763 -17.1686 -17.1270 -17.1141 -17.0908
   -17.0757 -17.0368 -17.0101 -17.0058 -16.9997 -16.9725 -16.9690 -16.9619
   -16.9180 -16.8946 -16.8775 -16.8714 -16.8500 -16.8137 -16.8112 -16.8028
   -16.8001 -16.7833 -16.7691 -16.7592 -16.7502 -16.7302 -16.7184 -16.7156
   -16.6965 -16.6904 -16.6488  -4.4658  -3.9045  -3.3589  -2.9087  -2.7309
    -2.1203  -1.6890  -1.4563  -0.0999   0.0762   0.4373   1.0617   1.3091
     2.1758   2.5796   3.2251   3.2392   3.3885   3.8116   4.0441   4.1073
     4.2768   4.5033   4.6913   4.9072   4.9917   5.3896   5.4781   5.6158
     5.9151   6.2852   6.6538   8.5246   8.9241   9.1712   9.2427   9.5758
     9.8017  10.0307  10.2719  10.5615  10.6870  10.8838  11.0935  11.2050

     occupation numbers 
     1.0000   1.0000   1.0000   1.0000   1.0000   1.0000   1.0000   1.0000
     1.0000   1.0000   1.0000   1.0000   1.0000   1.0000   1.0000   1.0000
     1.0000   1.0000   1.0000   1.0000   1.0000   1.0000   1.0000   1.0000
     1.0000   1.0000   1.0000   1.0000   1.0000   1.0000   1.0000   1.0000
     1.0000   1.0000   1.0000   1.0000   1.0000   1.0000   1.0000   1.0000
     1.0000   1.0000   1.0000   1.0000   1.0000   1.0000   1.0000   1.0000
     1.0000   1.0000   1.0000   1.0000   1.0000   1.0000   1.0000   1.0000
     1.0000   1.0000   1.0000   1.0000   1.0000   1.0000   1.0000   1.0000
     1.0000   1.0000   1.0000   0.0000   0.0000   0.0000   0.0000   0.0000
     0.0000   0.0000   0.0000   0.0000   0.0000   0.0000   0.0000   0.0000

          k =-0.7125 0.3609-0.0095 (  7778 PWs)   bands (ev):

   -17.3000 -17.2875 -17.2013 -17.1764 -17.1676 -17.1269 -17.1145 -17.0914
   -17.0755 -17.0357 -17.0099 -17.0060 -16.9995 -16.9727 -16.9690 -16.9620
   -16.9183 -16.8947 -16.8768 -16.8709 -16.8497 -16.8137 -16.8123 -16.8027
   -16.8001 -16.7830 -16.7684 -16.7586 -16.7503 -16.7299 -16.7183 -16.7156
   -16.6960 -16.6906 -16.6491  -4.1993  -3.8572  -3.7002  -3.4869  -2.0837
    -1.9782  -1.8842  -1.5447   0.1587   0.2775   0.3729   0.6889   2.3607
     2.5868   2.7736   2.8532   2.9604   3.0741   3.1811   3.3031   4.3921
     4.4228   4.6298   4.7378   4.8067   4.8747   4.9159   5.0964   5.8216
     6.0407   6.1252   6.2536   9.5930   9.6640   9.7647   9.9667  10.0593
    10.1483  10.2216  10.5030  10.8669  10.9533  10.9875  11.2456  11.3311

     occupation numbers 
     1.0000   1.0000   1.0000   1.0000   1.0000   1.0000   1.0000   1.0000
     1.0000   1.0000   1.0000   1.0000   1.0000   1.0000   1.0000   1.0000
     1.0000   1.0000   1.0000   1.0000   1.0000   1.0000   1.0000   1.0000
     1.0000   1.0000   1.0000   1.0000   1.0000   1.0000   1.0000   1.0000
     1.0000   1.0000   1.0000   1.0000   1.0000   1.0000   1.0000   1.0000
     1.0000   1.0000   1.0000   1.0000   1.0000   1.0000   1.0000   1.0000
     1.0000   1.0000   1.0000   1.0000   1.0000   1.0000   1.0000   1.0000
     1.0000   1.0000   1.0000   1.0000   1.0000   1.0000   1.0000   1.0000
     1.0000   1.0000   1.0000   0.0000   0.0000   0.0000   0.0000   0.0000
     0.0000   0.0000   0.0000   0.0000   0.0000   0.0000   0.0000   0.0000

          k =-0.3570 0.3595-0.0039 (  7751 PWs)   bands (ev):

   -17.2996 -17.2873 -17.2013 -17.1767 -17.1688 -17.1268 -17.1140 -17.0907
   -17.0759 -17.0369 -17.0103 -17.0056 -16.9997 -16.9725 -16.9689 -16.9620
   -16.9179 -16.8949 -16.8776 -16.8711 -16.8493 -16.8137 -16.8110 -16.8026
   -16.7998 -16.7845 -16.7690 -16.7592 -16.7500 -16.7301 -16.7185 -16.7154
   -16.6961 -16.6899 -16.6491  -4.6352  -3.7259  -3.4954  -2.6850  -2.3041
    -2.1730  -2.0146  -1.2878  -0.4253   0.1340   0.3507   0.9326   1.2162
     1.7714   1.9561   2.9859   3.6704   3.7767   3.9243   4.0620   4.4413
     4.5350   4.6329   4.9995   5.0612   5.2629   5.3698   5.5321   5.7004
     5.8880   6.1747   7.3328   8.4977   8.9514   9.2028   9.4184   9.5782
     9.7226   9.8298   9.9497  10.0935  10.2387  10.3985  10.6288  10.7332

     occupation numbers 
     1.0000   1.0000   1.0000   1.0000   1.0000   1.0000   1.0000   1.0000
     1.0000   1.0000   1.0000   1.0000   1.0000   1.0000   1.0000   1.0000
     1.0000   1.0000   1.0000   1.0000   1.0000   1.0000   1.0000   1.0000
     1.0000   1.0000   1.0000   1.0000   1.0000   1.0000   1.0000   1.0000
     1.0000   1.0000   1.0000   1.0000   1.0000   1.0000   1.0000   1.0000
     1.0000   1.0000   1.0000   1.0000   1.0000   1.0000   1.0000   1.0000
     1.0000   1.0000   1.0000   1.0000   1.0000   1.0000   1.0000   1.0000
     1.0000   1.0000   1.0000   1.0000   1.0000   1.0000   1.0000   1.0000
     1.0000   1.0000   0.9823   0.0000   0.0000   0.0000   0.0000   0.0000
     0.0000   0.0000   0.0000   0.0000   0.0000   0.0000   0.0000   0.0000

          k =-0.1827 0.5370-0.1733 (  7764 PWs)   bands (ev):

   -17.2992 -17.2874 -17.2014 -17.1764 -17.1698 -17.1268 -17.1135 -17.0899
   -17.0758 -17.0380 -17.0102 -17.0055 -16.9996 -16.9725 -16.9688 -16.9619
   -16.9175 -16.8946 -16.8783 -16.8714 -16.8494 -16.8135 -16.8099 -16.8023
   -16.7997 -16.7845 -16.7696 -16.7597 -16.7500 -16.7304 -16.7186 -16.7153
   -16.6965 -16.6896 -16.6486  -4.4945  -3.8631  -3.2501  -2.9642  -2.8411
    -2.0090  -1.6900  -1.5843  -0.0832   0.0726   0.4886   1.1181   1.2796
     2.2223   2.5348   3.1646   3.2457   3.3411   3.8689   4.0578   4.1060
     4.4219   4.4724   4.7311   4.8611   5.1285   5.1922   5.4780   5.6189
     5.9255   6.2435   6.4755   8.4557   8.7047   9.2417   9.4829   9.7099
     9.9195  10.2043  10.3510  10.4686  10.8775  11.0150  11.1289  11.1766

     occupation numbers 
     1.0000   1.0000   1.0000   1.0000   1.0000   1.0000   1.0000   1.0000
     1.0000   1.0000   1.0000   1.0000   1.0000   1.0000   1.0000   1.0000
     1.0000   1.0000   1.0000   1.0000   1.0000   1.0000   1.0000   1.0000
     1.0000   1.0000   1.0000   1.0000   1.0000   1.0000   1.0000   1.0000
     1.0000   1.0000   1.0000   1.0000   1.0000   1.0000   1.0000   1.0000
     1.0000   1.0000   1.0000   1.0000   1.0000   1.0000   1.0000   1.0000
     1.0000   1.0000   1.0000   1.0000   1.0000   1.0000   1.0000   1.0000
     1.0000   1.0000   1.0000   1.0000   1.0000   1.0000   1.0000   1.0000
     1.0000   1.0000   1.0000   0.0000   0.0000   0.0000   0.0000   0.0000
     0.0000   0.0000   0.0000   0.0000   0.0000   0.0000   0.0000   0.0000

          k =-0.7055 0.0045 0.3349 (  7751 PWs)   bands (ev):

   -17.2997 -17.2876 -17.2015 -17.1762 -17.1686 -17.1269 -17.1141 -17.0908
   -17.0757 -17.0367 -17.0102 -17.0057 -16.9996 -16.9726 -16.9690 -16.9620
   -16.9180 -16.8946 -16.8775 -16.8710 -16.8493 -16.8137 -16.8110 -16.8026
   -16.7998 -16.7844 -16.7691 -16.7593 -16.7501 -16.7304 -16.7185 -16.7154
   -16.6961 -16.6900 -16.6491  -4.2586  -3.8182  -3.6321  -3.3937  -2.2806
    -2.0496  -1.8372  -1.6556   0.1686   0.3277   0.4369   0.7183   2.4423
     2.7608   2.7955   2.9393   3.0127   3.1808   3.2510   3.3712   4.3511
     4.4650   4.5462   4.6587   4.7246   4.7894   4.8417   4.9063   5.7112
     6.0280   6.0930   6.1371   9.3456   9.5080   9.6619   9.7880   9.9189
    10.0566  10.3728  10.4489  10.6845  10.7845  10.9097  11.0844  11.3746

     occupation numbers 
     1.0000   1.0000   1.0000   1.0000   1.0000   1.0000   1.0000   1.0000
     1.0000   1.0000   1.0000   1.0000   1.0000   1.0000   1.0000   1.0000
     1.0000   1.0000   1.0000   1.0000   1.0000   1.0000   1.0000   1.0000
     1.0000   1.0000   1.0000   1.0000   1.0000   1.0000   1.0000   1.0000
     1.0000   1.0000   1.0000   1.0000   1.0000   1.0000   1.0000   1.0000
     1.0000   1.0000   1.0000   1.0000   1.0000   1.0000   1.0000   1.0000
     1.0000   1.0000   1.0000   1.0000   1.0000   1.0000   1.0000   1.0000
     1.0000   1.0000   1.0000   1.0000   1.0000   1.0000   1.0000   1.0000
     1.0000   1.0000   1.0000   0.0000   0.0000   0.0000   0.0000   0.0000
     0.0000   0.0000   0.0000   0.0000   0.0000   0.0000   0.0000   0.0000

          k =-0.5312 0.1820 0.1655 (  7742 PWs)   bands (ev):

   -17.3000 -17.2874 -17.2014 -17.1765 -17.1677 -17.1269 -17.1146 -17.0914
   -17.0756 -17.0357 -17.0102 -17.0058 -16.9996 -16.9727 -16.9692 -16.9620
   -16.9184 -16.8948 -16.8768 -16.8706 -16.8491 -16.8138 -16.8123 -16.8028
   -16.7999 -16.7843 -16.7686 -16.7587 -16.7501 -16.7301 -16.7184 -16.7155
   -16.6957 -16.6903 -16.6495  -4.4701  -3.9190  -3.3630  -2.9305  -2.7589
    -1.9933  -1.5972  -1.4830  -0.1406   0.0067   0.4763   1.0240   1.2741
     2.2208   2.4480   3.0990   3.2151   3.2826   3.8228   3.9811   4.1535
     4.4156   4.5007   4.6692   5.0347   5.1824   5.2981   5.4310   5.6327
     6.0528   6.2772   6.6854   8.5963   8.8603   9.3926   9.5979   9.7499
     9.9342  10.1684  10.2868  10.4339  10.7975  10.9257  11.0488  11.2108

     occupation numbers 
     1.0000   1.0000   1.0000   1.0000   1.0000   1.0000   1.0000   1.0000
     1.0000   1.0000   1.0000   1.0000   1.0000   1.0000   1.0000   1.0000
     1.0000   1.0000   1.0000   1.0000   1.0000   1.0000   1.0000   1.0000
     1.0000   1.0000   1.0000   1.0000   1.0000   1.0000   1.0000   1.0000
     1.0000   1.0000   1.0000   1.0000   1.0000   1.0000   1.0000   1.0000
     1.0000   1.0000   1.0000   1.0000   1.0000   1.0000   1.0000   1.0000
     1.0000   1.0000   1.0000   1.0000   1.0000   1.0000   1.0000   1.0000
     1.0000   1.0000   1.0000   1.0000   1.0000   1.0000   1.0000   1.0000
     1.0000   1.0000   1.0000   0.0000   0.0000   0.0000   0.0000   0.0000
     0.0000   0.0000   0.0000   0.0000   0.0000   0.0000   0.0000   0.0000

          k = 0.3514-0.3612-0.3422 (  7752 PWs)   bands (ev):

   -17.3000 -17.2874 -17.2012 -17.1768 -17.1678 -17.1270 -17.1145 -17.0915
   -17.0757 -17.0358 -17.0105 -17.0057 -16.9997 -16.9727 -16.9693 -16.9621
   -16.9183 -16.8949 -16.8769 -16.8707 -16.8492 -16.8139 -16.8122 -16.8027
   -16.7997 -16.7843 -16.7686 -16.7586 -16.7500 -16.7303 -16.7185 -16.7156
   -16.6958 -16.6901 -16.6493  -4.5099  -4.2142  -2.8757  -2.6773  -2.3109
    -2.1780  -2.0255  -1.8098   0.1988   0.3978   0.4299   0.5554   0.8835
     1.1953   3.0039   3.1468   3.4657   3.5759   3.7427   3.8292   3.9225
     4.0640   4.9819   5.0481   5.1978   5.2855   5.3055   5.4175   6.4144
     6.6022   6.9589   7.0441   8.5012   8.6105   8.7793   8.8208   8.9589
     9.0271   9.1956   9.2657  10.8118  10.8488  11.0952  11.1791  11.3783

     occupation numbers 
     1.0000   1.0000   1.0000   1.0000   1.0000   1.0000   1.0000   1.0000
     1.0000   1.0000   1.0000   1.0000   1.0000   1.0000   1.0000   1.0000
     1.0000   1.0000   1.0000   1.0000   1.0000   1.0000   1.0000   1.0000
     1.0000   1.0000   1.0000   1.0000   1.0000   1.0000   1.0000   1.0000
     1.0000   1.0000   1.0000   1.0000   1.0000   1.0000   1.0000   1.0000
     1.0000   1.0000   1.0000   1.0000   1.0000   1.0000   1.0000   1.0000
     1.0000   1.0000   1.0000   1.0000   1.0000   1.0000   1.0000   1.0000
     1.0000   1.0000   1.0000   1.0000   1.0000   1.0000   1.0000   1.0000
     1.0000   1.0000   1.0000   0.0000   0.0000   0.0000   0.0000   0.0000
     0.0000   0.0000   0.0000   0.0000   0.0000   0.0000   0.0000   0.0000

          k = 0.5256-0.1837-0.5116 (  7774 PWs)   bands (ev):

   -17.2997 -17.2875 -17.2014 -17.1764 -17.1687 -17.1269 -17.1141 -17.0907
   -17.0757 -17.0368 -17.0105 -17.0056 -16.9996 -16.9726 -16.9690 -16.9620
   -16.9178 -16.8947 -16.8776 -16.8711 -16.8493 -16.8137 -16.8110 -16.8026
   -16.7996 -16.7844 -16.7690 -16.7592 -16.7500 -16.7306 -16.7186 -16.7155
   -16.6961 -16.6899 -16.6489  -4.4855  -3.9121  -3.3160  -3.0187  -2.4448
    -2.2794  -1.8496  -1.2181  -0.2965   0.1082   0.4855   1.0496   1.4768
     2.0410   2.4528   3.1088   3.2749   3.4667   3.7374   4.0239   4.1240
     4.2886   4.4408   4.5594   4.9351   5.1795   5.3091   5.4627   5.6388
     6.1715   6.2624   6.8033   8.6149   9.1234   9.4124   9.5863   9.7192
     9.7958   9.9726  10.0641  10.1592  10.4684  10.6083  10.8523  11.2454

     occupation numbers 
     1.0000   1.0000   1.0000   1.0000   1.0000   1.0000   1.0000   1.0000
     1.0000   1.0000   1.0000   1.0000   1.0000   1.0000   1.0000   1.0000
     1.0000   1.0000   1.0000   1.0000   1.0000   1.0000   1.0000   1.0000
     1.0000   1.0000   1.0000   1.0000   1.0000   1.0000   1.0000   1.0000
     1.0000   1.0000   1.0000   1.0000   1.0000   1.0000   1.0000   1.0000
     1.0000   1.0000   1.0000   1.0000   1.0000   1.0000   1.0000   1.0000
     1.0000   1.0000   1.0000   1.0000   1.0000   1.0000   1.0000   1.0000
     1.0000   1.0000   1.0000   1.0000   1.0000   1.0000   1.0000   1.0000
     1.0000   1.0000   1.0000   0.0000   0.0000   0.0000   0.0000   0.0000
     0.0000   0.0000   0.0000   0.0000   0.0000   0.0000   0.0000   0.0000

          k = 0.0029-0.7161-0.0033 (  7744 PWs)   bands (ev):

   -17.2993 -17.2875 -17.2016 -17.1762 -17.1696 -17.1269 -17.1136 -17.0899
   -17.0756 -17.0379 -17.0104 -17.0054 -16.9996 -16.9725 -16.9688 -16.9619
   -16.9174 -16.8946 -16.8784 -16.8715 -16.8496 -16.8136 -16.8099 -16.8022
   -16.7995 -16.7845 -16.7696 -16.7597 -16.7500 -16.7307 -16.7187 -16.7154
   -16.6965 -16.6895 -16.6485  -4.3725  -3.7076  -3.4523  -3.0625  -2.9725
    -2.6045  -1.0972  -1.0643  -0.5304  -0.3496   1.3240   1.4508   1.6422
     1.9208   3.2006   3.2948   3.3386   3.4450   3.5007   3.6299   3.7204
     3.7582   3.8104   3.9705   5.0251   5.2168   5.4378   5.7523   5.8675
     6.0137   6.1937   6.2585   8.2225   8.3918   9.2157   9.3671   9.7343
     9.8854  10.3945  10.4370  11.5774  11.8213  11.8438  11.9307  11.9769

     occupation numbers 
     1.0000   1.0000   1.0000   1.0000   1.0000   1.0000   1.0000   1.0000
     1.0000   1.0000   1.0000   1.0000   1.0000   1.0000   1.0000   1.0000
     1.0000   1.0000   1.0000   1.0000   1.0000   1.0000   1.0000   1.0000
     1.0000   1.0000   1.0000   1.0000   1.0000   1.0000   1.0000   1.0000
     1.0000   1.0000   1.0000   1.0000   1.0000   1.0000   1.0000   1.0000
     1.0000   1.0000   1.0000   1.0000   1.0000   1.0000   1.0000   1.0000
     1.0000   1.0000   1.0000   1.0000   1.0000   1.0000   1.0000   1.0000
     1.0000   1.0000   1.0000   1.0000   1.0000   1.0000   1.0000   1.0000
     1.0000   1.0000   1.0000   0.0000   0.0000   0.0000   0.0000   0.0000
     0.0000   0.0000   0.0000   0.0000   0.0000   0.0000   0.0000   0.0000

          k = 0.5327-0.5401-0.1672 (  7772 PWs)   bands (ev):

   -17.2998 -17.2874 -17.2012 -17.1767 -17.1678 -17.1268 -17.1145 -17.0914
   -17.0756 -17.0357 -17.0102 -17.0056 -16.9996 -16.9726 -16.9691 -16.9620
   -16.9182 -16.8948 -16.8769 -16.8709 -16.8497 -16.8137 -16.8123 -16.8026
   -16.7998 -16.7829 -16.7684 -16.7585 -16.7502 -16.7302 -16.7184 -16.7157
   -16.6961 -16.6904 -16.6489  -4.4782  -3.9230  -3.3837  -2.9858  -2.6891
    -1.9876  -1.5899  -1.3831  -0.0380   0.1048   0.2674   0.9876   1.3064
     2.0344   2.4118   2.9721   3.2301   3.3699   3.6225   3.9105   4.0932
     4.2904   4.4935   4.7036   4.9975   5.2906   5.5157   5.6213   5.7322
     6.1450   6.3157   6.8852   8.7273   9.0775   9.3520   9.5654   9.7414
     9.8384  10.1564  10.3225  10.5012  10.8861  11.0034  11.1202  11.2095

     occupation numbers 
     1.0000   1.0000   1.0000   1.0000   1.0000   1.0000   1.0000   1.0000
     1.0000   1.0000   1.0000   1.0000   1.0000   1.0000   1.0000   1.0000
     1.0000   1.0000   1.0000   1.0000   1.0000   1.0000   1.0000   1.0000
     1.0000   1.0000   1.0000   1.0000   1.0000   1.0000   1.0000   1.0000
     1.0000   1.0000   1.0000   1.0000   1.0000   1.0000   1.0000   1.0000
     1.0000   1.0000   1.0000   1.0000   1.0000   1.0000   1.0000   1.0000
     1.0000   1.0000   1.0000   1.0000   1.0000   1.0000   1.0000   1.0000
     1.0000   1.0000   1.0000   1.0000   1.0000   1.0000   1.0000   1.0000
     1.0000   1.0000   1.0000   0.0000   0.0000   0.0000   0.0000   0.0000
     0.0000   0.0000   0.0000   0.0000   0.0000   0.0000   0.0000   0.0000

          k = 0.7069-0.3626-0.3366 (  7763 PWs)   bands (ev):

   -17.2997 -17.2875 -17.2014 -17.1764 -17.1686 -17.1268 -17.1140 -17.0907
   -17.0757 -17.0368 -17.0103 -17.0056 -16.9996 -16.9726 -16.9689 -16.9620
   -16.9178 -16.8946 -16.8775 -16.8713 -16.8499 -16.8137 -16.8111 -16.8026
   -16.7997 -16.7833 -16.7690 -16.7591 -16.7502 -16.7303 -16.7185 -16.7157
   -16.6965 -16.6902 -16.6486  -4.6396  -3.7467  -3.4334  -2.6133  -2.4701
    -2.2011  -1.9975  -1.2534  -0.3094   0.1705   0.2948   0.8687   1.1446
     1.8228   1.9751   3.0203   3.5713   3.7697   4.0291   4.0893   4.4745
     4.5779   4.6674   4.7757   5.2028   5.2941   5.3546   5.5890   5.6718
     5.8820   6.0803   7.1291   8.3164   8.9210   9.1744   9.2403   9.5787
     9.7459   9.9223  10.0900  10.2761  10.4820  10.6010  10.7642  10.8347

     occupation numbers 
     1.0000   1.0000   1.0000   1.0000   1.0000   1.0000   1.0000   1.0000
     1.0000   1.0000   1.0000   1.0000   1.0000   1.0000   1.0000   1.0000
     1.0000   1.0000   1.0000   1.0000   1.0000   1.0000   1.0000   1.0000
     1.0000   1.0000   1.0000   1.0000   1.0000   1.0000   1.0000   1.0000
     1.0000   1.0000   1.0000   1.0000   1.0000   1.0000   1.0000   1.0000
     1.0000   1.0000   1.0000   1.0000   1.0000   1.0000   1.0000   1.0000
     1.0000   1.0000   1.0000   1.0000   1.0000   1.0000   1.0000   1.0000
     1.0000   1.0000   1.0000   1.0000   1.0000   1.0000   1.0000   1.0000
     1.0000   1.0000   0.9998   0.0000   0.0000   0.0000   0.0000   0.0000
     0.0000   0.0000   0.0000   0.0000   0.0000   0.0000   0.0000   0.0000

          k = 0.1841-0.8951 0.1717 (  7762 PWs)   bands (ev):

   -17.2993 -17.2876 -17.2016 -17.1762 -17.1696 -17.1269 -17.1135 -17.0900
   -17.0757 -17.0379 -17.0103 -17.0055 -16.9997 -16.9724 -16.9687 -16.9619
   -16.9174 -16.8946 -16.8784 -16.8717 -16.8502 -16.8135 -16.8099 -16.8024
   -16.7996 -16.7835 -16.7696 -16.7596 -16.7500 -16.7305 -16.7186 -16.7155
   -16.6969 -16.6899 -16.6483  -4.4888  -3.8814  -3.2381  -2.9576  -2.8376
    -2.0249  -1.7116  -1.5585  -0.0461   0.0702   0.4179   1.1164   1.3155
     2.1655   2.6106   3.2172   3.2374   3.3810   3.8955   4.0045   4.1218
     4.3351   4.4943   4.6861   4.8515   5.0868   5.3419   5.5023   5.6257
     5.7602   6.2100   6.5702   8.3163   8.8431   9.1296   9.4741   9.5954
     9.8577  10.2057  10.3897  10.6322  10.8502  10.9054  11.1721  11.2127

     occupation numbers 
     1.0000   1.0000   1.0000   1.0000   1.0000   1.0000   1.0000   1.0000
     1.0000   1.0000   1.0000   1.0000   1.0000   1.0000   1.0000   1.0000
     1.0000   1.0000   1.0000   1.0000   1.0000   1.0000   1.0000   1.0000
     1.0000   1.0000   1.0000   1.0000   1.0000   1.0000   1.0000   1.0000
     1.0000   1.0000   1.0000   1.0000   1.0000   1.0000   1.0000   1.0000
     1.0000   1.0000   1.0000   1.0000   1.0000   1.0000   1.0000   1.0000
     1.0000   1.0000   1.0000   1.0000   1.0000   1.0000   1.0000   1.0000
     1.0000   1.0000   1.0000   1.0000   1.0000   1.0000   1.0000   1.0000
     1.0000   1.0000   1.0000   0.0000   0.0000   0.0000   0.0000   0.0000
     0.0000   0.0000   0.0000   0.0000   0.0000   0.0000   0.0000   0.0000

          k = 0.3584-0.7176 0.0022 (  7761 PWs)   bands (ev):

   -17.2996 -17.2875 -17.2013 -17.1764 -17.1687 -17.1267 -17.1140 -17.0907
   -17.0754 -17.0367 -17.0102 -17.0056 -16.9995 -16.9724 -16.9688 -16.9619
   -16.9177 -16.8946 -16.8776 -16.8713 -16.8499 -16.8135 -16.8111 -16.8023
   -16.7997 -16.7832 -16.7688 -16.7590 -16.7500 -16.7303 -16.7185 -16.7155
   -16.6964 -16.6901 -16.6485  -4.2463  -3.8669  -3.6300  -3.4160  -2.3125
    -1.9721  -1.7202  -1.6205   0.0648   0.3211   0.4819   0.7172   2.3410
     2.6087   2.7752   2.8348   3.0127   3.1038   3.2053   3.2889   4.2839
     4.4527   4.6209   4.6895   4.7379   4.8838   5.0092   5.1072   5.7833
     5.9658   6.1641   6.2377   9.3898   9.6249   9.7011   9.8929  10.0777
    10.2103  10.3487  10.6065  10.6633  10.9000  11.1542  11.2277  11.4819

     occupation numbers 
     1.0000   1.0000   1.0000   1.0000   1.0000   1.0000   1.0000   1.0000
     1.0000   1.0000   1.0000   1.0000   1.0000   1.0000   1.0000   1.0000
     1.0000   1.0000   1.0000   1.0000   1.0000   1.0000   1.0000   1.0000
     1.0000   1.0000   1.0000   1.0000   1.0000   1.0000   1.0000   1.0000
     1.0000   1.0000   1.0000   1.0000   1.0000   1.0000   1.0000   1.0000
     1.0000   1.0000   1.0000   1.0000   1.0000   1.0000   1.0000   1.0000
     1.0000   1.0000   1.0000   1.0000   1.0000   1.0000   1.0000   1.0000
     1.0000   1.0000   1.0000   1.0000   1.0000   1.0000   1.0000   1.0000
     1.0000   1.0000   1.0000   0.0000   0.0000   0.0000   0.0000   0.0000
     0.0000   0.0000   0.0000   0.0000   0.0000   0.0000   0.0000   0.0000

          k =-0.0112-0.0033-0.6922 (  7772 PWs)   bands (ev):

   -17.2998 -17.2875 -17.2011 -17.1766 -17.1680 -17.1268 -17.1146 -17.0915
   -17.0754 -17.0356 -17.0100 -17.0058 -16.9995 -16.9726 -16.9690 -16.9620
   -16.9182 -16.8947 -16.8770 -16.8711 -16.8503 -16.8137 -16.8123 -16.8026
   -16.8001 -16.7817 -16.7682 -16.7584 -16.7504 -16.7301 -16.7183 -16.7159
   -16.6965 -16.6908 -16.6486  -4.2721  -4.0026  -3.3965  -3.1447  -2.8165
    -2.5360  -1.0078  -0.6474  -0.5874  -0.4164   1.0780   1.3409   1.5879
     1.7530   3.0464   3.1363   3.2999   3.3540   3.4805   3.4959   3.5844
     3.6222   3.7087   3.7922   5.5329   5.5830   5.6353   5.7434   6.0776
     6.2853   6.4363   6.5007   8.5167   8.6831   9.5635   9.7369   9.8910
    10.0267  10.2817  10.3899  11.1055  11.2877  11.4828  11.6118  11.6839

     occupation numbers 
     1.0000   1.0000   1.0000   1.0000   1.0000   1.0000   1.0000   1.0000
     1.0000   1.0000   1.0000   1.0000   1.0000   1.0000   1.0000   1.0000
     1.0000   1.0000   1.0000   1.0000   1.0000   1.0000   1.0000   1.0000
     1.0000   1.0000   1.0000   1.0000   1.0000   1.0000   1.0000   1.0000
     1.0000   1.0000   1.0000   1.0000   1.0000   1.0000   1.0000   1.0000
     1.0000   1.0000   1.0000   1.0000   1.0000   1.0000   1.0000   1.0000
     1.0000   1.0000   1.0000   1.0000   1.0000   1.0000   1.0000   1.0000
     1.0000   1.0000   1.0000   1.0000   1.0000   1.0000   1.0000   1.0000
     1.0000   1.0000   1.0000   0.0000   0.0000   0.0000   0.0000   0.0000
     0.0000   0.0000   0.0000   0.0000   0.0000   0.0000   0.0000   0.0000

          k = 0.1631 0.1741-0.8616 (  7761 PWs)   bands (ev):

   -17.2997 -17.2875 -17.2013 -17.1764 -17.1687 -17.1268 -17.1141 -17.0908
   -17.0756 -17.0368 -17.0101 -17.0058 -16.9996 -16.9725 -16.9688 -16.9619
   -16.9178 -16.8946 -16.8776 -16.8716 -16.8505 -16.8136 -16.8112 -16.8026
   -16.8000 -16.7821 -16.7689 -16.7590 -16.7502 -16.7301 -16.7183 -16.7159
   -16.6969 -16.6905 -16.6483  -4.4686  -3.9276  -3.3821  -2.8932  -2.6957
    -2.1634  -1.6619  -1.3242  -0.0687   0.0521   0.4201   1.0412   1.3205
     1.9648   2.5797   3.1476   3.2660   3.3420   3.7349   3.8755   4.1050
     4.2658   4.3722   4.6886   4.7359   5.2553   5.4123   5.6523   5.8194
     6.1024   6.2591   6.8981   8.8076   9.1271   9.2251   9.4843   9.6307
     9.7818   9.8777  10.1288  10.3398  10.5151  10.8482  11.0919  11.2464

     occupation numbers 
     1.0000   1.0000   1.0000   1.0000   1.0000   1.0000   1.0000   1.0000
     1.0000   1.0000   1.0000   1.0000   1.0000   1.0000   1.0000   1.0000
     1.0000   1.0000   1.0000   1.0000   1.0000   1.0000   1.0000   1.0000
     1.0000   1.0000   1.0000   1.0000   1.0000   1.0000   1.0000   1.0000
     1.0000   1.0000   1.0000   1.0000   1.0000   1.0000   1.0000   1.0000
     1.0000   1.0000   1.0000   1.0000   1.0000   1.0000   1.0000   1.0000
     1.0000   1.0000   1.0000   1.0000   1.0000   1.0000   1.0000   1.0000
     1.0000   1.0000   1.0000   1.0000   1.0000   1.0000   1.0000   1.0000
     1.0000   1.0000   1.0000   0.0000   0.0000   0.0000   0.0000   0.0000
     0.0000   0.0000   0.0000   0.0000   0.0000   0.0000   0.0000   0.0000

          k =-0.3597-0.3583-0.3533 (  7766 PWs)   bands (ev):

   -17.2993 -17.2877 -17.2015 -17.1762 -17.1695 -17.1268 -17.1136 -17.0900
   -17.0757 -17.0379 -17.0103 -17.0055 -16.9997 -16.9724 -16.9686 -16.9619
   -16.9174 -16.8945 -16.8783 -16.8720 -16.8507 -16.8134 -16.8101 -16.8025
   -16.7998 -16.7825 -16.7696 -16.7594 -16.7501 -16.7303 -16.7184 -16.7158
   -16.6973 -16.6902 -16.6480  -4.5082  -4.1883  -2.6766  -2.5796  -2.4465
    -2.3438  -2.2261  -1.8484   0.2681   0.4863   0.5292   0.6557   0.7869
     1.1845   3.1821   3.4052   3.5871   3.6763   3.7709   3.9225   3.9318
     4.0160   4.6458   4.8926   5.0181   5.2460   5.3251   5.5802   6.0768
     6.6330   6.7708   6.9574   8.1894   8.4866   8.5414   8.6412   8.8096
     8.8935   9.1187   9.4578  10.7936  10.8621  11.1188  11.4448  11.6751

     occupation numbers 
     1.0000   1.0000   1.0000   1.0000   1.0000   1.0000   1.0000   1.0000
     1.0000   1.0000   1.0000   1.0000   1.0000   1.0000   1.0000   1.0000
     1.0000   1.0000   1.0000   1.0000   1.0000   1.0000   1.0000   1.0000
     1.0000   1.0000   1.0000   1.0000   1.0000   1.0000   1.0000   1.0000
     1.0000   1.0000   1.0000   1.0000   1.0000   1.0000   1.0000   1.0000
     1.0000   1.0000   1.0000   1.0000   1.0000   1.0000   1.0000   1.0000
     1.0000   1.0000   1.0000   1.0000   1.0000   1.0000   1.0000   1.0000
     1.0000   1.0000   1.0000   1.0000   1.0000   1.0000   1.0000   1.0000
     1.0000   1.0000   1.0000   0.0001   0.0000   0.0000   0.0000   0.0000
     0.0000   0.0000   0.0000   0.0000   0.0000   0.0000   0.0000   0.0000

     the Fermi energy is     7.6365 ev

!    total energy              =   -1578.24673717 Ry
     Harris-Foulkes estimate   =   -1578.24673716 Ry
     estimated scf accuracy    <          2.7E-10 Ry

     The total energy is the sum of the following terms:

     one-electron contribution =   -1152.84897439 Ry
     hartree contribution      =     682.11577596 Ry
     xc contribution           =    -441.98156753 Ry
     ewald contribution        =    -665.53077571 Ry
     smearing contrib. (-TS)   =      -0.00119551 Ry

     convergence has been achieved in  13 iterations

     Forces acting on atoms (Ry/au):

     atom    1 type  1   force =  -0.77961516E-02  0.22095506E-01  0.70704906E-02
     atom    2 type  2   force =  -0.32058609E-01 -0.21073985E-01 -0.56467475E-02
     atom    3 type  2   force =   0.29746284E-01  0.79480695E-02 -0.21188961E-01
     atom    4 type  1   force =  -0.13899551E-02 -0.47599851E-02 -0.19094486E-01
     atom    5 type  1   force =   0.36229644E-01 -0.16934422E-01  0.30400025E-02
     atom    6 type  2   force =   0.12533940E-01 -0.63337570E-01 -0.74247194E-02
     atom    7 type  1   force =   0.20065356E-01  0.62711061E-01 -0.54437154E-02
     atom    8 type  1   force =  -0.37349169E-01 -0.34781831E-01  0.21890552E-01
     atom    9 type  2   force =  -0.33021691E-01  0.94956223E-04 -0.11868400E-01
     atom   10 type  1   force =  -0.18534600E-01  0.20786928E-01  0.33082091E-02
     atom   11 type  1   force =   0.49142651E-01  0.16624493E-01  0.15146009E-03
     atom   12 type  1   force =  -0.30965763E-01  0.29245510E-01 -0.16861829E-01
     atom   13 type  2   force =  -0.46083020E-02  0.16799222E-01  0.59434761E-02
     atom   14 type  2   force =   0.52662359E-01  0.44601541E-01  0.17178601E-01
     atom   15 type  1   force =  -0.43887406E-01 -0.69721982E-01  0.32204828E-02
     atom   16 type  2   force =   0.92314137E-02 -0.10297512E-01  0.25725584E-01
     The non-local contrib.  to forces
     atom    1 type  1   force =  -0.25147508E-01  0.18739923E-01  0.46251891E-02
     atom    2 type  2   force =  -0.39380689E-02  0.43622080E-01 -0.26704382E-02
     atom    3 type  2   force =  -0.75153989E-01 -0.48256272E-01  0.11476775E-01
     atom    4 type  1   force =   0.82313817E-04  0.25067689E-01 -0.26768808E-01
     atom    5 type  1   force =   0.50738796E-01 -0.14575611E-01  0.10741131E-01
     atom    6 type  2   force =  -0.46171304E-02  0.66717979E-01  0.20096033E-01
     atom    7 type  1   force =   0.29228908E-01  0.55960077E-02  0.66920146E-02
     atom    8 type  1   force =  -0.28009920E-01 -0.46488019E-01  0.26320521E-01
     atom    9 type  2   force =   0.28639694E-01 -0.40055571E-02 -0.40317716E-01
     atom   10 type  1   force =  -0.36354017E-02  0.23857229E-01  0.45664291E-02
     atom   11 type  1   force =   0.15293054E-01  0.20996057E-01 -0.13889286E-01
     atom   12 type  1   force =  -0.50117658E-01  0.49885354E-01 -0.35528791E-01
     atom   13 type  2   force =   0.84579471E-02 -0.93058450E-01  0.22015768E-01
     atom   14 type  2   force =   0.55918998E-02 -0.21450913E-01 -0.87146140E-02
     atom   15 type  1   force =  -0.21514551E-01 -0.82549147E-01  0.42441713E-01
     atom   16 type  2   force =   0.79896865E-01  0.43328089E-01 -0.60026162E-02
     The ionic contribution  to forces
     atom    1 type  1   force =  -0.21936616E+00 -0.36193589E+01  0.46101928E+00
     atom    2 type  2   force =   0.91338888E+00 -0.10294216E+02 -0.14775438E+01
     atom    3 type  2   force =   0.71824923E+01  0.61735951E+01 -0.60908409E+01
     atom    4 type  1   force =   0.17099355E+01  0.16557562E+01  0.19836531E+01
     atom    5 type  1   force =  -0.10586088E+01 -0.16622928E+01  0.15416031E+01
     atom    6 type  2   force =   0.72548223E+01 -0.63559098E+01 -0.78662230E+01
     atom    7 type  1   force =   0.25990462E+00  0.38252945E+01 -0.22478301E+00
     atom    8 type  1   force =  -0.19900582E+01  0.10180522E+01 -0.14970275E+01
     atom    9 type  2   force =  -0.17130547E+01 -0.19830190E+01  0.12605403E+02
     atom   10 type  1   force =  -0.29949951E+00  0.38405554E+01  0.20597014E-01
     atom   11 type  1   force =   0.19026557E+01 -0.13055336E+01  0.16051664E+01
     atom   12 type  1   force =  -0.36583229E+00 -0.33611517E+01 -0.14348629E+00
     atom   13 type  2   force =  -0.81744499E+01  0.38152852E+01 -0.52032661E+01
     atom   14 type  2   force =   0.17120887E+01  0.14105810E+02 -0.10314953E+00
     atom   15 type  1   force =  -0.65602312E+00 -0.11227302E+01 -0.33891051E+01
     atom   16 type  2   force =  -0.64583953E+01 -0.47301369E+01  0.77779831E+01
     The local contribution  to forces
     atom    1 type  1   force =   0.23443715E+00  0.36238382E+01 -0.45794420E+00
     atom    2 type  2   force =  -0.94511540E+00  0.10233134E+02  0.14707209E+01
     atom    3 type  2   force =  -0.70770113E+01 -0.61177303E+01  0.60560569E+01
     atom    4 type  1   force =  -0.17113889E+01 -0.16830503E+01 -0.19777657E+01
     atom    5 type  1   force =   0.10490614E+01  0.16594028E+01 -0.15490015E+01
     atom    6 type  2   force =  -0.72365865E+01  0.62236216E+01  0.78408471E+01
     atom    7 type  1   force =  -0.26633709E+00 -0.37677319E+01  0.21402331E+00
     atom    8 type  1   force =   0.19787986E+01 -0.10103106E+01  0.14941707E+01
     atom    9 type  2   force =   0.16478050E+01  0.19854896E+01 -0.12579888E+02
     atom   10 type  1   force =   0.28411007E+00 -0.38418936E+01 -0.21361736E-01
     atom   11 type  1   force =  -0.18683594E+01  0.13028940E+01 -0.15922707E+01
     atom   12 type  1   force =   0.38003398E+00  0.33445160E+01  0.15894378E+00
     atom   13 type  2   force =   0.81607631E+01 -0.37101937E+01  0.51896926E+01
     atom   14 type  2   force =  -0.16596515E+01 -0.14036112E+02  0.12800162E+00
     atom   15 type  1   force =   0.63231112E+00  0.11276381E+01  0.33538154E+01
     atom   16 type  2   force =   0.63910878E+01  0.46800694E+01 -0.77431472E+01
     The core correction contribution to forces
     atom    1 type  1   force =   0.22818527E-02 -0.11262882E-02 -0.63041253E-03
     atom    2 type  2   force =   0.36085388E-02 -0.36325130E-02  0.38498276E-02
     atom    3 type  2   force =  -0.55614383E-03  0.34116511E-03  0.21247480E-02
     atom    4 type  1   force =  -0.17484842E-04 -0.25344914E-02  0.17864801E-02
     atom    5 type  1   force =  -0.49651732E-02  0.53230174E-03 -0.30308833E-03
     atom    6 type  2   force =  -0.10756726E-02  0.22188694E-02 -0.21586079E-02
     atom    7 type  1   force =  -0.27337917E-02 -0.44417026E-03 -0.13796762E-02
     atom    8 type  1   force =   0.19196965E-02  0.39684846E-02 -0.15769947E-02
     atom    9 type  2   force =   0.35953278E-02  0.16243919E-02  0.29578295E-02
     atom   10 type  1   force =   0.48834849E-03 -0.17297834E-02 -0.49345095E-03
     atom   11 type  1   force =  -0.44578129E-03 -0.17336791E-02  0.11473106E-02
     atom   12 type  1   force =   0.49517497E-02 -0.40046640E-02  0.32104324E-02
     atom   13 type  2   force =   0.60239487E-03  0.47768050E-02 -0.25162183E-02
     atom   14 type  2   force =  -0.53704716E-02 -0.36290759E-02  0.10466151E-02
     atom   15 type  1   force =   0.13361557E-02  0.79232185E-02 -0.39367764E-02
     atom   16 type  2   force =  -0.33736979E-02 -0.35608142E-02 -0.31033823E-02
     The Hubbard contrib.    to forces
     atom    1 type  1   force =   0.00000000E+00  0.00000000E+00  0.00000000E+00
     atom    2 type  2   force =   0.00000000E+00  0.00000000E+00  0.00000000E+00
     atom    3 type  2   force =   0.00000000E+00  0.00000000E+00  0.00000000E+00
     atom    4 type  1   force =   0.00000000E+00  0.00000000E+00  0.00000000E+00
     atom    5 type  1   force =   0.00000000E+00  0.00000000E+00  0.00000000E+00
     atom    6 type  2   force =   0.00000000E+00  0.00000000E+00  0.00000000E+00
     atom    7 type  1   force =   0.00000000E+00  0.00000000E+00  0.00000000E+00
     atom    8 type  1   force =   0.00000000E+00  0.00000000E+00  0.00000000E+00
     atom    9 type  2   force =   0.00000000E+00  0.00000000E+00  0.00000000E+00
     atom   10 type  1   force =   0.00000000E+00  0.00000000E+00  0.00000000E+00
     atom   11 type  1   force =   0.00000000E+00  0.00000000E+00  0.00000000E+00
     atom   12 type  1   force =   0.00000000E+00  0.00000000E+00  0.00000000E+00
     atom   13 type  2   force =   0.00000000E+00  0.00000000E+00  0.00000000E+00
     atom   14 type  2   force =   0.00000000E+00  0.00000000E+00  0.00000000E+00
     atom   15 type  1   force =   0.00000000E+00  0.00000000E+00  0.00000000E+00
     atom   16 type  2   force =   0.00000000E+00  0.00000000E+00  0.00000000E+00
     The SCF correction term to forces
     atom    1 type  1   force =  -0.22271917E-05  0.31504918E-05 -0.17875231E-06
     atom    2 type  2   force =  -0.33062194E-05  0.18621599E-04 -0.40334110E-05
     atom    3 type  2   force =  -0.25353915E-04 -0.91465788E-06 -0.73190831E-05
     atom    4 type  1   force =  -0.20901977E-05  0.16315652E-05 -0.39861181E-06
     atom    5 type  1   force =   0.27060981E-05 -0.39453064E-06 -0.50891740E-06
     atom    6 type  2   force =  -0.98090136E-05  0.14396278E-04  0.12973505E-04
     atom    7 type  1   force =   0.19709123E-05 -0.27673144E-05  0.28293297E-05
     atom    8 type  1   force =  -0.45510274E-07 -0.31659956E-05  0.29573413E-05
     atom    9 type  2   force =  -0.76907096E-05  0.62923179E-05 -0.24611326E-04
     atom   10 type  1   force =   0.11627484E-05 -0.17277151E-05 -0.86140204E-06
     atom   11 type  1   force =  -0.16433769E-05  0.24119590E-05 -0.31302611E-05
     atom   12 type  1   force =  -0.22779798E-05  0.11193136E-05 -0.17819506E-05
     atom   13 type  2   force =   0.17383625E-04 -0.99386033E-05  0.16618043E-04
     atom   14 type  2   force =   0.29612232E-05 -0.15524039E-04 -0.63029337E-05
     atom   15 type  1   force =   0.22513872E-05 -0.33102450E-05  0.44127628E-05
     atom   16 type  2   force =   0.14998671E-04  0.33812128E-05 -0.51652434E-05

     Total force =     0.192419     Total SCF correction =     0.000060


     entering subroutine stress ...

          total   stress  (Ry/bohr**3)                   (kbar)     P=   21.39
   0.0001910293  -0.0000432484   0.0001087850         28.10     -6.36     16.00
  -0.0000432484   0.0001956891   0.0000261185         -6.36     28.79      3.84
   0.0001087850   0.0000261185   0.0000495973         16.00      3.84      7.30

     kinetic stress (kbar)   6084.30     -8.65     25.40
                               -8.65   6088.87      9.54
                               25.40      9.54   6050.73

     local   stress (kbar)  -6343.79    455.37   1808.65
                              455.37    500.43  -2012.71
                             1808.65  -2012.71  -5187.61

     nonloc. stress (kbar)   2499.06     -2.46      1.54
                               -2.46   2496.06     -2.30
                                1.54     -2.30   2510.43

     hartree stress (kbar)  16409.52   -258.12   -799.01
                             -258.12  13103.47    979.36
                             -799.01    979.36  15683.56

     exc-cor stress (kbar)   9998.24      0.08     -0.12
                                0.08   9998.18      0.02
                               -0.12      0.02   9998.75

     corecor stress (kbar) -15242.70      0.33     -0.06
                                0.33 -15242.24      0.43
                               -0.06      0.43 -15243.44

     ewald   stress (kbar) -13376.52   -192.92  -1020.40
                             -192.92 -16916.00   1029.49
                            -1020.40   1029.49 -13805.12

     hubbard stress (kbar)      0.00      0.00      0.00
                                0.00      0.00      0.00
                                0.00      0.00      0.00

     london  stress (kbar)      0.00      0.00      0.00
                                0.00      0.00      0.00
                                0.00      0.00      0.00

     XDM     stress (kbar)      0.00      0.00      0.00
                                0.00      0.00      0.00
                                0.00      0.00      0.00

     dft-nl  stress (kbar)      0.00      0.00      0.00
                                0.00      0.00      0.00
                                0.00      0.00      0.00



     Writing output data file Si_diamond.scf.in.super.222.replace3449.save

     init_run     :     13.88s CPU     12.70s WALL (       1 calls)
     electrons    :    550.75s CPU    500.82s WALL (       1 calls)
     forces       :      6.56s CPU      5.41s WALL (       1 calls)
     stress       :     10.67s CPU     10.47s WALL (       1 calls)

     Called by init_run:
     wfcinit      :     12.27s CPU     11.09s WALL (       1 calls)
     potinit      :      0.43s CPU      0.43s WALL (       1 calls)

     Called by electrons:
     c_bands      :    486.79s CPU    439.18s WALL (      14 calls)
     sum_band     :     58.71s CPU     56.28s WALL (      14 calls)
     v_of_rho     :      0.64s CPU      0.66s WALL (      14 calls)
     v_h          :      0.03s CPU      0.04s WALL (      14 calls)
     v_xc         :      0.68s CPU      0.70s WALL (      16 calls)
     newd         :      4.04s CPU      4.08s WALL (      14 calls)
     mix_rho      :      0.73s CPU      0.76s WALL (      14 calls)

     Called by c_bands:
     init_us_2    :      2.73s CPU      2.82s WALL (    1116 calls)
     cegterg      :    476.24s CPU    427.98s WALL (     504 calls)

     Called by sum_band:
     sum_band:bec :      0.85s CPU      0.85s WALL (     504 calls)
     addusdens    :      4.33s CPU      4.36s WALL (      14 calls)

     Called by *egterg:
     h_psi        :    226.37s CPU    211.99s WALL (    1924 calls)
     s_psi        :     32.03s CPU     21.86s WALL (    1924 calls)
     g_psi        :      0.37s CPU      0.38s WALL (    1384 calls)
     cdiaghg      :    128.61s CPU    116.71s WALL (    1852 calls)
     cegterg:over :     42.18s CPU     37.01s WALL (    1384 calls)
     cegterg:upda :     17.83s CPU     12.53s WALL (    1384 calls)
     cegterg:last :     12.17s CPU      7.73s WALL (     504 calls)

     Called by h_psi:
     h_psi:vloc   :    147.19s CPU    151.72s WALL (    1924 calls)
     h_psi:vnl    :     78.88s CPU     59.96s WALL (    1924 calls)
     add_vuspsi   :     34.34s CPU     23.59s WALL (    1924 calls)

     General routines
     calbec       :     65.22s CPU     53.34s WALL (    2500 calls)
     fft          :      1.17s CPU      1.22s WALL (     249 calls)
     ffts         :      0.63s CPU      0.54s WALL (     390 calls)
     fftw         :    170.48s CPU    175.56s WALL (  233216 calls)
     interpolate  :      0.14s CPU      0.14s WALL (      28 calls)

     Parallel routines
     fft_scatter  :     80.96s CPU     83.86s WALL (  233855 calls)

     PWSCF        :  9m44.04s CPU     8m52.04s WALL


   This run was terminated on:  19:53:42   4Apr2018            

=------------------------------------------------------------------------------=
   JOB DONE.
=------------------------------------------------------------------------------=
