
     Program PWSCF v.5.1 starts on 28Sep2017 at 14:35:39 

     This program is part of the open-source Quantum ESPRESSO suite
     for quantum simulation of materials; please cite
         "P. Giannozzi et al., J. Phys.:Condens. Matter 21 395502 (2009);
          URL http://www.quantum-espresso.org", 
     in publications or presentations arising from this work. More details at
     http://www.quantum-espresso.org/quote

     Parallel version (MPI), running on     8 processors
     R & G space division:  proc/nbgrp/npool/nimage =       8
     Reading input from /tmp/Si_diamond.scf.in.super.222.largdist.b.02.27028/Si_diamond.scf.in.super.222.largdist.b.02.t
Warning: card &IONS ignored
Warning: card   ION_DYNAMICS='BFGS', ignored
Warning: card / ignored
Warning: card &CELL ignored
Warning: card  CELL_DYNAMICS = 'BFGS' ignored
Warning: card / ignored
     Message from routine read_cards :
     DEPRECATED: no units specified in CELL_PARAMETERS card

     Current dimensions of program PWSCF are:
     Max number of different atomic species (ntypx) = 10
     Max number of k-points (npk) =  40000
     Max angular momentum in pseudopotentials (lmaxx) =  3
 kfg - two_fermi_energies  F

     Subspace diagonalization in iterative solution of the eigenvalue problem:
     a serial algorithm will be used


     Parallelization info
     --------------------
     sticks:   dense  smooth     PW     G-vecs:    dense   smooth      PW
     Min         363     256     71                12921     7555    1109
     Max         364     257     73                12925     7568    1110
     Sum        2905    2053    571               103379    60495    8873



     bravais-lattice index     =            0
     lattice parameter (alat)  =    14.515605984  a.u.
     unit-cell volume          =    2162.6713 (a.u.)^3
     number of atoms/cell      =           16
     number of atomic types    =            1
     number of electrons       =        64.00
     number of Kohn-Sham states=           38
     kinetic-energy cutoff     =      35.0000  Ry
     charge density cutoff     =     200.0000  Ry
     convergence threshold     =      1.0E-09
     mixing beta               =       0.3000
     number of iterations used =            8  local-TF  mixing
     Exchange-correlation      = SLA  PW   PSX  PSC ( 1  4 10  8 0)
     A smooth kinetic-energy cutoff is imposed at      34.5000 Ry
     height of the smooth step-function =             800.0000 Ry
     width of the smooth step-function  =               1.0000 Ry


     celldm(1)=  14.515606  celldm(2)=   0.000000  celldm(3)=   0.000000
     celldm(4)=   0.000000  celldm(5)=   0.000000  celldm(6)=   0.000000

     crystal axes: (cart. coord. in units of alat)
               a(1) = (  -0.000000000000   0.707106781187   0.707106781187 )  
               a(2) = (   0.707106781187   0.000000000000   0.707106781187 )  
               a(3) = (   0.707106781187   0.707106781187  -0.000000000000 )  

     reciprocal axes: (cart. coord. in units 2 pi/alat)
               b(1) = ( -0.707107  0.707107  0.707107 )  
               b(2) = (  0.707107 -0.707107  0.707107 )  
               b(3) = (  0.707107  0.707107 -0.707107 )  


     PseudoPot. # 1 for Si read from file:
     /users/kfg/psuedo/gbrv_1.5/si.pbesol.UPF
     MD5 check sum: ef58ba74faed4df802eb8a9742fc00a8
     Pseudo is Ultrasoft + core correction, Zval =  4.0
     Generated by new atomic code, or converted to UPF format
     Using radial grid of  899 points,  6 beta functions with: 
                l(1) =   0
                l(2) =   0
                l(3) =   1
                l(4) =   1
                l(5) =   2
                l(6) =   2
     Q(r) pseudized with  8 coefficients,  rinner =    0.900   0.900   0.900
                                                       0.900   0.900

     atomic species   valence    mass     pseudopotential
        Si             4.00    28.08550     Si( 1.00)

     No symmetry found


                                    s                        frac. trans.

      isym =  1     identity                                     

 cryst.   s( 1) = (     1          0          0      )
                  (     0          1          0      )
                  (     0          0          1      )

 cart.    s( 1) = (  1.0000000  0.0000000  0.0000000 )
                  (  0.0000000  1.0000000  0.0000000 )
                  (  0.0000000  0.0000000  1.0000000 )


     point group C_1 (1)    
     there are  1 classes
     the character table:

       E    
A      1.00

     the symmetry operations in each class:
     E        1

   Cartesian axes

     site n.     atom                  positions (alat units)
         1           Si  tau(   1) = (    0.01213787505    0.01538720243   -0.03513335038  )
         2           Si  tau(   2) = (    0.16124563464    0.18387198292    0.20642816430  )
         3           Si  tau(   3) = (    0.32361587482    0.35612577747   -0.03969823569  )
         4           Si  tau(   4) = (    0.56031902165    0.56747984922    0.13742040744  )
         5           Si  tau(   5) = (    0.32044456315   -0.02768038788    0.34682730487  )
         6           Si  tau(   6) = (    0.48371703893    0.16413200675    0.54918989411  )
         7           Si  tau(   7) = (    0.66909679511    0.37034420390    0.37069694339  )
         8           Si  tau(   8) = (    0.91415911857    0.53110890140    0.51549582601  )
         9           Si  tau(   9) = (   -0.03835357736    0.31071688460    0.35278900139  )
        10           Si  tau(  10) = (    0.18706545515    0.52740297832    0.51009208950  )
        11           Si  tau(  11) = (    0.33734709815    0.69957690073    0.34108916682  )
        12           Si  tau(  12) = (    0.49667839352    0.91742682884    0.54280080409  )
        13           Si  tau(  13) = (    0.39501759319    0.35527221757    0.68251871235  )
        14           Si  tau(  14) = (    0.48346162783    0.52998837837    0.83923663790  )
        15           Si  tau(  15) = (    0.71385779334    0.68846014771    0.73429289686  )
        16           Si  tau(  16) = (    0.85323242996    0.83886921743    0.90461692851  )

   Crystallographic axes

     site n.     atom                  positions (cryst. coord.)
         1           Si  tau(   1) = (   -0.02254540887   -0.02714065172    0.04430619924  )
         2           Si  tau(   2) = (    0.16196599911    0.12996751050    0.09806825288  )
         3           Si  tau(   3) = (   -0.00508291904   -0.05105886428    0.50872082345  )
         4           Si  tau(   4) = (    0.10223437170    0.09210743224    0.70030332743  )
         5           Si  tau(   5) = (   -0.00091757440    0.49140545275   -0.03822840555  )
         6           Si  tau(   6) = (    0.16235515486    0.61431664170    0.06976255511  )
         7           Si  tau(   7) = (    0.05087233930    0.47337230557    0.47287345661  )
         8           Si  tau(   8) = (    0.09365318816    0.63536800034    0.65744822331  )
         9           Si  tau(   9) = (    0.49628958598    0.00262940445   -0.05686955372  )
        10           Si  tau(  10) = (    0.60134454603    0.12003460499    0.14451589874  )
        11           Si  tau(  11) = (    0.49732161260   -0.01494868691    0.49202952834  )
        12           Si  tau(  12) = (    0.68133220120    0.08630405762    0.61610526264  )
        13           Si  tau(  13) = (    0.45450938517    0.51071783441    0.04792140325  )
        14           Si  tau(  14) = (    0.62632929849    0.56053053687    0.12318745410  )
        15           Si  tau(  15) = (    0.50126463930    0.53718233420    0.47236503874  )
        16           Si  tau(  16) = (    0.62950443954    0.64981708951    0.55683578480  )

     number of k points=    36  gaussian smearing, width (Ry)=  0.0150
                       cart. coord. in units 2pi/alat
        k(    1) = (   0.0000000   0.0000000   0.0000000), wk =   0.0312500
        k(    2) = (   0.1767767   0.1767767  -0.1767767), wk =   0.0625000
        k(    3) = (  -0.3535534  -0.3535534   0.3535534), wk =   0.0312500
        k(    4) = (   0.3535534   0.0000000   0.0000000), wk =   0.0625000
        k(    5) = (  -0.1767767  -0.5303301   0.5303301), wk =   0.0625000
        k(    6) = (   0.0000000  -0.3535534   0.3535534), wk =   0.0625000
        k(    7) = (  -0.7071068   0.0000000   0.0000000), wk =   0.0312500
        k(    8) = (  -0.7071068   0.3535534   0.0000000), wk =   0.0625000
        k(    9) = (  -0.1767767  -0.1767767  -0.1767767), wk =   0.0625000
        k(   10) = (  -0.1767767   0.1767767   0.1767767), wk =   0.0625000
        k(   11) = (   0.1767767  -0.1767767   0.1767767), wk =   0.0625000
        k(   12) = (   0.3535534   0.3535534   0.3535534), wk =   0.0312500
        k(   13) = (   0.3535534  -0.3535534  -0.3535534), wk =   0.0312500
        k(   14) = (  -0.3535534   0.3535534  -0.3535534), wk =   0.0312500
        k(   15) = (   0.0000000   0.3535534   0.0000000), wk =   0.0625000
        k(   16) = (   0.0000000   0.0000000   0.3535534), wk =   0.0625000
        k(   17) = (   0.1767767   0.5303301   0.5303301), wk =   0.0625000
        k(   18) = (   0.1767767  -0.5303301  -0.5303301), wk =   0.0625000
        k(   19) = (  -0.1767767   0.5303301  -0.5303301), wk =   0.0625000
        k(   20) = (  -0.5303301  -0.1767767  -0.5303301), wk =   0.0625000
        k(   21) = (   0.5303301   0.1767767  -0.5303301), wk =   0.0625000
        k(   22) = (  -0.5303301   0.1767767   0.5303301), wk =   0.0625000
        k(   23) = (   0.5303301  -0.1767767   0.5303301), wk =   0.0625000
        k(   24) = (   0.5303301   0.5303301  -0.1767767), wk =   0.0625000
        k(   25) = (  -0.5303301   0.5303301   0.1767767), wk =   0.0625000
        k(   26) = (   0.5303301  -0.5303301   0.1767767), wk =   0.0625000
        k(   27) = (  -0.5303301  -0.5303301  -0.1767767), wk =   0.0625000
        k(   28) = (   0.0000000   0.3535534   0.3535534), wk =   0.0625000
        k(   29) = (  -0.3535534   0.0000000  -0.3535534), wk =   0.0625000
        k(   30) = (   0.3535534   0.0000000  -0.3535534), wk =   0.0625000
        k(   31) = (   0.3535534   0.3535534   0.0000000), wk =   0.0625000
        k(   32) = (  -0.3535534   0.3535534   0.0000000), wk =   0.0625000
        k(   33) = (   0.0000000  -0.7071068   0.0000000), wk =   0.0312500
        k(   34) = (   0.0000000   0.0000000  -0.7071068), wk =   0.0312500
        k(   35) = (   0.3535534  -0.7071068   0.0000000), wk =   0.0625000
        k(   36) = (   0.7071068   0.0000000   0.3535534), wk =   0.0625000

                       cryst. coord.
        k(    1) = (   0.0000000   0.0000000   0.0000000), wk =   0.0312500
        k(    2) = (   0.0000000   0.0000000   0.2500000), wk =   0.0625000
        k(    3) = (   0.0000000   0.0000000  -0.5000000), wk =   0.0312500
        k(    4) = (   0.0000000   0.2500000   0.2500000), wk =   0.0625000
        k(    5) = (   0.0000000   0.2500000  -0.5000000), wk =   0.0625000
        k(    6) = (   0.0000000   0.2500000  -0.2500000), wk =   0.0625000
        k(    7) = (   0.0000000  -0.5000000  -0.5000000), wk =   0.0312500
        k(    8) = (   0.2500000  -0.5000000  -0.2500000), wk =   0.0625000
        k(    9) = (  -0.2500000  -0.2500000  -0.2500000), wk =   0.0625000
        k(   10) = (   0.2500000   0.0000000   0.0000000), wk =   0.0625000
        k(   11) = (   0.0000000   0.2500000   0.0000000), wk =   0.0625000
        k(   12) = (   0.5000000   0.5000000   0.5000000), wk =   0.0312500
        k(   13) = (  -0.5000000   0.0000000   0.0000000), wk =   0.0312500
        k(   14) = (   0.0000000  -0.5000000   0.0000000), wk =   0.0312500
        k(   15) = (   0.2500000   0.0000000   0.2500000), wk =   0.0625000
        k(   16) = (   0.2500000   0.2500000   0.0000000), wk =   0.0625000
        k(   17) = (   0.7500000   0.5000000   0.5000000), wk =   0.0625000
        k(   18) = (  -0.7500000  -0.2500000  -0.2500000), wk =   0.0625000
        k(   19) = (   0.0000000  -0.5000000   0.2500000), wk =   0.0625000
        k(   20) = (  -0.5000000  -0.7500000  -0.5000000), wk =   0.0625000
        k(   21) = (  -0.2500000   0.0000000   0.5000000), wk =   0.0625000
        k(   22) = (   0.5000000   0.0000000  -0.2500000), wk =   0.0625000
        k(   23) = (   0.2500000   0.7500000   0.2500000), wk =   0.0625000
        k(   24) = (   0.2500000   0.2500000   0.7500000), wk =   0.0625000
        k(   25) = (   0.5000000  -0.2500000   0.0000000), wk =   0.0625000
        k(   26) = (  -0.2500000   0.5000000   0.0000000), wk =   0.0625000
        k(   27) = (  -0.5000000  -0.5000000  -0.7500000), wk =   0.0625000
        k(   28) = (   0.5000000   0.2500000   0.2500000), wk =   0.0625000
        k(   29) = (  -0.2500000  -0.5000000  -0.2500000), wk =   0.0625000
        k(   30) = (  -0.2500000   0.0000000   0.2500000), wk =   0.0625000
        k(   31) = (   0.2500000   0.2500000   0.5000000), wk =   0.0625000
        k(   32) = (   0.2500000  -0.2500000   0.0000000), wk =   0.0625000
        k(   33) = (  -0.5000000   0.0000000  -0.5000000), wk =   0.0312500
        k(   34) = (  -0.5000000  -0.5000000   0.0000000), wk =   0.0312500
        k(   35) = (  -0.5000000   0.2500000  -0.2500000), wk =   0.0625000
        k(   36) = (   0.2500000   0.7500000   0.5000000), wk =   0.0625000

     Dense  grid:   103379 G-vectors     FFT dimensions: (  72,  72,  72)

     Smooth grid:    60495 G-vectors     FFT dimensions: (  60,  60,  60)

     Largest allocated arrays     est. size (Mb)     dimensions
        Kohn-Sham Wavefunctions         0.56 Mb     (     974,   38)
        NL pseudopotentials             4.28 Mb     (     974,  288)
        Each V/rho on FFT grid          0.71 Mb     (   46656)
        Each G-vector array             0.10 Mb     (   12923)
        G-vector shells                 0.01 Mb     (     706)
     Largest temporary arrays     est. size (Mb)     dimensions
        Auxiliary wavefunctions         2.26 Mb     (     974,  152)
        Each subspace H/S matrix        0.35 Mb     (     152,  152)
        Each <psi_i|beta_j> matrix      0.17 Mb     (     288,   38)
        Arrays for rho mixing           5.70 Mb     (   46656,    8)

     Initial potential from superposition of free atoms

     starting charge   63.98963, renormalised to   64.00000
     Starting wfc are   64 randomized atomic wfcs

     total cpu time spent up to now is       16.9 secs

     per-process dynamical memory:    37.0 Mb

     Self-consistent Calculation

     iteration #  1     ecut=    35.00 Ry     beta=0.30
     Davidson diagonalization with overlap
     ethr =  1.00E-02,  avg # of iterations =  2.9

     Threshold (ethr) on eigenvalues was too large:
     Diagonalizing with lowered threshold

     Davidson diagonalization with overlap
     ethr =  9.78E-04,  avg # of iterations =  1.4

     total cpu time spent up to now is       86.3 secs

     total energy              =    -152.12427028 Ry
     Harris-Foulkes estimate   =    -152.20778401 Ry
     estimated scf accuracy    <       0.62868610 Ry

     iteration #  2     ecut=    35.00 Ry     beta=0.30
     Davidson diagonalization with overlap
     ethr =  9.82E-04,  avg # of iterations =  1.0

     negative rho (up, down):  1.245E-05 0.000E+00

     total cpu time spent up to now is      113.7 secs

     total energy              =    -151.95267457 Ry
     Harris-Foulkes estimate   =    -152.12940594 Ry
     estimated scf accuracy    <       0.38803554 Ry

     iteration #  3     ecut=    35.00 Ry     beta=0.30
     Davidson diagonalization with overlap
     ethr =  6.06E-04,  avg # of iterations =  2.1

     total cpu time spent up to now is      150.5 secs

     total energy              =    -152.01458319 Ry
     Harris-Foulkes estimate   =    -152.01774052 Ry
     estimated scf accuracy    <       0.01741091 Ry

     iteration #  4     ecut=    35.00 Ry     beta=0.30
     Davidson diagonalization with overlap
     ethr =  2.72E-05,  avg # of iterations =  8.5

     total cpu time spent up to now is      205.5 secs

     total energy              =    -152.01412100 Ry
     Harris-Foulkes estimate   =    -152.01593136 Ry
     estimated scf accuracy    <       0.00820531 Ry

     iteration #  5     ecut=    35.00 Ry     beta=0.30
     Davidson diagonalization with overlap
     ethr =  1.28E-05,  avg # of iterations =  2.0

     total cpu time spent up to now is      237.8 secs

     total energy              =    -152.01482076 Ry
     Harris-Foulkes estimate   =    -152.01502133 Ry
     estimated scf accuracy    <       0.00069471 Ry

     iteration #  6     ecut=    35.00 Ry     beta=0.30
     Davidson diagonalization with overlap
     ethr =  1.09E-06,  avg # of iterations =  4.7

     total cpu time spent up to now is      289.3 secs

     total energy              =    -152.01509779 Ry
     Harris-Foulkes estimate   =    -152.01515736 Ry
     estimated scf accuracy    <       0.00045012 Ry

     iteration #  7     ecut=    35.00 Ry     beta=0.30
     Davidson diagonalization with overlap
     ethr =  7.03E-07,  avg # of iterations =  1.0

     total cpu time spent up to now is      310.8 secs

     total energy              =    -152.01503165 Ry
     Harris-Foulkes estimate   =    -152.01510926 Ry
     estimated scf accuracy    <       0.00021239 Ry

     iteration #  8     ecut=    35.00 Ry     beta=0.30
     Davidson diagonalization with overlap
     ethr =  3.32E-07,  avg # of iterations =  2.0

     total cpu time spent up to now is      338.7 secs

     total energy              =    -152.01507314 Ry
     Harris-Foulkes estimate   =    -152.01507371 Ry
     estimated scf accuracy    <       0.00000431 Ry

     iteration #  9     ecut=    35.00 Ry     beta=0.30
     Davidson diagonalization with overlap
     ethr =  6.73E-09,  avg # of iterations =  3.2

     total cpu time spent up to now is      370.6 secs

     total energy              =    -152.01507376 Ry
     Harris-Foulkes estimate   =    -152.01507410 Ry
     estimated scf accuracy    <       0.00000191 Ry

     iteration # 10     ecut=    35.00 Ry     beta=0.30
     Davidson diagonalization with overlap
     ethr =  2.99E-09,  avg # of iterations =  2.0

     total cpu time spent up to now is      397.5 secs

     total energy              =    -152.01507397 Ry
     Harris-Foulkes estimate   =    -152.01507398 Ry
     estimated scf accuracy    <       0.00000009 Ry

     iteration # 11     ecut=    35.00 Ry     beta=0.30
     Davidson diagonalization with overlap
     ethr =  1.40E-10,  avg # of iterations =  3.1

     total cpu time spent up to now is      431.8 secs

     total energy              =    -152.01507399 Ry
     Harris-Foulkes estimate   =    -152.01507402 Ry
     estimated scf accuracy    <       0.00000014 Ry

     iteration # 12     ecut=    35.00 Ry     beta=0.30
     Davidson diagonalization with overlap
     ethr =  1.40E-10,  avg # of iterations =  2.0

     total cpu time spent up to now is      459.3 secs

     total energy              =    -152.01507400 Ry
     Harris-Foulkes estimate   =    -152.01507400 Ry
     estimated scf accuracy    <       0.00000001 Ry

     iteration # 13     ecut=    35.00 Ry     beta=0.30
     Davidson diagonalization with overlap
     ethr =  1.93E-11,  avg # of iterations =  2.5

     total cpu time spent up to now is      488.9 secs

     End of self-consistent calculation

          k = 0.0000 0.0000 0.0000 (  7631 PWs)   bands (ev):

    -6.3073  -4.6698  -4.1869  -3.8041  -3.5609  -3.1919  -2.4176  -2.3238
    -1.6397  -1.6129  -1.2451  -0.9959  -0.6201  -0.1383  -0.0576   2.5118
     2.5754   2.9024   3.0337   3.2001   3.3848   4.0350   4.0784   4.4665
     4.6668   4.7891   5.1382   5.2385   5.5950   5.6225   6.0644   6.2567
     6.3776   6.7051   6.7275   6.7762   7.0100   7.0703

     occupation numbers 
     1.0000   1.0000   1.0000   1.0000   1.0000   1.0000   1.0000   1.0000
     1.0000   1.0000   1.0000   1.0000   1.0000   1.0000   1.0000   1.0000
     1.0000   1.0000   1.0000   1.0000   1.0000   1.0000   1.0000   1.0000
     1.0000   1.0000   1.0000   1.0000   1.0000   1.0000   0.9680   0.6983
     0.3753   0.0048   0.0031   0.0010   0.0000   0.0000

          k = 0.1768 0.1768-0.1768 (  7564 PWs)   bands (ev):

    -6.1352  -4.9351  -4.1498  -3.8967  -3.5940  -3.4478  -2.7451  -2.6329
    -1.3911  -1.1385  -0.7325  -0.5399  -0.2664   0.1486   0.4583   2.0474
     2.1898   2.4566   2.8599   3.0580   3.3296   3.4019   3.7496   3.7803
     4.0832   4.3563   4.8651   5.1056   5.2754   5.4091   6.0238   6.2122
     6.3571   6.5804   6.7997   7.1740   7.4917   7.6265

     occupation numbers 
     1.0000   1.0000   1.0000   1.0000   1.0000   1.0000   1.0000   1.0000
     1.0000   1.0000   1.0000   1.0000   1.0000   1.0000   1.0000   1.0000
     1.0000   1.0000   1.0000   1.0000   1.0000   1.0000   1.0000   1.0000
     1.0000   1.0000   1.0000   1.0000   1.0000   1.0000   0.9836   0.7961
     0.4303   0.0424   0.0006   0.0000   0.0000   0.0000

          k =-0.3536-0.3536 0.3536 (  7570 PWs)   bands (ev):

    -5.7849  -5.4176  -4.0668  -3.8978  -3.7511  -3.5233  -3.0388  -2.8222
    -1.1025  -0.6396  -0.2797  -0.2461   0.2243   0.3281   1.3293   1.9559
     2.0652   2.1787   2.2351   2.3646   2.5029   3.0034   3.5024   3.6727
     3.9283   3.9689   4.1093   4.6925   4.9611   5.5859   5.8070   6.0810
     6.7182   6.7672   7.0707   7.1233   7.4722   7.5785

     occupation numbers 
     1.0000   1.0000   1.0000   1.0000   1.0000   1.0000   1.0000   1.0000
     1.0000   1.0000   1.0000   1.0000   1.0000   1.0000   1.0000   1.0000
     1.0000   1.0000   1.0000   1.0000   1.0000   1.0000   1.0000   1.0000
     1.0000   1.0000   1.0000   1.0000   1.0000   1.0000   0.9999   0.9589
     0.0037   0.0013   0.0000   0.0000   0.0000   0.0000

          k = 0.3536 0.0000 0.0000 (  7563 PWs)   bands (ev):

    -6.0824  -4.8200  -4.3638  -4.0350  -3.9176  -3.2950  -2.5120  -2.1614
    -1.8274  -1.3557  -0.6306  -0.5069   0.1203   0.2754   0.7298   2.0996
     2.1898   2.4166   2.7223   2.9465   3.0452   3.2447   3.4742   3.7427
     3.9362   4.2835   4.5939   4.9232   5.3195   5.6094   5.8424   5.9578
     6.1404   6.7700   7.0940   7.2901   7.6031   7.7959

     occupation numbers 
     1.0000   1.0000   1.0000   1.0000   1.0000   1.0000   1.0000   1.0000
     1.0000   1.0000   1.0000   1.0000   1.0000   1.0000   1.0000   1.0000
     1.0000   1.0000   1.0000   1.0000   1.0000   1.0000   1.0000   1.0000
     1.0000   1.0000   1.0000   1.0000   1.0000   1.0000   0.9997   0.9952
     0.9076   0.0012   0.0000   0.0000   0.0000   0.0000

          k =-0.1768-0.5303 0.5303 (  7554 PWs)   bands (ev):

    -5.7534  -5.2178  -4.4920  -4.2000  -3.8706  -3.2517  -2.8769  -2.4263
    -1.3262  -0.9749  -0.4122   0.1452   0.5281   0.9249   1.2738   1.7705
     1.9174   2.0312   2.2178   2.6756   2.8085   2.9758   3.0998   3.1868
     3.6071   3.7069   4.2927   4.5373   4.7204   4.9827   5.3953   5.9221
     6.7257   7.3203   7.5782   7.7739   8.0045   8.1922

     occupation numbers 
     1.0000   1.0000   1.0000   1.0000   1.0000   1.0000   1.0000   1.0000
     1.0000   1.0000   1.0000   1.0000   1.0000   1.0000   1.0000   1.0000
     1.0000   1.0000   1.0000   1.0000   1.0000   1.0000   1.0000   1.0000
     1.0000   1.0000   1.0000   1.0000   1.0000   1.0000   1.0000   0.9977
     0.0032   0.0000   0.0000   0.0000   0.0000   0.0000

          k = 0.0000-0.3536 0.3536 (  7592 PWs)   bands (ev):

    -5.8749  -5.0999  -4.6054  -3.9975  -3.6802  -3.3583  -2.8377  -2.3932
    -1.3758  -1.1852  -0.6360  -0.0549   0.5387   0.8038   0.9751   1.4616
     2.1418   2.2710   2.3824   2.7773   2.8980   3.1819   3.3399   3.6136
     3.8724   3.9724   4.2959   4.4602   4.7317   4.9472   5.2022   6.3086
     6.6892   7.3057   7.5176   7.6073   7.8247   8.0492

     occupation numbers 
     1.0000   1.0000   1.0000   1.0000   1.0000   1.0000   1.0000   1.0000
     1.0000   1.0000   1.0000   1.0000   1.0000   1.0000   1.0000   1.0000
     1.0000   1.0000   1.0000   1.0000   1.0000   1.0000   1.0000   1.0000
     1.0000   1.0000   1.0000   1.0000   1.0000   1.0000   1.0000   0.5635
     0.0066   0.0000   0.0000   0.0000   0.0000   0.0000

          k =-0.7071 0.0000 0.0000 (  7528 PWs)   bands (ev):

    -5.6575  -5.1323  -4.6218  -4.3123  -4.1499  -3.3669  -2.4695  -2.0078
    -1.7763  -1.1148  -0.0336   0.2951   0.6952   0.9787   1.7764   1.8724
     1.9707   2.0082   2.1717   2.3086   2.4480   2.5450   2.6981   3.0223
     3.4464   3.5727   4.4314   4.5696   4.9705   5.2947   5.4095   5.6565
     6.3728   6.8357   7.4165   7.8752   8.0573   8.4323

     occupation numbers 
     1.0000   1.0000   1.0000   1.0000   1.0000   1.0000   1.0000   1.0000
     1.0000   1.0000   1.0000   1.0000   1.0000   1.0000   1.0000   1.0000
     1.0000   1.0000   1.0000   1.0000   1.0000   1.0000   1.0000   1.0000
     1.0000   1.0000   1.0000   1.0000   1.0000   1.0000   1.0000   1.0000
     0.3878   0.0002   0.0000   0.0000   0.0000   0.0000

          k =-0.7071 0.3536 0.0000 (  7564 PWs)   bands (ev):

    -5.5427  -5.2827  -4.7436  -4.4585  -3.5306  -3.4151  -2.8156  -2.3379
    -1.2066  -0.8089  -0.6197   0.0108   1.0873   1.1448   1.5799   1.6788
     1.7822   1.9584   2.1362   2.3338   2.6674   3.0397   3.1535   3.3062
     3.3983   3.5754   3.8629   4.0725   4.6577   4.9885   5.2523   5.5814
     7.3991   7.5709   7.7525   7.8664   8.2825   8.3947

     occupation numbers 
     1.0000   1.0000   1.0000   1.0000   1.0000   1.0000   1.0000   1.0000
     1.0000   1.0000   1.0000   1.0000   1.0000   1.0000   1.0000   1.0000
     1.0000   1.0000   1.0000   1.0000   1.0000   1.0000   1.0000   1.0000
     1.0000   1.0000   1.0000   1.0000   1.0000   1.0000   1.0000   1.0000
     0.0000   0.0000   0.0000   0.0000   0.0000   0.0000

          k =-0.1768-0.1768-0.1768 (  7564 PWs)   bands (ev):

    -6.1326  -4.9443  -4.2424  -3.8525  -3.5934  -3.4372  -2.7639  -2.0707
    -1.6894  -1.3883  -0.8452  -0.7551  -0.4055   0.4165   0.5777   1.8477
     2.5175   2.7449   2.8638   3.1532   3.1829   3.4601   3.7601   4.1176
     4.2266   4.3997   4.5682   4.7685   5.1447   5.4930   5.7925   6.1804
     6.4245   6.4996   6.6613   7.2337   7.3479   7.6422

     occupation numbers 
     1.0000   1.0000   1.0000   1.0000   1.0000   1.0000   1.0000   1.0000
     1.0000   1.0000   1.0000   1.0000   1.0000   1.0000   1.0000   1.0000
     1.0000   1.0000   1.0000   1.0000   1.0000   1.0000   1.0000   1.0000
     1.0000   1.0000   1.0000   1.0000   1.0000   1.0000   0.9999   0.8528
     0.2602   0.1223   0.0112   0.0000   0.0000   0.0000

          k =-0.1768 0.1768 0.1768 (  7564 PWs)   bands (ev):

    -6.1244  -4.9010  -4.2945  -4.0114  -3.5244  -3.3339  -2.7734  -2.2599
    -1.6978  -1.3420  -0.7493  -0.3725  -0.1411   0.1192   0.4534   1.8745
     2.1792   2.3895   2.8991   3.1424   3.3173   3.4642   3.6772   3.8707
     4.1002   4.5545   4.6813   4.9510   5.2291   5.6276   6.0558   6.2581
     6.5337   6.6780   6.8359   7.0516   7.2541   7.5123

     occupation numbers 
     1.0000   1.0000   1.0000   1.0000   1.0000   1.0000   1.0000   1.0000
     1.0000   1.0000   1.0000   1.0000   1.0000   1.0000   1.0000   1.0000
     1.0000   1.0000   1.0000   1.0000   1.0000   1.0000   1.0000   1.0000
     1.0000   1.0000   1.0000   1.0000   1.0000   1.0000   0.9721   0.6950
     0.0809   0.0082   0.0002   0.0000   0.0000   0.0000

          k = 0.1768-0.1768 0.1768 (  7564 PWs)   bands (ev):

    -6.1362  -4.8132  -4.4797  -3.7997  -3.7363  -3.2106  -2.5896  -2.2230
    -1.8527  -1.4440  -0.8878  -0.6504   0.0478   0.2817   0.4295   2.0444
     2.3652   2.5441   2.7707   2.9969   3.1804   3.3345   3.9557   4.1591
     4.2267   4.4431   4.6766   4.8766   5.0171   5.3507   6.0068   6.3309
     6.5149   6.7560   6.8319   7.0727   7.3912   7.4923

     occupation numbers 
     1.0000   1.0000   1.0000   1.0000   1.0000   1.0000   1.0000   1.0000
     1.0000   1.0000   1.0000   1.0000   1.0000   1.0000   1.0000   1.0000
     1.0000   1.0000   1.0000   1.0000   1.0000   1.0000   1.0000   1.0000
     1.0000   1.0000   1.0000   1.0000   1.0000   1.0000   0.9878   0.5022
     0.1021   0.0016   0.0003   0.0000   0.0000   0.0000

          k = 0.3536 0.3536 0.3536 (  7570 PWs)   bands (ev):

    -5.7632  -5.4455  -4.2907  -3.8555  -3.7347  -3.3802  -2.9837  -2.3482
    -1.3195  -1.1057  -0.5322  -0.4600  -0.2302   0.8746   1.4754   1.8776
     2.0565   2.5690   2.7194   2.8515   2.9233   3.0131   3.4694   3.6225
     3.7128   3.8281   4.1246   4.1662   4.7371   5.5731   5.8200   6.1040
     6.2781   6.9010   7.0308   7.3105   7.3785   7.4152

     occupation numbers 
     1.0000   1.0000   1.0000   1.0000   1.0000   1.0000   1.0000   1.0000
     1.0000   1.0000   1.0000   1.0000   1.0000   1.0000   1.0000   1.0000
     1.0000   1.0000   1.0000   1.0000   1.0000   1.0000   1.0000   1.0000
     1.0000   1.0000   1.0000   1.0000   1.0000   1.0000   0.9998   0.9427
     0.6448   0.0000   0.0000   0.0000   0.0000   0.0000

          k = 0.3536-0.3536-0.3536 (  7570 PWs)   bands (ev):

    -5.7110  -5.4542  -4.3028  -4.1599  -3.5152  -3.2874  -3.0486  -2.5135
    -1.3524  -1.1307  -0.2325   0.0570   0.3780   0.5502   1.3301   1.5364
     1.7671   2.0761   2.1475   2.4614   2.7952   3.2373   3.3806   3.7716
     3.9238   4.0513   4.1145   4.4099   5.0928   5.6690   5.9771   6.3585
     6.5525   6.7493   7.1119   7.3393   7.5449   7.6045

     occupation numbers 
     1.0000   1.0000   1.0000   1.0000   1.0000   1.0000   1.0000   1.0000
     1.0000   1.0000   1.0000   1.0000   1.0000   1.0000   1.0000   1.0000
     1.0000   1.0000   1.0000   1.0000   1.0000   1.0000   1.0000   1.0000
     1.0000   1.0000   1.0000   1.0000   1.0000   1.0000   0.9930   0.4263
     0.0630   0.0019   0.0000   0.0000   0.0000   0.0000

          k =-0.3536 0.3536-0.3536 (  7570 PWs)   bands (ev):

    -5.8178  -5.2732  -4.5460  -3.9693  -3.7058  -3.0138  -2.8550  -2.5752
    -1.4986  -1.2647  -0.6530  -0.1316   0.3738   0.7484   1.4864   1.7893
     1.8755   2.0971   2.6610   2.7155   2.8396   3.1228   3.3036   3.6191
     3.7836   3.9504   4.1352   4.4488   4.8332   5.2623   6.2874   6.3580
     6.6803   6.8321   7.0850   7.1499   7.2497   7.3154

     occupation numbers 
     1.0000   1.0000   1.0000   1.0000   1.0000   1.0000   1.0000   1.0000
     1.0000   1.0000   1.0000   1.0000   1.0000   1.0000   1.0000   1.0000
     1.0000   1.0000   1.0000   1.0000   1.0000   1.0000   1.0000   1.0000
     1.0000   1.0000   1.0000   1.0000   1.0000   1.0000   0.6207   0.4278
     0.0079   0.0003   0.0000   0.0000   0.0000   0.0000

          k = 0.0000 0.3536 0.0000 (  7563 PWs)   bands (ev):

    -6.0642  -4.9044  -4.3845  -4.0680  -3.6677  -3.4456  -2.4517  -2.2025
    -1.6353  -1.3582  -0.9728  -0.3049   0.0228   0.1695   0.8718   1.8381
     2.0971   2.4551   2.7487   2.9078   3.1606   3.3748   3.7760   3.8929
     3.9689   4.3007   4.6785   4.9281   4.9911   5.6326   5.7753   5.9000
     6.2951   6.6677   6.9888   7.3009   7.5240   7.7245

     occupation numbers 
     1.0000   1.0000   1.0000   1.0000   1.0000   1.0000   1.0000   1.0000
     1.0000   1.0000   1.0000   1.0000   1.0000   1.0000   1.0000   1.0000
     1.0000   1.0000   1.0000   1.0000   1.0000   1.0000   1.0000   1.0000
     1.0000   1.0000   1.0000   1.0000   1.0000   1.0000   0.9999   0.9986
     0.6002   0.0099   0.0000   0.0000   0.0000   0.0000

          k = 0.0000 0.0000 0.3536 (  7563 PWs)   bands (ev):

    -6.0746  -4.8612  -4.3424  -3.9794  -3.8672  -3.4946  -2.5198  -2.1154
    -1.5469  -1.3269  -0.7968  -0.4833  -0.1699   0.4144   0.7858   1.9404
     2.1735   2.3387   2.6111   2.9706   3.2812   3.3324   3.4966   3.6936
     3.9490   4.3160   4.7241   5.1096   5.4077   5.4610   5.6344   6.0200
     6.2676   6.7396   7.0772   7.3151   7.5326   7.6566

     occupation numbers 
     1.0000   1.0000   1.0000   1.0000   1.0000   1.0000   1.0000   1.0000
     1.0000   1.0000   1.0000   1.0000   1.0000   1.0000   1.0000   1.0000
     1.0000   1.0000   1.0000   1.0000   1.0000   1.0000   1.0000   1.0000
     1.0000   1.0000   1.0000   1.0000   1.0000   1.0000   1.0000   0.9846
     0.6716   0.0024   0.0000   0.0000   0.0000   0.0000

          k = 0.1768 0.5303 0.5303 (  7554 PWs)   bands (ev):

    -5.7453  -5.2237  -4.5105  -4.3412  -3.6665  -3.2768  -2.8694  -2.1790
    -1.4912  -1.0243  -0.6244  -0.2408   0.5614   1.0992   1.3582   1.8541
     2.0210   2.2385   2.4974   2.5595   2.8288   3.0160   3.0896   3.4174
     3.5993   3.6825   4.1062   4.2642   4.5766   5.1839   5.4036   5.9289
     6.6296   6.9680   7.4524   7.7862   7.9486   8.2808

     occupation numbers 
     1.0000   1.0000   1.0000   1.0000   1.0000   1.0000   1.0000   1.0000
     1.0000   1.0000   1.0000   1.0000   1.0000   1.0000   1.0000   1.0000
     1.0000   1.0000   1.0000   1.0000   1.0000   1.0000   1.0000   1.0000
     1.0000   1.0000   1.0000   1.0000   1.0000   1.0000   1.0000   0.9974
     0.0195   0.0000   0.0000   0.0000   0.0000   0.0000

          k = 0.1768-0.5303-0.5303 (  7554 PWs)   bands (ev):

    -5.7234  -5.2088  -4.5720  -4.3732  -3.6215  -3.2395  -2.9638  -2.1685
    -1.5827  -1.0562  -0.2096  -0.0118   0.6154   1.0992   1.3533   1.5381
     1.7173   2.0963   2.2472   2.4187   2.7360   2.9731   3.2665   3.3603
     3.6444   3.9519   4.0569   4.4617   4.7224   5.0729   5.6017   5.9649
     6.6797   7.1687   7.4620   7.7880   7.9751   8.1728

     occupation numbers 
     1.0000   1.0000   1.0000   1.0000   1.0000   1.0000   1.0000   1.0000
     1.0000   1.0000   1.0000   1.0000   1.0000   1.0000   1.0000   1.0000
     1.0000   1.0000   1.0000   1.0000   1.0000   1.0000   1.0000   1.0000
     1.0000   1.0000   1.0000   1.0000   1.0000   1.0000   1.0000   0.9945
     0.0079   0.0000   0.0000   0.0000   0.0000   0.0000

          k =-0.1768 0.5303-0.5303 (  7554 PWs)   bands (ev):

    -5.7680  -5.0618  -4.7810  -4.1652  -3.8915  -2.9851  -2.8046  -2.3907
    -1.4916  -1.1046  -0.6387   0.0064   0.7076   1.1657   1.2796   1.7435
     1.8799   2.1340   2.3211   2.5831   2.7971   3.0396   3.1052   3.4236
     3.5650   3.6635   4.1919   4.4334   4.6877   5.0298   5.4078   6.0167
     6.6429   7.2034   7.5250   7.7988   7.9271   8.2415

     occupation numbers 
     1.0000   1.0000   1.0000   1.0000   1.0000   1.0000   1.0000   1.0000
     1.0000   1.0000   1.0000   1.0000   1.0000   1.0000   1.0000   1.0000
     1.0000   1.0000   1.0000   1.0000   1.0000   1.0000   1.0000   1.0000
     1.0000   1.0000   1.0000   1.0000   1.0000   1.0000   1.0000   0.9855
     0.0155   0.0000   0.0000   0.0000   0.0000   0.0000

          k =-0.5303-0.1768-0.5303 (  7554 PWs)   bands (ev):

    -5.6938  -5.2887  -4.6030  -4.3183  -3.5074  -3.2988  -2.8922  -2.1822
    -1.3699  -1.0319  -0.7514  -0.2908   0.4890   1.1171   1.4396   1.5892
     1.9622   2.2496   2.4849   2.6419   2.7303   3.0807   3.2623   3.6366
     3.7803   3.8317   4.1114   4.3470   4.6412   4.8304   5.2683   5.9146
     6.5465   7.0415   7.4033   7.5904   7.8818   8.2348

     occupation numbers 
     1.0000   1.0000   1.0000   1.0000   1.0000   1.0000   1.0000   1.0000
     1.0000   1.0000   1.0000   1.0000   1.0000   1.0000   1.0000   1.0000
     1.0000   1.0000   1.0000   1.0000   1.0000   1.0000   1.0000   1.0000
     1.0000   1.0000   1.0000   1.0000   1.0000   1.0000   1.0000   0.9981
     0.0683   0.0000   0.0000   0.0000   0.0000   0.0000

          k = 0.5303 0.1768-0.5303 (  7554 PWs)   bands (ev):

    -5.7115  -5.2525  -4.6440  -4.1314  -3.7872  -3.2449  -2.7921  -2.4716
    -1.2654  -0.9497  -0.6416   0.2375   0.4101   0.9221   1.3476   1.6188
     1.8228   2.1055   2.3375   2.5627   2.7979   2.9322   3.2026   3.3409
     3.7447   3.9758   4.1752   4.5247   4.6844   5.0687   5.1824   5.9071
     6.9893   7.2586   7.5694   7.7148   7.7766   8.1006

     occupation numbers 
     1.0000   1.0000   1.0000   1.0000   1.0000   1.0000   1.0000   1.0000
     1.0000   1.0000   1.0000   1.0000   1.0000   1.0000   1.0000   1.0000
     1.0000   1.0000   1.0000   1.0000   1.0000   1.0000   1.0000   1.0000
     1.0000   1.0000   1.0000   1.0000   1.0000   1.0000   1.0000   0.9984
     0.0000   0.0000   0.0000   0.0000   0.0000   0.0000

          k =-0.5303 0.1768 0.5303 (  7554 PWs)   bands (ev):

    -5.6674  -5.2790  -4.6957  -4.2118  -3.7724  -3.1264  -2.7308  -2.4274
    -1.3334  -1.0245  -0.7374   0.4183   0.4715   1.0189   1.1548   1.5691
     1.6487   2.0158   2.3041   2.7081   2.9656   2.9956   3.1654   3.4868
     3.6960   4.0378   4.0716   4.3563   4.4683   5.2272   5.4282   6.0089
     6.8808   7.1661   7.3788   7.7324   8.0749   8.2635

     occupation numbers 
     1.0000   1.0000   1.0000   1.0000   1.0000   1.0000   1.0000   1.0000
     1.0000   1.0000   1.0000   1.0000   1.0000   1.0000   1.0000   1.0000
     1.0000   1.0000   1.0000   1.0000   1.0000   1.0000   1.0000   1.0000
     1.0000   1.0000   1.0000   1.0000   1.0000   1.0000   1.0000   0.9874
     0.0001   0.0000   0.0000   0.0000   0.0000   0.0000

          k = 0.5303-0.1768 0.5303 (  7554 PWs)   bands (ev):

    -5.7280  -5.1068  -4.8422  -4.2570  -3.6097  -3.2050  -2.6630  -2.3644
    -1.4817  -1.1627  -0.5114  -0.2152   0.6212   1.2369   1.4147   1.5822
     1.8019   1.9249   2.3312   2.5870   2.7823   3.3017   3.3324   3.5769
     3.6457   3.8705   4.0833   4.3575   4.6939   4.8198   5.5146   5.9672
     6.6133   6.9875   7.4995   7.6780   7.9119   8.0597

     occupation numbers 
     1.0000   1.0000   1.0000   1.0000   1.0000   1.0000   1.0000   1.0000
     1.0000   1.0000   1.0000   1.0000   1.0000   1.0000   1.0000   1.0000
     1.0000   1.0000   1.0000   1.0000   1.0000   1.0000   1.0000   1.0000
     1.0000   1.0000   1.0000   1.0000   1.0000   1.0000   1.0000   0.9942
     0.0255   0.0000   0.0000   0.0000   0.0000   0.0000

          k = 0.5303 0.5303-0.1768 (  7554 PWs)   bands (ev):

    -5.7313  -5.2535  -4.4948  -4.1160  -3.9484  -3.3230  -2.8687  -2.3428
    -1.2552  -0.8147  -0.4867  -0.0557   0.4313   1.0106   1.3616   1.7305
     1.7880   1.9938   2.1432   2.4904   2.8000   2.9919   3.1295   3.5938
     3.7671   3.8403   4.2592   4.4244   4.7270   4.9538   5.4539   5.7720
     6.8643   7.1787   7.5650   7.7125   7.9866   8.3405

     occupation numbers 
     1.0000   1.0000   1.0000   1.0000   1.0000   1.0000   1.0000   1.0000
     1.0000   1.0000   1.0000   1.0000   1.0000   1.0000   1.0000   1.0000
     1.0000   1.0000   1.0000   1.0000   1.0000   1.0000   1.0000   1.0000
     1.0000   1.0000   1.0000   1.0000   1.0000   1.0000   1.0000   0.9999
     0.0001   0.0000   0.0000   0.0000   0.0000   0.0000

          k =-0.5303 0.5303 0.1768 (  7554 PWs)   bands (ev):

    -5.6983  -5.2495  -4.5941  -4.2956  -3.6710  -3.3893  -2.7993  -2.2294
    -1.3531  -0.9443  -0.5796   0.0354   0.6262   1.0795   1.2721   1.5575
     1.6582   2.1365   2.2233   2.5760   2.7180   2.9366   3.1660   3.3857
     3.5708   3.9662   4.1067   4.6843   4.8778   5.2489   5.3797   5.9017
     6.8146   7.1751   7.4066   7.7348   7.8570   8.2051

     occupation numbers 
     1.0000   1.0000   1.0000   1.0000   1.0000   1.0000   1.0000   1.0000
     1.0000   1.0000   1.0000   1.0000   1.0000   1.0000   1.0000   1.0000
     1.0000   1.0000   1.0000   1.0000   1.0000   1.0000   1.0000   1.0000
     1.0000   1.0000   1.0000   1.0000   1.0000   1.0000   1.0000   0.9986
     0.0004   0.0000   0.0000   0.0000   0.0000   0.0000

          k = 0.5303-0.5303 0.1768 (  7554 PWs)   bands (ev):

    -5.7542  -5.0503  -4.8282  -4.2359  -3.6818  -3.2917  -2.6746  -2.3496
    -1.2919  -1.0959  -0.7278  -0.1160   0.8299   1.1096   1.2456   1.5851
     1.7508   2.1166   2.2131   2.6439   2.9363   3.0260   3.3134   3.4508
     3.6560   3.8183   4.0202   4.3528   4.7216   5.1083   5.4298   6.1061
     6.7642   7.0530   7.4012   7.7083   7.9113   8.1476

     occupation numbers 
     1.0000   1.0000   1.0000   1.0000   1.0000   1.0000   1.0000   1.0000
     1.0000   1.0000   1.0000   1.0000   1.0000   1.0000   1.0000   1.0000
     1.0000   1.0000   1.0000   1.0000   1.0000   1.0000   1.0000   1.0000
     1.0000   1.0000   1.0000   1.0000   1.0000   1.0000   1.0000   0.9410
     0.0014   0.0000   0.0000   0.0000   0.0000   0.0000

          k =-0.5303-0.5303-0.1768 (  7554 PWs)   bands (ev):

    -5.7148  -5.2884  -4.4848  -4.1990  -3.9086  -3.2825  -2.7683  -2.1676
    -1.3060  -1.0439  -0.7049  -0.1468   0.1970   1.2009   1.5603   1.6758
     2.0063   2.1693   2.4105   2.4952   2.7217   3.0494   3.2114   3.4512
     3.7081   3.8962   4.2123   4.3078   4.6852   5.0598   5.3803   5.7245
     6.7034   7.0533   7.4930   7.6393   7.9837   8.1536

     occupation numbers 
     1.0000   1.0000   1.0000   1.0000   1.0000   1.0000   1.0000   1.0000
     1.0000   1.0000   1.0000   1.0000   1.0000   1.0000   1.0000   1.0000
     1.0000   1.0000   1.0000   1.0000   1.0000   1.0000   1.0000   1.0000
     1.0000   1.0000   1.0000   1.0000   1.0000   1.0000   1.0000   1.0000
     0.0050   0.0000   0.0000   0.0000   0.0000   0.0000

          k = 0.0000 0.3536 0.3536 (  7592 PWs)   bands (ev):

    -5.8363  -5.2153  -4.4701  -4.1694  -3.5359  -3.3003  -3.0463  -2.0824
    -1.4491  -1.2086  -0.7099  -0.1765   0.3317   0.8409   1.2006   1.3831
     2.1203   2.3765   2.4889   2.7695   3.0167   3.1674   3.3676   3.6143
     3.7908   4.0050   4.2217   4.3937   4.8378   4.9685   5.2968   6.2793
     6.5816   7.0544   7.3098   7.5201   7.8736   8.1578

     occupation numbers 
     1.0000   1.0000   1.0000   1.0000   1.0000   1.0000   1.0000   1.0000
     1.0000   1.0000   1.0000   1.0000   1.0000   1.0000   1.0000   1.0000
     1.0000   1.0000   1.0000   1.0000   1.0000   1.0000   1.0000   1.0000
     1.0000   1.0000   1.0000   1.0000   1.0000   1.0000   1.0000   0.6418
     0.0417   0.0000   0.0000   0.0000   0.0000   0.0000

          k =-0.3536 0.0000-0.3536 (  7592 PWs)   bands (ev):

    -5.8800  -4.9868  -4.7757  -4.1467  -3.5035  -3.2087  -2.7379  -2.4281
    -1.4383  -1.1487  -0.8098  -0.5283   0.5303   0.9353   1.1996   1.6910
     1.9560   2.3661   2.5046   2.7191   3.0042   3.2295   3.4875   3.7789
     3.8675   4.0029   4.2558   4.3993   4.7062   4.9055   5.1407   6.1012
     6.6307   6.8611   7.2988   7.5563   8.0170   8.0801

     occupation numbers 
     1.0000   1.0000   1.0000   1.0000   1.0000   1.0000   1.0000   1.0000
     1.0000   1.0000   1.0000   1.0000   1.0000   1.0000   1.0000   1.0000
     1.0000   1.0000   1.0000   1.0000   1.0000   1.0000   1.0000   1.0000
     1.0000   1.0000   1.0000   1.0000   1.0000   1.0000   1.0000   0.9449
     0.0191   0.0001   0.0000   0.0000   0.0000   0.0000

          k = 0.3536 0.0000-0.3536 (  7592 PWs)   bands (ev):

    -5.8610  -5.0824  -4.6717  -3.9908  -3.6121  -3.2894  -3.1247  -2.2123
    -1.5363  -1.0576  -0.4661   0.2531   0.4673   0.5577   0.9507   1.5203
     1.8965   2.2403   2.3843   2.6056   2.8649   3.1178   3.3546   3.5345
     3.8583   4.1174   4.4475   4.5467   4.6965   4.9238   5.3397   6.4037
     6.8650   7.1527   7.4564   7.6314   7.9137   8.1904

     occupation numbers 
     1.0000   1.0000   1.0000   1.0000   1.0000   1.0000   1.0000   1.0000
     1.0000   1.0000   1.0000   1.0000   1.0000   1.0000   1.0000   1.0000
     1.0000   1.0000   1.0000   1.0000   1.0000   1.0000   1.0000   1.0000
     1.0000   1.0000   1.0000   1.0000   1.0000   1.0000   1.0000   0.3089
     0.0001   0.0000   0.0000   0.0000   0.0000   0.0000

          k = 0.3536 0.3536 0.0000 (  7592 PWs)   bands (ev):

    -5.8650  -5.1898  -4.4609  -3.9251  -3.7975  -3.3575  -2.9736  -2.2457
    -1.3042  -1.1862  -0.6878  -0.1494   0.1985   0.9327   1.0988   1.6008
     2.0969   2.2667   2.6530   2.7640   2.9763   3.1708   3.3283   3.4489
     3.8321   4.1214   4.2184   4.4218   4.7957   4.9363   5.2150   6.0204
     6.6075   7.2480   7.3329   7.6477   7.8636   8.1742

     occupation numbers 
     1.0000   1.0000   1.0000   1.0000   1.0000   1.0000   1.0000   1.0000
     1.0000   1.0000   1.0000   1.0000   1.0000   1.0000   1.0000   1.0000
     1.0000   1.0000   1.0000   1.0000   1.0000   1.0000   1.0000   1.0000
     1.0000   1.0000   1.0000   1.0000   1.0000   1.0000   1.0000   0.9845
     0.0280   0.0000   0.0000   0.0000   0.0000   0.0000

          k =-0.3536 0.3536 0.0000 (  7592 PWs)   bands (ev):

    -5.8569  -5.0516  -4.7137  -4.1292  -3.6814  -3.0923  -2.7946  -2.4011
    -1.5147  -1.1121  -0.8416   0.1150   0.5218   0.8430   1.0192   1.5521
     1.8607   2.1757   2.3088   2.7588   3.0639   3.1482   3.4965   3.5568
     3.7445   4.0843   4.2598   4.4833   4.7097   5.0099   5.6142   6.3449
     6.6051   6.9521   7.4843   7.6760   7.7448   7.9612

     occupation numbers 
     1.0000   1.0000   1.0000   1.0000   1.0000   1.0000   1.0000   1.0000
     1.0000   1.0000   1.0000   1.0000   1.0000   1.0000   1.0000   1.0000
     1.0000   1.0000   1.0000   1.0000   1.0000   1.0000   1.0000   1.0000
     1.0000   1.0000   1.0000   1.0000   1.0000   1.0000   1.0000   0.4637
     0.0291   0.0000   0.0000   0.0000   0.0000   0.0000

          k = 0.0000-0.7071 0.0000 (  7528 PWs)   bands (ev):

    -5.4889  -5.2862  -4.9175  -4.2354  -3.8039  -3.5158  -2.3237  -2.0977
    -1.5440  -1.1886  -0.4973   0.5300   0.5882   0.9686   1.4742   1.6311
     1.8902   2.0464   2.0785   2.4621   2.5891   2.7630   2.9419   3.2121
     3.6899   4.0469   4.1966   4.6050   4.7503   4.9426   5.5597   5.6326
     6.4944   6.7862   7.5961   7.6790   7.7874   8.2521

     occupation numbers 
     1.0000   1.0000   1.0000   1.0000   1.0000   1.0000   1.0000   1.0000
     1.0000   1.0000   1.0000   1.0000   1.0000   1.0000   1.0000   1.0000
     1.0000   1.0000   1.0000   1.0000   1.0000   1.0000   1.0000   1.0000
     1.0000   1.0000   1.0000   1.0000   1.0000   1.0000   1.0000   1.0000
     0.1298   0.0008   0.0000   0.0000   0.0000   0.0000

          k = 0.0000 0.0000-0.7071 (  7528 PWs)   bands (ev):

    -5.5869  -5.2531  -4.5593  -4.3829  -4.0268  -3.5489  -2.4792  -1.9587
    -1.3917  -1.1248  -0.2318   0.1432   0.6222   1.1588   1.4543   1.6664
     1.9110   1.9918   2.1456   2.3453   2.4930   2.5860   2.8419   2.9141
     3.8112   4.1865   4.3222   4.4366   4.9588   5.2377   5.4069   5.6389
     6.4790   6.8273   7.5709   7.6340   7.9334   8.3473

     occupation numbers 
     1.0000   1.0000   1.0000   1.0000   1.0000   1.0000   1.0000   1.0000
     1.0000   1.0000   1.0000   1.0000   1.0000   1.0000   1.0000   1.0000
     1.0000   1.0000   1.0000   1.0000   1.0000   1.0000   1.0000   1.0000
     1.0000   1.0000   1.0000   1.0000   1.0000   1.0000   1.0000   1.0000
     0.1537   0.0003   0.0000   0.0000   0.0000   0.0000

          k = 0.3536-0.7071 0.0000 (  7564 PWs)   bands (ev):

    -5.4800  -5.2895  -4.8620  -4.5098  -3.5079  -3.1794  -2.8331  -2.4366
    -1.0606  -0.9169  -0.5974  -0.1627   0.8651   1.2740   1.4287   1.7079
     1.8228   2.0082   2.2663   2.4544   2.6814   2.8055   3.1134   3.3680
     3.5387   3.8017   3.9121   4.2068   4.5796   4.9439   5.2107   5.4527
     7.4116   7.5103   7.7222   7.8851   8.2301   8.4619

     occupation numbers 
     1.0000   1.0000   1.0000   1.0000   1.0000   1.0000   1.0000   1.0000
     1.0000   1.0000   1.0000   1.0000   1.0000   1.0000   1.0000   1.0000
     1.0000   1.0000   1.0000   1.0000   1.0000   1.0000   1.0000   1.0000
     1.0000   1.0000   1.0000   1.0000   1.0000   1.0000   1.0000   1.0000
     0.0000   0.0000   0.0000   0.0000   0.0000   0.0000

          k = 0.7071 0.0000 0.3536 (  7564 PWs)   bands (ev):

    -5.5365  -5.2098  -4.8840  -4.5136  -3.4003  -3.2107  -2.8841  -2.4620
    -1.2554  -0.9632  -0.4363  -0.1002   1.0228   1.3230   1.4628   1.6129
     1.8675   1.9840   2.1647   2.4570   2.7724   2.8505   3.2208   3.3433
     3.4740   3.6992   3.7956   4.0218   4.5452   4.9465   5.2040   5.5892
     7.2511   7.4778   7.8542   7.9807   8.1540   8.5122

     occupation numbers 
     1.0000   1.0000   1.0000   1.0000   1.0000   1.0000   1.0000   1.0000
     1.0000   1.0000   1.0000   1.0000   1.0000   1.0000   1.0000   1.0000
     1.0000   1.0000   1.0000   1.0000   1.0000   1.0000   1.0000   1.0000
     1.0000   1.0000   1.0000   1.0000   1.0000   1.0000   1.0000   1.0000
     0.0000   0.0000   0.0000   0.0000   0.0000   0.0000

     the Fermi energy is     6.3317 ev

!    total energy              =    -152.01507400 Ry
     Harris-Foulkes estimate   =    -152.01507400 Ry
     estimated scf accuracy    <          7.9E-10 Ry

     The total energy is the sum of the following terms:

     one-electron contribution =      37.59749168 Ry
     hartree contribution      =      10.18018598 Ry
     xc contribution           =     -68.44801619 Ry
     ewald contribution        =    -131.33933997 Ry
     smearing contrib. (-TS)   =      -0.00539551 Ry

     convergence has been achieved in  13 iterations

     Forces acting on atoms (Ry/au):

     atom    1 type  1   force =   0.59002928E-01  0.45236009E-01 -0.56383804E-02
     atom    2 type  1   force =   0.47882408E-01 -0.33454432E-01 -0.12558716E+00
     atom    3 type  1   force =  -0.16971075E-01 -0.50121280E-02  0.31008181E+00
     atom    4 type  1   force =  -0.10587777E+00 -0.95453356E-01  0.89688824E-01
     atom    5 type  1   force =   0.16171484E+00  0.19601480E+00 -0.18785844E+00
     atom    6 type  1   force =   0.14896027E+00 -0.23192330E+00 -0.21807856E+00
     atom    7 type  1   force =   0.32143193E-01 -0.22675835E-01 -0.41814130E-01
     atom    8 type  1   force =  -0.32085764E+00 -0.41515415E-01  0.94564379E-01
     atom    9 type  1   force =   0.90987571E-02  0.16224404E+00 -0.27357867E-01
     atom   10 type  1   force =  -0.55936884E-01 -0.83871362E-01  0.23715941E-01
     atom   11 type  1   force =   0.14957317E+00  0.67549799E-02  0.23192792E-02
     atom   12 type  1   force =   0.11029935E+00 -0.24637425E+00 -0.43469950E-01
     atom   13 type  1   force =  -0.29763058E+00  0.26725033E-01 -0.43003203E-02
     atom   14 type  1   force =   0.15035904E+00  0.16404192E+00  0.23740730E+00
     atom   15 type  1   force =  -0.81795390E-01 -0.49344701E-01 -0.16003905E+00
     atom   16 type  1   force =   0.10035386E-01  0.20860799E+00  0.56366321E-01
     The non-local contrib.  to forces
     atom    1 type  1   force =   0.83571471E-01  0.72384258E-01 -0.51343353E-01
     atom    2 type  1   force =   0.95501646E-01 -0.60159335E-02 -0.15122057E+00
     atom    3 type  1   force =  -0.72430378E-01 -0.35808324E-01  0.37511175E+00
     atom    4 type  1   force =  -0.13198493E+00 -0.11461466E+00  0.99622027E-01
     atom    5 type  1   force =   0.20959075E+00  0.19793330E+00 -0.19378863E+00
     atom    6 type  1   force =   0.10796200E+00 -0.25285246E+00 -0.23343434E+00
     atom    7 type  1   force =   0.15349516E-01 -0.34038788E-01 -0.23328854E-01
     atom    8 type  1   force =  -0.32483036E+00 -0.83923690E-03  0.93135529E-01
     atom    9 type  1   force =   0.17159401E-01  0.17884571E+00 -0.48092946E-01
     atom   10 type  1   force =  -0.93379559E-01 -0.99209567E-01  0.60564413E-01
     atom   11 type  1   force =   0.20750806E+00 -0.42092264E-02  0.72402207E-02
     atom   12 type  1   force =   0.12870049E+00 -0.27203972E+00 -0.18876253E-01
     atom   13 type  1   force =  -0.30466682E+00  0.13125822E-01 -0.13921357E-03
     atom   14 type  1   force =   0.10560925E+00  0.18513927E+00  0.26639204E+00
     atom   15 type  1   force =  -0.10521709E+00 -0.77926592E-01 -0.23168385E+00
     atom   16 type  1   force =   0.65183647E-02  0.26658910E+00  0.40527166E-01
     The ionic contribution  to forces
     atom    1 type  1   force =   0.54429629E+00  0.10357800E+00 -0.30003541E+00
     atom    2 type  1   force =   0.51749112E+00  0.27684513E+00 -0.24773049E+00
     atom    3 type  1   force =  -0.10938112E+00 -0.25395829E+00  0.13867881E+01
     atom    4 type  1   force =  -0.13135392E+00 -0.67015789E+00  0.28260003E+00
     atom    5 type  1   force =   0.52517875E+00  0.53747055E+00 -0.70397527E+00
     atom    6 type  1   force =   0.69880016E-01 -0.69093314E+00 -0.77069283E+00
     atom    7 type  1   force =  -0.16081617E+00 -0.76873918E-01 -0.44352069E+00
     atom    8 type  1   force =  -0.92634476E+00  0.67491254E-01  0.13186561E+00
     atom    9 type  1   force =   0.77233263E-01  0.53473022E+00 -0.65968918E-02
     atom   10 type  1   force =  -0.42564001E+00 -0.62789933E+00  0.83597766E-01
     atom   11 type  1   force =   0.72281124E+00 -0.15425611E+00 -0.28510719E-01
     atom   12 type  1   force =   0.59980561E+00 -0.84718202E+00  0.41406308E+00
     atom   13 type  1   force =  -0.10120327E+01 -0.90395714E-01  0.18376716E+00
     atom   14 type  1   force =   0.21698132E+00  0.62409090E+00  0.64383553E+00
     atom   15 type  1   force =  -0.26424728E+00  0.12116908E+00 -0.57455647E+00
     atom   16 type  1   force =  -0.24386170E+00  0.11462813E+01 -0.50898509E-01
     The local contribution  to forces
     atom    1 type  1   force =  -0.55944477E+00 -0.12290396E+00  0.33983493E+00
     atom    2 type  1   force =  -0.55558495E+00 -0.30417822E+00  0.25992271E+00
     atom    3 type  1   force =   0.15746905E+00  0.28152213E+00 -0.14170954E+01
     atom    4 type  1   force =   0.14593054E+00  0.67897093E+00 -0.28441781E+00
     atom    5 type  1   force =  -0.55437251E+00 -0.52231933E+00  0.69233356E+00
     atom    6 type  1   force =  -0.20603679E-01  0.68803260E+00  0.76509934E+00
     atom    7 type  1   force =   0.17832628E+00  0.85350875E-01  0.42352851E+00
     atom    8 type  1   force =   0.90174631E+00 -0.10763417E+00 -0.12261525E+00
     atom    9 type  1   force =  -0.84789906E-01 -0.53468849E+00  0.22725685E-01
     atom   10 type  1   force =   0.45434908E+00  0.63283127E+00 -0.11524482E+00
     atom   11 type  1   force =  -0.76057591E+00  0.16468728E+00  0.24395683E-01
     atom   12 type  1   force =  -0.60690151E+00  0.84774630E+00 -0.43881813E+00
     atom   13 type  1   force =   0.99218965E+00  0.10442324E+00 -0.18736580E+00
     atom   14 type  1   force =  -0.16332058E+00 -0.62832906E+00 -0.64898077E+00
     atom   15 type  1   force =   0.27861963E+00 -0.99930581E-01  0.62459345E+00
     atom   16 type  1   force =   0.24800099E+00 -0.11785445E+01  0.70618474E-01
     The core correction contribution to forces
     atom    1 type  1   force =  -0.94138146E-02 -0.78259525E-02  0.59082151E-02
     atom    2 type  1   force =  -0.95251987E-02 -0.10624404E-03  0.13445493E-01
     atom    3 type  1   force =   0.73688122E-02  0.32297727E-02 -0.34715361E-01
     atom    4 type  1   force =   0.11533890E-01  0.10347091E-01 -0.81068083E-02
     atom    5 type  1   force =  -0.18686172E-01 -0.17062361E-01  0.17565080E-01
     atom    6 type  1   force =  -0.82777455E-02  0.23836183E-01  0.20942597E-01
     atom    7 type  1   force =  -0.72324241E-03  0.28909692E-02  0.15072363E-02
     atom    8 type  1   force =   0.28563476E-01 -0.53098070E-03 -0.78238810E-02
     atom    9 type  1   force =  -0.49226792E-03 -0.16646685E-01  0.46044465E-02
     atom   10 type  1   force =   0.87397518E-02  0.10405277E-01 -0.52033056E-02
     atom   11 type  1   force =  -0.20168071E-01  0.52053049E-03 -0.80000248E-03
     atom   12 type  1   force =  -0.11302693E-01  0.25093565E-01  0.16229298E-03
     atom   13 type  1   force =   0.26879399E-01 -0.41911795E-03 -0.57311734E-03
     atom   14 type  1   force =  -0.89098497E-02 -0.16852798E-01 -0.23846581E-01
     atom   15 type  1   force =   0.90437846E-02  0.73398629E-02  0.21607618E-01
     atom   16 type  1   force =  -0.62810378E-03 -0.25721537E-01 -0.38782352E-02
     The Hubbard contrib.    to forces
     atom    1 type  1   force =   0.00000000E+00  0.00000000E+00  0.00000000E+00
     atom    2 type  1   force =   0.00000000E+00  0.00000000E+00  0.00000000E+00
     atom    3 type  1   force =   0.00000000E+00  0.00000000E+00  0.00000000E+00
     atom    4 type  1   force =   0.00000000E+00  0.00000000E+00  0.00000000E+00
     atom    5 type  1   force =   0.00000000E+00  0.00000000E+00  0.00000000E+00
     atom    6 type  1   force =   0.00000000E+00  0.00000000E+00  0.00000000E+00
     atom    7 type  1   force =   0.00000000E+00  0.00000000E+00  0.00000000E+00
     atom    8 type  1   force =   0.00000000E+00  0.00000000E+00  0.00000000E+00
     atom    9 type  1   force =   0.00000000E+00  0.00000000E+00  0.00000000E+00
     atom   10 type  1   force =   0.00000000E+00  0.00000000E+00  0.00000000E+00
     atom   11 type  1   force =   0.00000000E+00  0.00000000E+00  0.00000000E+00
     atom   12 type  1   force =   0.00000000E+00  0.00000000E+00  0.00000000E+00
     atom   13 type  1   force =   0.00000000E+00  0.00000000E+00  0.00000000E+00
     atom   14 type  1   force =   0.00000000E+00  0.00000000E+00  0.00000000E+00
     atom   15 type  1   force =   0.00000000E+00  0.00000000E+00  0.00000000E+00
     atom   16 type  1   force =   0.00000000E+00  0.00000000E+00  0.00000000E+00
     The SCF correction term to forces
     atom    1 type  1   force =  -0.62730048E-05  0.36225437E-05 -0.28572687E-05
     atom    2 type  1   force =  -0.23387176E-06  0.80361210E-06 -0.43864689E-05
     atom    3 type  1   force =   0.25402806E-05  0.25476829E-05 -0.73637592E-05
     atom    4 type  1   force =  -0.33842629E-05  0.11401319E-05 -0.87044267E-05
     atom    5 type  1   force =   0.39963836E-05 -0.73882503E-05  0.67223083E-05
     atom    6 type  1   force =  -0.34033726E-06 -0.65229731E-05  0.65814187E-05
     atom    7 type  1   force =   0.67763477E-05 -0.50114311E-05 -0.42955241E-06
     atom    8 type  1   force =   0.76695925E-05 -0.23150991E-05  0.22780482E-05
     atom    9 type  1   force =  -0.11758693E-04  0.32489965E-05  0.17445238E-05
     atom   10 type  1   force =  -0.61764486E-05  0.94408249E-06  0.17881650E-05
     atom   11 type  1   force =  -0.21644449E-05  0.12463625E-04 -0.59974805E-05
     atom   12 type  1   force =  -0.25769166E-05  0.75905085E-05 -0.10344947E-05
     atom   13 type  1   force =  -0.17574830E-06 -0.92345614E-05  0.10555131E-04
     atom   14 type  1   force =  -0.11280848E-05 -0.64313762E-05  0.69944907E-05
     atom   15 type  1   force =   0.55451363E-05  0.34878471E-05  0.11506566E-06
     atom   16 type  1   force =   0.58114699E-05  0.36565533E-05 -0.26693290E-05

     Total force =     0.949565     Total SCF correction =     0.000038


     entering subroutine stress ...

          total   stress  (Ry/bohr**3)                   (kbar)     P=  106.91
   0.0004974821  -0.0001044349  -0.0002512601         73.18    -15.36    -36.96
  -0.0001044349   0.0009319658   0.0000916597        -15.36    137.10     13.48
  -0.0002512601   0.0000916597   0.0007507352        -36.96     13.48    110.44

     kinetic stress (kbar)   2227.06      5.22     19.56
                                5.22   2234.19     -2.85
                               19.56     -2.85   2225.74

     local   stress (kbar)   -320.11    145.40    226.39
                              145.40   -437.06    -44.12
                              226.39    -44.12   -396.40

     nonloc. stress (kbar)   1999.59    -15.08    -29.81
                              -15.08   2020.03      7.24
                              -29.81      7.24   2013.99

     hartree stress (kbar)    221.36    -21.87    -23.69
                              -21.87    241.17      9.67
                              -23.69      9.67    229.93

     exc-cor stress (kbar)    993.66     -0.15     -0.32
                               -0.15    993.79      0.04
                               -0.32      0.04    993.77

     corecor stress (kbar)  -1994.20      1.78      3.47
                                1.78  -1996.36     -0.68
                                3.47     -0.68  -1995.71

     ewald   stress (kbar)  -3054.17   -130.67   -232.55
                             -130.67  -2918.66     44.18
                             -232.55     44.18  -2960.88

     hubbard stress (kbar)      0.00      0.00      0.00
                                0.00      0.00      0.00
                                0.00      0.00      0.00

     london  stress (kbar)      0.00      0.00      0.00
                                0.00      0.00      0.00
                                0.00      0.00      0.00

     XDM     stress (kbar)      0.00      0.00      0.00
                                0.00      0.00      0.00
                                0.00      0.00      0.00

     dft-nl  stress (kbar)      0.00      0.00      0.00
                                0.00      0.00      0.00
                                0.00      0.00      0.00



     Writing output data file Si_diamond.scf.in.super.222.largdist.b.022.save

     init_run     :     16.16s CPU     16.76s WALL (       1 calls)
     electrons    :    469.93s CPU    472.08s WALL (       1 calls)
     forces       :      6.74s CPU      5.79s WALL (       1 calls)
     stress       :     30.81s CPU     30.56s WALL (       1 calls)

     Called by init_run:
     wfcinit      :     15.17s CPU     15.74s WALL (       1 calls)
     potinit      :      0.12s CPU      0.13s WALL (       1 calls)

     Called by electrons:
     c_bands      :    393.10s CPU    395.46s WALL (      14 calls)
     sum_band     :     66.42s CPU     66.06s WALL (      14 calls)
     v_of_rho     :      1.37s CPU      1.39s WALL (      14 calls)
     v_h          :      0.08s CPU      0.09s WALL (      14 calls)
     v_xc         :      1.50s CPU      1.53s WALL (      16 calls)
     newd         :      8.24s CPU      8.34s WALL (      14 calls)
     mix_rho      :      1.22s CPU      1.24s WALL (      14 calls)

     Called by c_bands:
     init_us_2    :      5.11s CPU      5.32s WALL (    1116 calls)
     cegterg      :    369.80s CPU    371.27s WALL (     504 calls)

     Called by sum_band:
     sum_band:bec :      0.44s CPU      0.45s WALL (     504 calls)
     addusdens    :      8.66s CPU      8.74s WALL (      14 calls)

     Called by *egterg:
     h_psi        :    251.60s CPU    249.61s WALL (    1922 calls)
     s_psi        :     25.93s CPU     21.46s WALL (    1922 calls)
     g_psi        :      0.74s CPU      0.70s WALL (    1382 calls)
     cdiaghg      :     20.65s CPU     22.11s WALL (    1850 calls)
     cegterg:over :     38.67s CPU     41.34s WALL (    1382 calls)
     cegterg:upda :     10.60s CPU     11.61s WALL (    1382 calls)
     cegterg:last :      4.00s CPU      3.58s WALL (     504 calls)

     Called by h_psi:
     h_psi:vloc   :    179.44s CPU    182.89s WALL (    1922 calls)
     h_psi:vnl    :     71.64s CPU     66.17s WALL (    1922 calls)
     add_vuspsi   :     26.77s CPU     22.99s WALL (    1922 calls)

     General routines
     calbec       :     66.80s CPU     63.36s WALL (    2498 calls)
     fft          :      1.47s CPU      1.49s WALL (     249 calls)
     ffts         :      0.61s CPU      0.65s WALL (     264 calls)
     fftw         :    190.76s CPU    194.07s WALL (  122228 calls)
     interpolate  :      0.25s CPU      0.25s WALL (      28 calls)

     Parallel routines
     fft_scatter  :     91.31s CPU     92.45s WALL (  122741 calls)

     PWSCF        :  8m45.08s CPU     8m47.42s WALL


   This run was terminated on:  14:44:27  28Sep2017            

=------------------------------------------------------------------------------=
   JOB DONE.
=------------------------------------------------------------------------------=
