
     Program PWSCF v.5.1 starts on 28Sep2017 at 14:35:39 

     This program is part of the open-source Quantum ESPRESSO suite
     for quantum simulation of materials; please cite
         "P. Giannozzi et al., J. Phys.:Condens. Matter 21 395502 (2009);
          URL http://www.quantum-espresso.org", 
     in publications or presentations arising from this work. More details at
     http://www.quantum-espresso.org/quote

     Parallel version (MPI), running on     8 processors
     R & G space division:  proc/nbgrp/npool/nimage =       8
     Reading input from /tmp/Si_diamond.scf.in.super.222.largdist.b.04.473/Si_diamond.scf.in.super.222.largdist.b.04.t
Warning: card &IONS ignored
Warning: card   ION_DYNAMICS='BFGS', ignored
Warning: card / ignored
Warning: card &CELL ignored
Warning: card  CELL_DYNAMICS = 'BFGS' ignored
Warning: card / ignored
     Message from routine read_cards :
     DEPRECATED: no units specified in CELL_PARAMETERS card

     Current dimensions of program PWSCF are:
     Max number of different atomic species (ntypx) = 10
     Max number of k-points (npk) =  40000
     Max angular momentum in pseudopotentials (lmaxx) =  3
 kfg - two_fermi_energies  F

     Subspace diagonalization in iterative solution of the eigenvalue problem:
     a serial algorithm will be used


     Parallelization info
     --------------------
     sticks:   dense  smooth     PW     G-vecs:    dense   smooth      PW
     Min         363     256     71                12921     7555    1109
     Max         364     257     73                12925     7568    1110
     Sum        2905    2053    571               103379    60495    8873



     bravais-lattice index     =            0
     lattice parameter (alat)  =    14.515605984  a.u.
     unit-cell volume          =    2162.6713 (a.u.)^3
     number of atoms/cell      =           16
     number of atomic types    =            1
     number of electrons       =        64.00
     number of Kohn-Sham states=           38
     kinetic-energy cutoff     =      35.0000  Ry
     charge density cutoff     =     200.0000  Ry
     convergence threshold     =      1.0E-09
     mixing beta               =       0.3000
     number of iterations used =            8  local-TF  mixing
     Exchange-correlation      = SLA  PW   PSX  PSC ( 1  4 10  8 0)
     A smooth kinetic-energy cutoff is imposed at      34.5000 Ry
     height of the smooth step-function =             800.0000 Ry
     width of the smooth step-function  =               1.0000 Ry


     celldm(1)=  14.515606  celldm(2)=   0.000000  celldm(3)=   0.000000
     celldm(4)=   0.000000  celldm(5)=   0.000000  celldm(6)=   0.000000

     crystal axes: (cart. coord. in units of alat)
               a(1) = (   0.000000000000   0.707106781187   0.707106781187 )  
               a(2) = (   0.707106781187  -0.000000000000   0.707106781187 )  
               a(3) = (   0.707106781187   0.707106781187   0.000000000000 )  

     reciprocal axes: (cart. coord. in units 2 pi/alat)
               b(1) = ( -0.707107  0.707107  0.707107 )  
               b(2) = (  0.707107 -0.707107  0.707107 )  
               b(3) = (  0.707107  0.707107 -0.707107 )  


     PseudoPot. # 1 for Si read from file:
     /users/kfg/psuedo/gbrv_1.5/si.pbesol.UPF
     MD5 check sum: ef58ba74faed4df802eb8a9742fc00a8
     Pseudo is Ultrasoft + core correction, Zval =  4.0
     Generated by new atomic code, or converted to UPF format
     Using radial grid of  899 points,  6 beta functions with: 
                l(1) =   0
                l(2) =   0
                l(3) =   1
                l(4) =   1
                l(5) =   2
                l(6) =   2
     Q(r) pseudized with  8 coefficients,  rinner =    0.900   0.900   0.900
                                                       0.900   0.900

     atomic species   valence    mass     pseudopotential
        Si             4.00    28.08550     Si( 1.00)

     No symmetry found


                                    s                        frac. trans.

      isym =  1     identity                                     

 cryst.   s( 1) = (     1          0          0      )
                  (     0          1          0      )
                  (     0          0          1      )

 cart.    s( 1) = (  1.0000000  0.0000000  0.0000000 )
                  (  0.0000000  1.0000000  0.0000000 )
                  (  0.0000000  0.0000000  1.0000000 )


     point group C_1 (1)    
     there are  1 classes
     the character table:

       E    
A      1.00

     the symmetry operations in each class:
     E        1

   Cartesian axes

     site n.     atom                  positions (alat units)
         1           Si  tau(   1) = (   -0.00817883262   -0.04071213392    0.02112195398  )
         2           Si  tau(   2) = (    0.13361744067    0.19257562456    0.15027514947  )
         3           Si  tau(   3) = (    0.33708270556    0.34930514981   -0.00304918969  )
         4           Si  tau(   4) = (    0.54657942971    0.48503452894    0.19291685948  )
         5           Si  tau(   5) = (    0.40063128186   -0.03815377518    0.38213445840  )
         6           Si  tau(   6) = (    0.56467051763    0.15344317579    0.50152232927  )
         7           Si  tau(   7) = (    0.68567195127    0.39682206503    0.31924954090  )
         8           Si  tau(   8) = (    0.87690254489    0.52503779076    0.54687176767  )
         9           Si  tau(   9) = (    0.02083392589    0.35119430797    0.35023954011  )
        10           Si  tau(  10) = (    0.18124589534    0.53473840280    0.51284529802  )
        11           Si  tau(  11) = (    0.34049524223    0.74303531782    0.38259808439  )
        12           Si  tau(  12) = (    0.52231759525    0.93071176421    0.51615537170  )
        13           Si  tau(  13) = (    0.31770481296    0.38432861949    0.70093095701  )
        14           Si  tau(  14) = (    0.48596868336    0.53257183924    0.89381868855  )
        15           Si  tau(  15) = (    0.70570222694    0.72382552663    0.70980437934  )
        16           Si  tau(  16) = (    0.88770085590    0.89874234768    0.86607832363  )

   Crystallographic axes

     site n.     atom                  positions (cryst. coord.)
         1           Si  tau(   1) = (   -0.00806904107    0.03793999485   -0.04950661087  )
         2           Si  tau(   2) = (    0.14795030887    0.06457084560    0.12439275116  )
         3           Si  tau(   3) = (    0.00648647050   -0.01079867591    0.48750560976  )
         4           Si  tau(   4) = (    0.09289400286    0.17993163623    0.59304840618  )
         5           Si  tau(   5) = (   -0.04005802245    0.58047775617   -0.01389956386  )
         6           Si  tau(   6) = (    0.06384819792    0.64541148197    0.15315322234  )
         7           Si  tau(   7) = (    0.02149580195    0.42999122857    0.53969534426  )
         8           Si  tau(   8) = (    0.13789078165    0.63550268906    0.60462478280  )
         9           Si  tau(   9) = (    0.48125682026    0.01405668745    0.01540693310  )
        10           Si  tau(  10) = (    0.61259333705    0.11267943881    0.14364096451  )
        11           Si  tau(  11) = (    0.55517651708   -0.01410111721    0.49563410670  )
        12           Si  tau(  12) = (    0.65375524974    0.07619867721    0.66246994986  )
        13           Si  tau(  13) = (    0.54274317823    0.44852288746    0.00077956785  )
        14           Si  tau(  14) = (    0.66497866337    0.59907184828    0.08819165462  )
        15           Si  tau(  15) = (    0.51472259806    0.48909238183    0.50892127850  )
        16           Si  tau(  16) = (    0.62021736939    0.60460234197    0.65079624778  )

     number of k points=    36  gaussian smearing, width (Ry)=  0.0150
                       cart. coord. in units 2pi/alat
        k(    1) = (   0.0000000   0.0000000   0.0000000), wk =   0.0312500
        k(    2) = (   0.1767767   0.1767767  -0.1767767), wk =   0.0625000
        k(    3) = (  -0.3535534  -0.3535534   0.3535534), wk =   0.0312500
        k(    4) = (   0.3535534   0.0000000   0.0000000), wk =   0.0625000
        k(    5) = (  -0.1767767  -0.5303301   0.5303301), wk =   0.0625000
        k(    6) = (   0.0000000  -0.3535534   0.3535534), wk =   0.0625000
        k(    7) = (  -0.7071068   0.0000000   0.0000000), wk =   0.0312500
        k(    8) = (  -0.7071068   0.3535534   0.0000000), wk =   0.0625000
        k(    9) = (  -0.1767767  -0.1767767  -0.1767767), wk =   0.0625000
        k(   10) = (  -0.1767767   0.1767767   0.1767767), wk =   0.0625000
        k(   11) = (   0.1767767  -0.1767767   0.1767767), wk =   0.0625000
        k(   12) = (   0.3535534   0.3535534   0.3535534), wk =   0.0312500
        k(   13) = (   0.3535534  -0.3535534  -0.3535534), wk =   0.0312500
        k(   14) = (  -0.3535534   0.3535534  -0.3535534), wk =   0.0312500
        k(   15) = (   0.0000000   0.3535534   0.0000000), wk =   0.0625000
        k(   16) = (   0.0000000   0.0000000   0.3535534), wk =   0.0625000
        k(   17) = (   0.1767767   0.5303301   0.5303301), wk =   0.0625000
        k(   18) = (   0.1767767  -0.5303301  -0.5303301), wk =   0.0625000
        k(   19) = (  -0.1767767   0.5303301  -0.5303301), wk =   0.0625000
        k(   20) = (  -0.5303301  -0.1767767  -0.5303301), wk =   0.0625000
        k(   21) = (   0.5303301   0.1767767  -0.5303301), wk =   0.0625000
        k(   22) = (  -0.5303301   0.1767767   0.5303301), wk =   0.0625000
        k(   23) = (   0.5303301  -0.1767767   0.5303301), wk =   0.0625000
        k(   24) = (   0.5303301   0.5303301  -0.1767767), wk =   0.0625000
        k(   25) = (  -0.5303301   0.5303301   0.1767767), wk =   0.0625000
        k(   26) = (   0.5303301  -0.5303301   0.1767767), wk =   0.0625000
        k(   27) = (  -0.5303301  -0.5303301  -0.1767767), wk =   0.0625000
        k(   28) = (   0.0000000   0.3535534   0.3535534), wk =   0.0625000
        k(   29) = (  -0.3535534   0.0000000  -0.3535534), wk =   0.0625000
        k(   30) = (   0.3535534   0.0000000  -0.3535534), wk =   0.0625000
        k(   31) = (   0.3535534   0.3535534   0.0000000), wk =   0.0625000
        k(   32) = (  -0.3535534   0.3535534   0.0000000), wk =   0.0625000
        k(   33) = (   0.0000000  -0.7071068   0.0000000), wk =   0.0312500
        k(   34) = (   0.0000000   0.0000000  -0.7071068), wk =   0.0312500
        k(   35) = (   0.3535534  -0.7071068   0.0000000), wk =   0.0625000
        k(   36) = (   0.7071068   0.0000000   0.3535534), wk =   0.0625000

                       cryst. coord.
        k(    1) = (   0.0000000   0.0000000   0.0000000), wk =   0.0312500
        k(    2) = (   0.0000000   0.0000000   0.2500000), wk =   0.0625000
        k(    3) = (   0.0000000   0.0000000  -0.5000000), wk =   0.0312500
        k(    4) = (   0.0000000   0.2500000   0.2500000), wk =   0.0625000
        k(    5) = (   0.0000000   0.2500000  -0.5000000), wk =   0.0625000
        k(    6) = (   0.0000000   0.2500000  -0.2500000), wk =   0.0625000
        k(    7) = (   0.0000000  -0.5000000  -0.5000000), wk =   0.0312500
        k(    8) = (   0.2500000  -0.5000000  -0.2500000), wk =   0.0625000
        k(    9) = (  -0.2500000  -0.2500000  -0.2500000), wk =   0.0625000
        k(   10) = (   0.2500000   0.0000000   0.0000000), wk =   0.0625000
        k(   11) = (   0.0000000   0.2500000   0.0000000), wk =   0.0625000
        k(   12) = (   0.5000000   0.5000000   0.5000000), wk =   0.0312500
        k(   13) = (  -0.5000000   0.0000000   0.0000000), wk =   0.0312500
        k(   14) = (   0.0000000  -0.5000000   0.0000000), wk =   0.0312500
        k(   15) = (   0.2500000   0.0000000   0.2500000), wk =   0.0625000
        k(   16) = (   0.2500000   0.2500000   0.0000000), wk =   0.0625000
        k(   17) = (   0.7500000   0.5000000   0.5000000), wk =   0.0625000
        k(   18) = (  -0.7500000  -0.2500000  -0.2500000), wk =   0.0625000
        k(   19) = (   0.0000000  -0.5000000   0.2500000), wk =   0.0625000
        k(   20) = (  -0.5000000  -0.7500000  -0.5000000), wk =   0.0625000
        k(   21) = (  -0.2500000   0.0000000   0.5000000), wk =   0.0625000
        k(   22) = (   0.5000000   0.0000000  -0.2500000), wk =   0.0625000
        k(   23) = (   0.2500000   0.7500000   0.2500000), wk =   0.0625000
        k(   24) = (   0.2500000   0.2500000   0.7500000), wk =   0.0625000
        k(   25) = (   0.5000000  -0.2500000   0.0000000), wk =   0.0625000
        k(   26) = (  -0.2500000   0.5000000   0.0000000), wk =   0.0625000
        k(   27) = (  -0.5000000  -0.5000000  -0.7500000), wk =   0.0625000
        k(   28) = (   0.5000000   0.2500000   0.2500000), wk =   0.0625000
        k(   29) = (  -0.2500000  -0.5000000  -0.2500000), wk =   0.0625000
        k(   30) = (  -0.2500000   0.0000000   0.2500000), wk =   0.0625000
        k(   31) = (   0.2500000   0.2500000   0.5000000), wk =   0.0625000
        k(   32) = (   0.2500000  -0.2500000   0.0000000), wk =   0.0625000
        k(   33) = (  -0.5000000   0.0000000  -0.5000000), wk =   0.0312500
        k(   34) = (  -0.5000000  -0.5000000   0.0000000), wk =   0.0312500
        k(   35) = (  -0.5000000   0.2500000  -0.2500000), wk =   0.0625000
        k(   36) = (   0.2500000   0.7500000   0.5000000), wk =   0.0625000

     Dense  grid:   103379 G-vectors     FFT dimensions: (  72,  72,  72)

     Smooth grid:    60495 G-vectors     FFT dimensions: (  60,  60,  60)

     Largest allocated arrays     est. size (Mb)     dimensions
        Kohn-Sham Wavefunctions         0.56 Mb     (     974,   38)
        NL pseudopotentials             4.28 Mb     (     974,  288)
        Each V/rho on FFT grid          0.71 Mb     (   46656)
        Each G-vector array             0.10 Mb     (   12923)
        G-vector shells                 0.01 Mb     (     706)
     Largest temporary arrays     est. size (Mb)     dimensions
        Auxiliary wavefunctions         2.26 Mb     (     974,  152)
        Each subspace H/S matrix        0.35 Mb     (     152,  152)
        Each <psi_i|beta_j> matrix      0.17 Mb     (     288,   38)
        Arrays for rho mixing           5.70 Mb     (   46656,    8)

     Initial potential from superposition of free atoms

     starting charge   63.98963, renormalised to   64.00000
     Starting wfc are   64 randomized atomic wfcs

     total cpu time spent up to now is       17.2 secs

     per-process dynamical memory:    37.0 Mb

     Self-consistent Calculation

     iteration #  1     ecut=    35.00 Ry     beta=0.30
     Davidson diagonalization with overlap
     ethr =  1.00E-02,  avg # of iterations =  3.0

     total cpu time spent up to now is       59.5 secs

     total energy              =    -151.98698547 Ry
     Harris-Foulkes estimate   =    -152.08820912 Ry
     estimated scf accuracy    <       0.75044309 Ry

     iteration #  2     ecut=    35.00 Ry     beta=0.30
     Davidson diagonalization with overlap
     ethr =  1.17E-03,  avg # of iterations =  1.5

     negative rho (up, down):  3.212E-05 0.000E+00

     total cpu time spent up to now is       89.5 secs

     total energy              =    -151.81685405 Ry
     Harris-Foulkes estimate   =    -152.00342806 Ry
     estimated scf accuracy    <       0.43299911 Ry

     iteration #  3     ecut=    35.00 Ry     beta=0.30
     Davidson diagonalization with overlap
     ethr =  6.77E-04,  avg # of iterations =  2.2

     total cpu time spent up to now is      125.2 secs

     total energy              =    -151.88727860 Ry
     Harris-Foulkes estimate   =    -151.88964570 Ry
     estimated scf accuracy    <       0.02471322 Ry

     iteration #  4     ecut=    35.00 Ry     beta=0.30
     Davidson diagonalization with overlap
     ethr =  3.86E-05,  avg # of iterations =  7.6

     total cpu time spent up to now is      178.4 secs

     total energy              =    -151.88496138 Ry
     Harris-Foulkes estimate   =    -151.88950894 Ry
     estimated scf accuracy    <       0.01714937 Ry

     iteration #  5     ecut=    35.00 Ry     beta=0.30
     Davidson diagonalization with overlap
     ethr =  2.68E-05,  avg # of iterations =  2.0

     total cpu time spent up to now is      209.5 secs

     total energy              =    -151.88608483 Ry
     Harris-Foulkes estimate   =    -151.88652964 Ry
     estimated scf accuracy    <       0.00148953 Ry

     iteration #  6     ecut=    35.00 Ry     beta=0.30
     Davidson diagonalization with overlap
     ethr =  2.33E-06,  avg # of iterations =  5.0

     total cpu time spent up to now is      262.7 secs

     total energy              =    -151.88664581 Ry
     Harris-Foulkes estimate   =    -151.88668185 Ry
     estimated scf accuracy    <       0.00045905 Ry

     iteration #  7     ecut=    35.00 Ry     beta=0.30
     Davidson diagonalization with overlap
     ethr =  7.17E-07,  avg # of iterations =  1.0

     total cpu time spent up to now is      289.5 secs

     total energy              =    -151.88658787 Ry
     Harris-Foulkes estimate   =    -151.88665540 Ry
     estimated scf accuracy    <       0.00025496 Ry

     iteration #  8     ecut=    35.00 Ry     beta=0.30
     Davidson diagonalization with overlap
     ethr =  3.98E-07,  avg # of iterations =  2.3

     total cpu time spent up to now is      317.1 secs

     total energy              =    -151.88664396 Ry
     Harris-Foulkes estimate   =    -151.88664784 Ry
     estimated scf accuracy    <       0.00002792 Ry

     iteration #  9     ecut=    35.00 Ry     beta=0.30
     Davidson diagonalization with overlap
     ethr =  4.36E-08,  avg # of iterations =  1.8

     total cpu time spent up to now is      341.0 secs

     total energy              =    -151.88664026 Ry
     Harris-Foulkes estimate   =    -151.88664524 Ry
     estimated scf accuracy    <       0.00001406 Ry

     iteration # 10     ecut=    35.00 Ry     beta=0.30
     Davidson diagonalization with overlap
     ethr =  2.20E-08,  avg # of iterations =  2.1

     total cpu time spent up to now is      369.2 secs

     total energy              =    -151.88664314 Ry
     Harris-Foulkes estimate   =    -151.88664320 Ry
     estimated scf accuracy    <       0.00000047 Ry

     iteration # 11     ecut=    35.00 Ry     beta=0.30
     Davidson diagonalization with overlap
     ethr =  7.33E-10,  avg # of iterations =  3.1

     total cpu time spent up to now is      399.6 secs

     total energy              =    -151.88664316 Ry
     Harris-Foulkes estimate   =    -151.88664324 Ry
     estimated scf accuracy    <       0.00000028 Ry

     iteration # 12     ecut=    35.00 Ry     beta=0.30
     Davidson diagonalization with overlap
     ethr =  4.34E-10,  avg # of iterations =  2.0

     total cpu time spent up to now is      427.4 secs

     total energy              =    -151.88664320 Ry
     Harris-Foulkes estimate   =    -151.88664320 Ry
     estimated scf accuracy    <          4.3E-09 Ry

     iteration # 13     ecut=    35.00 Ry     beta=0.30
     Davidson diagonalization with overlap
     ethr =  6.75E-12,  avg # of iterations =  3.4

     total cpu time spent up to now is      464.0 secs

     total energy              =    -151.88664320 Ry
     Harris-Foulkes estimate   =    -151.88664320 Ry
     estimated scf accuracy    <          5.2E-09 Ry

     iteration # 14     ecut=    35.00 Ry     beta=0.30
     Davidson diagonalization with overlap
     ethr =  6.75E-12,  avg # of iterations =  2.1

     total cpu time spent up to now is      492.7 secs

     total energy              =    -151.88664320 Ry
     Harris-Foulkes estimate   =    -151.88664320 Ry
     estimated scf accuracy    <          1.0E-09 Ry

     iteration # 15     ecut=    35.00 Ry     beta=0.30
     Davidson diagonalization with overlap
     ethr =  1.63E-12,  avg # of iterations =  2.0

     total cpu time spent up to now is      524.6 secs

     End of self-consistent calculation

          k = 0.0000 0.0000 0.0000 (  7631 PWs)   bands (ev):

    -6.2710  -4.6663  -4.0218  -3.9177  -3.5254  -2.6159  -2.5529  -2.1428
    -1.9496  -1.6057  -1.4079  -1.0509  -0.7908  -0.1147   0.1120   2.6293
     2.7292   2.9107   3.0435   3.0996   3.5946   3.9475   4.1336   4.4026
     4.4952   4.6499   4.9179   5.2034   5.5555   5.9300   6.0358   6.2253
     6.3018   6.4256   6.6785   6.7656   6.9157   7.1491

     occupation numbers 
     1.0000   1.0000   1.0000   1.0000   1.0000   1.0000   1.0000   1.0000
     1.0000   1.0000   1.0000   1.0000   1.0000   1.0000   1.0000   1.0000
     1.0000   1.0000   1.0000   1.0000   1.0000   1.0000   1.0000   1.0000
     1.0000   1.0000   1.0000   1.0000   1.0000   0.9989   0.9898   0.8432
     0.6835   0.3517   0.0165   0.0031   0.0001   0.0000

          k = 0.1768 0.1768-0.1768 (  7564 PWs)   bands (ev):

    -6.0909  -4.8608  -4.2394  -3.8187  -3.7013  -3.1767  -2.6525  -2.3302
    -1.6459  -1.0811  -0.9625  -0.5695  -0.3397   0.2287   0.5425   1.9702
     2.2839   2.5212   2.9066   2.9922   3.2234   3.5963   3.7909   3.9802
     4.0086   4.1480   4.4354   4.8435   5.2702   5.5453   6.1702   6.3185
     6.4827   6.6854   7.0069   7.1441   7.2974   7.5338

     occupation numbers 
     1.0000   1.0000   1.0000   1.0000   1.0000   1.0000   1.0000   1.0000
     1.0000   1.0000   1.0000   1.0000   1.0000   1.0000   1.0000   1.0000
     1.0000   1.0000   1.0000   1.0000   1.0000   1.0000   1.0000   1.0000
     1.0000   1.0000   1.0000   1.0000   1.0000   1.0000   0.9177   0.6412
     0.2189   0.0146   0.0000   0.0000   0.0000   0.0000

          k =-0.3536-0.3536 0.3536 (  7570 PWs)   bands (ev):

    -5.7226  -5.3362  -4.3725  -3.7940  -3.6406  -3.4065  -2.8883  -2.5894
    -1.2873  -0.6316  -0.4666  -0.1314   0.0771   0.6671   1.2896   1.7534
     1.7779   2.0137   2.3691   2.5784   2.9238   3.1496   3.3386   3.4783
     3.6426   3.7557   4.1833   4.4879   5.1944   5.3865   5.9828   6.4916
     6.7364   6.7939   7.0023   7.3638   7.4703   7.7845

     occupation numbers 
     1.0000   1.0000   1.0000   1.0000   1.0000   1.0000   1.0000   1.0000
     1.0000   1.0000   1.0000   1.0000   1.0000   1.0000   1.0000   1.0000
     1.0000   1.0000   1.0000   1.0000   1.0000   1.0000   1.0000   1.0000
     1.0000   1.0000   1.0000   1.0000   1.0000   1.0000   0.9964   0.2010
     0.0056   0.0017   0.0000   0.0000   0.0000   0.0000

          k = 0.3536 0.0000 0.0000 (  7563 PWs)   bands (ev):

    -6.0366  -4.8163  -4.3165  -4.0043  -3.7364  -3.4146  -2.2973  -1.9371
    -1.8157  -1.3925  -0.8491  -0.5744  -0.2324   0.3209   1.0203   2.0705
     2.2689   2.3777   2.5765   2.9292   3.2594   3.4562   3.4997   3.7573
     3.8673   4.3160   4.5371   4.6966   5.2341   5.3968   5.6404   6.0003
     6.3091   6.7262   7.1596   7.2822   7.5880   7.8102

     occupation numbers 
     1.0000   1.0000   1.0000   1.0000   1.0000   1.0000   1.0000   1.0000
     1.0000   1.0000   1.0000   1.0000   1.0000   1.0000   1.0000   1.0000
     1.0000   1.0000   1.0000   1.0000   1.0000   1.0000   1.0000   1.0000
     1.0000   1.0000   1.0000   1.0000   1.0000   1.0000   1.0000   0.9949
     0.6651   0.0069   0.0000   0.0000   0.0000   0.0000

          k =-0.1768-0.5303 0.5303 (  7554 PWs)   bands (ev):

    -5.6828  -5.1262  -4.6828  -4.0265  -3.8827  -3.1944  -2.6759  -2.3485
    -1.3578  -0.9187  -0.3685   0.0609   0.2828   0.9213   1.3973   1.5959
     1.7454   2.0187   2.4682   2.6748   2.7764   2.9990   3.2717   3.3125
     3.6071   3.6669   4.0515   4.3373   4.7333   5.0254   5.6223   5.7668
     6.9123   7.0965   7.4659   7.8305   8.0305   8.3142

     occupation numbers 
     1.0000   1.0000   1.0000   1.0000   1.0000   1.0000   1.0000   1.0000
     1.0000   1.0000   1.0000   1.0000   1.0000   1.0000   1.0000   1.0000
     1.0000   1.0000   1.0000   1.0000   1.0000   1.0000   1.0000   1.0000
     1.0000   1.0000   1.0000   1.0000   1.0000   1.0000   1.0000   1.0000
     0.0001   0.0000   0.0000   0.0000   0.0000   0.0000

          k = 0.0000-0.3536 0.3536 (  7592 PWs)   bands (ev):

    -5.8269  -5.0012  -4.6922  -3.9116  -3.5919  -3.2322  -2.8930  -2.4150
    -1.3835  -0.9418  -0.5024  -0.0054   0.0833   0.7442   1.0427   1.5114
     2.0012   2.1863   2.6245   2.8327   2.9470   3.0316   3.4010   3.5633
     3.7519   4.0367   4.1653   4.4056   4.6904   4.9044   5.3903   6.1214
     6.8520   7.3141   7.4935   7.7064   7.8409   8.0367

     occupation numbers 
     1.0000   1.0000   1.0000   1.0000   1.0000   1.0000   1.0000   1.0000
     1.0000   1.0000   1.0000   1.0000   1.0000   1.0000   1.0000   1.0000
     1.0000   1.0000   1.0000   1.0000   1.0000   1.0000   1.0000   1.0000
     1.0000   1.0000   1.0000   1.0000   1.0000   1.0000   1.0000   0.9579
     0.0004   0.0000   0.0000   0.0000   0.0000   0.0000

          k =-0.7071 0.0000 0.0000 (  7528 PWs)   bands (ev):

    -5.5613  -5.1148  -4.7537  -4.1887  -3.9213  -3.5808  -2.1604  -1.8024
    -1.7010  -1.4353   0.3167   0.3521   0.4389   0.6466   1.4517   1.5530
     1.9421   2.0724   2.1610   2.4125   2.5454   2.7070   2.9923   3.2701
     3.7580   3.7930   4.2093   4.3818   4.7471   5.0363   5.3202   5.5305
     6.3084   6.8691   7.7410   7.8189   8.0799   8.3980

     occupation numbers 
     1.0000   1.0000   1.0000   1.0000   1.0000   1.0000   1.0000   1.0000
     1.0000   1.0000   1.0000   1.0000   1.0000   1.0000   1.0000   1.0000
     1.0000   1.0000   1.0000   1.0000   1.0000   1.0000   1.0000   1.0000
     1.0000   1.0000   1.0000   1.0000   1.0000   1.0000   1.0000   1.0000
     0.6670   0.0003   0.0000   0.0000   0.0000   0.0000

          k =-0.7071 0.3536 0.0000 (  7564 PWs)   bands (ev):

    -5.5027  -5.0681  -4.8756  -4.5289  -3.5936  -3.0807  -2.6615  -2.4269
    -1.1153  -0.7751  -0.6050  -0.1254   1.0591   1.1699   1.3082   1.5722
     1.8293   1.9902   2.2116   2.5087   2.6841   2.8499   3.0424   3.1710
     3.4722   3.7656   3.9413   4.1751   4.6751   4.7673   5.1400   5.6913
     7.2740   7.6222   7.8437   8.1886   8.2876   8.4092

     occupation numbers 
     1.0000   1.0000   1.0000   1.0000   1.0000   1.0000   1.0000   1.0000
     1.0000   1.0000   1.0000   1.0000   1.0000   1.0000   1.0000   1.0000
     1.0000   1.0000   1.0000   1.0000   1.0000   1.0000   1.0000   1.0000
     1.0000   1.0000   1.0000   1.0000   1.0000   1.0000   1.0000   1.0000
     0.0000   0.0000   0.0000   0.0000   0.0000   0.0000

          k =-0.1768-0.1768-0.1768 (  7564 PWs)   bands (ev):

    -6.0888  -4.8320  -4.3370  -3.9541  -3.4787  -3.0366  -2.7947  -2.3004
    -1.4994  -1.2957  -1.0108  -0.7566  -0.1051   0.1194   0.7416   1.9783
     2.1267   2.2938   2.9905   3.1281   3.4076   3.5253   3.7461   3.8568
     4.1866   4.3249   4.6387   4.9022   5.0968   5.3557   6.0682   6.2021
     6.5291   6.8154   6.9111   7.1323   7.2765   7.4592

     occupation numbers 
     1.0000   1.0000   1.0000   1.0000   1.0000   1.0000   1.0000   1.0000
     1.0000   1.0000   1.0000   1.0000   1.0000   1.0000   1.0000   1.0000
     1.0000   1.0000   1.0000   1.0000   1.0000   1.0000   1.0000   1.0000
     1.0000   1.0000   1.0000   1.0000   1.0000   1.0000   0.9820   0.8786
     0.1362   0.0010   0.0001   0.0000   0.0000   0.0000

          k =-0.1768 0.1768 0.1768 (  7564 PWs)   bands (ev):

    -6.1085  -4.8794  -4.1206  -3.8592  -3.6168  -3.2663  -2.6075  -2.3265
    -1.6644  -1.2014  -1.0410  -0.7345  -0.3172   0.2834   0.5666   2.1891
     2.3920   2.7551   2.8961   3.0148   3.3088   3.4796   3.7747   3.8759
     4.1436   4.2249   4.5110   4.8645   5.2231   5.5408   5.7459   6.1888
     6.3321   6.5366   6.6942   7.1515   7.3446   7.5148

     occupation numbers 
     1.0000   1.0000   1.0000   1.0000   1.0000   1.0000   1.0000   1.0000
     1.0000   1.0000   1.0000   1.0000   1.0000   1.0000   1.0000   1.0000
     1.0000   1.0000   1.0000   1.0000   1.0000   1.0000   1.0000   1.0000
     1.0000   1.0000   1.0000   1.0000   1.0000   1.0000   1.0000   0.8963
     0.6056   0.1252   0.0125   0.0000   0.0000   0.0000

          k = 0.1768-0.1768 0.1768 (  7564 PWs)   bands (ev):

    -6.0985  -4.8437  -4.3468  -3.7987  -3.4643  -3.0832  -2.8613  -2.4584
    -1.4502  -1.2472  -0.8788  -0.6901  -0.3566   0.1052   0.6480   2.1522
     2.3223   2.5379   2.9074   3.0466   3.2281   3.4984   3.6607   4.1140
     4.2404   4.3089   4.5378   4.8537   5.0192   5.4528   5.7469   6.2259
     6.4033   6.5868   6.9552   7.1942   7.4179   7.6638

     occupation numbers 
     1.0000   1.0000   1.0000   1.0000   1.0000   1.0000   1.0000   1.0000
     1.0000   1.0000   1.0000   1.0000   1.0000   1.0000   1.0000   1.0000
     1.0000   1.0000   1.0000   1.0000   1.0000   1.0000   1.0000   1.0000
     1.0000   1.0000   1.0000   1.0000   1.0000   1.0000   1.0000   0.8422
     0.4107   0.0671   0.0000   0.0000   0.0000   0.0000

          k = 0.3536 0.3536 0.3536 (  7570 PWs)   bands (ev):

    -5.7059  -5.3451  -4.4134  -4.0025  -3.4291  -3.2883  -2.9720  -2.4012
    -1.1774  -1.0705  -0.6903  -0.3128   0.4090   0.9170   1.3726   1.7557
     1.8327   2.1182   2.1941   2.3798   2.8139   2.9687   3.4299   3.5084
     3.8064   4.0206   4.5618   4.7120   4.8268   5.0311   6.1232   6.4402
     6.5832   6.8419   7.0388   7.1991   7.6200   7.7474

     occupation numbers 
     1.0000   1.0000   1.0000   1.0000   1.0000   1.0000   1.0000   1.0000
     1.0000   1.0000   1.0000   1.0000   1.0000   1.0000   1.0000   1.0000
     1.0000   1.0000   1.0000   1.0000   1.0000   1.0000   1.0000   1.0000
     1.0000   1.0000   1.0000   1.0000   1.0000   1.0000   0.9568   0.3150
     0.0704   0.0005   0.0000   0.0000   0.0000   0.0000

          k = 0.3536-0.3536-0.3536 (  7570 PWs)   bands (ev):

    -5.8193  -5.2687  -4.1721  -3.8143  -3.7173  -3.3765  -2.8751  -2.5822
    -1.3773  -0.9112  -0.4777  -0.3772   0.0958   0.3430   1.7553   1.9300
     2.0774   2.3444   2.5022   2.5833   3.0425   3.3373   3.4442   3.4911
     3.6992   3.8171   3.9992   4.2686   4.9950   5.4324   5.5935   6.1853
     6.5340   6.5914   6.8329   7.1536   7.3427   7.5763

     occupation numbers 
     1.0000   1.0000   1.0000   1.0000   1.0000   1.0000   1.0000   1.0000
     1.0000   1.0000   1.0000   1.0000   1.0000   1.0000   1.0000   1.0000
     1.0000   1.0000   1.0000   1.0000   1.0000   1.0000   1.0000   1.0000
     1.0000   1.0000   1.0000   1.0000   1.0000   1.0000   1.0000   0.9005
     0.1290   0.0631   0.0007   0.0000   0.0000   0.0000

          k =-0.3536 0.3536-0.3536 (  7570 PWs)   bands (ev):

    -5.7584  -5.3236  -4.3857  -3.7401  -3.4074  -3.3321  -3.1125  -2.7238
    -1.0627  -0.7725  -0.5999  -0.2308   0.0198   0.3397   1.4943   1.8600
     2.0252   2.1807   2.3499   2.6300   2.8430   3.3414   3.5573   3.6128
     3.7990   3.9262   4.1019   4.4211   4.8280   5.1953   5.5348   6.1082
     6.6634   6.8281   7.2427   7.2882   7.6038   7.6498

     occupation numbers 
     1.0000   1.0000   1.0000   1.0000   1.0000   1.0000   1.0000   1.0000
     1.0000   1.0000   1.0000   1.0000   1.0000   1.0000   1.0000   1.0000
     1.0000   1.0000   1.0000   1.0000   1.0000   1.0000   1.0000   1.0000
     1.0000   1.0000   1.0000   1.0000   1.0000   1.0000   1.0000   0.9655
     0.0213   0.0008   0.0000   0.0000   0.0000   0.0000

          k = 0.0000 0.3536 0.0000 (  7563 PWs)   bands (ev):

    -6.0510  -4.7850  -4.3088  -4.0040  -3.7487  -3.2691  -2.6038  -2.1132
    -1.6623  -1.3219  -0.8539  -0.4421  -0.1056   0.3861   0.7812   1.9831
     2.1744   2.4937   2.7613   3.0235   3.1174   3.3829   3.5658   3.7536
     4.0172   4.0882   4.5825   4.7198   5.0853   5.3462   5.7770   6.2466
     6.2984   6.6685   7.0105   7.3430   7.5487   7.6875

     occupation numbers 
     1.0000   1.0000   1.0000   1.0000   1.0000   1.0000   1.0000   1.0000
     1.0000   1.0000   1.0000   1.0000   1.0000   1.0000   1.0000   1.0000
     1.0000   1.0000   1.0000   1.0000   1.0000   1.0000   1.0000   1.0000
     1.0000   1.0000   1.0000   1.0000   1.0000   1.0000   1.0000   0.8051
     0.6919   0.0195   0.0000   0.0000   0.0000   0.0000

          k = 0.0000 0.0000 0.3536 (  7563 PWs)   bands (ev):

    -6.0296  -4.8136  -4.3701  -3.9057  -3.7474  -3.5303  -2.1512  -1.9394
    -1.8648  -1.4867  -0.7606  -0.5148   0.0310   0.2608   0.7005   2.1303
     2.1873   2.3285   2.4088   2.9786   3.1033   3.2787   3.6411   3.8284
     4.1329   4.3042   4.5681   4.7362   5.0970   5.4994   5.9528   6.2493
     6.3799   6.8263   7.1183   7.2060   7.4628   7.6449

     occupation numbers 
     1.0000   1.0000   1.0000   1.0000   1.0000   1.0000   1.0000   1.0000
     1.0000   1.0000   1.0000   1.0000   1.0000   1.0000   1.0000   1.0000
     1.0000   1.0000   1.0000   1.0000   1.0000   1.0000   1.0000   1.0000
     1.0000   1.0000   1.0000   1.0000   1.0000   1.0000   0.9981   0.7999
     0.4746   0.0008   0.0000   0.0000   0.0000   0.0000

          k = 0.1768 0.5303 0.5303 (  7554 PWs)   bands (ev):

    -5.6731  -5.1389  -4.6740  -4.1514  -3.7894  -3.1413  -2.6990  -2.2334
    -1.3413  -1.0549  -0.6089   0.0075   0.5548   0.9570   1.3978   1.6454
     1.8285   2.0077   2.4095   2.5145   2.7405   2.9728   3.0704   3.5037
     3.6767   3.9108   4.1284   4.4248   4.6513   4.8871   5.4703   6.0089
     6.4790   7.3758   7.5697   7.6750   8.0514   8.2944

     occupation numbers 
     1.0000   1.0000   1.0000   1.0000   1.0000   1.0000   1.0000   1.0000
     1.0000   1.0000   1.0000   1.0000   1.0000   1.0000   1.0000   1.0000
     1.0000   1.0000   1.0000   1.0000   1.0000   1.0000   1.0000   1.0000
     1.0000   1.0000   1.0000   1.0000   1.0000   1.0000   1.0000   0.9939
     0.2264   0.0000   0.0000   0.0000   0.0000   0.0000

          k = 0.1768-0.5303-0.5303 (  7554 PWs)   bands (ev):

    -5.7377  -5.0908  -4.5745  -4.1366  -3.8325  -3.1927  -2.5783  -2.3913
    -1.3332  -0.9884  -0.7790  -0.0042   0.3601   1.1083   1.3804   1.6457
     1.9405   2.2584   2.4120   2.5633   2.8747   3.0800   3.2016   3.4871
     3.6781   3.8790   4.0099   4.3124   4.5590   4.8207   5.2630   5.8747
     6.4425   7.1552   7.4905   7.8630   8.0955   8.3258

     occupation numbers 
     1.0000   1.0000   1.0000   1.0000   1.0000   1.0000   1.0000   1.0000
     1.0000   1.0000   1.0000   1.0000   1.0000   1.0000   1.0000   1.0000
     1.0000   1.0000   1.0000   1.0000   1.0000   1.0000   1.0000   1.0000
     1.0000   1.0000   1.0000   1.0000   1.0000   1.0000   1.0000   0.9997
     0.3095   0.0000   0.0000   0.0000   0.0000   0.0000

          k =-0.1768 0.5303-0.5303 (  7554 PWs)   bands (ev):

    -5.7034  -5.1160  -4.6787  -4.0287  -3.8231  -3.1884  -2.6833  -2.3981
    -1.1992  -0.8867  -0.7689   0.0062   0.2426   1.0812   1.3734   1.7458
     1.8450   2.2171   2.3755   2.5444   2.7078   3.0732   3.2716   3.4184
     3.6800   3.7924   4.0654   4.4981   4.5921   5.0059   5.0827   5.6681
     6.9609   7.2859   7.6003   7.8085   8.0481   8.2793

     occupation numbers 
     1.0000   1.0000   1.0000   1.0000   1.0000   1.0000   1.0000   1.0000
     1.0000   1.0000   1.0000   1.0000   1.0000   1.0000   1.0000   1.0000
     1.0000   1.0000   1.0000   1.0000   1.0000   1.0000   1.0000   1.0000
     1.0000   1.0000   1.0000   1.0000   1.0000   1.0000   1.0000   1.0000
     0.0000   0.0000   0.0000   0.0000   0.0000   0.0000

          k =-0.5303-0.1768-0.5303 (  7554 PWs)   bands (ev):

    -5.7164  -5.0920  -4.5804  -4.2638  -3.7032  -3.1437  -2.8353  -2.2449
    -1.2619  -1.0389  -0.7275   0.0003   0.8246   1.0583   1.3255   1.5686
     1.7667   1.8755   2.4057   2.5558   2.9250   3.1446   3.2560   3.3219
     3.5300   3.7228   3.8558   4.3742   4.6566   5.0454   5.6287   6.1968
     6.7687   7.0246   7.5147   7.6867   8.0131   8.1288

     occupation numbers 
     1.0000   1.0000   1.0000   1.0000   1.0000   1.0000   1.0000   1.0000
     1.0000   1.0000   1.0000   1.0000   1.0000   1.0000   1.0000   1.0000
     1.0000   1.0000   1.0000   1.0000   1.0000   1.0000   1.0000   1.0000
     1.0000   1.0000   1.0000   1.0000   1.0000   1.0000   1.0000   0.8860
     0.0029   0.0000   0.0000   0.0000   0.0000   0.0000

          k = 0.5303 0.1768-0.5303 (  7554 PWs)   bands (ev):

    -5.7222  -5.0923  -4.5958  -4.1717  -3.6436  -3.4023  -2.6894  -2.3656
    -1.3199  -0.9590  -0.3940  -0.0263   0.6919   0.9395   1.2555   1.4993
     1.8418   2.0704   2.2325   2.5811   2.7532   3.0111   3.2967   3.4752
     3.6166   3.8324   4.0881   4.3093   4.5176   4.9887   5.4469   6.2271
     6.5957   7.1195   7.5067   7.6732   7.9966   8.3293

     occupation numbers 
     1.0000   1.0000   1.0000   1.0000   1.0000   1.0000   1.0000   1.0000
     1.0000   1.0000   1.0000   1.0000   1.0000   1.0000   1.0000   1.0000
     1.0000   1.0000   1.0000   1.0000   1.0000   1.0000   1.0000   1.0000
     1.0000   1.0000   1.0000   1.0000   1.0000   1.0000   1.0000   0.8401
     0.0595   0.0000   0.0000   0.0000   0.0000   0.0000

          k =-0.5303 0.1768 0.5303 (  7554 PWs)   bands (ev):

    -5.7697  -5.0582  -4.4954  -4.2503  -3.6119  -3.2524  -2.9656  -2.2058
    -1.3346  -0.9636  -0.5456  -0.2788   0.4306   1.0768   1.4247   1.8028
     2.0338   2.2127   2.3613   2.6432   2.7792   2.9686   3.1700   3.4092
     3.5849   3.8785   4.0510   4.2589   4.6253   5.0674   5.2406   5.9598
     6.4587   7.1491   7.3537   7.7110   7.8871   8.3187

     occupation numbers 
     1.0000   1.0000   1.0000   1.0000   1.0000   1.0000   1.0000   1.0000
     1.0000   1.0000   1.0000   1.0000   1.0000   1.0000   1.0000   1.0000
     1.0000   1.0000   1.0000   1.0000   1.0000   1.0000   1.0000   1.0000
     1.0000   1.0000   1.0000   1.0000   1.0000   1.0000   1.0000   0.9978
     0.2709   0.0000   0.0000   0.0000   0.0000   0.0000

          k = 0.5303-0.1768 0.5303 (  7554 PWs)   bands (ev):

    -5.7412  -5.0883  -4.5422  -4.2267  -3.6825  -3.1747  -2.8631  -2.3276
    -1.2833  -0.9534  -0.7309   0.1271   0.5028   0.9612   1.3207   1.6772
     1.8097   2.1754   2.4379   2.5827   2.7758   2.9605   3.4109   3.4837
     3.6486   3.7564   3.8817   4.4153   4.6881   4.8803   5.1173   6.0074
     6.8195   7.3119   7.5079   7.8190   7.9220   8.2124

     occupation numbers 
     1.0000   1.0000   1.0000   1.0000   1.0000   1.0000   1.0000   1.0000
     1.0000   1.0000   1.0000   1.0000   1.0000   1.0000   1.0000   1.0000
     1.0000   1.0000   1.0000   1.0000   1.0000   1.0000   1.0000   1.0000
     1.0000   1.0000   1.0000   1.0000   1.0000   1.0000   1.0000   0.9941
     0.0009   0.0000   0.0000   0.0000   0.0000   0.0000

          k = 0.5303 0.5303-0.1768 (  7554 PWs)   bands (ev):

    -5.6713  -5.1297  -4.6447  -4.1870  -3.8106  -3.2238  -2.5845  -2.3675
    -1.1988  -0.8342  -0.7460   0.1922   0.4846   0.9807   1.1935   1.4954
     1.8068   2.0718   2.4002   2.5390   2.6892   2.8972   3.1146   3.1786
     3.6492   3.9809   4.1429   4.4056   4.6967   5.3129   5.4292   6.4529
     6.7181   7.0999   7.4715   7.6056   7.8992   8.3205

     occupation numbers 
     1.0000   1.0000   1.0000   1.0000   1.0000   1.0000   1.0000   1.0000
     1.0000   1.0000   1.0000   1.0000   1.0000   1.0000   1.0000   1.0000
     1.0000   1.0000   1.0000   1.0000   1.0000   1.0000   1.0000   1.0000
     1.0000   1.0000   1.0000   1.0000   1.0000   1.0000   1.0000   0.2844
     0.0080   0.0000   0.0000   0.0000   0.0000   0.0000

          k =-0.5303 0.5303 0.1768 (  7554 PWs)   bands (ev):

    -5.7194  -5.1353  -4.4998  -4.1529  -3.8272  -3.4369  -2.4197  -2.1773
    -1.5403  -1.0813  -0.3532  -0.1160   0.2120   1.0154   1.4130   1.8132
     1.8991   2.2152   2.2821   2.5894   2.6487   2.9873   3.2199   3.3801
     3.5680   3.9403   4.2570   4.5498   4.5781   5.0176   5.2911   5.8559
     6.7588   7.1721   7.3851   7.8065   8.0122   8.0920

     occupation numbers 
     1.0000   1.0000   1.0000   1.0000   1.0000   1.0000   1.0000   1.0000
     1.0000   1.0000   1.0000   1.0000   1.0000   1.0000   1.0000   1.0000
     1.0000   1.0000   1.0000   1.0000   1.0000   1.0000   1.0000   1.0000
     1.0000   1.0000   1.0000   1.0000   1.0000   1.0000   1.0000   0.9998
     0.0036   0.0000   0.0000   0.0000   0.0000   0.0000

          k = 0.5303-0.5303 0.1768 (  7554 PWs)   bands (ev):

    -5.6792  -5.1861  -4.5524  -4.0988  -3.8383  -3.4063  -2.4407  -2.2774
    -1.3624  -1.0466  -0.4009  -0.1078   0.3430   0.9244   1.4278   1.6549
     1.7505   2.1483   2.3557   2.5025   2.7483   3.0446   3.2725   3.3464
     3.6571   3.9440   4.0917   4.4059   4.7342   5.0901   5.2969   5.7681
     6.8862   7.3370   7.4702   7.8087   8.0023   8.2481

     occupation numbers 
     1.0000   1.0000   1.0000   1.0000   1.0000   1.0000   1.0000   1.0000
     1.0000   1.0000   1.0000   1.0000   1.0000   1.0000   1.0000   1.0000
     1.0000   1.0000   1.0000   1.0000   1.0000   1.0000   1.0000   1.0000
     1.0000   1.0000   1.0000   1.0000   1.0000   1.0000   1.0000   1.0000
     0.0002   0.0000   0.0000   0.0000   0.0000   0.0000

          k =-0.5303-0.5303-0.1768 (  7554 PWs)   bands (ev):

    -5.6642  -5.1319  -4.6383  -4.2502  -3.8261  -3.1635  -2.4930  -2.2544
    -1.2665  -1.2195  -0.7168   0.3434   0.5309   1.1356   1.1944   1.5853
     1.6940   1.8619   2.4183   2.5994   2.7147   2.8817   3.1349   3.3450
     3.4680   3.9348   4.2581   4.4751   4.7627   4.9337   5.7229   6.4458
     6.7221   7.1342   7.4183   7.7034   7.8189   8.2161

     occupation numbers 
     1.0000   1.0000   1.0000   1.0000   1.0000   1.0000   1.0000   1.0000
     1.0000   1.0000   1.0000   1.0000   1.0000   1.0000   1.0000   1.0000
     1.0000   1.0000   1.0000   1.0000   1.0000   1.0000   1.0000   1.0000
     1.0000   1.0000   1.0000   1.0000   1.0000   1.0000   1.0000   0.3014
     0.0075   0.0000   0.0000   0.0000   0.0000   0.0000

          k = 0.0000 0.3536 0.3536 (  7592 PWs)   bands (ev):

    -5.8448  -4.9744  -4.6760  -3.9630  -3.6054  -3.2264  -2.7951  -2.3177
    -1.4135  -1.0343  -0.9100  -0.0563   0.3908   0.6656   1.2443   1.5998
     1.9500   2.1944   2.5473   2.8444   3.0506   3.2888   3.3841   3.4594
     3.7141   3.9928   4.2177   4.4561   4.5983   5.0860   5.2603   6.3248
     6.4818   6.9833   7.3671   7.7311   7.8291   8.0361

     occupation numbers 
     1.0000   1.0000   1.0000   1.0000   1.0000   1.0000   1.0000   1.0000
     1.0000   1.0000   1.0000   1.0000   1.0000   1.0000   1.0000   1.0000
     1.0000   1.0000   1.0000   1.0000   1.0000   1.0000   1.0000   1.0000
     1.0000   1.0000   1.0000   1.0000   1.0000   1.0000   1.0000   0.6247
     0.2207   0.0000   0.0000   0.0000   0.0000   0.0000

          k =-0.3536 0.0000-0.3536 (  7592 PWs)   bands (ev):

    -5.8144  -5.1033  -4.4407  -4.2001  -3.5076  -3.2630  -2.8834  -2.0469
    -1.5209  -1.2156  -0.6404  -0.1647   0.4517   0.7374   1.2250   1.5089
     1.8575   2.1627   2.5271   2.7960   3.0585   3.2238   3.3588   3.5788
     3.7355   4.0233   4.2086   4.2935   4.7738   4.8722   5.2979   6.3819
     6.8027   7.2499   7.4250   7.5333   7.8504   8.0937

     occupation numbers 
     1.0000   1.0000   1.0000   1.0000   1.0000   1.0000   1.0000   1.0000
     1.0000   1.0000   1.0000   1.0000   1.0000   1.0000   1.0000   1.0000
     1.0000   1.0000   1.0000   1.0000   1.0000   1.0000   1.0000   1.0000
     1.0000   1.0000   1.0000   1.0000   1.0000   1.0000   1.0000   0.4690
     0.0014   0.0000   0.0000   0.0000   0.0000   0.0000

          k = 0.3536 0.0000-0.3536 (  7592 PWs)   bands (ev):

    -5.8409  -5.0946  -4.3444  -4.1479  -3.5297  -3.4393  -2.7871  -2.3280
    -1.2335  -1.0529  -0.7501  -0.1611   0.2136   0.7974   1.0814   1.5740
     2.0786   2.3323   2.5999   2.7711   2.9282   3.2370   3.3227   3.4796
     3.7646   3.9955   4.1867   4.5377   4.6859   4.8803   5.2041   6.4351
     6.4518   7.0590   7.2375   7.6855   7.9145   8.1379

     occupation numbers 
     1.0000   1.0000   1.0000   1.0000   1.0000   1.0000   1.0000   1.0000
     1.0000   1.0000   1.0000   1.0000   1.0000   1.0000   1.0000   1.0000
     1.0000   1.0000   1.0000   1.0000   1.0000   1.0000   1.0000   1.0000
     1.0000   1.0000   1.0000   1.0000   1.0000   1.0000   1.0000   0.3276
     0.2870   0.0000   0.0000   0.0000   0.0000   0.0000

          k = 0.3536 0.3536 0.0000 (  7592 PWs)   bands (ev):

    -5.8130  -4.9772  -4.6961  -4.0563  -3.7007  -3.0624  -2.8138  -2.2859
    -1.4534  -0.9723  -0.8317   0.2081   0.3350   0.6701   1.1784   1.4884
     1.8891   2.0954   2.5470   2.6984   2.9159   3.0482   3.2635   3.5626
     3.7020   4.0585   4.1801   4.3362   4.7903   5.1267   5.7310   6.4860
     6.8836   7.0581   7.2792   7.3866   7.8897   8.0562

     occupation numbers 
     1.0000   1.0000   1.0000   1.0000   1.0000   1.0000   1.0000   1.0000
     1.0000   1.0000   1.0000   1.0000   1.0000   1.0000   1.0000   1.0000
     1.0000   1.0000   1.0000   1.0000   1.0000   1.0000   1.0000   1.0000
     1.0000   1.0000   1.0000   1.0000   1.0000   1.0000   1.0000   0.2122
     0.0002   0.0000   0.0000   0.0000   0.0000   0.0000

          k =-0.3536 0.3536 0.0000 (  7592 PWs)   bands (ev):

    -5.8638  -5.0085  -4.5500  -3.9552  -3.6560  -3.3071  -2.8055  -2.1647
    -1.4999  -1.0409  -0.9139  -0.1752   0.1924   0.8907   1.0878   1.7925
     2.2034   2.4230   2.6576   2.8198   2.9618   3.0113   3.2988   3.3861
     3.7690   4.0050   4.2992   4.4564   4.7226   4.9809   5.1596   5.7381
     6.7572   7.1482   7.4150   7.7360   8.0583   8.1865

     occupation numbers 
     1.0000   1.0000   1.0000   1.0000   1.0000   1.0000   1.0000   1.0000
     1.0000   1.0000   1.0000   1.0000   1.0000   1.0000   1.0000   1.0000
     1.0000   1.0000   1.0000   1.0000   1.0000   1.0000   1.0000   1.0000
     1.0000   1.0000   1.0000   1.0000   1.0000   1.0000   1.0000   1.0000
     0.0037   0.0000   0.0000   0.0000   0.0000   0.0000

          k = 0.0000-0.7071 0.0000 (  7528 PWs)   bands (ev):

    -5.6765  -4.8406  -4.7959  -4.2716  -3.9246  -3.4987  -2.5648  -1.9058
    -1.4352  -1.2682  -0.1783   0.4240   0.6807   0.9637   1.5348   1.7041
     1.7826   2.1196   2.2431   2.3979   2.5491   2.6863   2.8264   3.1268
     3.5347   3.6759   4.2677   4.3346   4.6711   5.0310   5.7257   5.8100
     6.3550   6.7653   7.4021   7.8376   8.0887   8.3862

     occupation numbers 
     1.0000   1.0000   1.0000   1.0000   1.0000   1.0000   1.0000   1.0000
     1.0000   1.0000   1.0000   1.0000   1.0000   1.0000   1.0000   1.0000
     1.0000   1.0000   1.0000   1.0000   1.0000   1.0000   1.0000   1.0000
     1.0000   1.0000   1.0000   1.0000   1.0000   1.0000   1.0000   0.9999
     0.5433   0.0031   0.0000   0.0000   0.0000   0.0000

          k = 0.0000 0.0000-0.7071 (  7528 PWs)   bands (ev):

    -5.4993  -5.2153  -4.5433  -4.4349  -3.8774  -3.6818  -1.8494  -1.7615
    -1.7252  -1.4673   0.0885   0.2921   0.4754   0.8045   1.6847   1.7444
     1.8651   1.9480   2.0859   2.2489   2.3938   2.4708   2.8135   2.9672
     3.5577   4.0387   4.4069   4.6898   4.9075   5.0268   5.6230   6.0842
     6.4455   6.9334   7.4824   7.8318   8.0156   8.2332

     occupation numbers 
     1.0000   1.0000   1.0000   1.0000   1.0000   1.0000   1.0000   1.0000
     1.0000   1.0000   1.0000   1.0000   1.0000   1.0000   1.0000   1.0000
     1.0000   1.0000   1.0000   1.0000   1.0000   1.0000   1.0000   1.0000
     1.0000   1.0000   1.0000   1.0000   1.0000   1.0000   1.0000   0.9765
     0.3020   0.0000   0.0000   0.0000   0.0000   0.0000

          k = 0.3536-0.7071 0.0000 (  7564 PWs)   bands (ev):

    -5.5580  -5.0919  -4.7687  -4.3979  -3.8064  -3.0905  -2.7373  -2.2295
    -1.2933  -0.8181  -0.6462   0.1851   0.9531   1.3615   1.4190   1.5504
     1.6592   1.9332   2.1007   2.3816   2.7099   2.9216   3.1217   3.2872
     3.5435   3.6887   3.8653   4.2453   4.4237   4.6684   5.3471   5.9452
     7.1119   7.6038   7.8347   7.9547   8.1864   8.4012

     occupation numbers 
     1.0000   1.0000   1.0000   1.0000   1.0000   1.0000   1.0000   1.0000
     1.0000   1.0000   1.0000   1.0000   1.0000   1.0000   1.0000   1.0000
     1.0000   1.0000   1.0000   1.0000   1.0000   1.0000   1.0000   1.0000
     1.0000   1.0000   1.0000   1.0000   1.0000   1.0000   1.0000   0.9984
     0.0000   0.0000   0.0000   0.0000   0.0000   0.0000

          k = 0.7071 0.0000 0.3536 (  7564 PWs)   bands (ev):

    -5.5767  -4.9771  -4.9266  -4.3974  -3.5066  -3.1787  -2.8165  -2.4928
    -1.0424  -0.7615  -0.5197  -0.2860   1.0042   1.3187   1.4731   1.6456
     1.7430   2.0050   2.3249   2.4420   2.7855   2.8767   3.0776   3.2491
     3.4211   3.5742   3.8831   4.0379   4.5772   4.9006   5.2593   5.3797
     7.1014   7.7226   7.9497   8.0566   8.1952   8.4092

     occupation numbers 
     1.0000   1.0000   1.0000   1.0000   1.0000   1.0000   1.0000   1.0000
     1.0000   1.0000   1.0000   1.0000   1.0000   1.0000   1.0000   1.0000
     1.0000   1.0000   1.0000   1.0000   1.0000   1.0000   1.0000   1.0000
     1.0000   1.0000   1.0000   1.0000   1.0000   1.0000   1.0000   1.0000
     0.0000   0.0000   0.0000   0.0000   0.0000   0.0000

     the Fermi energy is     6.3707 ev

!    total energy              =    -151.88664320 Ry
     Harris-Foulkes estimate   =    -151.88664320 Ry
     estimated scf accuracy    <          1.3E-10 Ry

     The total energy is the sum of the following terms:

     one-electron contribution =      37.21090867 Ry
     hartree contribution      =      10.39443091 Ry
     xc contribution           =     -68.47597490 Ry
     ewald contribution        =    -131.00868573 Ry
     smearing contrib. (-TS)   =      -0.00732215 Ry

     convergence has been achieved in  15 iterations

     Forces acting on atoms (Ry/au):

     atom    1 type  1   force =   0.10519456E-01  0.52028587E-01 -0.62798941E-01
     atom    2 type  1   force =   0.63908854E-01 -0.85747256E-01 -0.26249548E-01
     atom    3 type  1   force =   0.18685139E-01  0.15468144E-02  0.52566206E-01
     atom    4 type  1   force =  -0.87512436E+00  0.53624049E+00 -0.70995317E+00
     atom    5 type  1   force =  -0.19481511E+00  0.11445540E+00  0.16743800E+00
     atom    6 type  1   force =   0.25900820E-01  0.86347807E-01  0.76584642E-01
     atom    7 type  1   force =   0.84736990E+00 -0.56573386E+00  0.77422492E+00
     atom    8 type  1   force =  -0.28287973E-01  0.57400514E-01 -0.54843415E-01
     atom    9 type  1   force =  -0.71783019E-01  0.55982313E-01 -0.72975732E-02
     atom   10 type  1   force =  -0.56050077E-01  0.66125383E-01 -0.79294495E-02
     atom   11 type  1   force =   0.17033611E-01 -0.84097403E-02 -0.89466443E-01
     atom   12 type  1   force =   0.47761793E-01 -0.74379516E-01  0.49308033E-01
     atom   13 type  1   force =   0.11191704E+00 -0.85895159E-01  0.10295389E-01
     atom   14 type  1   force =   0.17567865E+00 -0.10957433E+00 -0.22107630E+00
     atom   15 type  1   force =  -0.65696086E-01 -0.20165124E-01 -0.13527319E-01
     atom   16 type  1   force =  -0.27018641E-01 -0.20222313E-01  0.62724970E-01
     The non-local contrib.  to forces
     atom    1 type  1   force =   0.27222645E-01  0.50969789E-01 -0.37154693E-01
     atom    2 type  1   force =   0.53253956E-01 -0.85016148E-01 -0.33093816E-01
     atom    3 type  1   force =   0.42192330E-01 -0.16577292E-01  0.87230764E-01
     atom    4 type  1   force =  -0.73280175E+00  0.43507968E+00 -0.54981069E+00
     atom    5 type  1   force =  -0.23352940E+00  0.10621030E+00  0.18010912E+00
     atom    6 type  1   force =   0.35966176E-01  0.11066160E+00  0.90625844E-01
     atom    7 type  1   force =   0.68080773E+00 -0.43881619E+00  0.64007779E+00
     atom    8 type  1   force =  -0.55763853E-01  0.43714559E-01 -0.80740373E-01
     atom    9 type  1   force =  -0.64051149E-01  0.78771926E-01  0.15283738E-01
     atom   10 type  1   force =  -0.73210228E-01  0.79138798E-01 -0.59257914E-01
     atom   11 type  1   force =   0.35513179E-02 -0.31582082E-01 -0.80798357E-01
     atom   12 type  1   force =   0.55186038E-01 -0.47959310E-01  0.28170297E-01
     atom   13 type  1   force =   0.13025037E+00 -0.76465187E-01 -0.21517608E-02
     atom   14 type  1   force =   0.21671343E+00 -0.15933763E+00 -0.24792803E+00
     atom   15 type  1   force =  -0.85779876E-01 -0.34828193E-01 -0.17845996E-01
     atom   16 type  1   force =  -0.56168995E-02 -0.30252335E-01  0.91121732E-01
     The ionic contribution  to forces
     atom    1 type  1   force =  -0.23356307E+00  0.52079883E+00  0.19140642E-01
     atom    2 type  1   force =   0.18070498E+00 -0.37790184E+00  0.11467234E+00
     atom    3 type  1   force =  -0.14002917E+00 -0.53565386E-01  0.51543571E+00
     atom    4 type  1   force =  -0.20598286E+01  0.10025918E+01 -0.64285623E+00
     atom    5 type  1   force =  -0.84721320E+00  0.78191825E+00  0.40417480E+00
     atom    6 type  1   force =  -0.15614691E-01  0.73007378E+00  0.51429683E+00
     atom    7 type  1   force =   0.11525206E+01 -0.72256115E+00  0.17062181E+01
     atom    8 type  1   force =  -0.49699618E+00  0.37249002E+00  0.17239602E-01
     atom    9 type  1   force =   0.19447082E+00 -0.53936196E-01 -0.29983511E+00
     atom   10 type  1   force =   0.17287305E+00  0.22517368E+00 -0.51316268E+00
     atom   11 type  1   force =   0.24378358E+00 -0.22464652E+00 -0.45526281E+00
     atom   12 type  1   force =   0.30755002E+00 -0.41365755E+00 -0.61321561E-02
     atom   13 type  1   force =   0.91882008E+00 -0.57792884E+00 -0.42922673E+00
     atom   14 type  1   force =   0.59121701E+00 -0.28055756E+00 -0.93575794E+00
     atom   15 type  1   force =  -0.29892285E+00 -0.33219458E+00 -0.13509352E+00
     atom   16 type  1   force =   0.33022768E+00 -0.59609675E+00  0.12614917E+00
     The local contribution  to forces
     atom    1 type  1   force =   0.21853636E+00 -0.51625047E+00 -0.48150470E-01
     atom    2 type  1   force =  -0.16494916E+00  0.36854934E+00 -0.11093633E+00
     atom    3 type  1   force =   0.12061410E+00  0.70352289E-01 -0.54163891E+00
     atom    4 type  1   force =   0.18548564E+01 -0.86624239E+00  0.43882155E+00
     atom    5 type  1   force =   0.86439828E+00 -0.76385989E+00 -0.40059673E+00
     atom    6 type  1   force =   0.10190669E-01 -0.74261706E+00 -0.51969915E+00
     atom    7 type  1   force =  -0.92951543E+00  0.55995805E+00 -0.15190345E+01
     atom    8 type  1   force =   0.51866465E+00 -0.35509846E+00  0.13073476E-02
     atom    9 type  1   force =  -0.20740048E+00  0.38654471E-01  0.27832787E+00
     atom   10 type  1   force =  -0.16239933E+00 -0.23063189E+00  0.55827205E+00
     atom   11 type  1   force =  -0.22923264E+00  0.24477020E+00  0.43904440E+00
     atom   12 type  1   force =  -0.30923148E+00  0.38391525E+00  0.29845909E-01
     atom   13 type  1   force =  -0.92495715E+00  0.56109031E+00  0.44007831E+00
     atom   14 type  1   force =  -0.61284796E+00  0.31583554E+00  0.94038435E+00
     atom   15 type  1   force =   0.31017075E+00  0.34365058E+00  0.13783733E+00
     atom   16 type  1   force =  -0.35185743E+00  0.60316416E+00 -0.14577421E+00
     The core correction contribution to forces
     atom    1 type  1   force =  -0.16759412E-02 -0.34960359E-02  0.33666921E-02
     atom    2 type  1   force =  -0.51000430E-02  0.86182293E-02  0.31091414E-02
     atom    3 type  1   force =  -0.40862786E-02  0.13369745E-02 -0.84631010E-02
     atom    4 type  1   force =   0.62654087E-01 -0.35190810E-01  0.43890404E-01
     atom    5 type  1   force =   0.21528762E-01 -0.98166591E-02 -0.16250982E-01
     atom    6 type  1   force =  -0.46418538E-02 -0.11771424E-01 -0.86409466E-02
     atom    7 type  1   force =  -0.56442269E-01  0.35686888E-01 -0.53041385E-01
     atom    8 type  1   force =   0.58094469E-02 -0.37060405E-02  0.73450074E-02
     atom    9 type  1   force =   0.51945668E-02 -0.75069377E-02 -0.10690025E-02
     atom   10 type  1   force =   0.66838675E-02 -0.75576740E-02  0.62235225E-02
     atom   11 type  1   force =  -0.10675945E-02  0.30499359E-02  0.75511864E-02
     atom   12 type  1   force =  -0.57419028E-02  0.33258693E-02 -0.25744293E-02
     atom   13 type  1   force =  -0.12200223E-01  0.74104506E-02  0.15981734E-02
     atom   14 type  1   force =  -0.19407871E-01  0.14485403E-01  0.22227779E-01
     atom   15 type  1   force =   0.88335939E-02  0.32106943E-02  0.15750923E-02
     atom   16 type  1   force =   0.22611677E-03  0.29683927E-02 -0.87722056E-02
     The Hubbard contrib.    to forces
     atom    1 type  1   force =   0.00000000E+00  0.00000000E+00  0.00000000E+00
     atom    2 type  1   force =   0.00000000E+00  0.00000000E+00  0.00000000E+00
     atom    3 type  1   force =   0.00000000E+00  0.00000000E+00  0.00000000E+00
     atom    4 type  1   force =   0.00000000E+00  0.00000000E+00  0.00000000E+00
     atom    5 type  1   force =   0.00000000E+00  0.00000000E+00  0.00000000E+00
     atom    6 type  1   force =   0.00000000E+00  0.00000000E+00  0.00000000E+00
     atom    7 type  1   force =   0.00000000E+00  0.00000000E+00  0.00000000E+00
     atom    8 type  1   force =   0.00000000E+00  0.00000000E+00  0.00000000E+00
     atom    9 type  1   force =   0.00000000E+00  0.00000000E+00  0.00000000E+00
     atom   10 type  1   force =   0.00000000E+00  0.00000000E+00  0.00000000E+00
     atom   11 type  1   force =   0.00000000E+00  0.00000000E+00  0.00000000E+00
     atom   12 type  1   force =   0.00000000E+00  0.00000000E+00  0.00000000E+00
     atom   13 type  1   force =   0.00000000E+00  0.00000000E+00  0.00000000E+00
     atom   14 type  1   force =   0.00000000E+00  0.00000000E+00  0.00000000E+00
     atom   15 type  1   force =   0.00000000E+00  0.00000000E+00  0.00000000E+00
     atom   16 type  1   force =   0.00000000E+00  0.00000000E+00  0.00000000E+00
     The SCF correction term to forces
     atom    1 type  1   force =  -0.67734770E-06  0.64493141E-05 -0.10164130E-05
     atom    2 type  1   force =  -0.10158940E-05  0.31366560E-05 -0.78800050E-06
     atom    3 type  1   force =  -0.59789657E-05  0.19920897E-06  0.18429795E-05
     atom    4 type  1   force =  -0.46018621E-05  0.21520312E-05  0.18906989E-05
     atom    5 type  1   force =   0.31339643E-06  0.33610816E-05  0.18849611E-05
     atom    6 type  1   force =   0.38186987E-06  0.87840683E-06  0.21551593E-05
     atom    7 type  1   force =  -0.87013099E-06 -0.14892359E-05  0.50494960E-05
     atom    8 type  1   force =  -0.21749148E-05  0.40399159E-06  0.50967652E-05
     atom    9 type  1   force =   0.30782726E-05 -0.97954082E-06 -0.49815412E-05
     atom   10 type  1   force =   0.24266753E-05  0.24396739E-05 -0.43353943E-05
     atom   11 type  1   force =  -0.11910367E-05 -0.13011119E-05 -0.76900971E-06
     atom   12 type  1   force =  -0.10173406E-05 -0.37963085E-05 -0.14922558E-05
     atom   13 type  1   force =   0.38272026E-05 -0.19195494E-05 -0.25037027E-05
     atom   14 type  1   force =   0.38958116E-05 -0.11904609E-06 -0.23638216E-05
     atom   15 type  1   force =   0.21521156E-05 -0.36561658E-05 -0.12732841E-06
     atom   16 type  1   force =   0.17488075E-05 -0.58120343E-05  0.57788141E-06

     Total force =     1.863703     Total SCF correction =     0.000020


     entering subroutine stress ...

          total   stress  (Ry/bohr**3)                   (kbar)     P=  116.68
   0.0008196559  -0.0003646656   0.0006152679        120.58    -53.64     90.51
  -0.0003646656   0.0005512175  -0.0001892962        -53.64     81.09    -27.85
   0.0006152679  -0.0001892962   0.0010086557         90.51    -27.85    148.38

     kinetic stress (kbar)   2230.81    -31.52      5.51
                              -31.52   2228.78     -1.29
                                5.51     -1.29   2231.38

     local   stress (kbar)   -305.95   -366.54   -155.79
                             -366.54   -326.59     40.90
                             -155.79     40.90   -549.32

     nonloc. stress (kbar)   2010.12     16.49     27.62
                               16.49   2008.13      3.13
                               27.62      3.13   2033.76

     hartree stress (kbar)    225.07     65.85     30.04
                               65.85    216.12    -24.84
                               30.04    -24.84    265.84

     exc-cor stress (kbar)    993.41      0.39      0.17
                                0.39    993.51      0.07
                                0.17      0.07    993.64

     corecor stress (kbar)  -1994.81     -2.63     -2.61
                               -2.63  -1995.00     -0.68
                               -2.61     -0.68  -1997.64

     ewald   stress (kbar)  -3038.07    264.32    185.57
                              264.32  -3043.87    -45.15
                              185.57    -45.15  -2829.28

     hubbard stress (kbar)      0.00      0.00      0.00
                                0.00      0.00      0.00
                                0.00      0.00      0.00

     london  stress (kbar)      0.00      0.00      0.00
                                0.00      0.00      0.00
                                0.00      0.00      0.00

     XDM     stress (kbar)      0.00      0.00      0.00
                                0.00      0.00      0.00
                                0.00      0.00      0.00

     dft-nl  stress (kbar)      0.00      0.00      0.00
                                0.00      0.00      0.00
                                0.00      0.00      0.00



     Writing output data file Si_diamond.scf.in.super.222.largdist.b.044.save

     init_run     :     16.46s CPU     17.02s WALL (       1 calls)
     electrons    :    507.56s CPU    507.46s WALL (       1 calls)
     forces       :      6.38s CPU      5.11s WALL (       1 calls)
     stress       :     22.65s CPU     22.26s WALL (       1 calls)

     Called by init_run:
     wfcinit      :     15.50s CPU     16.02s WALL (       1 calls)
     potinit      :      0.12s CPU      0.13s WALL (       1 calls)

     Called by electrons:
     c_bands      :    422.70s CPU    423.02s WALL (      15 calls)
     sum_band     :     72.78s CPU     72.28s WALL (      15 calls)
     v_of_rho     :      1.58s CPU      1.60s WALL (      16 calls)
     v_h          :      0.10s CPU      0.10s WALL (      16 calls)
     v_xc         :      1.64s CPU      1.66s WALL (      18 calls)
     newd         :      9.43s CPU      9.49s WALL (      16 calls)
     mix_rho      :      1.50s CPU      1.49s WALL (      15 calls)

     Called by c_bands:
     init_us_2    :      6.20s CPU      6.45s WALL (    1188 calls)
     cegterg      :    397.68s CPU    397.15s WALL (     540 calls)

     Called by sum_band:
     sum_band:bec :      0.48s CPU      0.48s WALL (     540 calls)
     addusdens    :      9.30s CPU      9.45s WALL (      15 calls)

     Called by *egterg:
     h_psi        :    271.18s CPU    267.38s WALL (    2061 calls)
     s_psi        :     27.87s CPU     22.68s WALL (    2061 calls)
     g_psi        :      0.68s CPU      0.72s WALL (    1485 calls)
     cdiaghg      :     22.52s CPU     24.29s WALL (    2025 calls)
     cegterg:over :     40.07s CPU     43.20s WALL (    1485 calls)
     cegterg:upda :     11.59s CPU     12.13s WALL (    1485 calls)
     cegterg:last :      4.30s CPU      4.10s WALL (     540 calls)

     Called by h_psi:
     h_psi:vloc   :    193.90s CPU    197.65s WALL (    2061 calls)
     h_psi:vnl    :     76.80s CPU     69.16s WALL (    2061 calls)
     add_vuspsi   :     28.82s CPU     24.12s WALL (    2061 calls)

     General routines
     calbec       :     70.65s CPU     65.51s WALL (    2673 calls)
     fft          :      1.54s CPU      1.55s WALL (     277 calls)
     ffts         :      0.74s CPU      0.74s WALL (     309 calls)
     fftw         :    205.52s CPU    209.43s WALL (  129366 calls)
     interpolate  :      0.28s CPU      0.28s WALL (      31 calls)

     Parallel routines
     fft_scatter  :    101.50s CPU    103.15s WALL (  129952 calls)

     PWSCF        :  9m14.34s CPU     9m13.58s WALL


   This run was terminated on:  14:44:53  28Sep2017            

=------------------------------------------------------------------------------=
   JOB DONE.
=------------------------------------------------------------------------------=
