
     Program PWSCF v.5.1 starts on  4Apr2018 at 20:19:17 

     This program is part of the open-source Quantum ESPRESSO suite
     for quantum simulation of materials; please cite
         "P. Giannozzi et al., J. Phys.:Condens. Matter 21 395502 (2009);
          URL http://www.quantum-espresso.org", 
     in publications or presentations arising from this work. More details at
     http://www.quantum-espresso.org/quote

     Parallel version (MPI), running on    16 processors
     R & G space division:  proc/nbgrp/npool/nimage =      16
     Waiting for input...
     Reading input from standard input
Warning: card &IONS ignored
Warning: card   ION_DYNAMICS='BFGS', ignored
Warning: card / ignored
Warning: card &CELL ignored
Warning: card  CELL_DYNAMICS = 'BFGS' ignored
Warning: card / ignored

     Current dimensions of program PWSCF are:
     Max number of different atomic species (ntypx) = 10
     Max number of k-points (npk) =  40000
     Max angular momentum in pseudopotentials (lmaxx) =  3
 kfg - two_fermi_energies  F

     Subspace diagonalization in iterative solution of the eigenvalue problem:
     a serial algorithm will be used


     Parallelization info
     --------------------
     sticks:   dense  smooth     PW     G-vecs:    dense   smooth      PW
     Min         191     134     38                 7113     4157     630
     Max         192     135     39                 7115     4186     631
     Sum        3061    2157    611               113825    66755   10081



     bravais-lattice index     =            0
     lattice parameter (alat)  =    15.061649721  a.u.
     unit-cell volume          =    2384.8634 (a.u.)^3
     number of atoms/cell      =           16
     number of atomic types    =            2
     number of electrons       =       194.00
     number of Kohn-Sham states=          116
     kinetic-energy cutoff     =      35.0000  Ry
     charge density cutoff     =     200.0000  Ry
     convergence threshold     =      1.0E-09
     mixing beta               =       0.3000
     number of iterations used =            8  local-TF  mixing
     Exchange-correlation      = SLA  PW   PSX  PSC ( 1  4 10  8 0)
     A smooth kinetic-energy cutoff is imposed at      34.5000 Ry
     height of the smooth step-function =             800.0000 Ry
     width of the smooth step-function  =               1.0000 Ry


     celldm(1)=  15.061650  celldm(2)=   0.000000  celldm(3)=   0.000000
     celldm(4)=   0.000000  celldm(5)=   0.000000  celldm(6)=   0.000000

     crystal axes: (cart. coord. in units of alat)
               a(1) = (   0.002333989496   0.721068269039   0.692860089685 )  
               a(2) = (   0.692420271712   0.003891446815   0.691302632367 )  
               a(3) = (   0.700983094434   0.728073634443  -0.004671375907 )  

     reciprocal axes: (cart. coord. in units 2 pi/alat)
               b(1) = ( -0.721130  0.698906  0.718361 )  
               b(2) = (  0.727554 -0.695852  0.721731 )  
               b(3) = (  0.710302  0.685025 -0.715307 )  


     PseudoPot. # 1 for Si read from file:
     /users/kfg/psuedo/gbrv_1.5/si.pbesol.UPF
     MD5 check sum: ef58ba74faed4df802eb8a9742fc00a8
     Pseudo is Ultrasoft + core correction, Zval =  4.0
     Generated by new atomic code, or converted to UPF format
     Using radial grid of  899 points,  6 beta functions with: 
                l(1) =   0
                l(2) =   0
                l(3) =   1
                l(4) =   1
                l(5) =   2
                l(6) =   2
     Q(r) pseudized with  8 coefficients,  rinner =    0.900   0.900   0.900
                                                       0.900   0.900

     PseudoPot. # 2 for Ge read from file:
     /users/kfg/psuedo/gbrv_1.5/ge.pbesol.UPF
     MD5 check sum: 7bed0412183f5e553a4d27ec7023354d
     Pseudo is Ultrasoft + core correction, Zval = 14.0
     Generated by new atomic code, or converted to UPF format
     Using radial grid of  873 points,  6 beta functions with: 
                l(1) =   0
                l(2) =   0
                l(3) =   1
                l(4) =   1
                l(5) =   2
                l(6) =   2
     Q(r) pseudized with  8 coefficients,  rinner =    1.400   1.400   1.400
                                                       1.400   1.400

     atomic species   valence    mass     pseudopotential
        Si             4.00    28.08550     Si( 1.00)
        Ge            14.00    72.59000     Ge( 1.00)

     No symmetry found


                                    s                        frac. trans.

      isym =  1     identity                                     

 cryst.   s( 1) = (     1          0          0      )
                  (     0          1          0      )
                  (     0          0          1      )

 cart.    s( 1) = (  1.0000000  0.0000000  0.0000000 )
                  ( -0.0000000  1.0000000  0.0000000 )
                  (  0.0000000 -0.0000000  1.0000000 )


     point group C_1 (1)    
     there are  1 classes
     the character table:

       E    
A      1.00

     the symmetry operations in each class:
     E        1

   Cartesian axes

     site n.     atom                  positions (alat units)
         1           Ge  tau(   1) = (    0.00455648038   -0.02052559054    0.00230577207  )
         2           Ge  tau(   2) = (    0.14453793666    0.19370194667    0.17346856562  )
         3           Ge  tau(   3) = (    0.34766179478    0.35802993941    0.00286094515  )
         4           Ge  tau(   4) = (    0.52280812332    0.54526548529    0.17467954775  )
         5           Ge  tau(   5) = (    0.34012692003    0.02626239736    0.34344686738  )
         6           Ge  tau(   6) = (    0.52737266768    0.19244116187    0.51544508925  )
         7           Ge  tau(   7) = (    0.71304885666    0.36289334768    0.33630333020  )
         8           Si  tau(   8) = (    0.87524924034    0.56077981366    0.48714460500  )
         9           Ge  tau(   9) = (   -0.01484165549    0.37360747157    0.35757968374  )
        10           Ge  tau(  10) = (    0.18378746257    0.52104283851    0.52410438671  )
        11           Si  tau(  11) = (    0.34950954414    0.71349155940    0.35423313314  )
        12           Ge  tau(  12) = (    0.51580846661    0.90589132758    0.52277895334  )
        13           Si  tau(  13) = (    0.36394849836    0.36458036887    0.69722360850  )
        14           Ge  tau(  14) = (    0.51937457206    0.55495007511    0.87073359284  )
        15           Ge  tau(  15) = (    0.70344893915    0.71096991422    0.68191101989  )
        16           Ge  tau(  16) = (    0.88228893095    0.90178469483    0.85323763016  )

   Crystallographic axes

     site n.     atom                  positions (cryst. coord.)
         1           Ge  tau(   1) = (   -0.01597490422    0.01926200927   -0.01247339646  )
         2           Ge  tau(   2) = (    0.15576205312    0.09556893126    0.11127304629  )
         3           Ge  tau(   3) = (    0.00157543195    0.00587167352    0.49015797199  )
         4           Ge  tau(   4) = (    0.12956018880    0.12701869212    0.61992281602  )
         5           Ge  tau(   5) = (    0.01979827785    0.47706230293    0.01391346199  )
         6           Ge  tau(   6) = (    0.12447009570    0.62179434551    0.13771964957  )
         7           Ge  tau(   7) = (   -0.01898485064    0.50898207861    0.51451120691  )
         8           Si  tau(   8) = (    0.11071030891    0.59815876433    0.65738188721  )
         9           Ge  tau(   9) = (    0.52869081978   -0.01269722426   -0.01039083381  )
        10           Ge  tau(  10) = (    0.60812190631    0.14940905858    0.11257654017  )
        11           Si  tau(  11) = (    0.50108955022    0.01346357852    0.48363156600  )
        12           Ge  tau(  12) = (    0.63671270204    0.12221802684    0.61299074102  )
        13           Si  tau(  13) = (    0.49321194808    0.51430624093    0.00953129943  )
        14           Ge  tau(  14) = (    0.63882307244    0.62014551982    0.12622592055  )
        15           Ge  tau(  15) = (    0.47948206525    0.50922367412    0.49891793544  )
        16           Ge  tau(  16) = (    0.60695133439    0.63021232791    0.63411018770  )

     number of k points=    36  gaussian smearing, width (Ry)=  0.0150
                       cart. coord. in units 2pi/alat
        k(    1) = (   0.0000000   0.0000000   0.0000000), wk =   0.0312500
        k(    2) = (   0.1775756   0.1712562  -0.1788267), wk =   0.0625000
        k(    3) = (  -0.3551512  -0.3425125   0.3576534), wk =   0.0312500
        k(    4) = (   0.1818885  -0.1739630   0.1804328), wk =   0.0625000
        k(    5) = (   0.3594641  -0.0027068   0.0016061), wk =   0.0625000
        k(    6) = (  -0.1732627  -0.5164755   0.5380862), wk =   0.0625000
        k(    7) = (   0.0043129  -0.3452193   0.3592595), wk =   0.0625000
        k(    8) = (  -0.3637770   0.3479261  -0.3608656), wk =   0.0312500
        k(    9) = (  -0.1862014   0.5191823  -0.5396923), wk =   0.0625000
        k(   10) = (  -0.7189282   0.0054136  -0.0032122), wk =   0.0312500
        k(   11) = (  -0.1802824   0.1747266   0.1795903), wk =   0.0625000
        k(   12) = (  -0.0027068   0.3459829   0.0007636), wk =   0.0625000
        k(   13) = (  -0.5354336  -0.1677858   0.5372437), wk =   0.0625000
        k(   14) = (  -0.3578580   0.0034704   0.3584170), wk =   0.0625000
        k(   15) = (   0.0016061   0.0007636   0.3600231), wk =   0.0625000
        k(   16) = (   0.1791817   0.1720198   0.1811964), wk =   0.0625000
        k(   17) = (  -0.3535451  -0.3417489   0.7176765), wk =   0.0625000
        k(   18) = (  -0.1759695  -0.1704926   0.5388498), wk =   0.0625000
        k(   19) = (  -0.5440594   0.5226527  -0.1812753), wk =   0.0625000
        k(   20) = (  -0.3664838   0.6939089  -0.3601020), wk =   0.0625000
        k(   21) = (  -0.8992106   0.1801402   0.1763781), wk =   0.0625000
        k(   22) = (  -0.7216350   0.3513965  -0.0024486), wk =   0.0625000
        k(   23) = (  -0.3621709   0.3486897  -0.0008425), wk =   0.0625000
        k(   24) = (  -0.1845953   0.5199459  -0.1796692), wk =   0.0625000
        k(   25) = (  -0.7173221   0.0061772   0.3568109), wk =   0.0625000
        k(   26) = (  -0.5397465   0.1774334   0.1779842), wk =   0.0625000
        k(   27) = (   0.3605648  -0.3494532  -0.3591806), wk =   0.0312500
        k(   28) = (   0.5381404  -0.1781970  -0.5380073), wk =   0.0625000
        k(   29) = (   0.0054136  -0.6919657  -0.0015272), wk =   0.0312500
        k(   30) = (   0.5424533  -0.5234163  -0.1787478), wk =   0.0625000
        k(   31) = (   0.7200289  -0.3521601  -0.3575745), wk =   0.0625000
        k(   32) = (   0.1873021  -0.8659287   0.1789056), wk =   0.0625000
        k(   33) = (   0.3648777  -0.6946725   0.0000789), wk =   0.0625000
        k(   34) = (  -0.0032122  -0.0015272  -0.7200462), wk =   0.0312500
        k(   35) = (   0.1743634   0.1697290  -0.8988729), wk =   0.0625000
        k(   36) = (  -0.3583634  -0.3440396  -0.3623928), wk =   0.0312500

                       cryst. coord.
        k(    1) = (   0.0000000   0.0000000   0.0000000), wk =   0.0312500
        k(    2) = (   0.0000000  -0.0000000   0.2500000), wk =   0.0625000
        k(    3) = (  -0.0000000   0.0000000  -0.5000000), wk =   0.0312500
        k(    4) = (  -0.0000000   0.2500000   0.0000000), wk =   0.0625000
        k(    5) = (  -0.0000000   0.2500000   0.2500000), wk =   0.0625000
        k(    6) = (   0.0000000   0.2500000  -0.5000000), wk =   0.0625000
        k(    7) = (  -0.0000000   0.2500000  -0.2500000), wk =   0.0625000
        k(    8) = (   0.0000000  -0.5000000  -0.0000000), wk =   0.0312500
        k(    9) = (   0.0000000  -0.5000000   0.2500000), wk =   0.0625000
        k(   10) = (   0.0000000  -0.5000000  -0.5000000), wk =   0.0312500
        k(   11) = (   0.2500000   0.0000000  -0.0000000), wk =   0.0625000
        k(   12) = (   0.2500000  -0.0000000   0.2500000), wk =   0.0625000
        k(   13) = (   0.2500000   0.0000000  -0.5000000), wk =   0.0625000
        k(   14) = (   0.2500000  -0.0000000  -0.2500000), wk =   0.0625000
        k(   15) = (   0.2500000   0.2500000  -0.0000000), wk =   0.0625000
        k(   16) = (   0.2500000   0.2500000   0.2500000), wk =   0.0625000
        k(   17) = (   0.2500000   0.2500000  -0.5000000), wk =   0.0625000
        k(   18) = (   0.2500000   0.2500000  -0.2500000), wk =   0.0625000
        k(   19) = (   0.2500000  -0.5000000  -0.0000000), wk =   0.0625000
        k(   20) = (   0.2500000  -0.5000000   0.2500000), wk =   0.0625000
        k(   21) = (   0.2500000  -0.5000000  -0.5000000), wk =   0.0625000
        k(   22) = (   0.2500000  -0.5000000  -0.2500000), wk =   0.0625000
        k(   23) = (   0.2500000  -0.2500000  -0.0000000), wk =   0.0625000
        k(   24) = (   0.2500000  -0.2500000   0.2500000), wk =   0.0625000
        k(   25) = (   0.2500000  -0.2500000  -0.5000000), wk =   0.0625000
        k(   26) = (   0.2500000  -0.2500000  -0.2500000), wk =   0.0625000
        k(   27) = (  -0.5000000   0.0000000   0.0000000), wk =   0.0312500
        k(   28) = (  -0.5000000  -0.0000000   0.2500000), wk =   0.0625000
        k(   29) = (  -0.5000000   0.0000000  -0.5000000), wk =   0.0312500
        k(   30) = (  -0.5000000   0.2500000  -0.0000000), wk =   0.0625000
        k(   31) = (  -0.5000000   0.2500000   0.2500000), wk =   0.0625000
        k(   32) = (  -0.5000000   0.2500000  -0.5000000), wk =   0.0625000
        k(   33) = (  -0.5000000   0.2500000  -0.2500000), wk =   0.0625000
        k(   34) = (  -0.5000000  -0.5000000   0.0000000), wk =   0.0312500
        k(   35) = (  -0.5000000  -0.5000000   0.2500000), wk =   0.0625000
        k(   36) = (  -0.5000000  -0.5000000  -0.5000000), wk =   0.0312500

     Dense  grid:   113825 G-vectors     FFT dimensions: (  72,  72,  72)

     Smooth grid:    66755 G-vectors     FFT dimensions: (  60,  60,  60)

     Largest allocated arrays     est. size (Mb)     dimensions
        Kohn-Sham Wavefunctions         0.95 Mb     (     538,  116)
        NL pseudopotentials             2.36 Mb     (     538,  288)
        Each V/rho on FFT grid          0.40 Mb     (   25920)
        Each G-vector array             0.05 Mb     (    7114)
        G-vector shells                 0.05 Mb     (    7070)
     Largest temporary arrays     est. size (Mb)     dimensions
        Auxiliary wavefunctions         3.81 Mb     (     538,  464)
        Each subspace H/S matrix        3.29 Mb     (     464,  464)
        Each <psi_i|beta_j> matrix      0.51 Mb     (     288,  116)
        Arrays for rho mixing           3.16 Mb     (   25920,    8)

     Check: negative/imaginary core charge=   -0.000001    0.000000

     Initial potential from superposition of free atoms

     starting charge  193.98755, renormalised to  194.00000
     Starting wfc are  129 randomized atomic wfcs

     total cpu time spent up to now is       18.0 secs

     Self-consistent Calculation

     iteration #  1     ecut=    35.00 Ry     beta=0.30
     Davidson diagonalization with overlap
     ethr =  1.00E-02,  avg # of iterations =  3.4

     Threshold (ethr) on eigenvalues was too large:
     Diagonalizing with lowered threshold

     Davidson diagonalization with overlap
     ethr =  1.47E-04,  avg # of iterations =  5.3

     total cpu time spent up to now is      166.8 secs

     total energy              =   -2800.09032407 Ry
     Harris-Foulkes estimate   =   -2800.12123482 Ry
     estimated scf accuracy    <       0.29673690 Ry

     iteration #  2     ecut=    35.00 Ry     beta=0.30
     Davidson diagonalization with overlap
     ethr =  1.53E-04,  avg # of iterations =  1.0

     total cpu time spent up to now is      205.4 secs

     total energy              =   -2800.03263222 Ry
     Harris-Foulkes estimate   =   -2800.09150088 Ry
     estimated scf accuracy    <       0.18162571 Ry

     iteration #  3     ecut=    35.00 Ry     beta=0.30
     Davidson diagonalization with overlap
     ethr =  9.36E-05,  avg # of iterations =  2.0

     total cpu time spent up to now is      254.2 secs

     total energy              =   -2800.04354338 Ry
     Harris-Foulkes estimate   =   -2800.04371756 Ry
     estimated scf accuracy    <       0.00295289 Ry

     iteration #  4     ecut=    35.00 Ry     beta=0.30
     Davidson diagonalization with overlap
     ethr =  1.52E-06,  avg # of iterations =  7.1

     total cpu time spent up to now is      373.4 secs

     total energy              =   -2800.04387438 Ry
     Harris-Foulkes estimate   =   -2800.04395489 Ry
     estimated scf accuracy    <       0.00087538 Ry

     iteration #  5     ecut=    35.00 Ry     beta=0.30
     Davidson diagonalization with overlap
     ethr =  4.51E-07,  avg # of iterations =  2.0

     total cpu time spent up to now is      425.6 secs

     total energy              =   -2800.04393505 Ry
     Harris-Foulkes estimate   =   -2800.04395604 Ry
     estimated scf accuracy    <       0.00006856 Ry

     iteration #  6     ecut=    35.00 Ry     beta=0.30
     Davidson diagonalization with overlap
     ethr =  3.53E-08,  avg # of iterations =  2.0

     total cpu time spent up to now is      472.1 secs

     total energy              =   -2800.04393532 Ry
     Harris-Foulkes estimate   =   -2800.04393880 Ry
     estimated scf accuracy    <       0.00001142 Ry

     iteration #  7     ecut=    35.00 Ry     beta=0.30
     Davidson diagonalization with overlap
     ethr =  5.89E-09,  avg # of iterations =  2.0

     total cpu time spent up to now is      520.8 secs

     total energy              =   -2800.04393686 Ry
     Harris-Foulkes estimate   =   -2800.04393641 Ry
     estimated scf accuracy    <       0.00000253 Ry

     iteration #  8     ecut=    35.00 Ry     beta=0.30
     Davidson diagonalization with overlap
     ethr =  1.30E-09,  avg # of iterations =  2.0

     total cpu time spent up to now is      571.5 secs

     total energy              =   -2800.04393716 Ry
     Harris-Foulkes estimate   =   -2800.04393712 Ry
     estimated scf accuracy    <       0.00000066 Ry

     iteration #  9     ecut=    35.00 Ry     beta=0.30
     Davidson diagonalization with overlap
     ethr =  3.43E-10,  avg # of iterations =  2.0

     total cpu time spent up to now is      633.5 secs

     total energy              =   -2800.04393739 Ry
     Harris-Foulkes estimate   =   -2800.04393733 Ry
     estimated scf accuracy    <       0.00000017 Ry

     iteration # 10     ecut=    35.00 Ry     beta=0.30
     Davidson diagonalization with overlap
     ethr =  8.67E-11,  avg # of iterations =  2.0

     total cpu time spent up to now is      682.6 secs

     total energy              =   -2800.04393748 Ry
     Harris-Foulkes estimate   =   -2800.04393741 Ry
     estimated scf accuracy    <          7.1E-09 Ry

     iteration # 11     ecut=    35.00 Ry     beta=0.30
     Davidson diagonalization with overlap
     ethr =  3.67E-12,  avg # of iterations =  2.0

     total cpu time spent up to now is      729.3 secs

     total energy              =   -2800.04393751 Ry
     Harris-Foulkes estimate   =   -2800.04393748 Ry
     estimated scf accuracy    <          2.9E-09 Ry

     iteration # 12     ecut=    35.00 Ry     beta=0.30
     Davidson diagonalization with overlap
     ethr =  1.48E-12,  avg # of iterations =  2.0

     total cpu time spent up to now is      778.1 secs

     End of self-consistent calculation

          k = 0.0000 0.0000 0.0000 (  8327 PWs)   bands (ev):

   -16.9722 -16.9535 -16.8928 -16.8699 -16.8562 -16.8291 -16.8175 -16.8004
   -16.7794 -16.7715 -16.7685 -16.7561 -16.7433 -16.7407 -16.7261 -16.7240
   -16.7186 -16.7066 -16.7019 -16.6956 -16.6869 -16.6717 -16.6703 -16.6636
   -16.6577 -16.6474 -16.6360 -16.6299 -16.6220 -16.6134 -16.6074 -16.6048
   -16.5981 -16.5903 -16.5815 -16.5764 -16.5749 -16.5688 -16.5576 -16.5553
   -16.5478 -16.5445 -16.5399 -16.5319 -16.5282 -16.5203 -16.5130 -16.5090
   -16.5067 -16.5028 -16.4979 -16.4881 -16.4822 -16.4749 -16.4679 -16.4632
   -16.4555 -16.4485 -16.4268 -16.4180 -16.4170 -16.4108 -16.3964 -16.3747
   -16.3515  -4.7091  -2.7647  -2.5883  -2.5068  -2.3769  -1.0038  -0.9527
    -0.8114  -0.6881  -0.4930  -0.3631   0.2498   0.4326   0.5892   0.9076
     4.7116   4.8343   4.8812   4.9994   5.0478   5.1883   6.1988   6.4005
     6.4748   6.6128   6.6381   6.7710   6.8035   7.1530   7.6545   7.8837
     7.9986   8.1246   8.1885   8.2670   8.3755   8.4445   8.5473   8.6347
     8.6869   8.8567   8.9085   9.0836  10.4046  10.4665  10.7286  11.2571
    11.3984  11.4622  11.5680  11.7386

     occupation numbers 
     1.0000   1.0000   1.0000   1.0000   1.0000   1.0000   1.0000   1.0000
     1.0000   1.0000   1.0000   1.0000   1.0000   1.0000   1.0000   1.0000
     1.0000   1.0000   1.0000   1.0000   1.0000   1.0000   1.0000   1.0000
     1.0000   1.0000   1.0000   1.0000   1.0000   1.0000   1.0000   1.0000
     1.0000   1.0000   1.0000   1.0000   1.0000   1.0000   1.0000   1.0000
     1.0000   1.0000   1.0000   1.0000   1.0000   1.0000   1.0000   1.0000
     1.0000   1.0000   1.0000   1.0000   1.0000   1.0000   1.0000   1.0000
     1.0000   1.0000   1.0000   1.0000   1.0000   1.0000   1.0000   1.0000
     1.0000   1.0000   1.0000   1.0000   1.0000   1.0000   1.0000   1.0000
     1.0000   1.0000   1.0000   1.0000   1.0000   1.0000   1.0000   1.0000
     1.0000   1.0000   1.0000   1.0000   1.0000   1.0000   1.0000   1.0000
     1.0000   1.0000   1.0000   1.0000   1.0000   1.0000   0.9994   0.9510
     0.8048   0.4943   0.3237   0.1584   0.0398   0.0128   0.0016   0.0002
     0.0000   0.0000   0.0000   0.0000   0.0000   0.0000   0.0000   0.0000
     0.0000   0.0000   0.0000   0.0000

          k = 0.1776 0.1713-0.1788 (  8326 PWs)   bands (ev):

   -16.9724 -16.9537 -16.8943 -16.8707 -16.8566 -16.8293 -16.8175 -16.7996
   -16.7792 -16.7724 -16.7686 -16.7562 -16.7447 -16.7424 -16.7254 -16.7213
   -16.7171 -16.7064 -16.7033 -16.6958 -16.6836 -16.6719 -16.6706 -16.6638
   -16.6566 -16.6466 -16.6322 -16.6260 -16.6189 -16.6107 -16.6074 -16.6031
   -16.5958 -16.5893 -16.5842 -16.5785 -16.5732 -16.5680 -16.5595 -16.5573
   -16.5545 -16.5447 -16.5410 -16.5342 -16.5270 -16.5215 -16.5156 -16.5105
   -16.5067 -16.5012 -16.4981 -16.4907 -16.4842 -16.4759 -16.4724 -16.4630
   -16.4572 -16.4465 -16.4266 -16.4177 -16.4162 -16.4100 -16.3924 -16.3726
   -16.3507  -4.5278  -3.1575  -2.5603  -2.4836  -2.3172  -1.7244  -1.5007
    -1.3160  -0.0655   0.2687   0.3123   0.4432   0.6382   1.1118   1.4315
     4.2711   4.3748   4.4635   4.9789   5.1196   5.1921   5.2683   5.4331
     5.5088   5.7157   6.1432   6.3239   6.5039   6.5802   7.1634   7.4643
     8.0601   8.5157   8.5981   8.7764   8.9353   9.3050   9.3652   9.4292
     9.5762   9.6616   9.8002  10.0245  10.8240  11.0944  11.2219  11.3814
    11.5259  11.5839  11.6983  11.9335

     occupation numbers 
     1.0000   1.0000   1.0000   1.0000   1.0000   1.0000   1.0000   1.0000
     1.0000   1.0000   1.0000   1.0000   1.0000   1.0000   1.0000   1.0000
     1.0000   1.0000   1.0000   1.0000   1.0000   1.0000   1.0000   1.0000
     1.0000   1.0000   1.0000   1.0000   1.0000   1.0000   1.0000   1.0000
     1.0000   1.0000   1.0000   1.0000   1.0000   1.0000   1.0000   1.0000
     1.0000   1.0000   1.0000   1.0000   1.0000   1.0000   1.0000   1.0000
     1.0000   1.0000   1.0000   1.0000   1.0000   1.0000   1.0000   1.0000
     1.0000   1.0000   1.0000   1.0000   1.0000   1.0000   1.0000   1.0000
     1.0000   1.0000   1.0000   1.0000   1.0000   1.0000   1.0000   1.0000
     1.0000   1.0000   1.0000   1.0000   1.0000   1.0000   1.0000   1.0000
     1.0000   1.0000   1.0000   1.0000   1.0000   1.0000   1.0000   1.0000
     1.0000   1.0000   1.0000   1.0000   1.0000   1.0000   1.0000   1.0000
     0.6673   0.0032   0.0005   0.0000   0.0000   0.0000   0.0000   0.0000
     0.0000   0.0000   0.0000   0.0000   0.0000   0.0000   0.0000   0.0000
     0.0000   0.0000   0.0000   0.0000

          k =-0.3552-0.3425 0.3577 (  8330 PWs)   bands (ev):

   -16.9726 -16.9538 -16.8958 -16.8715 -16.8570 -16.8295 -16.8176 -16.7989
   -16.7789 -16.7735 -16.7686 -16.7563 -16.7464 -16.7431 -16.7265 -16.7176
   -16.7162 -16.7061 -16.7013 -16.6977 -16.6799 -16.6723 -16.6695 -16.6662
   -16.6556 -16.6473 -16.6269 -16.6227 -16.6161 -16.6075 -16.6044 -16.5989
   -16.5969 -16.5890 -16.5853 -16.5804 -16.5737 -16.5696 -16.5654 -16.5581
   -16.5525 -16.5468 -16.5421 -16.5376 -16.5285 -16.5240 -16.5171 -16.5124
   -16.5046 -16.5025 -16.4964 -16.4941 -16.4871 -16.4768 -16.4745 -16.4652
   -16.4575 -16.4447 -16.4256 -16.4176 -16.4160 -16.4089 -16.3893 -16.3708
   -16.3498  -4.1317  -3.7925  -2.3912  -2.2730  -2.2298  -2.0847  -2.0225
    -1.6522   0.4237   0.5631   0.6653   0.8183   0.8549   1.4107   3.2537
     3.4057   4.0636   4.1871   4.2219   4.2455   4.2736   4.4288   5.4083
     5.4732   5.5912   5.7279   5.7756   6.1019   6.9088   6.9774   7.3233
     7.7354   8.7580   8.9974   9.1017   9.1406   9.3331   9.4204   9.4391
     9.9656  11.3010  11.3760  11.6236  11.7282  11.7784  11.8730  12.0615
    12.1843  12.2648  12.4884  12.8713

     occupation numbers 
     1.0000   1.0000   1.0000   1.0000   1.0000   1.0000   1.0000   1.0000
     1.0000   1.0000   1.0000   1.0000   1.0000   1.0000   1.0000   1.0000
     1.0000   1.0000   1.0000   1.0000   1.0000   1.0000   1.0000   1.0000
     1.0000   1.0000   1.0000   1.0000   1.0000   1.0000   1.0000   1.0000
     1.0000   1.0000   1.0000   1.0000   1.0000   1.0000   1.0000   1.0000
     1.0000   1.0000   1.0000   1.0000   1.0000   1.0000   1.0000   1.0000
     1.0000   1.0000   1.0000   1.0000   1.0000   1.0000   1.0000   1.0000
     1.0000   1.0000   1.0000   1.0000   1.0000   1.0000   1.0000   1.0000
     1.0000   1.0000   1.0000   1.0000   1.0000   1.0000   1.0000   1.0000
     1.0000   1.0000   1.0000   1.0000   1.0000   1.0000   1.0000   1.0000
     1.0000   1.0000   1.0000   1.0000   1.0000   1.0000   1.0000   1.0000
     1.0000   1.0000   1.0000   1.0000   1.0000   1.0000   1.0000   1.0000
     0.9963   0.0000   0.0000   0.0000   0.0000   0.0000   0.0000   0.0000
     0.0000   0.0000   0.0000   0.0000   0.0000   0.0000   0.0000   0.0000
     0.0000   0.0000   0.0000   0.0000

          k = 0.1819-0.1740 0.1804 (  8333 PWs)   bands (ev):

   -16.9731 -16.9540 -16.8942 -16.8720 -16.8562 -16.8281 -16.8169 -16.7996
   -16.7772 -16.7697 -16.7679 -16.7571 -16.7456 -16.7379 -16.7252 -16.7238
   -16.7173 -16.7083 -16.7006 -16.6958 -16.6855 -16.6694 -16.6661 -16.6621
   -16.6568 -16.6464 -16.6341 -16.6280 -16.6241 -16.6189 -16.6101 -16.6058
   -16.5952 -16.5908 -16.5845 -16.5776 -16.5733 -16.5666 -16.5601 -16.5553
   -16.5512 -16.5463 -16.5412 -16.5344 -16.5278 -16.5237 -16.5141 -16.5099
   -16.5080 -16.5008 -16.4971 -16.4896 -16.4778 -16.4757 -16.4690 -16.4627
   -16.4536 -16.4455 -16.4246 -16.4183 -16.4168 -16.4103 -16.3955 -16.3748
   -16.3520  -4.5181  -3.1533  -2.6221  -2.4280  -2.3341  -1.7555  -1.4996
    -1.2713  -0.0242   0.1840   0.3675   0.4450   0.6264   0.8049   1.7254
     4.3962   4.4540   4.5662   4.8783   5.0051   5.1963   5.3973   5.5407
     5.6547   6.0231   6.1391   6.2364   6.3934   6.5620   6.8421   7.4632
     7.6540   8.1953   8.4351   8.6607   8.8439   9.0615   9.3010   9.4844
     9.6643   9.7674  10.0146  10.2200  10.8494  11.0614  11.1507  11.3991
    11.4494  11.5528  11.6651  11.9060

     occupation numbers 
     1.0000   1.0000   1.0000   1.0000   1.0000   1.0000   1.0000   1.0000
     1.0000   1.0000   1.0000   1.0000   1.0000   1.0000   1.0000   1.0000
     1.0000   1.0000   1.0000   1.0000   1.0000   1.0000   1.0000   1.0000
     1.0000   1.0000   1.0000   1.0000   1.0000   1.0000   1.0000   1.0000
     1.0000   1.0000   1.0000   1.0000   1.0000   1.0000   1.0000   1.0000
     1.0000   1.0000   1.0000   1.0000   1.0000   1.0000   1.0000   1.0000
     1.0000   1.0000   1.0000   1.0000   1.0000   1.0000   1.0000   1.0000
     1.0000   1.0000   1.0000   1.0000   1.0000   1.0000   1.0000   1.0000
     1.0000   1.0000   1.0000   1.0000   1.0000   1.0000   1.0000   1.0000
     1.0000   1.0000   1.0000   1.0000   1.0000   1.0000   1.0000   1.0000
     1.0000   1.0000   1.0000   1.0000   1.0000   1.0000   1.0000   1.0000
     1.0000   1.0000   1.0000   1.0000   1.0000   1.0000   1.0000   1.0000
     0.9994   0.3070   0.0152   0.0001   0.0000   0.0000   0.0000   0.0000
     0.0000   0.0000   0.0000   0.0000   0.0000   0.0000   0.0000   0.0000
     0.0000   0.0000   0.0000   0.0000

          k = 0.3595-0.0027 0.0016 (  8343 PWs)   bands (ev):

   -16.9729 -16.9538 -16.8939 -16.8716 -16.8563 -16.8284 -16.8176 -16.8003
   -16.7773 -16.7702 -16.7684 -16.7570 -16.7459 -16.7386 -16.7249 -16.7238
   -16.7184 -16.7066 -16.7011 -16.6945 -16.6873 -16.6684 -16.6655 -16.6602
   -16.6577 -16.6472 -16.6346 -16.6295 -16.6244 -16.6179 -16.6080 -16.6057
   -16.5953 -16.5877 -16.5817 -16.5776 -16.5725 -16.5666 -16.5582 -16.5567
   -16.5500 -16.5451 -16.5413 -16.5353 -16.5278 -16.5240 -16.5167 -16.5096
   -16.5043 -16.5030 -16.4967 -16.4884 -16.4826 -16.4749 -16.4683 -16.4629
   -16.4582 -16.4479 -16.4273 -16.4179 -16.4163 -16.4094 -16.3938 -16.3731
   -16.3509  -4.4512  -2.9066  -2.7490  -2.6179  -2.5220  -2.2813  -0.9119
    -0.8153  -0.6123  -0.3744   0.7417   0.9311   1.0304   1.1949   1.5870
     4.2540   4.4179   4.4681   4.5464   5.0688   5.1206   5.1889   5.2787
     5.3637   5.4985   5.9444   6.3872   6.4516   6.5755   6.6583   6.9754
     7.3324   8.3309   9.1536   9.2475   9.3253   9.4702   9.5387   9.6180
     9.8304  10.0246  10.0653  10.2238  10.5435  11.4377  11.5565  11.6131
    11.6867  11.8045  11.9032  12.0405

     occupation numbers 
     1.0000   1.0000   1.0000   1.0000   1.0000   1.0000   1.0000   1.0000
     1.0000   1.0000   1.0000   1.0000   1.0000   1.0000   1.0000   1.0000
     1.0000   1.0000   1.0000   1.0000   1.0000   1.0000   1.0000   1.0000
     1.0000   1.0000   1.0000   1.0000   1.0000   1.0000   1.0000   1.0000
     1.0000   1.0000   1.0000   1.0000   1.0000   1.0000   1.0000   1.0000
     1.0000   1.0000   1.0000   1.0000   1.0000   1.0000   1.0000   1.0000
     1.0000   1.0000   1.0000   1.0000   1.0000   1.0000   1.0000   1.0000
     1.0000   1.0000   1.0000   1.0000   1.0000   1.0000   1.0000   1.0000
     1.0000   1.0000   1.0000   1.0000   1.0000   1.0000   1.0000   1.0000
     1.0000   1.0000   1.0000   1.0000   1.0000   1.0000   1.0000   1.0000
     1.0000   1.0000   1.0000   1.0000   1.0000   1.0000   1.0000   1.0000
     1.0000   1.0000   1.0000   1.0000   1.0000   1.0000   1.0000   1.0000
     1.0000   0.0744   0.0000   0.0000   0.0000   0.0000   0.0000   0.0000
     0.0000   0.0000   0.0000   0.0000   0.0000   0.0000   0.0000   0.0000
     0.0000   0.0000   0.0000   0.0000

          k =-0.1733-0.5165 0.5381 (  8336 PWs)   bands (ev):

   -16.9732 -16.9540 -16.8953 -16.8722 -16.8568 -16.8287 -16.8174 -16.7996
   -16.7774 -16.7707 -16.7685 -16.7573 -16.7471 -16.7394 -16.7260 -16.7206
   -16.7168 -16.7059 -16.7006 -16.6965 -16.6830 -16.6688 -16.6667 -16.6611
   -16.6560 -16.6460 -16.6311 -16.6273 -16.6219 -16.6162 -16.6075 -16.6008
   -16.5920 -16.5861 -16.5819 -16.5775 -16.5723 -16.5692 -16.5640 -16.5594
   -16.5503 -16.5475 -16.5426 -16.5354 -16.5284 -16.5244 -16.5214 -16.5114
   -16.5056 -16.5009 -16.4956 -16.4904 -16.4838 -16.4768 -16.4722 -16.4646
   -16.4580 -16.4456 -16.4264 -16.4175 -16.4161 -16.4083 -16.3905 -16.3711
   -16.3501  -4.0584  -3.5143  -2.9802  -2.6980  -2.4630  -2.0459  -1.5604
    -1.1375  -0.0946   0.1682   0.8267   1.1358   1.4229   2.2713   2.6835
     3.7226   3.8109   3.8420   3.9625   4.4562   4.4853   4.8723   4.9861
     5.1146   5.5008   5.6219   5.8305   6.0011   6.1024   6.4600   6.8589
     6.9760   8.9807   9.3392   9.6775   9.9074  10.1854  10.3252  10.4522
    10.5925  10.7227  10.8745  11.3533  11.5017  11.7291  11.8083  12.0260
    12.3058  12.4163  12.5221  12.6812

     occupation numbers 
     1.0000   1.0000   1.0000   1.0000   1.0000   1.0000   1.0000   1.0000
     1.0000   1.0000   1.0000   1.0000   1.0000   1.0000   1.0000   1.0000
     1.0000   1.0000   1.0000   1.0000   1.0000   1.0000   1.0000   1.0000
     1.0000   1.0000   1.0000   1.0000   1.0000   1.0000   1.0000   1.0000
     1.0000   1.0000   1.0000   1.0000   1.0000   1.0000   1.0000   1.0000
     1.0000   1.0000   1.0000   1.0000   1.0000   1.0000   1.0000   1.0000
     1.0000   1.0000   1.0000   1.0000   1.0000   1.0000   1.0000   1.0000
     1.0000   1.0000   1.0000   1.0000   1.0000   1.0000   1.0000   1.0000
     1.0000   1.0000   1.0000   1.0000   1.0000   1.0000   1.0000   1.0000
     1.0000   1.0000   1.0000   1.0000   1.0000   1.0000   1.0000   1.0000
     1.0000   1.0000   1.0000   1.0000   1.0000   1.0000   1.0000   1.0000
     1.0000   1.0000   1.0000   1.0000   1.0000   1.0000   1.0000   1.0000
     1.0000   0.0000   0.0000   0.0000   0.0000   0.0000   0.0000   0.0000
     0.0000   0.0000   0.0000   0.0000   0.0000   0.0000   0.0000   0.0000
     0.0000   0.0000   0.0000   0.0000

          k = 0.0043-0.3452 0.3593 (  8329 PWs)   bands (ev):

   -16.9735 -16.9543 -16.8956 -16.8727 -16.8568 -16.8284 -16.8169 -16.7990
   -16.7775 -16.7700 -16.7682 -16.7576 -16.7471 -16.7393 -16.7265 -16.7199
   -16.7148 -16.7074 -16.7037 -16.6943 -16.6816 -16.6722 -16.6667 -16.6610
   -16.6559 -16.6470 -16.6300 -16.6239 -16.6201 -16.6168 -16.6085 -16.6048
   -16.5955 -16.5886 -16.5840 -16.5803 -16.5719 -16.5688 -16.5648 -16.5571
   -16.5531 -16.5465 -16.5392 -16.5381 -16.5285 -16.5258 -16.5177 -16.5119
   -16.5075 -16.5007 -16.4966 -16.4910 -16.4805 -16.4761 -16.4715 -16.4635
   -16.4560 -16.4438 -16.4245 -16.4175 -16.4163 -16.4094 -16.3917 -16.3729
   -16.3512  -4.2300  -3.3434  -3.0984  -2.3885  -2.2252  -2.1336  -1.7027
    -1.1494  -0.0304   0.2564   0.5466   0.8426   1.2088   1.9233   2.2551
     3.6496   4.1690   4.2681   4.4788   4.6423   4.7317   5.0487   5.1977
     5.2818   5.6778   5.7143   5.8581   6.0426   6.1571   6.2608   6.4720
     7.4553   8.8572   9.3477   9.5035   9.6815   9.9055  10.0002  10.2960
    10.3675  10.6067  10.8115  11.0339  11.1600  11.2323  11.3655  11.4319
    11.5270  11.9558  12.5481  12.6318

     occupation numbers 
     1.0000   1.0000   1.0000   1.0000   1.0000   1.0000   1.0000   1.0000
     1.0000   1.0000   1.0000   1.0000   1.0000   1.0000   1.0000   1.0000
     1.0000   1.0000   1.0000   1.0000   1.0000   1.0000   1.0000   1.0000
     1.0000   1.0000   1.0000   1.0000   1.0000   1.0000   1.0000   1.0000
     1.0000   1.0000   1.0000   1.0000   1.0000   1.0000   1.0000   1.0000
     1.0000   1.0000   1.0000   1.0000   1.0000   1.0000   1.0000   1.0000
     1.0000   1.0000   1.0000   1.0000   1.0000   1.0000   1.0000   1.0000
     1.0000   1.0000   1.0000   1.0000   1.0000   1.0000   1.0000   1.0000
     1.0000   1.0000   1.0000   1.0000   1.0000   1.0000   1.0000   1.0000
     1.0000   1.0000   1.0000   1.0000   1.0000   1.0000   1.0000   1.0000
     1.0000   1.0000   1.0000   1.0000   1.0000   1.0000   1.0000   1.0000
     1.0000   1.0000   1.0000   1.0000   1.0000   1.0000   1.0000   1.0000
     1.0000   0.0000   0.0000   0.0000   0.0000   0.0000   0.0000   0.0000
     0.0000   0.0000   0.0000   0.0000   0.0000   0.0000   0.0000   0.0000
     0.0000   0.0000   0.0000   0.0000

          k =-0.3638 0.3479-0.3609 (  8342 PWs)   bands (ev):

   -16.9741 -16.9545 -16.8956 -16.8738 -16.8561 -16.8276 -16.8163 -16.7988
   -16.7763 -16.7696 -16.7626 -16.7608 -16.7463 -16.7347 -16.7256 -16.7234
   -16.7144 -16.7105 -16.7026 -16.6940 -16.6821 -16.6728 -16.6637 -16.6533
   -16.6489 -16.6468 -16.6381 -16.6324 -16.6257 -16.6224 -16.6099 -16.6093
   -16.5945 -16.5894 -16.5824 -16.5768 -16.5706 -16.5687 -16.5648 -16.5580
   -16.5530 -16.5435 -16.5415 -16.5374 -16.5332 -16.5236 -16.5178 -16.5102
   -16.5075 -16.4995 -16.4969 -16.4906 -16.4775 -16.4714 -16.4700 -16.4623
   -16.4528 -16.4428 -16.4225 -16.4186 -16.4166 -16.4099 -16.3946 -16.3750
   -16.3525  -4.0325  -3.8841  -2.3964  -2.3088  -2.2297  -2.1649  -1.9662
    -1.6008   0.5032   0.5343   0.6407   0.7614   0.9183   1.0782   3.4470
     3.5971   4.1658   4.1996   4.4238   4.4654   4.5566   4.7627   5.2980
     5.4404   5.5264   5.5631   5.7253   5.8025   6.8299   6.9920   7.1216
     7.2812   8.5642   8.6254   8.9394   9.0168   9.2003   9.3647   9.4021
     9.4783  11.2897  11.3645  11.5395  11.7356  11.9421  11.9988  12.2114
    12.3881  12.4984  12.5672  13.0660

     occupation numbers 
     1.0000   1.0000   1.0000   1.0000   1.0000   1.0000   1.0000   1.0000
     1.0000   1.0000   1.0000   1.0000   1.0000   1.0000   1.0000   1.0000
     1.0000   1.0000   1.0000   1.0000   1.0000   1.0000   1.0000   1.0000
     1.0000   1.0000   1.0000   1.0000   1.0000   1.0000   1.0000   1.0000
     1.0000   1.0000   1.0000   1.0000   1.0000   1.0000   1.0000   1.0000
     1.0000   1.0000   1.0000   1.0000   1.0000   1.0000   1.0000   1.0000
     1.0000   1.0000   1.0000   1.0000   1.0000   1.0000   1.0000   1.0000
     1.0000   1.0000   1.0000   1.0000   1.0000   1.0000   1.0000   1.0000
     1.0000   1.0000   1.0000   1.0000   1.0000   1.0000   1.0000   1.0000
     1.0000   1.0000   1.0000   1.0000   1.0000   1.0000   1.0000   1.0000
     1.0000   1.0000   1.0000   1.0000   1.0000   1.0000   1.0000   1.0000
     1.0000   1.0000   1.0000   1.0000   1.0000   1.0000   1.0000   1.0000
     1.0000   0.0011   0.0002   0.0000   0.0000   0.0000   0.0000   0.0000
     0.0000   0.0000   0.0000   0.0000   0.0000   0.0000   0.0000   0.0000
     0.0000   0.0000   0.0000   0.0000

          k =-0.1862 0.5192-0.5397 (  8342 PWs)   bands (ev):

   -16.9740 -16.9544 -16.8953 -16.8735 -16.8561 -16.8279 -16.8170 -16.7995
   -16.7767 -16.7695 -16.7641 -16.7602 -16.7463 -16.7364 -16.7257 -16.7236
   -16.7167 -16.7073 -16.7001 -16.6953 -16.6850 -16.6675 -16.6638 -16.6571
   -16.6482 -16.6444 -16.6405 -16.6330 -16.6277 -16.6214 -16.6081 -16.6056
   -16.5950 -16.5888 -16.5824 -16.5768 -16.5704 -16.5661 -16.5621 -16.5575
   -16.5504 -16.5457 -16.5437 -16.5379 -16.5297 -16.5248 -16.5191 -16.5111
   -16.5071 -16.5003 -16.4952 -16.4902 -16.4792 -16.4740 -16.4680 -16.4639
   -16.4570 -16.4447 -16.4253 -16.4175 -16.4164 -16.4089 -16.3931 -16.3732
   -16.3514  -4.0142  -3.5791  -2.9402  -2.7210  -2.4705  -2.0442  -1.5654
    -1.1340  -0.0612   0.1794   0.7031   1.1239   1.4378   2.1022   2.8762
     3.6419   3.8509   4.0512   4.2986   4.5202   4.5911   4.8191   4.9172
     5.2180   5.4155   5.5577   5.8180   5.9545   6.0073   6.4028   6.5638
     6.9374   9.0091   9.3934   9.5552   9.6879   9.9557  10.0662  10.3668
    10.5407  10.6316  10.7483  11.0710  11.3623  11.7147  11.8176  12.2259
    12.4575  12.5623  12.7483  12.9405

     occupation numbers 
     1.0000   1.0000   1.0000   1.0000   1.0000   1.0000   1.0000   1.0000
     1.0000   1.0000   1.0000   1.0000   1.0000   1.0000   1.0000   1.0000
     1.0000   1.0000   1.0000   1.0000   1.0000   1.0000   1.0000   1.0000
     1.0000   1.0000   1.0000   1.0000   1.0000   1.0000   1.0000   1.0000
     1.0000   1.0000   1.0000   1.0000   1.0000   1.0000   1.0000   1.0000
     1.0000   1.0000   1.0000   1.0000   1.0000   1.0000   1.0000   1.0000
     1.0000   1.0000   1.0000   1.0000   1.0000   1.0000   1.0000   1.0000
     1.0000   1.0000   1.0000   1.0000   1.0000   1.0000   1.0000   1.0000
     1.0000   1.0000   1.0000   1.0000   1.0000   1.0000   1.0000   1.0000
     1.0000   1.0000   1.0000   1.0000   1.0000   1.0000   1.0000   1.0000
     1.0000   1.0000   1.0000   1.0000   1.0000   1.0000   1.0000   1.0000
     1.0000   1.0000   1.0000   1.0000   1.0000   1.0000   1.0000   1.0000
     1.0000   0.0000   0.0000   0.0000   0.0000   0.0000   0.0000   0.0000
     0.0000   0.0000   0.0000   0.0000   0.0000   0.0000   0.0000   0.0000
     0.0000   0.0000   0.0000   0.0000

          k =-0.7189 0.0054-0.0032 (  8362 PWs)   bands (ev):

   -16.9739 -16.9543 -16.8950 -16.8732 -16.8560 -16.8283 -16.8177 -16.8001
   -16.7769 -16.7694 -16.7655 -16.7596 -16.7461 -16.7380 -16.7254 -16.7241
   -16.7180 -16.7036 -16.7002 -16.6959 -16.6864 -16.6639 -16.6617 -16.6602
   -16.6482 -16.6453 -16.6418 -16.6328 -16.6297 -16.6205 -16.6088 -16.6011
   -16.5934 -16.5863 -16.5804 -16.5756 -16.5731 -16.5645 -16.5600 -16.5554
   -16.5485 -16.5471 -16.5461 -16.5374 -16.5297 -16.5244 -16.5229 -16.5107
   -16.5057 -16.5012 -16.4949 -16.4891 -16.4814 -16.4759 -16.4669 -16.4640
   -16.4602 -16.4470 -16.4274 -16.4180 -16.4161 -16.4077 -16.3918 -16.3714
   -16.3504  -3.8011  -3.5677  -2.9847  -2.7509  -2.7150  -2.6127  -0.8169
    -0.7653  -0.5450  -0.3211   1.4157   1.6221   1.8400   1.8783   3.4300
     3.5872   3.8859   3.9593   4.0354   4.1218   4.1790   4.2328   4.3298
     4.3794   5.8186   5.8785   5.9228   5.9828   6.3648   6.4056   6.5913
     6.6368   8.7162   8.8863   9.7316   9.8183   9.9099   9.9857  10.6734
    10.6811  11.9502  12.2333  12.2858  12.4138  12.4232  12.5315  12.5572
    12.5888  12.6453  12.7313  12.8619

     occupation numbers 
     1.0000   1.0000   1.0000   1.0000   1.0000   1.0000   1.0000   1.0000
     1.0000   1.0000   1.0000   1.0000   1.0000   1.0000   1.0000   1.0000
     1.0000   1.0000   1.0000   1.0000   1.0000   1.0000   1.0000   1.0000
     1.0000   1.0000   1.0000   1.0000   1.0000   1.0000   1.0000   1.0000
     1.0000   1.0000   1.0000   1.0000   1.0000   1.0000   1.0000   1.0000
     1.0000   1.0000   1.0000   1.0000   1.0000   1.0000   1.0000   1.0000
     1.0000   1.0000   1.0000   1.0000   1.0000   1.0000   1.0000   1.0000
     1.0000   1.0000   1.0000   1.0000   1.0000   1.0000   1.0000   1.0000
     1.0000   1.0000   1.0000   1.0000   1.0000   1.0000   1.0000   1.0000
     1.0000   1.0000   1.0000   1.0000   1.0000   1.0000   1.0000   1.0000
     1.0000   1.0000   1.0000   1.0000   1.0000   1.0000   1.0000   1.0000
     1.0000   1.0000   1.0000   1.0000   1.0000   1.0000   1.0000   1.0000
     1.0000   0.0000   0.0000   0.0000   0.0000   0.0000   0.0000   0.0000
     0.0000   0.0000   0.0000   0.0000   0.0000   0.0000   0.0000   0.0000
     0.0000   0.0000   0.0000   0.0000

          k =-0.1803 0.1747 0.1796 (  8338 PWs)   bands (ev):

   -16.9727 -16.9551 -16.8937 -16.8729 -16.8583 -16.8285 -16.8156 -16.7997
   -16.7746 -16.7703 -16.7668 -16.7525 -16.7431 -16.7380 -16.7240 -16.7225
   -16.7197 -16.7083 -16.7015 -16.6961 -16.6879 -16.6708 -16.6659 -16.6626
   -16.6581 -16.6468 -16.6354 -16.6320 -16.6244 -16.6151 -16.6114 -16.6069
   -16.5986 -16.5925 -16.5835 -16.5787 -16.5737 -16.5663 -16.5584 -16.5549
   -16.5507 -16.5467 -16.5400 -16.5332 -16.5271 -16.5201 -16.5128 -16.5083
   -16.5050 -16.5028 -16.4969 -16.4881 -16.4814 -16.4742 -16.4672 -16.4632
   -16.4552 -16.4473 -16.4265 -16.4175 -16.4166 -16.4098 -16.3968 -16.3743
   -16.3517  -4.5157  -3.1247  -2.5592  -2.5043  -2.3929  -1.6885  -1.4986
    -1.4298   0.0417   0.2200   0.2752   0.5893   0.7416   1.0769   1.4319
     4.3046   4.4009   4.4353   4.8861   5.0649   5.2319   5.2811   5.3416
     5.5081   5.7542   6.0903   6.3413   6.4996   6.5910   7.0635   7.4463
     8.0555   8.3660   8.4473   8.7237   8.8615   9.2723   9.4094   9.4498
     9.7189   9.7998   9.9851  10.0425  10.8832  10.9544  11.3059  11.4800
    11.5084  11.6897  11.7401  11.9271

     occupation numbers 
     1.0000   1.0000   1.0000   1.0000   1.0000   1.0000   1.0000   1.0000
     1.0000   1.0000   1.0000   1.0000   1.0000   1.0000   1.0000   1.0000
     1.0000   1.0000   1.0000   1.0000   1.0000   1.0000   1.0000   1.0000
     1.0000   1.0000   1.0000   1.0000   1.0000   1.0000   1.0000   1.0000
     1.0000   1.0000   1.0000   1.0000   1.0000   1.0000   1.0000   1.0000
     1.0000   1.0000   1.0000   1.0000   1.0000   1.0000   1.0000   1.0000
     1.0000   1.0000   1.0000   1.0000   1.0000   1.0000   1.0000   1.0000
     1.0000   1.0000   1.0000   1.0000   1.0000   1.0000   1.0000   1.0000
     1.0000   1.0000   1.0000   1.0000   1.0000   1.0000   1.0000   1.0000
     1.0000   1.0000   1.0000   1.0000   1.0000   1.0000   1.0000   1.0000
     1.0000   1.0000   1.0000   1.0000   1.0000   1.0000   1.0000   1.0000
     1.0000   1.0000   1.0000   1.0000   1.0000   1.0000   1.0000   1.0000
     0.6789   0.0458   0.0122   0.0000   0.0000   0.0000   0.0000   0.0000
     0.0000   0.0000   0.0000   0.0000   0.0000   0.0000   0.0000   0.0000
     0.0000   0.0000   0.0000   0.0000

          k =-0.0027 0.3460 0.0008 (  8317 PWs)   bands (ev):

   -16.9729 -16.9552 -16.8942 -16.8734 -16.8582 -16.8281 -16.8153 -16.7990
   -16.7740 -16.7702 -16.7672 -16.7526 -16.7423 -16.7388 -16.7257 -16.7227
   -16.7195 -16.7105 -16.7015 -16.6982 -16.6852 -16.6712 -16.6687 -16.6637
   -16.6555 -16.6458 -16.6350 -16.6300 -16.6210 -16.6151 -16.6098 -16.6050
   -16.5964 -16.5910 -16.5858 -16.5804 -16.5724 -16.5658 -16.5591 -16.5574
   -16.5511 -16.5459 -16.5411 -16.5347 -16.5283 -16.5176 -16.5147 -16.5108
   -16.5053 -16.4997 -16.4969 -16.4904 -16.4819 -16.4758 -16.4706 -16.4636
   -16.4572 -16.4454 -16.4265 -16.4180 -16.4159 -16.4105 -16.3931 -16.3729
   -16.3518  -4.4670  -2.8997  -2.7290  -2.6112  -2.5745  -2.2837  -0.7959
    -0.6873  -0.5202  -0.4465   0.7078   0.8714   0.9575   1.1777   1.4127
     4.2768   4.3606   4.4353   4.5000   4.9031   5.0250   5.1189   5.2468
     5.3436   5.4578   5.7572   6.5847   6.6787   6.7332   7.0468   7.1584
     7.5149   8.6451   9.1700   9.2865   9.4186   9.5115   9.5715   9.7241
     9.7620   9.8924  10.0446  10.1305  10.4944  11.3333  11.4438  11.5166
    11.6257  11.7481  11.7919  12.0877

     occupation numbers 
     1.0000   1.0000   1.0000   1.0000   1.0000   1.0000   1.0000   1.0000
     1.0000   1.0000   1.0000   1.0000   1.0000   1.0000   1.0000   1.0000
     1.0000   1.0000   1.0000   1.0000   1.0000   1.0000   1.0000   1.0000
     1.0000   1.0000   1.0000   1.0000   1.0000   1.0000   1.0000   1.0000
     1.0000   1.0000   1.0000   1.0000   1.0000   1.0000   1.0000   1.0000
     1.0000   1.0000   1.0000   1.0000   1.0000   1.0000   1.0000   1.0000
     1.0000   1.0000   1.0000   1.0000   1.0000   1.0000   1.0000   1.0000
     1.0000   1.0000   1.0000   1.0000   1.0000   1.0000   1.0000   1.0000
     1.0000   1.0000   1.0000   1.0000   1.0000   1.0000   1.0000   1.0000
     1.0000   1.0000   1.0000   1.0000   1.0000   1.0000   1.0000   1.0000
     1.0000   1.0000   1.0000   1.0000   1.0000   1.0000   1.0000   1.0000
     1.0000   1.0000   1.0000   1.0000   1.0000   1.0000   1.0000   1.0000
     1.0000   0.0001   0.0000   0.0000   0.0000   0.0000   0.0000   0.0000
     0.0000   0.0000   0.0000   0.0000   0.0000   0.0000   0.0000   0.0000
     0.0000   0.0000   0.0000   0.0000

          k =-0.5354-0.1678 0.5372 (  8337 PWs)   bands (ev):

   -16.9730 -16.9554 -16.8956 -16.8741 -16.8586 -16.8284 -16.8154 -16.7985
   -16.7744 -16.7704 -16.7669 -16.7527 -16.7451 -16.7396 -16.7266 -16.7189
   -16.7174 -16.7076 -16.7022 -16.7007 -16.6822 -16.6718 -16.6679 -16.6652
   -16.6537 -16.6464 -16.6316 -16.6247 -16.6172 -16.6155 -16.6070 -16.6006
   -16.5964 -16.5897 -16.5871 -16.5832 -16.5705 -16.5696 -16.5623 -16.5586
   -16.5510 -16.5468 -16.5421 -16.5381 -16.5294 -16.5215 -16.5160 -16.5116
   -16.5033 -16.4998 -16.4969 -16.4929 -16.4860 -16.4759 -16.4731 -16.4651
   -16.4577 -16.4438 -16.4255 -16.4179 -16.4155 -16.4094 -16.3899 -16.3710
   -16.3509  -4.0862  -3.4832  -3.0699  -2.6168  -2.5436  -1.9066  -1.4170
    -1.2654   0.1097   0.1818   0.4415   1.2838   1.5544   2.0463   2.5376
     3.6650   3.7203   3.8339   3.9989   4.2870   4.4564   4.8469   5.0259
     5.1998   5.3659   5.7005   5.9327   5.9849   6.3011   6.4114   6.9101
     7.5455   9.3240   9.6798   9.8606   9.9180  10.1194  10.2728  10.4060
    10.5656  10.8065  10.9205  11.3455  11.3876  11.5060  11.7365  11.8848
    12.0356  12.2742  12.4512  12.5215

     occupation numbers 
     1.0000   1.0000   1.0000   1.0000   1.0000   1.0000   1.0000   1.0000
     1.0000   1.0000   1.0000   1.0000   1.0000   1.0000   1.0000   1.0000
     1.0000   1.0000   1.0000   1.0000   1.0000   1.0000   1.0000   1.0000
     1.0000   1.0000   1.0000   1.0000   1.0000   1.0000   1.0000   1.0000
     1.0000   1.0000   1.0000   1.0000   1.0000   1.0000   1.0000   1.0000
     1.0000   1.0000   1.0000   1.0000   1.0000   1.0000   1.0000   1.0000
     1.0000   1.0000   1.0000   1.0000   1.0000   1.0000   1.0000   1.0000
     1.0000   1.0000   1.0000   1.0000   1.0000   1.0000   1.0000   1.0000
     1.0000   1.0000   1.0000   1.0000   1.0000   1.0000   1.0000   1.0000
     1.0000   1.0000   1.0000   1.0000   1.0000   1.0000   1.0000   1.0000
     1.0000   1.0000   1.0000   1.0000   1.0000   1.0000   1.0000   1.0000
     1.0000   1.0000   1.0000   1.0000   1.0000   1.0000   1.0000   1.0000
     1.0000   0.0000   0.0000   0.0000   0.0000   0.0000   0.0000   0.0000
     0.0000   0.0000   0.0000   0.0000   0.0000   0.0000   0.0000   0.0000
     0.0000   0.0000   0.0000   0.0000

          k =-0.3579 0.0035 0.3584 (  8336 PWs)   bands (ev):

   -16.9728 -16.9552 -16.8953 -16.8737 -16.8587 -16.8287 -16.8157 -16.7992
   -16.7748 -16.7705 -16.7665 -16.7527 -16.7451 -16.7391 -16.7251 -16.7197
   -16.7164 -16.7066 -16.7039 -16.6969 -16.6851 -16.6699 -16.6681 -16.6627
   -16.6554 -16.6461 -16.6333 -16.6253 -16.6217 -16.6150 -16.6100 -16.6040
   -16.5982 -16.5912 -16.5850 -16.5799 -16.5720 -16.5663 -16.5623 -16.5580
   -16.5547 -16.5478 -16.5408 -16.5344 -16.5263 -16.5211 -16.5155 -16.5106
   -16.5044 -16.5022 -16.4965 -16.4903 -16.4835 -16.4754 -16.4712 -16.4632
   -16.4569 -16.4454 -16.4264 -16.4172 -16.4160 -16.4089 -16.3927 -16.3723
   -16.3508  -4.2123  -3.3369  -3.1794  -2.3208  -2.2103  -2.0187  -1.8899
    -1.0975  -0.3389   0.4142   0.6014   1.0992   1.4361   1.8837   2.1065
     3.5487   4.2120   4.2825   4.3562   4.3860   4.4886   5.0107   5.0900
     5.5054   5.5873   5.6629   5.7692   5.8729   6.1300   6.4820   6.7322
     8.0181   9.1693   9.4806   9.6045   9.8064   9.9663  10.0601  10.1114
    10.2558  10.4068  10.4955  10.9008  10.9647  11.1396  11.2960  11.3296
    11.5050  12.2218  12.6401  12.7845

     occupation numbers 
     1.0000   1.0000   1.0000   1.0000   1.0000   1.0000   1.0000   1.0000
     1.0000   1.0000   1.0000   1.0000   1.0000   1.0000   1.0000   1.0000
     1.0000   1.0000   1.0000   1.0000   1.0000   1.0000   1.0000   1.0000
     1.0000   1.0000   1.0000   1.0000   1.0000   1.0000   1.0000   1.0000
     1.0000   1.0000   1.0000   1.0000   1.0000   1.0000   1.0000   1.0000
     1.0000   1.0000   1.0000   1.0000   1.0000   1.0000   1.0000   1.0000
     1.0000   1.0000   1.0000   1.0000   1.0000   1.0000   1.0000   1.0000
     1.0000   1.0000   1.0000   1.0000   1.0000   1.0000   1.0000   1.0000
     1.0000   1.0000   1.0000   1.0000   1.0000   1.0000   1.0000   1.0000
     1.0000   1.0000   1.0000   1.0000   1.0000   1.0000   1.0000   1.0000
     1.0000   1.0000   1.0000   1.0000   1.0000   1.0000   1.0000   1.0000
     1.0000   1.0000   1.0000   1.0000   1.0000   1.0000   1.0000   1.0000
     0.7654   0.0000   0.0000   0.0000   0.0000   0.0000   0.0000   0.0000
     0.0000   0.0000   0.0000   0.0000   0.0000   0.0000   0.0000   0.0000
     0.0000   0.0000   0.0000   0.0000

          k = 0.0016 0.0008 0.3600 (  8328 PWs)   bands (ev):

   -16.9729 -16.9543 -16.8941 -16.8720 -16.8564 -16.8296 -16.8165 -16.7995
   -16.7812 -16.7702 -16.7649 -16.7556 -16.7435 -16.7401 -16.7259 -16.7216
   -16.7165 -16.7088 -16.6994 -16.6944 -16.6845 -16.6710 -16.6653 -16.6633
   -16.6561 -16.6458 -16.6338 -16.6297 -16.6224 -16.6161 -16.6086 -16.6050
   -16.5967 -16.5911 -16.5823 -16.5779 -16.5733 -16.5675 -16.5628 -16.5562
   -16.5520 -16.5488 -16.5397 -16.5359 -16.5282 -16.5229 -16.5148 -16.5119
   -16.5072 -16.5012 -16.4964 -16.4881 -16.4781 -16.4762 -16.4690 -16.4625
   -16.4541 -16.4461 -16.4249 -16.4174 -16.4163 -16.4094 -16.3953 -16.3742
   -16.3516  -4.4500  -2.9392  -2.6726  -2.6258  -2.5704  -2.2709  -0.8713
    -0.7687  -0.6846  -0.4178   0.7631   0.8728   1.0799   1.2339   1.5775
     4.3053   4.3813   4.4703   4.5580   4.9822   5.1645   5.2162   5.3079
     5.3608   5.4870   5.9513   6.2415   6.4666   6.5793   6.6973   6.9679
     7.3247   8.3378   9.1111   9.2307   9.3798   9.5011   9.5501   9.7255
     9.7782   9.9151  10.0859  10.2881  10.5583  11.4997  11.5324  11.5995
    11.6900  11.7814  11.8460  12.0131

     occupation numbers 
     1.0000   1.0000   1.0000   1.0000   1.0000   1.0000   1.0000   1.0000
     1.0000   1.0000   1.0000   1.0000   1.0000   1.0000   1.0000   1.0000
     1.0000   1.0000   1.0000   1.0000   1.0000   1.0000   1.0000   1.0000
     1.0000   1.0000   1.0000   1.0000   1.0000   1.0000   1.0000   1.0000
     1.0000   1.0000   1.0000   1.0000   1.0000   1.0000   1.0000   1.0000
     1.0000   1.0000   1.0000   1.0000   1.0000   1.0000   1.0000   1.0000
     1.0000   1.0000   1.0000   1.0000   1.0000   1.0000   1.0000   1.0000
     1.0000   1.0000   1.0000   1.0000   1.0000   1.0000   1.0000   1.0000
     1.0000   1.0000   1.0000   1.0000   1.0000   1.0000   1.0000   1.0000
     1.0000   1.0000   1.0000   1.0000   1.0000   1.0000   1.0000   1.0000
     1.0000   1.0000   1.0000   1.0000   1.0000   1.0000   1.0000   1.0000
     1.0000   1.0000   1.0000   1.0000   1.0000   1.0000   1.0000   1.0000
     1.0000   0.0679   0.0000   0.0000   0.0000   0.0000   0.0000   0.0000
     0.0000   0.0000   0.0000   0.0000   0.0000   0.0000   0.0000   0.0000
     0.0000   0.0000   0.0000   0.0000

          k = 0.1792 0.1720 0.1812 (  8336 PWs)   bands (ev):

   -16.9728 -16.9542 -16.8928 -16.8713 -16.8562 -16.8294 -16.8166 -16.8002
   -16.7809 -16.7703 -16.7657 -16.7563 -16.7429 -16.7385 -16.7257 -16.7247
   -16.7192 -16.7124 -16.6988 -16.6942 -16.6861 -16.6703 -16.6667 -16.6629
   -16.6572 -16.6464 -16.6358 -16.6321 -16.6209 -16.6178 -16.6086 -16.6044
   -16.5957 -16.5878 -16.5813 -16.5773 -16.5736 -16.5674 -16.5600 -16.5547
   -16.5515 -16.5446 -16.5395 -16.5322 -16.5297 -16.5253 -16.5145 -16.5105
   -16.5050 -16.5022 -16.4947 -16.4878 -16.4819 -16.4749 -16.4693 -16.4627
   -16.4588 -16.4486 -16.4277 -16.4182 -16.4158 -16.4099 -16.3939 -16.3731
   -16.3516  -4.5186  -3.1515  -2.5877  -2.4656  -2.3495  -1.6525  -1.5753
    -1.3538   0.0571   0.1193   0.3627   0.4810   0.7577   1.0410   1.4286
     4.2422   4.3270   4.5148   5.0223   5.1193   5.1925   5.2151   5.3900
     5.4748   5.7877   6.2572   6.3504   6.4203   6.7832   6.8772   7.6253
     7.8471   8.4550   8.6001   8.7969   8.8927   9.2688   9.3670   9.3724
     9.5660   9.6442   9.7744  10.1955  10.7879  11.0685  11.1673  11.3947
    11.4306  11.6132  11.7248  12.0651

     occupation numbers 
     1.0000   1.0000   1.0000   1.0000   1.0000   1.0000   1.0000   1.0000
     1.0000   1.0000   1.0000   1.0000   1.0000   1.0000   1.0000   1.0000
     1.0000   1.0000   1.0000   1.0000   1.0000   1.0000   1.0000   1.0000
     1.0000   1.0000   1.0000   1.0000   1.0000   1.0000   1.0000   1.0000
     1.0000   1.0000   1.0000   1.0000   1.0000   1.0000   1.0000   1.0000
     1.0000   1.0000   1.0000   1.0000   1.0000   1.0000   1.0000   1.0000
     1.0000   1.0000   1.0000   1.0000   1.0000   1.0000   1.0000   1.0000
     1.0000   1.0000   1.0000   1.0000   1.0000   1.0000   1.0000   1.0000
     1.0000   1.0000   1.0000   1.0000   1.0000   1.0000   1.0000   1.0000
     1.0000   1.0000   1.0000   1.0000   1.0000   1.0000   1.0000   1.0000
     1.0000   1.0000   1.0000   1.0000   1.0000   1.0000   1.0000   1.0000
     1.0000   1.0000   1.0000   1.0000   1.0000   1.0000   1.0000   0.9997
     0.9718   0.0106   0.0005   0.0000   0.0000   0.0000   0.0000   0.0000
     0.0000   0.0000   0.0000   0.0000   0.0000   0.0000   0.0000   0.0000
     0.0000   0.0000   0.0000   0.0000

          k =-0.3535-0.3417 0.7177 (  8334 PWs)   bands (ev):

   -16.9731 -16.9545 -16.8943 -16.8720 -16.8566 -16.8297 -16.8168 -16.7995
   -16.7808 -16.7706 -16.7659 -16.7564 -16.7444 -16.7400 -16.7269 -16.7218
   -16.7173 -16.7098 -16.6989 -16.6974 -16.6826 -16.6718 -16.6671 -16.6621
   -16.6554 -16.6451 -16.6324 -16.6294 -16.6201 -16.6136 -16.6092 -16.6010
   -16.5924 -16.5862 -16.5823 -16.5780 -16.5715 -16.5684 -16.5653 -16.5588
   -16.5515 -16.5484 -16.5414 -16.5361 -16.5289 -16.5231 -16.5184 -16.5118
   -16.5057 -16.5008 -16.4948 -16.4890 -16.4847 -16.4761 -16.4733 -16.4649
   -16.4582 -16.4466 -16.4267 -16.4181 -16.4154 -16.4089 -16.3905 -16.3711
   -16.3507  -4.2324  -3.2952  -3.1566  -2.4204  -2.1835  -2.0169  -1.8733
    -1.1196  -0.1063   0.3016   0.5858   1.0120   1.3484   1.9497   2.0103
     3.5638   4.0718   4.1946   4.4533   4.4926   4.6751   4.9762   5.1545
     5.4152   5.6213   5.7570   5.8854   5.9759   6.2884   6.3451   6.5429
     7.7409   9.0531   9.4371   9.5741   9.7763  10.0526  10.0655  10.1993
    10.3910  10.5068  10.7250  11.0568  11.2108  11.2889  11.4116  11.4464
    11.6205  11.7388  12.4020  12.6711

     occupation numbers 
     1.0000   1.0000   1.0000   1.0000   1.0000   1.0000   1.0000   1.0000
     1.0000   1.0000   1.0000   1.0000   1.0000   1.0000   1.0000   1.0000
     1.0000   1.0000   1.0000   1.0000   1.0000   1.0000   1.0000   1.0000
     1.0000   1.0000   1.0000   1.0000   1.0000   1.0000   1.0000   1.0000
     1.0000   1.0000   1.0000   1.0000   1.0000   1.0000   1.0000   1.0000
     1.0000   1.0000   1.0000   1.0000   1.0000   1.0000   1.0000   1.0000
     1.0000   1.0000   1.0000   1.0000   1.0000   1.0000   1.0000   1.0000
     1.0000   1.0000   1.0000   1.0000   1.0000   1.0000   1.0000   1.0000
     1.0000   1.0000   1.0000   1.0000   1.0000   1.0000   1.0000   1.0000
     1.0000   1.0000   1.0000   1.0000   1.0000   1.0000   1.0000   1.0000
     1.0000   1.0000   1.0000   1.0000   1.0000   1.0000   1.0000   1.0000
     1.0000   1.0000   1.0000   1.0000   1.0000   1.0000   1.0000   1.0000
     0.9959   0.0000   0.0000   0.0000   0.0000   0.0000   0.0000   0.0000
     0.0000   0.0000   0.0000   0.0000   0.0000   0.0000   0.0000   0.0000
     0.0000   0.0000   0.0000   0.0000

          k =-0.1760-0.1705 0.5388 (  8332 PWs)   bands (ev):

   -16.9732 -16.9546 -16.8956 -16.8727 -16.8567 -16.8298 -16.8167 -16.7987
   -16.7813 -16.7706 -16.7650 -16.7556 -16.7451 -16.7412 -16.7270 -16.7199
   -16.7134 -16.7060 -16.7012 -16.6957 -16.6806 -16.6730 -16.6664 -16.6618
   -16.6553 -16.6460 -16.6292 -16.6234 -16.6197 -16.6142 -16.6072 -16.6048
   -16.5963 -16.5867 -16.5823 -16.5809 -16.5732 -16.5693 -16.5662 -16.5589
   -16.5533 -16.5491 -16.5434 -16.5377 -16.5288 -16.5225 -16.5175 -16.5129
   -16.5081 -16.5012 -16.4963 -16.4885 -16.4811 -16.4766 -16.4713 -16.4638
   -16.4559 -16.4445 -16.4247 -16.4168 -16.4157 -16.4086 -16.3914 -16.3723
   -16.3508  -4.0559  -3.5137  -2.9929  -2.6687  -2.5174  -2.0080  -1.4259
    -1.3044  -0.0522   0.2090   0.5956   1.2486   1.5962   2.2150   2.6186
     3.7107   3.7656   3.9217   4.0057   4.4300   4.5797   4.7763   5.0277
     5.0816   5.5460   5.6131   5.7423   5.9419   6.0539   6.4240   6.7529
     7.2490   9.1085   9.5048   9.7243   9.9375  10.0119  10.1374  10.3939
    10.5293  10.7372  10.8329  11.1371  11.3286  11.5555  12.0563  12.1606
    12.2054  12.4729  12.6667  12.7878

     occupation numbers 
     1.0000   1.0000   1.0000   1.0000   1.0000   1.0000   1.0000   1.0000
     1.0000   1.0000   1.0000   1.0000   1.0000   1.0000   1.0000   1.0000
     1.0000   1.0000   1.0000   1.0000   1.0000   1.0000   1.0000   1.0000
     1.0000   1.0000   1.0000   1.0000   1.0000   1.0000   1.0000   1.0000
     1.0000   1.0000   1.0000   1.0000   1.0000   1.0000   1.0000   1.0000
     1.0000   1.0000   1.0000   1.0000   1.0000   1.0000   1.0000   1.0000
     1.0000   1.0000   1.0000   1.0000   1.0000   1.0000   1.0000   1.0000
     1.0000   1.0000   1.0000   1.0000   1.0000   1.0000   1.0000   1.0000
     1.0000   1.0000   1.0000   1.0000   1.0000   1.0000   1.0000   1.0000
     1.0000   1.0000   1.0000   1.0000   1.0000   1.0000   1.0000   1.0000
     1.0000   1.0000   1.0000   1.0000   1.0000   1.0000   1.0000   1.0000
     1.0000   1.0000   1.0000   1.0000   1.0000   1.0000   1.0000   1.0000
     1.0000   0.0000   0.0000   0.0000   0.0000   0.0000   0.0000   0.0000
     0.0000   0.0000   0.0000   0.0000   0.0000   0.0000   0.0000   0.0000
     0.0000   0.0000   0.0000   0.0000

          k =-0.5441 0.5227-0.1813 (  8358 PWs)   bands (ev):

   -16.9740 -16.9549 -16.8954 -16.8738 -16.8566 -16.8283 -16.8163 -16.7990
   -16.7786 -16.7699 -16.7625 -16.7575 -16.7448 -16.7376 -16.7265 -16.7222
   -16.7132 -16.7078 -16.7019 -16.6937 -16.6811 -16.6736 -16.6636 -16.6569
   -16.6477 -16.6455 -16.6391 -16.6277 -16.6253 -16.6207 -16.6111 -16.6084
   -16.5954 -16.5887 -16.5817 -16.5773 -16.5721 -16.5680 -16.5654 -16.5588
   -16.5529 -16.5458 -16.5425 -16.5399 -16.5342 -16.5213 -16.5176 -16.5115
   -16.5079 -16.4996 -16.4970 -16.4886 -16.4776 -16.4734 -16.4685 -16.4628
   -16.4529 -16.4437 -16.4227 -16.4178 -16.4161 -16.4089 -16.3945 -16.3745
   -16.3521  -4.0203  -3.5454  -3.0029  -2.6660  -2.5574  -1.9406  -1.4884
    -1.2762   0.0341   0.1487   0.5602   1.2633   1.4110   2.1356   2.8326
     3.6397   3.8299   4.0885   4.2880   4.5199   4.6264   4.8399   5.0005
     5.2544   5.4088   5.5244   5.7600   5.8879   6.0024   6.3525   6.4832
     6.9783   8.9613   9.2889   9.4787   9.7016  10.1412  10.2628  10.3499
    10.5776  10.7475  10.9119  11.1549  11.4039  11.5606  11.8803  12.1104
    12.3273  12.5364  12.6708  12.7944

     occupation numbers 
     1.0000   1.0000   1.0000   1.0000   1.0000   1.0000   1.0000   1.0000
     1.0000   1.0000   1.0000   1.0000   1.0000   1.0000   1.0000   1.0000
     1.0000   1.0000   1.0000   1.0000   1.0000   1.0000   1.0000   1.0000
     1.0000   1.0000   1.0000   1.0000   1.0000   1.0000   1.0000   1.0000
     1.0000   1.0000   1.0000   1.0000   1.0000   1.0000   1.0000   1.0000
     1.0000   1.0000   1.0000   1.0000   1.0000   1.0000   1.0000   1.0000
     1.0000   1.0000   1.0000   1.0000   1.0000   1.0000   1.0000   1.0000
     1.0000   1.0000   1.0000   1.0000   1.0000   1.0000   1.0000   1.0000
     1.0000   1.0000   1.0000   1.0000   1.0000   1.0000   1.0000   1.0000
     1.0000   1.0000   1.0000   1.0000   1.0000   1.0000   1.0000   1.0000
     1.0000   1.0000   1.0000   1.0000   1.0000   1.0000   1.0000   1.0000
     1.0000   1.0000   1.0000   1.0000   1.0000   1.0000   1.0000   1.0000
     1.0000   0.0000   0.0000   0.0000   0.0000   0.0000   0.0000   0.0000
     0.0000   0.0000   0.0000   0.0000   0.0000   0.0000   0.0000   0.0000
     0.0000   0.0000   0.0000   0.0000

          k =-0.3665 0.6939-0.3601 (  8326 PWs)   bands (ev):

   -16.9739 -16.9549 -16.8940 -16.8733 -16.8562 -16.8282 -16.8163 -16.7996
   -16.7783 -16.7699 -16.7632 -16.7586 -16.7439 -16.7361 -16.7264 -16.7243
   -16.7170 -16.7123 -16.6981 -16.6948 -16.6858 -16.6690 -16.6660 -16.6578
   -16.6490 -16.6456 -16.6408 -16.6307 -16.6252 -16.6225 -16.6096 -16.6025
   -16.5952 -16.5887 -16.5822 -16.5759 -16.5715 -16.5671 -16.5647 -16.5576
   -16.5509 -16.5453 -16.5418 -16.5355 -16.5317 -16.5257 -16.5157 -16.5112
   -16.5072 -16.5003 -16.4950 -16.4887 -16.4789 -16.4727 -16.4691 -16.4644
   -16.4574 -16.4455 -16.4255 -16.4178 -16.4160 -16.4094 -16.3931 -16.3732
   -16.3520  -4.1959  -3.3729  -3.1908  -2.3104  -2.1571  -2.0388  -1.8277
    -1.2195  -0.1491   0.3509   0.5473   0.9782   1.1898   1.9553   2.2622
     3.5475   4.2102   4.3479   4.3722   4.5457   4.8390   5.0012   5.2832
     5.4708   5.5799   5.6703   5.7338   5.9735   6.1647   6.2901   6.4306
     7.6449   9.0628   9.4511   9.5856   9.7082   9.8040   9.8939  10.0895
    10.2976  10.3721  10.5683  10.8993  11.0010  11.0349  11.1775  11.2522
    11.3306  12.3920  12.5917  12.9247

     occupation numbers 
     1.0000   1.0000   1.0000   1.0000   1.0000   1.0000   1.0000   1.0000
     1.0000   1.0000   1.0000   1.0000   1.0000   1.0000   1.0000   1.0000
     1.0000   1.0000   1.0000   1.0000   1.0000   1.0000   1.0000   1.0000
     1.0000   1.0000   1.0000   1.0000   1.0000   1.0000   1.0000   1.0000
     1.0000   1.0000   1.0000   1.0000   1.0000   1.0000   1.0000   1.0000
     1.0000   1.0000   1.0000   1.0000   1.0000   1.0000   1.0000   1.0000
     1.0000   1.0000   1.0000   1.0000   1.0000   1.0000   1.0000   1.0000
     1.0000   1.0000   1.0000   1.0000   1.0000   1.0000   1.0000   1.0000
     1.0000   1.0000   1.0000   1.0000   1.0000   1.0000   1.0000   1.0000
     1.0000   1.0000   1.0000   1.0000   1.0000   1.0000   1.0000   1.0000
     1.0000   1.0000   1.0000   1.0000   1.0000   1.0000   1.0000   1.0000
     1.0000   1.0000   1.0000   1.0000   1.0000   1.0000   1.0000   1.0000
     0.9995   0.0000   0.0000   0.0000   0.0000   0.0000   0.0000   0.0000
     0.0000   0.0000   0.0000   0.0000   0.0000   0.0000   0.0000   0.0000
     0.0000   0.0000   0.0000   0.0000

          k =-0.8992 0.1801 0.1764 (  8350 PWs)   bands (ev):

   -16.9737 -16.9547 -16.8938 -16.8727 -16.8564 -16.8286 -16.8167 -16.8003
   -16.7784 -16.7699 -16.7637 -16.7591 -16.7441 -16.7374 -16.7265 -16.7247
   -16.7177 -16.7101 -16.6991 -16.6936 -16.6856 -16.6676 -16.6636 -16.6590
   -16.6493 -16.6473 -16.6408 -16.6321 -16.6257 -16.6207 -16.6098 -16.6013
   -16.5948 -16.5853 -16.5804 -16.5777 -16.5707 -16.5663 -16.5619 -16.5552
   -16.5495 -16.5463 -16.5437 -16.5349 -16.5305 -16.5285 -16.5173 -16.5108
   -16.5059 -16.5009 -16.4942 -16.4883 -16.4817 -16.4753 -16.4684 -16.4637
   -16.4603 -16.4478 -16.4277 -16.4184 -16.4155 -16.4082 -16.3919 -16.3715
   -16.3510  -4.0259  -3.5322  -3.0180  -2.6508  -2.5683  -1.9282  -1.4761
    -1.3522   0.0971   0.2152   0.4688   1.4084   1.5444   2.1967   2.5808
     3.5930   3.7097   3.9638   4.0731   4.4672   4.6456   4.8978   4.9314
     5.1719   5.5213   5.6530   5.7922   5.8548   5.9307   6.4557   6.6810
     7.1888   9.0510   9.4370   9.7060   9.8288  10.1863  10.3249  10.4331
    10.5188  10.6728  10.9527  11.0718  11.3646  11.5577  11.8175  11.9970
    12.3547  12.4132  12.5248  12.7149

     occupation numbers 
     1.0000   1.0000   1.0000   1.0000   1.0000   1.0000   1.0000   1.0000
     1.0000   1.0000   1.0000   1.0000   1.0000   1.0000   1.0000   1.0000
     1.0000   1.0000   1.0000   1.0000   1.0000   1.0000   1.0000   1.0000
     1.0000   1.0000   1.0000   1.0000   1.0000   1.0000   1.0000   1.0000
     1.0000   1.0000   1.0000   1.0000   1.0000   1.0000   1.0000   1.0000
     1.0000   1.0000   1.0000   1.0000   1.0000   1.0000   1.0000   1.0000
     1.0000   1.0000   1.0000   1.0000   1.0000   1.0000   1.0000   1.0000
     1.0000   1.0000   1.0000   1.0000   1.0000   1.0000   1.0000   1.0000
     1.0000   1.0000   1.0000   1.0000   1.0000   1.0000   1.0000   1.0000
     1.0000   1.0000   1.0000   1.0000   1.0000   1.0000   1.0000   1.0000
     1.0000   1.0000   1.0000   1.0000   1.0000   1.0000   1.0000   1.0000
     1.0000   1.0000   1.0000   1.0000   1.0000   1.0000   1.0000   1.0000
     1.0000   0.0000   0.0000   0.0000   0.0000   0.0000   0.0000   0.0000
     0.0000   0.0000   0.0000   0.0000   0.0000   0.0000   0.0000   0.0000
     0.0000   0.0000   0.0000   0.0000

          k =-0.7216 0.3514-0.0024 (  8335 PWs)   bands (ev):

   -16.9737 -16.9547 -16.8951 -16.8733 -16.8568 -16.8287 -16.8167 -16.7996
   -16.7787 -16.7699 -16.7626 -16.7585 -16.7450 -16.7383 -16.7262 -16.7235
   -16.7151 -16.7054 -16.6984 -16.6951 -16.6832 -16.6693 -16.6645 -16.6576
   -16.6482 -16.6448 -16.6392 -16.6304 -16.6259 -16.6185 -16.6093 -16.6049
   -16.5960 -16.5892 -16.5812 -16.5776 -16.5704 -16.5666 -16.5622 -16.5577
   -16.5521 -16.5478 -16.5439 -16.5387 -16.5322 -16.5233 -16.5189 -16.5118
   -16.5068 -16.5005 -16.4945 -16.4886 -16.4794 -16.4753 -16.4672 -16.4641
   -16.4567 -16.4455 -16.4254 -16.4170 -16.4155 -16.4081 -16.3928 -16.3726
   -16.3511  -3.6806  -3.4984  -3.3567  -3.1914  -2.0339  -1.8808  -1.7915
    -1.3982   0.3431   0.4053   0.4777   0.9181   2.6133   2.7592   2.9942
     3.1020   3.6262   3.6743   3.8342   3.8780   4.8514   4.8981   5.1059
     5.1987   5.2421   5.3063   5.3454   5.4120   6.2285   6.3464   6.4442
     6.5817   9.8775  10.0232  10.0683  10.2086  10.3785  10.4797  10.5502
    10.6791  10.7783  10.8034  10.9642  11.0912  12.1514  12.2678  12.3570
    12.4095  12.6117  12.6799  12.8050

     occupation numbers 
     1.0000   1.0000   1.0000   1.0000   1.0000   1.0000   1.0000   1.0000
     1.0000   1.0000   1.0000   1.0000   1.0000   1.0000   1.0000   1.0000
     1.0000   1.0000   1.0000   1.0000   1.0000   1.0000   1.0000   1.0000
     1.0000   1.0000   1.0000   1.0000   1.0000   1.0000   1.0000   1.0000
     1.0000   1.0000   1.0000   1.0000   1.0000   1.0000   1.0000   1.0000
     1.0000   1.0000   1.0000   1.0000   1.0000   1.0000   1.0000   1.0000
     1.0000   1.0000   1.0000   1.0000   1.0000   1.0000   1.0000   1.0000
     1.0000   1.0000   1.0000   1.0000   1.0000   1.0000   1.0000   1.0000
     1.0000   1.0000   1.0000   1.0000   1.0000   1.0000   1.0000   1.0000
     1.0000   1.0000   1.0000   1.0000   1.0000   1.0000   1.0000   1.0000
     1.0000   1.0000   1.0000   1.0000   1.0000   1.0000   1.0000   1.0000
     1.0000   1.0000   1.0000   1.0000   1.0000   1.0000   1.0000   1.0000
     1.0000   0.0000   0.0000   0.0000   0.0000   0.0000   0.0000   0.0000
     0.0000   0.0000   0.0000   0.0000   0.0000   0.0000   0.0000   0.0000
     0.0000   0.0000   0.0000   0.0000

          k =-0.3622 0.3487-0.0008 (  8336 PWs)   bands (ev):

   -16.9736 -16.9556 -16.8951 -16.8746 -16.8583 -16.8276 -16.8155 -16.7989
   -16.7736 -16.7694 -16.7638 -16.7529 -16.7446 -16.7364 -16.7257 -16.7230
   -16.7167 -16.7064 -16.7025 -16.6957 -16.6863 -16.6678 -16.6650 -16.6595
   -16.6545 -16.6442 -16.6379 -16.6290 -16.6272 -16.6222 -16.6147 -16.6072
   -16.5967 -16.5921 -16.5842 -16.5797 -16.5724 -16.5648 -16.5590 -16.5574
   -16.5502 -16.5494 -16.5429 -16.5365 -16.5283 -16.5199 -16.5141 -16.5105
   -16.5064 -16.5009 -16.4964 -16.4893 -16.4781 -16.4749 -16.4666 -16.4630
   -16.4536 -16.4445 -16.4243 -16.4178 -16.4164 -16.4092 -16.3959 -16.3745
   -16.3522  -4.2055  -3.3302  -3.1350  -2.3798  -2.2601  -2.0970  -1.8248
    -1.1073  -0.0930   0.4080   0.5020   0.9829   1.1802   1.9367   2.3066
     3.6471   4.1732   4.2473   4.4788   4.6160   4.7246   5.0533   5.1412
     5.1981   5.7206   5.7449   5.8070   5.9274   6.1137   6.2645   6.4849
     7.4537   8.7504   9.3289   9.5297   9.6074   9.7463  10.0536  10.3528
    10.5573  10.6535  10.7595  10.9901  11.1238  11.2547  11.3598  11.5165
    11.5677  12.0534  12.4176  12.7989

     occupation numbers 
     1.0000   1.0000   1.0000   1.0000   1.0000   1.0000   1.0000   1.0000
     1.0000   1.0000   1.0000   1.0000   1.0000   1.0000   1.0000   1.0000
     1.0000   1.0000   1.0000   1.0000   1.0000   1.0000   1.0000   1.0000
     1.0000   1.0000   1.0000   1.0000   1.0000   1.0000   1.0000   1.0000
     1.0000   1.0000   1.0000   1.0000   1.0000   1.0000   1.0000   1.0000
     1.0000   1.0000   1.0000   1.0000   1.0000   1.0000   1.0000   1.0000
     1.0000   1.0000   1.0000   1.0000   1.0000   1.0000   1.0000   1.0000
     1.0000   1.0000   1.0000   1.0000   1.0000   1.0000   1.0000   1.0000
     1.0000   1.0000   1.0000   1.0000   1.0000   1.0000   1.0000   1.0000
     1.0000   1.0000   1.0000   1.0000   1.0000   1.0000   1.0000   1.0000
     1.0000   1.0000   1.0000   1.0000   1.0000   1.0000   1.0000   1.0000
     1.0000   1.0000   1.0000   1.0000   1.0000   1.0000   1.0000   1.0000
     1.0000   0.0000   0.0000   0.0000   0.0000   0.0000   0.0000   0.0000
     0.0000   0.0000   0.0000   0.0000   0.0000   0.0000   0.0000   0.0000
     0.0000   0.0000   0.0000   0.0000

          k =-0.1846 0.5199-0.1797 (  8336 PWs)   bands (ev):

   -16.9739 -16.9558 -16.8955 -16.8751 -16.8583 -16.8274 -16.8151 -16.7983
   -16.7736 -16.7692 -16.7637 -16.7538 -16.7451 -16.7346 -16.7267 -16.7228
   -16.7168 -16.7112 -16.7017 -16.6966 -16.6843 -16.6716 -16.6654 -16.6604
   -16.6516 -16.6454 -16.6376 -16.6288 -16.6236 -16.6194 -16.6116 -16.6048
   -16.5952 -16.5903 -16.5841 -16.5812 -16.5707 -16.5678 -16.5651 -16.5567
   -16.5538 -16.5461 -16.5401 -16.5374 -16.5292 -16.5221 -16.5166 -16.5116
   -16.5059 -16.4997 -16.4969 -16.4902 -16.4791 -16.4750 -16.4693 -16.4637
   -16.4565 -16.4428 -16.4245 -16.4178 -16.4162 -16.4100 -16.3923 -16.3731
   -16.3522  -4.0499  -3.5280  -3.0833  -2.6348  -2.4686  -1.9812  -1.4032
    -1.2512   0.0838   0.2059   0.5536   1.1169   1.3669   2.0110   2.7880
     3.6776   3.9219   4.0105   4.1109   4.2759   4.4903   4.8478   4.8818
     5.2222   5.2757   5.6891   5.9966   6.1064   6.2551   6.5079   6.6254
     7.1845   9.2392   9.5377   9.6019   9.7641   9.9062   9.9980  10.3830
    10.5018  10.8050  10.9103  11.4535  11.5951  11.6588  11.7764  11.9098
    12.1794  12.4587  12.5089  12.6597

     occupation numbers 
     1.0000   1.0000   1.0000   1.0000   1.0000   1.0000   1.0000   1.0000
     1.0000   1.0000   1.0000   1.0000   1.0000   1.0000   1.0000   1.0000
     1.0000   1.0000   1.0000   1.0000   1.0000   1.0000   1.0000   1.0000
     1.0000   1.0000   1.0000   1.0000   1.0000   1.0000   1.0000   1.0000
     1.0000   1.0000   1.0000   1.0000   1.0000   1.0000   1.0000   1.0000
     1.0000   1.0000   1.0000   1.0000   1.0000   1.0000   1.0000   1.0000
     1.0000   1.0000   1.0000   1.0000   1.0000   1.0000   1.0000   1.0000
     1.0000   1.0000   1.0000   1.0000   1.0000   1.0000   1.0000   1.0000
     1.0000   1.0000   1.0000   1.0000   1.0000   1.0000   1.0000   1.0000
     1.0000   1.0000   1.0000   1.0000   1.0000   1.0000   1.0000   1.0000
     1.0000   1.0000   1.0000   1.0000   1.0000   1.0000   1.0000   1.0000
     1.0000   1.0000   1.0000   1.0000   1.0000   1.0000   1.0000   1.0000
     1.0000   0.0000   0.0000   0.0000   0.0000   0.0000   0.0000   0.0000
     0.0000   0.0000   0.0000   0.0000   0.0000   0.0000   0.0000   0.0000
     0.0000   0.0000   0.0000   0.0000

          k =-0.7173 0.0062 0.3568 (  8335 PWs)   bands (ev):

   -16.9737 -16.9557 -16.8952 -16.8748 -16.8583 -16.8277 -16.8156 -16.7989
   -16.7737 -16.7692 -16.7649 -16.7545 -16.7454 -16.7355 -16.7267 -16.7225
   -16.7176 -16.7095 -16.7014 -16.6965 -16.6859 -16.6675 -16.6636 -16.6624
   -16.6534 -16.6461 -16.6348 -16.6320 -16.6273 -16.6182 -16.6089 -16.6007
   -16.5945 -16.5887 -16.5825 -16.5794 -16.5718 -16.5685 -16.5637 -16.5590
   -16.5503 -16.5455 -16.5428 -16.5350 -16.5290 -16.5229 -16.5174 -16.5125
   -16.5042 -16.4999 -16.4960 -16.4898 -16.4822 -16.4744 -16.4724 -16.4647
   -16.4585 -16.4446 -16.4264 -16.4181 -16.4156 -16.4088 -16.3911 -16.3713
   -16.3512  -3.7071  -3.4893  -3.4054  -3.1933  -1.9583  -1.8657  -1.6672
    -1.4110   0.2763   0.3986   0.4907   0.9004   2.5305   2.7193   2.9151
     2.9924   3.5232   3.6070   3.7336   3.7955   4.9246   5.0241   5.1017
     5.1695   5.2835   5.3443   5.4054   5.6069   6.2767   6.4043   6.4735
     6.8114  10.0245  10.1440  10.2267  10.3279  10.4232  10.5859  10.7260
    10.8688  10.9240  11.0259  11.1956  11.2472  11.9414  12.0193  12.1371
    12.2654  12.3974  12.5111  12.6022

     occupation numbers 
     1.0000   1.0000   1.0000   1.0000   1.0000   1.0000   1.0000   1.0000
     1.0000   1.0000   1.0000   1.0000   1.0000   1.0000   1.0000   1.0000
     1.0000   1.0000   1.0000   1.0000   1.0000   1.0000   1.0000   1.0000
     1.0000   1.0000   1.0000   1.0000   1.0000   1.0000   1.0000   1.0000
     1.0000   1.0000   1.0000   1.0000   1.0000   1.0000   1.0000   1.0000
     1.0000   1.0000   1.0000   1.0000   1.0000   1.0000   1.0000   1.0000
     1.0000   1.0000   1.0000   1.0000   1.0000   1.0000   1.0000   1.0000
     1.0000   1.0000   1.0000   1.0000   1.0000   1.0000   1.0000   1.0000
     1.0000   1.0000   1.0000   1.0000   1.0000   1.0000   1.0000   1.0000
     1.0000   1.0000   1.0000   1.0000   1.0000   1.0000   1.0000   1.0000
     1.0000   1.0000   1.0000   1.0000   1.0000   1.0000   1.0000   1.0000
     1.0000   1.0000   1.0000   1.0000   1.0000   1.0000   1.0000   1.0000
     1.0000   0.0000   0.0000   0.0000   0.0000   0.0000   0.0000   0.0000
     0.0000   0.0000   0.0000   0.0000   0.0000   0.0000   0.0000   0.0000
     0.0000   0.0000   0.0000   0.0000

          k =-0.5397 0.1774 0.1780 (  8344 PWs)   bands (ev):

   -16.9735 -16.9555 -16.8948 -16.8744 -16.8584 -16.8280 -16.8162 -16.7995
   -16.7735 -16.7694 -16.7649 -16.7538 -16.7451 -16.7370 -16.7257 -16.7228
   -16.7175 -16.7046 -16.7009 -16.6967 -16.6878 -16.6658 -16.6616 -16.6606
   -16.6572 -16.6463 -16.6352 -16.6336 -16.6284 -16.6182 -16.6120 -16.6051
   -16.5969 -16.5916 -16.5815 -16.5789 -16.5724 -16.5665 -16.5584 -16.5574
   -16.5506 -16.5471 -16.5415 -16.5358 -16.5262 -16.5243 -16.5164 -16.5105
   -16.5035 -16.5016 -16.4960 -16.4881 -16.4813 -16.4743 -16.4676 -16.4631
   -16.4579 -16.4467 -16.4272 -16.4177 -16.4156 -16.4085 -16.3941 -16.3727
   -16.3511  -4.0173  -3.5240  -3.0186  -2.6771  -2.5647  -1.9445  -1.4636
    -1.3898   0.0759   0.2509   0.5244   1.3930   1.5795   2.2596   2.5898
     3.6903   3.7664   3.9140   4.0063   4.4069   4.5207   4.7932   5.0200
     5.0767   5.4843   5.5890   5.8156   5.9278   6.0288   6.3690   6.7052
     7.2420   9.0557   9.4789   9.5872   9.7912  10.0145  10.0595  10.5116
    10.5551  10.7470  10.9596  11.1937  11.3738  11.5905  12.0046  12.2967
    12.3464  12.5707  12.7158  12.9347

     occupation numbers 
     1.0000   1.0000   1.0000   1.0000   1.0000   1.0000   1.0000   1.0000
     1.0000   1.0000   1.0000   1.0000   1.0000   1.0000   1.0000   1.0000
     1.0000   1.0000   1.0000   1.0000   1.0000   1.0000   1.0000   1.0000
     1.0000   1.0000   1.0000   1.0000   1.0000   1.0000   1.0000   1.0000
     1.0000   1.0000   1.0000   1.0000   1.0000   1.0000   1.0000   1.0000
     1.0000   1.0000   1.0000   1.0000   1.0000   1.0000   1.0000   1.0000
     1.0000   1.0000   1.0000   1.0000   1.0000   1.0000   1.0000   1.0000
     1.0000   1.0000   1.0000   1.0000   1.0000   1.0000   1.0000   1.0000
     1.0000   1.0000   1.0000   1.0000   1.0000   1.0000   1.0000   1.0000
     1.0000   1.0000   1.0000   1.0000   1.0000   1.0000   1.0000   1.0000
     1.0000   1.0000   1.0000   1.0000   1.0000   1.0000   1.0000   1.0000
     1.0000   1.0000   1.0000   1.0000   1.0000   1.0000   1.0000   1.0000
     1.0000   0.0000   0.0000   0.0000   0.0000   0.0000   0.0000   0.0000
     0.0000   0.0000   0.0000   0.0000   0.0000   0.0000   0.0000   0.0000
     0.0000   0.0000   0.0000   0.0000

          k = 0.3606-0.3495-0.3592 (  8338 PWs)   bands (ev):

   -16.9731 -16.9567 -16.8945 -16.8757 -16.8603 -16.8279 -16.8145 -16.7989
   -16.7718 -16.7673 -16.7651 -16.7499 -16.7420 -16.7342 -16.7247 -16.7224
   -16.7153 -16.7092 -16.7037 -16.6962 -16.6891 -16.6701 -16.6618 -16.6612
   -16.6573 -16.6455 -16.6370 -16.6323 -16.6275 -16.6232 -16.6135 -16.6070
   -16.5991 -16.5962 -16.5843 -16.5792 -16.5724 -16.5653 -16.5592 -16.5553
   -16.5532 -16.5475 -16.5410 -16.5339 -16.5234 -16.5230 -16.5125 -16.5079
   -16.5035 -16.5026 -16.4958 -16.4880 -16.4809 -16.4735 -16.4665 -16.4632
   -16.4549 -16.4463 -16.4264 -16.4176 -16.4161 -16.4083 -16.3971 -16.3740
   -16.3518  -4.0201  -3.8731  -2.4001  -2.3581  -2.2134  -2.1548  -1.9154
    -1.8094   0.5212   0.5858   0.6435   0.8750   1.1128   1.4212   3.2536
     3.4754   4.0480   4.0862   4.2049   4.2395   4.2502   4.3608   5.3763
     5.4415   5.4645   5.6969   5.7999   6.1390   6.8370   6.9096   7.2299
     7.6947   8.6063   8.8381   8.9150   9.1307   9.2727   9.4293   9.6065
     9.9661  11.3538  11.4045  11.6004  11.8662  12.0153  12.0863  12.1793
    12.3772  12.5229  12.6527  12.9444

     occupation numbers 
     1.0000   1.0000   1.0000   1.0000   1.0000   1.0000   1.0000   1.0000
     1.0000   1.0000   1.0000   1.0000   1.0000   1.0000   1.0000   1.0000
     1.0000   1.0000   1.0000   1.0000   1.0000   1.0000   1.0000   1.0000
[...]
     1.0000   1.0000   1.0000   1.0000   1.0000   1.0000   1.0000   1.0000
     1.0000   0.0000   0.0000   0.0000   0.0000   0.0000   0.0000   0.0000
     0.0000   0.0000   0.0000   0.0000   0.0000   0.0000   0.0000   0.0000
     0.0000   0.0000   0.0000   0.0000

          k = 0.1744 0.1697-0.8989 (  8336 PWs)   bands (ev):

   -16.9737 -16.9552 -16.8941 -16.8734 -16.8562 -16.8298 -16.8158 -16.7995
   -16.7822 -16.7704 -16.7633 -16.7548 -16.7425 -16.7353 -16.7272 -16.7254
   -16.7159 -16.7112 -16.6973 -16.6941 -16.6843 -16.6711 -16.6653 -16.6576
   -16.6495 -16.6449 -16.6403 -16.6312 -16.6269 -16.6166 -16.6103 -16.6013
   -16.5965 -16.5891 -16.5809 -16.5761 -16.5721 -16.5674 -16.5652 -16.5569
   -16.5542 -16.5464 -16.5425 -16.5372 -16.5325 -16.5249 -16.5151 -16.5125
   -16.5074 -16.5005 -16.4945 -16.4871 -16.4792 -16.4749 -16.4680 -16.4647
   -16.4571 -16.4464 -16.4256 -16.4169 -16.4153 -16.4088 -16.3929 -16.3728
   -16.3517  -4.0127  -3.5743  -2.9808  -2.6692  -2.5000  -2.0320  -1.4824
    -1.2905   0.0265   0.1836   0.5987   1.3024   1.6074   2.1922   2.6299
     3.6219   3.7332   3.9551   4.0850   4.4294   4.5900   4.8367   4.9263
     5.0800   5.4972   5.7101   5.7481   5.9167   6.0119   6.5296   6.6953
     7.1595   9.0980   9.5232   9.7439   9.8327  10.0716  10.1746  10.2814
    10.5405  10.5955  10.6727  11.0392  11.2977  11.7451  11.9674  12.0928
    12.4649  12.5607  12.6522  12.8128

     occupation numbers 
     1.0000   1.0000   1.0000   1.0000   1.0000   1.0000   1.0000   1.0000
     1.0000   1.0000   1.0000   1.0000   1.0000   1.0000   1.0000   1.0000
     1.0000   1.0000   1.0000   1.0000   1.0000   1.0000   1.0000   1.0000
     1.0000   1.0000   1.0000   1.0000   1.0000   1.0000   1.0000   1.0000
     1.0000   1.0000   1.0000   1.0000   1.0000   1.0000   1.0000   1.0000
     1.0000   1.0000   1.0000   1.0000   1.0000   1.0000   1.0000   1.0000
     1.0000   1.0000   1.0000   1.0000   1.0000   1.0000   1.0000   1.0000
     1.0000   1.0000   1.0000   1.0000   1.0000   1.0000   1.0000   1.0000
     1.0000   1.0000   1.0000   1.0000   1.0000   1.0000   1.0000   1.0000
     1.0000   1.0000   1.0000   1.0000   1.0000   1.0000   1.0000   1.0000
     1.0000   1.0000   1.0000   1.0000   1.0000   1.0000   1.0000   1.0000
     1.0000   1.0000   1.0000   1.0000   1.0000   1.0000   1.0000   1.0000
     1.0000   0.0000   0.0000   0.0000   0.0000   0.0000   0.0000   0.0000
     0.0000   0.0000   0.0000   0.0000   0.0000   0.0000   0.0000   0.0000
     0.0000   0.0000   0.0000   0.0000

          k =-0.3584-0.3440-0.3624 (  8338 PWs)   bands (ev):

   -16.9736 -16.9550 -16.8928 -16.8727 -16.8561 -16.8297 -16.8157 -16.8002
   -16.7819 -16.7704 -16.7639 -16.7560 -16.7415 -16.7344 -16.7274 -16.7259
   -16.7196 -16.7156 -16.6979 -16.6937 -16.6845 -16.6691 -16.6647 -16.6605
   -16.6505 -16.6482 -16.6406 -16.6328 -16.6251 -16.6178 -16.6112 -16.6013
   -16.5957 -16.5837 -16.5802 -16.5799 -16.5691 -16.5664 -16.5635 -16.5557
   -16.5517 -16.5454 -16.5415 -16.5333 -16.5313 -16.5293 -16.5149 -16.5111
   -16.5062 -16.5007 -16.4928 -16.4876 -16.4817 -16.4747 -16.4701 -16.4634
   -16.4607 -16.4487 -16.4280 -16.4192 -16.4150 -16.4086 -16.3919 -16.3716
   -16.3516  -4.0353  -3.8810  -2.4687  -2.2875  -2.1800  -2.0263  -2.0113
    -1.7771   0.5253   0.5722   0.6375   0.8319   1.0776   1.2648   3.2335
     3.3926   3.9979   4.0891   4.2329   4.3113   4.3615   4.4414   5.5117
     5.6181   5.6800   5.7103   5.7400   5.7551   7.0679   7.1745   7.1991
     7.3468   8.7953   8.8324   9.0744   9.1854   9.3502   9.4235   9.5190
     9.6171  11.2367  11.4871  11.5024  11.7454  11.8255  11.9213  12.0453
    12.3049  12.4082  12.7622  12.9284

     occupation numbers 
     1.0000   1.0000   1.0000   1.0000   1.0000   1.0000   1.0000   1.0000
     1.0000   1.0000   1.0000   1.0000   1.0000   1.0000   1.0000   1.0000
     1.0000   1.0000   1.0000   1.0000   1.0000   1.0000   1.0000   1.0000
     1.0000   1.0000   1.0000   1.0000   1.0000   1.0000   1.0000   1.0000
     1.0000   1.0000   1.0000   1.0000   1.0000   1.0000   1.0000   1.0000
     1.0000   1.0000   1.0000   1.0000   1.0000   1.0000   1.0000   1.0000
     1.0000   1.0000   1.0000   1.0000   1.0000   1.0000   1.0000   1.0000
     1.0000   1.0000   1.0000   1.0000   1.0000   1.0000   1.0000   1.0000
     1.0000   1.0000   1.0000   1.0000   1.0000   1.0000   1.0000   1.0000
     1.0000   1.0000   1.0000   1.0000   1.0000   1.0000   1.0000   1.0000
     1.0000   1.0000   1.0000   1.0000   1.0000   1.0000   1.0000   1.0000
     1.0000   1.0000   1.0000   1.0000   1.0000   1.0000   1.0000   1.0000
     1.0000   0.0000   0.0000   0.0000   0.0000   0.0000   0.0000   0.0000
     0.0000   0.0000   0.0000   0.0000   0.0000   0.0000   0.0000   0.0000
     0.0000   0.0000   0.0000   0.0000

     the Fermi energy is     8.1225 ev

!    total energy              =   -2800.04393755 Ry
     Harris-Foulkes estimate   =   -2800.04393751 Ry
     estimated scf accuracy    <          1.2E-10 Ry

     The total energy is the sum of the following terms:

     one-electron contribution =   -1903.99994993 Ry
     hartree contribution      =    1123.21651716 Ry
     xc contribution           =    -761.98624648 Ry
     ewald contribution        =   -1257.27245274 Ry
     smearing contrib. (-TS)   =      -0.00180556 Ry

     convergence has been achieved in  12 iterations

     Forces acting on atoms (Ry/au):

     atom    1 type  2   force =  -0.18564399E-01  0.39966428E-01 -0.12912795E-01
     atom    2 type  2   force =   0.28180854E-01 -0.88607006E-02 -0.15410877E-01
     atom    3 type  2   force =  -0.45185044E-01  0.45656020E-01 -0.92708386E-02
     atom    4 type  2   force =  -0.67639784E-02 -0.14966870E-01  0.69535784E-02
     atom    5 type  2   force =  -0.18385927E-02  0.13617371E-02 -0.16027735E-01
     atom    6 type  2   force =   0.26966770E-01 -0.16847594E-01  0.19392315E-01
     atom    7 type  2   force =  -0.19195258E-01  0.61643253E-02 -0.29787740E-02
     atom    8 type  1   force =   0.18743661E-01 -0.39729895E-01  0.58479697E-01
     atom    9 type  2   force =  -0.63149503E-02 -0.36724521E-01  0.56121842E-02
     atom   10 type  2   force =   0.13716322E-01  0.34447802E-01 -0.11031188E-02
     atom   11 type  1   force =  -0.24160526E-02  0.19346896E-01 -0.13432894E-01
     atom   12 type  2   force =   0.18502243E-01 -0.32085371E-01 -0.10195388E-01
     atom   13 type  1   force =  -0.80098687E-02 -0.24782956E-01  0.14928171E-01
     atom   14 type  2   force =  -0.15548893E-01  0.16477205E-01 -0.15877816E-01
     atom   15 type  2   force =   0.13530718E-02  0.27094182E-01 -0.82645824E-02
     atom   16 type  2   force =   0.16374116E-01 -0.16516688E-01  0.10887300E-03
     The non-local contrib.  to forces
     atom    1 type  2   force =   0.16058886E-01  0.25987470E-01 -0.35926868E-02
     atom    2 type  2   force =   0.33536428E-01 -0.31015566E-02  0.11057130E-01
     atom    3 type  2   force =   0.17934748E-01 -0.14699016E-01  0.12698525E-01
     atom    4 type  2   force =   0.77224518E-02  0.10938131E-02 -0.41258996E-01
     atom    5 type  2   force =   0.73613829E-01 -0.62935598E-01  0.91240488E-03
     atom    6 type  2   force =  -0.14605616E-01 -0.45645696E-02 -0.51008124E-01
     atom    7 type  2   force =  -0.18272040E-01 -0.40213432E-01  0.23039504E-01
     atom    8 type  1   force =   0.13522461E-01 -0.28047748E-01  0.43343926E-01
     atom    9 type  2   force =   0.37966472E-01  0.65014464E-02  0.70186597E-02
     atom   10 type  2   force =  -0.62750948E-01  0.32328884E-01 -0.27436831E-01
     atom   11 type  1   force =  -0.13267900E-01  0.25918990E-02  0.25615121E-02
     atom   12 type  2   force =   0.29381814E-01  0.39774456E-01 -0.49836278E-01
     atom   13 type  1   force =  -0.12323144E-01 -0.13417258E-01  0.23039864E-01
     atom   14 type  2   force =   0.21344227E-01 -0.11341856E-01 -0.21676008E-02
     atom   15 type  2   force =  -0.32872911E-01  0.25408863E-01  0.79204305E-01
     atom   16 type  2   force =  -0.20612992E-01  0.30663727E-01  0.14555266E-02
     The ionic contribution  to forces
     atom    1 type  2   force =  -0.28477416E+00  0.96430172E+00 -0.10621331E+01
     atom    2 type  2   force =  -0.23125531E+01  0.56729247E+00 -0.18121819E+01
     atom    3 type  2   force =  -0.67863947E+01  0.65553229E+01 -0.48271896E+01
     atom    4 type  2   force =  -0.67001938E+01  0.66137842E+01  0.67533311E+01
     atom    5 type  2   force =  -0.49009029E+01 -0.52903205E+01  0.55850085E+01
     atom    6 type  2   force =  -0.29049866E+01  0.54148206E+01  0.70478429E+01
     atom    7 type  2   force =   0.63957711E+01  0.48417505E+01  0.59650077E+01
     atom    8 type  1   force =   0.33468707E+00 -0.53724102E+00  0.45665327E+00
     atom    9 type  2   force =  -0.22445354E+01 -0.73038396E+00  0.31327254E+00
     atom   10 type  2   force =   0.13091014E+02  0.10723125E+01  0.30102662E+00
     atom   11 type  1   force =  -0.18050425E+00  0.27568863E+00  0.26155426E-01
     atom   12 type  2   force =  -0.48157393E+01 -0.76381552E+01 -0.67730757E+01
     atom   13 type  1   force =   0.31803509E+00 -0.37553840E+00  0.66092264E+00
     atom   14 type  2   force =  -0.62951781E+01 -0.44154286E+01 -0.62150521E+01
     atom   15 type  2   force =   0.59190476E+01 -0.60693142E+01 -0.60919788E+01
     atom   16 type  2   force =   0.11367207E+02 -0.12488916E+01 -0.32760947E+00
     The local contribution  to forces
     atom    1 type  2   force =   0.25015188E+00 -0.94827746E+00  0.10504643E+01
     atom    2 type  2   force =   0.23067857E+01 -0.57248818E+00  0.17840627E+01
     atom    3 type  2   force =   0.67193634E+01 -0.64919329E+01  0.48061505E+01
     atom    4 type  2   force =   0.66850479E+01 -0.66307913E+01 -0.67058983E+01
     atom    5 type  2   force =   0.48284692E+01  0.53562842E+01 -0.56041194E+01
     atom    6 type  2   force =   0.29500634E+01 -0.54290594E+01 -0.69779111E+01
     atom    7 type  2   force =  -0.63983715E+01 -0.47982761E+01 -0.59908325E+01
     atom    8 type  1   force =  -0.32759922E+00  0.52286488E+00 -0.43797379E+00
     atom    9 type  2   force =   0.21990553E+01  0.68584151E+00 -0.31234434E+00
     atom   10 type  2   force =  -0.13015100E+02 -0.10688144E+01 -0.27627917E+00
     atom   11 type  1   force =   0.18981787E+00 -0.25859440E+00 -0.41609178E-01
     atom   12 type  2   force =   0.48081540E+01  0.75653922E+01  0.68104446E+01
     atom   13 type  1   force =  -0.31430935E+00  0.36284475E+00 -0.66637867E+00
     atom   14 type  2   force =   0.62572547E+01  0.44467282E+01  0.62013287E+01
     atom   15 type  2   force =  -0.58858236E+01  0.60721377E+01  0.60069463E+01
     atom   16 type  2   force =  -0.11329840E+02  0.12006987E+01  0.32420857E+00
     The core correction contribution to forces
     atom    1 type  2   force =   0.17520210E-05 -0.20490344E-02  0.23406507E-02
     atom    2 type  2   force =   0.41364917E-03 -0.56783672E-03  0.16518279E-02
     atom    3 type  2   force =   0.39105860E-02 -0.30327560E-02 -0.93531193E-03
     atom    4 type  2   force =   0.65261544E-03  0.95632310E-03  0.78557267E-03
     atom    5 type  2   force =  -0.30202401E-02 -0.16666693E-02  0.21741086E-02
     atom    6 type  2   force =  -0.35166931E-02  0.19576408E-02  0.47881777E-03
     atom    7 type  2   force =   0.16781746E-02  0.29051969E-02 -0.19301724E-03
     atom    8 type  1   force =  -0.18667692E-02  0.26944001E-02 -0.35435317E-02
     atom    9 type  2   force =   0.12035485E-02  0.13213151E-02 -0.23297688E-02
     atom   10 type  2   force =   0.56766855E-03 -0.13778850E-02  0.15892482E-02
     atom   11 type  1   force =   0.15366387E-02 -0.33966798E-03 -0.54089466E-03
     atom   12 type  2   force =  -0.33021204E-02  0.89458862E-03  0.22664734E-02
     atom   13 type  1   force =   0.58591475E-03  0.13279397E-02 -0.26574648E-02
     atom   14 type  2   force =   0.10202862E-02 -0.34850729E-02  0.82787134E-05
     atom   15 type  2   force =   0.10047255E-02 -0.11371521E-02 -0.24399883E-02
     atom   16 type  2   force =  -0.36221941E-03  0.10106546E-02  0.20549245E-02
     The Hubbard contrib.    to forces
     atom    1 type  2   force =   0.00000000E+00  0.00000000E+00  0.00000000E+00
     atom    2 type  2   force =   0.00000000E+00  0.00000000E+00  0.00000000E+00
     atom    3 type  2   force =   0.00000000E+00  0.00000000E+00  0.00000000E+00
     atom    4 type  2   force =   0.00000000E+00  0.00000000E+00  0.00000000E+00
     atom    5 type  2   force =   0.00000000E+00  0.00000000E+00  0.00000000E+00
     atom    6 type  2   force =   0.00000000E+00  0.00000000E+00  0.00000000E+00
     atom    7 type  2   force =   0.00000000E+00  0.00000000E+00  0.00000000E+00
     atom    8 type  1   force =   0.00000000E+00  0.00000000E+00  0.00000000E+00
     atom    9 type  2   force =   0.00000000E+00  0.00000000E+00  0.00000000E+00
     atom   10 type  2   force =   0.00000000E+00  0.00000000E+00  0.00000000E+00
     atom   11 type  1   force =   0.00000000E+00  0.00000000E+00  0.00000000E+00
     atom   12 type  2   force =   0.00000000E+00  0.00000000E+00  0.00000000E+00
     atom   13 type  1   force =   0.00000000E+00  0.00000000E+00  0.00000000E+00
     atom   14 type  2   force =   0.00000000E+00  0.00000000E+00  0.00000000E+00
     atom   15 type  2   force =   0.00000000E+00  0.00000000E+00  0.00000000E+00
     atom   16 type  2   force =   0.00000000E+00  0.00000000E+00  0.00000000E+00
     The SCF correction term to forces
     atom    1 type  2   force =  -0.31653103E-05  0.37406630E-05  0.75773590E-05
     atom    2 type  2   force =  -0.22692023E-05  0.44010736E-05 -0.10771477E-05
     atom    3 type  2   force =   0.53480354E-06 -0.21473771E-05  0.46594283E-05
     atom    4 type  2   force =   0.64411831E-05 -0.98272723E-05 -0.61947529E-05
     atom    5 type  2   force =   0.11149961E-05  0.37681755E-06 -0.36811230E-05
     atom    6 type  2   force =   0.11911369E-04 -0.18489423E-05 -0.10611833E-04
     atom    7 type  2   force =  -0.14520164E-05 -0.17809878E-05 -0.83953760E-06
     atom    8 type  1   force =  -0.29299693E-06 -0.40306550E-06 -0.59791599E-06
     atom    9 type  2   force =  -0.53750400E-05 -0.48380938E-05 -0.53278778E-05
     atom   10 type  2   force =  -0.15119790E-04 -0.13409150E-05 -0.34024672E-05
     atom   11 type  1   force =   0.11778754E-05  0.43612028E-06 -0.18156065E-06
     atom   12 type  2   force =   0.74475812E-05  0.85966012E-05  0.50662926E-05
     atom   13 type  1   force =   0.12166681E-05  0.11874376E-07  0.13778625E-05
     atom   14 type  2   force =   0.95606270E-05  0.45730135E-05  0.44940960E-05
     atom   15 type  2   force =  -0.31570113E-05 -0.10112343E-05  0.30892162E-05
     atom   16 type  2   force =  -0.17815331E-04  0.18382624E-05 -0.10994786E-05

     Total force =     0.151682     Total SCF correction =     0.000039


     entering subroutine stress ...

          total   stress  (Ry/bohr**3)                   (kbar)     P=    3.91
   0.0001007038  -0.0000355380  -0.0000070481         14.81     -5.23     -1.04
  -0.0000355380  -0.0001163367   0.0000822718         -5.23    -17.11     12.10
  -0.0000070481   0.0000822718   0.0000953915         -1.04     12.10     14.03

     kinetic stress (kbar)   8779.75    -12.99     12.50
                              -12.99   8742.55     -7.98
                               12.50     -7.98   8781.61

     local   stress (kbar)    357.68    456.60    971.45
                              456.60  -1946.50   -757.71
                              971.45   -757.71     28.84

     nonloc. stress (kbar)   2796.07      1.36     -6.43
                                1.36   2806.96      8.98
                               -6.43      8.98   2794.35

     hartree stress (kbar)  22687.58   -239.68   -374.44
                             -239.68  23685.90    218.77
                             -374.44    218.77  22909.67

     exc-cor stress (kbar)  16520.11      0.06     -0.30
                                0.06  16520.61      0.40
                               -0.30      0.40  16519.97

     corecor stress (kbar) -24806.87     -0.26      0.44
                               -0.26 -24807.55     -0.65
                                0.44     -0.65 -24806.89

     ewald   stress (kbar) -26319.49   -210.31   -604.26
                             -210.31 -25019.07    550.29
                             -604.26    550.29 -26213.52

     hubbard stress (kbar)      0.00      0.00      0.00
                                0.00      0.00      0.00
                                0.00      0.00      0.00

     london  stress (kbar)      0.00      0.00      0.00
                                0.00      0.00      0.00
                                0.00      0.00      0.00

     XDM     stress (kbar)      0.00      0.00      0.00
                                0.00      0.00      0.00
                                0.00      0.00      0.00

     dft-nl  stress (kbar)      0.00      0.00      0.00
                                0.00      0.00      0.00
                                0.00      0.00      0.00



     Writing output data file Si_diamond.scf.in.super.222.replace3878.save

     init_run     :     18.57s CPU     17.50s WALL (       1 calls)
     electrons    :    835.38s CPU    760.13s WALL (       1 calls)
     forces       :      8.33s CPU      6.63s WALL (       1 calls)
     stress       :     13.60s CPU     13.31s WALL (       1 calls)

     Called by init_run:
     wfcinit      :     16.84s CPU     15.76s WALL (       1 calls)
     potinit      :      0.49s CPU      0.49s WALL (       1 calls)

     Called by electrons:
     c_bands      :    758.11s CPU    686.58s WALL (      13 calls)
     sum_band     :     72.63s CPU     68.81s WALL (      13 calls)
     v_of_rho     :      0.53s CPU      0.58s WALL (      13 calls)
     v_h          :      0.04s CPU      0.03s WALL (      13 calls)
     v_xc         :      0.56s CPU      0.63s WALL (      15 calls)
     newd         :      3.66s CPU      3.68s WALL (      13 calls)
     mix_rho      :      0.66s CPU      0.69s WALL (      13 calls)

     Called by c_bands:
     init_us_2    :      2.60s CPU      2.65s WALL (    1044 calls)
     cegterg      :    745.84s CPU    673.88s WALL (     468 calls)

     Called by sum_band:
     sum_band:bec :      1.18s CPU      1.19s WALL (     468 calls)
     addusdens    :      3.96s CPU      3.97s WALL (      13 calls)

     Called by *egterg:
     h_psi        :    289.14s CPU    269.12s WALL (    1759 calls)
     s_psi        :     43.11s CPU     28.19s WALL (    1759 calls)
     g_psi        :      0.61s CPU      0.58s WALL (    1255 calls)
     cdiaghg      :    272.92s CPU    249.07s WALL (    1687 calls)
     cegterg:over :     67.62s CPU     58.65s WALL (    1255 calls)
     cegterg:upda :     25.52s CPU     17.67s WALL (    1255 calls)
     cegterg:last :     15.63s CPU     10.29s WALL (     468 calls)

     Called by h_psi:
     h_psi:vloc   :    185.35s CPU    193.70s WALL (    1759 calls)
     h_psi:vnl    :    103.27s CPU     74.91s WALL (    1759 calls)
     add_vuspsi   :     46.14s CPU     30.30s WALL (    1759 calls)

     General routines
     calbec       :     83.98s CPU     65.49s WALL (    2299 calls)
     fft          :      0.84s CPU      0.87s WALL (     233 calls)
     ffts         :      0.52s CPU      0.52s WALL (     369 calls)
     fftw         :    214.52s CPU    223.76s WALL (  313382 calls)
     interpolate  :      0.13s CPU      0.13s WALL (      26 calls)

     Parallel routines
     fft_scatter  :     98.23s CPU    104.48s WALL (  313984 calls)

     PWSCF        : 14m38.88s CPU    13m21.40s WALL


   This run was terminated on:  20:32:38   4Apr2018            

=------------------------------------------------------------------------------=
   JOB DONE.
=------------------------------------------------------------------------------=
