
     Program PWSCF v.5.1 starts on 28Sep2017 at 14:35:39 

     This program is part of the open-source Quantum ESPRESSO suite
     for quantum simulation of materials; please cite
         "P. Giannozzi et al., J. Phys.:Condens. Matter 21 395502 (2009);
          URL http://www.quantum-espresso.org", 
     in publications or presentations arising from this work. More details at
     http://www.quantum-espresso.org/quote

     Parallel version (MPI), running on     8 processors
     R & G space division:  proc/nbgrp/npool/nimage =       8
     Reading input from /tmp/Si_diamond.scf.in.super.222.largdist.b.03.18840/Si_diamond.scf.in.super.222.largdist.b.03.t
Warning: card &IONS ignored
Warning: card   ION_DYNAMICS='BFGS', ignored
Warning: card / ignored
Warning: card &CELL ignored
Warning: card  CELL_DYNAMICS = 'BFGS' ignored
Warning: card / ignored
     Message from routine read_cards :
     DEPRECATED: no units specified in CELL_PARAMETERS card

     Current dimensions of program PWSCF are:
     Max number of different atomic species (ntypx) = 10
     Max number of k-points (npk) =  40000
     Max angular momentum in pseudopotentials (lmaxx) =  3
 kfg - two_fermi_energies  F

     Subspace diagonalization in iterative solution of the eigenvalue problem:
     a serial algorithm will be used


     Parallelization info
     --------------------
     sticks:   dense  smooth     PW     G-vecs:    dense   smooth      PW
     Min         363     256     71                12921     7555    1109
     Max         364     257     73                12925     7568    1110
     Sum        2905    2053    571               103379    60495    8873



     bravais-lattice index     =            0
     lattice parameter (alat)  =    14.515605984  a.u.
     unit-cell volume          =    2162.6713 (a.u.)^3
     number of atoms/cell      =           16
     number of atomic types    =            1
     number of electrons       =        64.00
     number of Kohn-Sham states=           38
     kinetic-energy cutoff     =      35.0000  Ry
     charge density cutoff     =     200.0000  Ry
     convergence threshold     =      1.0E-09
     mixing beta               =       0.3000
     number of iterations used =            8  local-TF  mixing
     Exchange-correlation      = SLA  PW   PSX  PSC ( 1  4 10  8 0)
     A smooth kinetic-energy cutoff is imposed at      34.5000 Ry
     height of the smooth step-function =             800.0000 Ry
     width of the smooth step-function  =               1.0000 Ry


     celldm(1)=  14.515606  celldm(2)=   0.000000  celldm(3)=   0.000000
     celldm(4)=   0.000000  celldm(5)=   0.000000  celldm(6)=   0.000000

     crystal axes: (cart. coord. in units of alat)
               a(1) = (   0.000000000000   0.707106781187   0.707106781187 )  
               a(2) = (   0.707106781187   0.000000000000   0.707106781187 )  
               a(3) = (   0.707106781187   0.707106781187  -0.000000000000 )  

     reciprocal axes: (cart. coord. in units 2 pi/alat)
               b(1) = ( -0.707107  0.707107  0.707107 )  
               b(2) = (  0.707107 -0.707107  0.707107 )  
               b(3) = (  0.707107  0.707107 -0.707107 )  


     PseudoPot. # 1 for Si read from file:
     /users/kfg/psuedo/gbrv_1.5/si.pbesol.UPF
     MD5 check sum: ef58ba74faed4df802eb8a9742fc00a8
     Pseudo is Ultrasoft + core correction, Zval =  4.0
     Generated by new atomic code, or converted to UPF format
     Using radial grid of  899 points,  6 beta functions with: 
                l(1) =   0
                l(2) =   0
                l(3) =   1
                l(4) =   1
                l(5) =   2
                l(6) =   2
     Q(r) pseudized with  8 coefficients,  rinner =    0.900   0.900   0.900
                                                       0.900   0.900

     atomic species   valence    mass     pseudopotential
        Si             4.00    28.08550     Si( 1.00)

     No symmetry found


                                    s                        frac. trans.

      isym =  1     identity                                     

 cryst.   s( 1) = (     1          0          0      )
                  (     0          1          0      )
                  (     0          0          1      )

 cart.    s( 1) = (  1.0000000  0.0000000  0.0000000 )
                  (  0.0000000  1.0000000  0.0000000 )
                  (  0.0000000  0.0000000  1.0000000 )


     point group C_1 (1)    
     there are  1 classes
     the character table:

       E    
A      1.00

     the symmetry operations in each class:
     E        1

   Cartesian axes

     site n.     atom                  positions (alat units)
         1           Si  tau(   1) = (   -0.00484804769   -0.02707244948    0.03176329876  )
         2           Si  tau(   2) = (    0.14117449062    0.15052826632    0.16220977770  )
         3           Si  tau(   3) = (    0.33867574156    0.37960872153   -0.04338991765  )
         4           Si  tau(   4) = (    0.51686595019    0.49019381699    0.20783469500  )
         5           Si  tau(   5) = (    0.31304581137   -0.04598754561    0.39642554506  )
         6           Si  tau(   6) = (    0.49252890171    0.20898111193    0.55803763331  )
         7           Si  tau(   7) = (    0.71920182184    0.39706667726    0.36552144219  )
         8           Si  tau(   8) = (    0.88463264821    0.54466806698    0.51606505067  )
         9           Si  tau(   9) = (    0.03373558885    0.31465302805    0.35183556801  )
        10           Si  tau(  10) = (    0.18468325340    0.56054786031    0.54956724193  )
        11           Si  tau(  11) = (    0.30999858978    0.70451569299    0.39401913431  )
        12           Si  tau(  12) = (    0.55004014613    0.86518825587    0.48429314364  )
        13           Si  tau(  13) = (    0.39426321252    0.31593172868    0.71739169974  )
        14           Si  tau(  14) = (    0.54968655948    0.56985167688    0.84656210103  )
        15           Si  tau(  15) = (    0.69569374071    0.70637503687    0.70413990628  )
        16           Si  tau(  16) = (    0.88325757782    0.84890121264    0.91300402550  )

   Crystallographic axes

     site n.     atom                  positions (cryst. coord.)
         1           Si  tau(   1) = (    0.00674501874    0.03817506916   -0.04503124396  )
         2           Si  tau(   2) = (    0.12131375202    0.10808551556    0.09156536373  )
         3           Si  tau(   3) = (   -0.00173731729   -0.05962529272    0.53858511967  )
         4           Si  tau(   4) = (    0.12810127595    0.16582136845    0.56513746823  )
         5           Si  tau(   5) = (    0.02644026976    0.53419011254   -0.09147648046  )
         6           Si  tau(   6) = (    0.19409362973    0.59509075962    0.10145029304  )
         7           Si  tau(   7) = (    0.03067874525    0.48624663563    0.53085833490  )
         8           Si  tau(   8) = (    0.12452183611    0.60530435762    0.64575513120  )
         9           Si  tau(   9) = (    0.44742394221    0.05014668979   -0.00243736250  )
        10           Si  tau(  10) = (    0.65437913585    0.12282631113    0.13835525057  )
        11           Si  tau(  11) = (    0.55757932077   -0.00035211719    0.43875632717  )
        12           Si  tau(  12) = (    0.56529033143    0.11960360047    0.65827063403  )
        13           Si  tau(  13) = (    0.45188381225    0.56266125905   -0.00508887677  )
        14           Si  tau(  14) = (    0.61286869359    0.58435091108    0.19302327639  )
        15           Si  tau(  15) = (    0.50545491959    0.49034928569    0.49351023768  )
        16           Si  tau(  16) = (    0.62129771888    0.66988495648    0.57922988915  )

     number of k points=    36  gaussian smearing, width (Ry)=  0.0150
                       cart. coord. in units 2pi/alat
        k(    1) = (   0.0000000   0.0000000   0.0000000), wk =   0.0312500
        k(    2) = (   0.1767767   0.1767767  -0.1767767), wk =   0.0625000
        k(    3) = (  -0.3535534  -0.3535534   0.3535534), wk =   0.0312500
        k(    4) = (   0.3535534   0.0000000   0.0000000), wk =   0.0625000
        k(    5) = (  -0.1767767  -0.5303301   0.5303301), wk =   0.0625000
        k(    6) = (   0.0000000  -0.3535534   0.3535534), wk =   0.0625000
        k(    7) = (  -0.7071068   0.0000000   0.0000000), wk =   0.0312500
        k(    8) = (  -0.7071068   0.3535534   0.0000000), wk =   0.0625000
        k(    9) = (  -0.1767767  -0.1767767  -0.1767767), wk =   0.0625000
        k(   10) = (  -0.1767767   0.1767767   0.1767767), wk =   0.0625000
        k(   11) = (   0.1767767  -0.1767767   0.1767767), wk =   0.0625000
        k(   12) = (   0.3535534   0.3535534   0.3535534), wk =   0.0312500
        k(   13) = (   0.3535534  -0.3535534  -0.3535534), wk =   0.0312500
        k(   14) = (  -0.3535534   0.3535534  -0.3535534), wk =   0.0312500
        k(   15) = (   0.0000000   0.3535534   0.0000000), wk =   0.0625000
        k(   16) = (   0.0000000   0.0000000   0.3535534), wk =   0.0625000
        k(   17) = (   0.1767767   0.5303301   0.5303301), wk =   0.0625000
        k(   18) = (   0.1767767  -0.5303301  -0.5303301), wk =   0.0625000
        k(   19) = (  -0.1767767   0.5303301  -0.5303301), wk =   0.0625000
        k(   20) = (  -0.5303301  -0.1767767  -0.5303301), wk =   0.0625000
        k(   21) = (   0.5303301   0.1767767  -0.5303301), wk =   0.0625000
        k(   22) = (  -0.5303301   0.1767767   0.5303301), wk =   0.0625000
        k(   23) = (   0.5303301  -0.1767767   0.5303301), wk =   0.0625000
        k(   24) = (   0.5303301   0.5303301  -0.1767767), wk =   0.0625000
        k(   25) = (  -0.5303301   0.5303301   0.1767767), wk =   0.0625000
        k(   26) = (   0.5303301  -0.5303301   0.1767767), wk =   0.0625000
        k(   27) = (  -0.5303301  -0.5303301  -0.1767767), wk =   0.0625000
        k(   28) = (   0.0000000   0.3535534   0.3535534), wk =   0.0625000
        k(   29) = (  -0.3535534   0.0000000  -0.3535534), wk =   0.0625000
        k(   30) = (   0.3535534   0.0000000  -0.3535534), wk =   0.0625000
        k(   31) = (   0.3535534   0.3535534   0.0000000), wk =   0.0625000
        k(   32) = (  -0.3535534   0.3535534   0.0000000), wk =   0.0625000
        k(   33) = (   0.0000000  -0.7071068   0.0000000), wk =   0.0312500
        k(   34) = (   0.0000000   0.0000000  -0.7071068), wk =   0.0312500
        k(   35) = (   0.3535534  -0.7071068   0.0000000), wk =   0.0625000
        k(   36) = (   0.7071068   0.0000000   0.3535534), wk =   0.0625000

                       cryst. coord.
        k(    1) = (   0.0000000   0.0000000   0.0000000), wk =   0.0312500
        k(    2) = (   0.0000000   0.0000000   0.2500000), wk =   0.0625000
        k(    3) = (   0.0000000   0.0000000  -0.5000000), wk =   0.0312500
        k(    4) = (   0.0000000   0.2500000   0.2500000), wk =   0.0625000
        k(    5) = (   0.0000000   0.2500000  -0.5000000), wk =   0.0625000
        k(    6) = (   0.0000000   0.2500000  -0.2500000), wk =   0.0625000
        k(    7) = (   0.0000000  -0.5000000  -0.5000000), wk =   0.0312500
        k(    8) = (   0.2500000  -0.5000000  -0.2500000), wk =   0.0625000
        k(    9) = (  -0.2500000  -0.2500000  -0.2500000), wk =   0.0625000
        k(   10) = (   0.2500000   0.0000000   0.0000000), wk =   0.0625000
        k(   11) = (   0.0000000   0.2500000   0.0000000), wk =   0.0625000
        k(   12) = (   0.5000000   0.5000000   0.5000000), wk =   0.0312500
        k(   13) = (  -0.5000000   0.0000000   0.0000000), wk =   0.0312500
        k(   14) = (   0.0000000  -0.5000000   0.0000000), wk =   0.0312500
        k(   15) = (   0.2500000   0.0000000   0.2500000), wk =   0.0625000
        k(   16) = (   0.2500000   0.2500000   0.0000000), wk =   0.0625000
        k(   17) = (   0.7500000   0.5000000   0.5000000), wk =   0.0625000
        k(   18) = (  -0.7500000  -0.2500000  -0.2500000), wk =   0.0625000
        k(   19) = (   0.0000000  -0.5000000   0.2500000), wk =   0.0625000
        k(   20) = (  -0.5000000  -0.7500000  -0.5000000), wk =   0.0625000
        k(   21) = (  -0.2500000   0.0000000   0.5000000), wk =   0.0625000
        k(   22) = (   0.5000000   0.0000000  -0.2500000), wk =   0.0625000
        k(   23) = (   0.2500000   0.7500000   0.2500000), wk =   0.0625000
        k(   24) = (   0.2500000   0.2500000   0.7500000), wk =   0.0625000
        k(   25) = (   0.5000000  -0.2500000   0.0000000), wk =   0.0625000
        k(   26) = (  -0.2500000   0.5000000   0.0000000), wk =   0.0625000
        k(   27) = (  -0.5000000  -0.5000000  -0.7500000), wk =   0.0625000
        k(   28) = (   0.5000000   0.2500000   0.2500000), wk =   0.0625000
        k(   29) = (  -0.2500000  -0.5000000  -0.2500000), wk =   0.0625000
        k(   30) = (  -0.2500000   0.0000000   0.2500000), wk =   0.0625000
        k(   31) = (   0.2500000   0.2500000   0.5000000), wk =   0.0625000
        k(   32) = (   0.2500000  -0.2500000   0.0000000), wk =   0.0625000
        k(   33) = (  -0.5000000   0.0000000  -0.5000000), wk =   0.0312500
        k(   34) = (  -0.5000000  -0.5000000   0.0000000), wk =   0.0312500
        k(   35) = (  -0.5000000   0.2500000  -0.2500000), wk =   0.0625000
        k(   36) = (   0.2500000   0.7500000   0.5000000), wk =   0.0625000

     Dense  grid:   103379 G-vectors     FFT dimensions: (  72,  72,  72)

     Smooth grid:    60495 G-vectors     FFT dimensions: (  60,  60,  60)

     Largest allocated arrays     est. size (Mb)     dimensions
        Kohn-Sham Wavefunctions         0.56 Mb     (     974,   38)
        NL pseudopotentials             4.28 Mb     (     974,  288)
        Each V/rho on FFT grid          0.71 Mb     (   46656)
        Each G-vector array             0.10 Mb     (   12923)
        G-vector shells                 0.01 Mb     (     706)
     Largest temporary arrays     est. size (Mb)     dimensions
        Auxiliary wavefunctions         2.26 Mb     (     974,  152)
        Each subspace H/S matrix        0.35 Mb     (     152,  152)
        Each <psi_i|beta_j> matrix      0.17 Mb     (     288,   38)
        Arrays for rho mixing           5.70 Mb     (   46656,    8)

     Initial potential from superposition of free atoms

     starting charge   63.98963, renormalised to   64.00000
     Starting wfc are   64 randomized atomic wfcs

     total cpu time spent up to now is       17.5 secs

     per-process dynamical memory:    37.0 Mb

     Self-consistent Calculation

     iteration #  1     ecut=    35.00 Ry     beta=0.30
     Davidson diagonalization with overlap
     ethr =  1.00E-02,  avg # of iterations =  3.0

     total cpu time spent up to now is       60.1 secs

     total energy              =    -151.33916650 Ry
     Harris-Foulkes estimate   =    -151.47610908 Ry
     estimated scf accuracy    <       0.94156410 Ry

     iteration #  2     ecut=    35.00 Ry     beta=0.30
     Davidson diagonalization with overlap
     ethr =  1.47E-03,  avg # of iterations =  1.1

     negative rho (up, down):  2.634E-05 0.000E+00

     total cpu time spent up to now is       87.6 secs

     total energy              =    -151.08845816 Ry
     Harris-Foulkes estimate   =    -151.35978714 Ry
     estimated scf accuracy    <       0.56292271 Ry

     iteration #  3     ecut=    35.00 Ry     beta=0.30
     Davidson diagonalization with overlap
     ethr =  8.80E-04,  avg # of iterations =  2.1

     total cpu time spent up to now is      125.0 secs

     total energy              =    -151.19719498 Ry
     Harris-Foulkes estimate   =    -151.20410912 Ry
     estimated scf accuracy    <       0.02997404 Ry

     iteration #  4     ecut=    35.00 Ry     beta=0.30
     Davidson diagonalization with overlap
     ethr =  4.68E-05,  avg # of iterations =  7.0

     total cpu time spent up to now is      175.8 secs

     total energy              =    -151.19705518 Ry
     Harris-Foulkes estimate   =    -151.20064869 Ry
     estimated scf accuracy    <       0.01136868 Ry

     iteration #  5     ecut=    35.00 Ry     beta=0.30
     Davidson diagonalization with overlap
     ethr =  1.78E-05,  avg # of iterations =  2.0

     total cpu time spent up to now is      209.6 secs

     total energy              =    -151.19868729 Ry
     Harris-Foulkes estimate   =    -151.19872999 Ry
     estimated scf accuracy    <       0.00034018 Ry

     iteration #  6     ecut=    35.00 Ry     beta=0.30
     Davidson diagonalization with overlap
     ethr =  5.32E-07,  avg # of iterations =  4.8

     total cpu time spent up to now is      262.5 secs

     total energy              =    -151.19879312 Ry
     Harris-Foulkes estimate   =    -151.19883453 Ry
     estimated scf accuracy    <       0.00025619 Ry

     iteration #  7     ecut=    35.00 Ry     beta=0.30
     Davidson diagonalization with overlap
     ethr =  4.00E-07,  avg # of iterations =  2.0

     total cpu time spent up to now is      292.5 secs

     total energy              =    -151.19881914 Ry
     Harris-Foulkes estimate   =    -151.19881855 Ry
     estimated scf accuracy    <       0.00001856 Ry

     iteration #  8     ecut=    35.00 Ry     beta=0.30
     Davidson diagonalization with overlap
     ethr =  2.90E-08,  avg # of iterations =  3.0

     total cpu time spent up to now is      322.7 secs

     total energy              =    -151.19882279 Ry
     Harris-Foulkes estimate   =    -151.19882316 Ry
     estimated scf accuracy    <       0.00000394 Ry

     iteration #  9     ecut=    35.00 Ry     beta=0.30
     Davidson diagonalization with overlap
     ethr =  6.16E-09,  avg # of iterations =  1.2

     total cpu time spent up to now is      345.5 secs

     total energy              =    -151.19882284 Ry
     Harris-Foulkes estimate   =    -151.19882302 Ry
     estimated scf accuracy    <       0.00000161 Ry

     iteration # 10     ecut=    35.00 Ry     beta=0.30
     Davidson diagonalization with overlap
     ethr =  2.52E-09,  avg # of iterations =  2.5

     total cpu time spent up to now is      373.9 secs

     total energy              =    -151.19882306 Ry
     Harris-Foulkes estimate   =    -151.19882314 Ry
     estimated scf accuracy    <       0.00000031 Ry

     iteration # 11     ecut=    35.00 Ry     beta=0.30
     Davidson diagonalization with overlap
     ethr =  4.81E-10,  avg # of iterations =  2.6

     total cpu time spent up to now is      401.7 secs

     total energy              =    -151.19882310 Ry
     Harris-Foulkes estimate   =    -151.19882310 Ry
     estimated scf accuracy    <       0.00000005 Ry

     iteration # 12     ecut=    35.00 Ry     beta=0.30
     Davidson diagonalization with overlap
     ethr =  8.51E-11,  avg # of iterations =  2.3

     total cpu time spent up to now is      428.8 secs

     total energy              =    -151.19882311 Ry
     Harris-Foulkes estimate   =    -151.19882311 Ry
     estimated scf accuracy    <          4.5E-09 Ry

     iteration # 13     ecut=    35.00 Ry     beta=0.30
     Davidson diagonalization with overlap
     ethr =  7.02E-12,  avg # of iterations =  3.4

     total cpu time spent up to now is      463.4 secs

     total energy              =    -151.19882311 Ry
     Harris-Foulkes estimate   =    -151.19882311 Ry
     estimated scf accuracy    <          2.1E-09 Ry

     iteration # 14     ecut=    35.00 Ry     beta=0.30
     Davidson diagonalization with overlap
     ethr =  3.20E-12,  avg # of iterations =  1.5

     total cpu time spent up to now is      486.4 secs

     End of self-consistent calculation

          k = 0.0000 0.0000 0.0000 (  7631 PWs)   bands (ev):

    -6.5883  -5.1765  -4.1984  -4.1660  -3.9247  -3.2599  -2.8188  -2.1051
    -2.0567  -1.4173  -1.2646  -0.8805  -0.6895  -0.0284   0.2614   2.4277
     2.5226   2.7679   2.9872   3.2027   3.2903   3.6461   4.0461   4.2717
     4.3650   4.9557   5.1440   5.3792   5.6344   5.8184   5.8430   5.9779
     6.2761   6.3229   6.5043   6.7147   7.0155   7.0760

     occupation numbers 
     1.0000   1.0000   1.0000   1.0000   1.0000   1.0000   1.0000   1.0000
     1.0000   1.0000   1.0000   1.0000   1.0000   1.0000   1.0000   1.0000
     1.0000   1.0000   1.0000   1.0000   1.0000   1.0000   1.0000   1.0000
     1.0000   1.0000   1.0000   1.0000   1.0000   0.9971   0.9952   0.9510
     0.3402   0.2310   0.0231   0.0003   0.0000   0.0000

          k = 0.1768 0.1768-0.1768 (  7564 PWs)   bands (ev):

    -6.4520  -5.2547  -4.4761  -4.2356  -3.9786  -3.4113  -2.7657  -2.3456
    -1.9616  -1.2018  -0.9651  -0.4772  -0.0577   0.3900   0.7444   1.9008
     1.9516   2.1529   2.8299   2.9232   3.1263   3.4960   3.7800   3.9118
     4.2693   4.5110   4.7182   4.8670   5.0295   5.3561   5.8979   6.0642
     6.2926   6.6352   6.8340   7.0864   7.2053   7.3982

     occupation numbers 
     1.0000   1.0000   1.0000   1.0000   1.0000   1.0000   1.0000   1.0000
     1.0000   1.0000   1.0000   1.0000   1.0000   1.0000   1.0000   1.0000
     1.0000   1.0000   1.0000   1.0000   1.0000   1.0000   1.0000   1.0000
     1.0000   1.0000   1.0000   1.0000   1.0000   1.0000   0.9864   0.8547
     0.2995   0.0019   0.0000   0.0000   0.0000   0.0000

          k =-0.3536-0.3536 0.3536 (  7570 PWs)   bands (ev):

    -6.2493  -5.4473  -4.6923  -4.2732  -3.9781  -3.5761  -2.8061  -2.3947
    -1.9179  -0.8852  -0.6805   0.0542   0.5233   1.0605   1.3561   1.4247
     1.5691   2.0302   2.0953   2.3482   2.8113   3.0586   3.4314   3.7764
     3.8862   3.9911   4.3424   4.4964   4.7588   5.1363   5.8608   6.2892
     6.5047   6.7705   6.9912   7.0903   7.4143   7.7504

     occupation numbers 
     1.0000   1.0000   1.0000   1.0000   1.0000   1.0000   1.0000   1.0000
     1.0000   1.0000   1.0000   1.0000   1.0000   1.0000   1.0000   1.0000
     1.0000   1.0000   1.0000   1.0000   1.0000   1.0000   1.0000   1.0000
     1.0000   1.0000   1.0000   1.0000   1.0000   1.0000   0.9932   0.3076
     0.0230   0.0001   0.0000   0.0000   0.0000   0.0000

          k = 0.3536 0.0000 0.0000 (  7563 PWs)   bands (ev):

    -6.4047  -5.2459  -4.4200  -4.2966  -4.2008  -3.6494  -2.5479  -2.1539
    -1.7476  -1.3057  -0.8458  -0.4294  -0.2010   0.4478   0.9850   1.8343
     2.1169   2.2616   2.5529   2.8703   2.9824   3.2265   3.5138   3.7489
     4.0119   4.4073   4.6277   4.8502   5.1682   5.5843   5.6484   5.9105
     6.4360   6.6124   6.8307   7.1005   7.3605   7.5199

     occupation numbers 
     1.0000   1.0000   1.0000   1.0000   1.0000   1.0000   1.0000   1.0000
     1.0000   1.0000   1.0000   1.0000   1.0000   1.0000   1.0000   1.0000
     1.0000   1.0000   1.0000   1.0000   1.0000   1.0000   1.0000   1.0000
     1.0000   1.0000   1.0000   1.0000   1.0000   1.0000   1.0000   0.9831
     0.0643   0.0031   0.0000   0.0000   0.0000   0.0000

          k =-0.1768-0.5303 0.5303 (  7554 PWs)   bands (ev):

    -6.2032  -5.3072  -4.8652  -4.4412  -4.1511  -3.5396  -2.6779  -2.2992
    -1.5704  -1.0610  -0.6107   0.1052   0.5840   1.1020   1.2626   1.4743
     1.7775   1.9904   2.1927   2.5028   2.7143   2.7535   3.1468   3.4238
     3.7744   3.9370   4.1763   4.3777   4.7656   4.9059   5.5076   5.9094
     6.8408   7.0280   7.3153   7.6006   7.8004   8.0355

     occupation numbers 
     1.0000   1.0000   1.0000   1.0000   1.0000   1.0000   1.0000   1.0000
     1.0000   1.0000   1.0000   1.0000   1.0000   1.0000   1.0000   1.0000
     1.0000   1.0000   1.0000   1.0000   1.0000   1.0000   1.0000   1.0000
     1.0000   1.0000   1.0000   1.0000   1.0000   1.0000   1.0000   0.9834
     0.0000   0.0000   0.0000   0.0000   0.0000   0.0000

          k = 0.0000-0.3536 0.3536 (  7592 PWs)   bands (ev):

    -6.2649  -5.3464  -4.7970  -4.3742  -3.9027  -3.5375  -2.9623  -2.1602
    -1.7168  -0.9736  -0.7222  -0.1690   0.3681   0.7851   1.2929   1.4273
     1.8517   2.1386   2.2803   2.6366   2.8837   3.0343   3.4537   3.6600
     3.8757   3.9880   4.2882   4.4656   4.7960   4.9976   5.4418   6.1119
     6.4922   7.0447   7.1774   7.4902   7.5448   7.9113

     occupation numbers 
     1.0000   1.0000   1.0000   1.0000   1.0000   1.0000   1.0000   1.0000
     1.0000   1.0000   1.0000   1.0000   1.0000   1.0000   1.0000   1.0000
     1.0000   1.0000   1.0000   1.0000   1.0000   1.0000   1.0000   1.0000
     1.0000   1.0000   1.0000   1.0000   1.0000   1.0000   1.0000   0.7661
     0.0281   0.0000   0.0000   0.0000   0.0000   0.0000

          k =-0.7071 0.0000 0.0000 (  7528 PWs)   bands (ev):

    -6.1351  -5.2697  -4.9269  -4.4140  -4.3435  -3.8090  -2.3327  -2.1295
    -1.6111  -1.1654  -0.1163   0.3517   0.5576   0.6994   1.3267   1.6625
     1.7528   1.8974   2.0827   2.1851   2.4550   2.6969   3.0286   3.3409
     3.8814   3.9587   4.0988   4.5418   4.6090   5.2837   5.4024   5.6536
     6.3930   6.6791   7.4077   7.6928   7.8142   8.1154

     occupation numbers 
     1.0000   1.0000   1.0000   1.0000   1.0000   1.0000   1.0000   1.0000
     1.0000   1.0000   1.0000   1.0000   1.0000   1.0000   1.0000   1.0000
     1.0000   1.0000   1.0000   1.0000   1.0000   1.0000   1.0000   1.0000
     1.0000   1.0000   1.0000   1.0000   1.0000   1.0000   1.0000   1.0000
     0.1110   0.0007   0.0000   0.0000   0.0000   0.0000

          k =-0.7071 0.3536 0.0000 (  7564 PWs)   bands (ev):

    -6.1257  -5.2532  -4.9818  -4.6528  -4.1142  -3.5240  -2.5848  -2.4308
    -1.2783  -1.0833  -0.3298   0.0405   0.6161   1.0145   1.4367   1.5817
     1.7582   1.9971   2.0989   2.4288   2.6737   2.7952   2.9890   3.3672
     3.5093   3.7925   4.0594   4.2039   4.6303   4.8215   5.2031   5.5565
     7.2040   7.3226   7.6432   7.8450   8.1367   8.2628

     occupation numbers 
     1.0000   1.0000   1.0000   1.0000   1.0000   1.0000   1.0000   1.0000
     1.0000   1.0000   1.0000   1.0000   1.0000   1.0000   1.0000   1.0000
     1.0000   1.0000   1.0000   1.0000   1.0000   1.0000   1.0000   1.0000
     1.0000   1.0000   1.0000   1.0000   1.0000   1.0000   1.0000   1.0000
     0.0000   0.0000   0.0000   0.0000   0.0000   0.0000

          k =-0.1768-0.1768-0.1768 (  7564 PWs)   bands (ev):

    -6.4515  -5.2837  -4.3906  -4.2159  -3.9671  -3.4314  -3.1239  -2.0353
    -1.8448  -1.1478  -0.9773  -0.4987  -0.2800   0.3528   0.6217   1.8016
     2.0934   2.6724   2.7826   3.0905   3.1917   3.3368   3.5809   3.8021
     3.9546   4.4273   4.7438   5.1051   5.1964   5.4909   5.9158   6.1539
     6.2138   6.4882   6.8353   6.9725   7.1907   7.2629

     occupation numbers 
     1.0000   1.0000   1.0000   1.0000   1.0000   1.0000   1.0000   1.0000
     1.0000   1.0000   1.0000   1.0000   1.0000   1.0000   1.0000   1.0000
     1.0000   1.0000   1.0000   1.0000   1.0000   1.0000   1.0000   1.0000
     1.0000   1.0000   1.0000   1.0000   1.0000   1.0000   0.9815   0.6683
     0.5081   0.0299   0.0000   0.0000   0.0000   0.0000

          k =-0.1768 0.1768 0.1768 (  7564 PWs)   bands (ev):

    -6.4532  -5.3038  -4.4350  -4.1277  -3.9468  -3.4521  -2.9296  -2.4111
    -1.6984  -1.2596  -1.0321  -0.5920  -0.1600   0.5189   0.5929   1.9921
     2.3596   2.5572   2.7406   2.8988   3.1273   3.2743   3.7370   3.8653
     4.1220   4.2369   4.7184   4.9448   5.1308   5.3042   5.8823   6.0289
     6.2490   6.5960   6.7799   6.9770   7.1523   7.3921

     occupation numbers 
     1.0000   1.0000   1.0000   1.0000   1.0000   1.0000   1.0000   1.0000
     1.0000   1.0000   1.0000   1.0000   1.0000   1.0000   1.0000   1.0000
     1.0000   1.0000   1.0000   1.0000   1.0000   1.0000   1.0000   1.0000
     1.0000   1.0000   1.0000   1.0000   1.0000   1.0000   0.9898   0.9034
     0.4114   0.0043   0.0000   0.0000   0.0000   0.0000

          k = 0.1768-0.1768 0.1768 (  7564 PWs)   bands (ev):

    -6.4454  -5.2967  -4.4775  -4.1402  -3.9460  -3.4841  -3.0248  -2.1154
    -1.6915  -1.1677  -0.9503  -0.6228  -0.3970   0.2285   0.8006   1.7931
     2.2794   2.5598   2.7377   2.9323   3.1375   3.3697   3.7289   3.9685
     4.0975   4.3857   4.6161   5.1079   5.3434   5.6514   5.7904   5.9656
     6.2402   6.4206   6.6002   6.9693   7.1447   7.4014

     occupation numbers 
     1.0000   1.0000   1.0000   1.0000   1.0000   1.0000   1.0000   1.0000
     1.0000   1.0000   1.0000   1.0000   1.0000   1.0000   1.0000   1.0000
     1.0000   1.0000   1.0000   1.0000   1.0000   1.0000   1.0000   1.0000
     1.0000   1.0000   1.0000   1.0000   1.0000   1.0000   0.9984   0.9591
     0.4353   0.0789   0.0039   0.0000   0.0000   0.0000

          k = 0.3536 0.3536 0.3536 (  7570 PWs)   bands (ev):

    -6.2449  -5.5015  -4.5615  -4.2467  -3.9604  -3.5401  -3.3305  -2.1242
    -1.6430  -0.7491  -0.6375  -0.2150   0.2525   0.7039   1.0585   1.7394
     1.8803   2.2676   2.2996   2.5223   2.6843   3.2317   3.3837   3.6185
     3.7325   3.9610   4.2326   4.3006   5.2463   5.3650   5.9889   6.1604
     6.1767   6.5422   6.8883   7.0658   7.3178   7.5557

     occupation numbers 
     1.0000   1.0000   1.0000   1.0000   1.0000   1.0000   1.0000   1.0000
     1.0000   1.0000   1.0000   1.0000   1.0000   1.0000   1.0000   1.0000
     1.0000   1.0000   1.0000   1.0000   1.0000   1.0000   1.0000   1.0000
     1.0000   1.0000   1.0000   1.0000   1.0000   1.0000   0.9428   0.6518
     0.6092   0.0120   0.0000   0.0000   0.0000   0.0000

          k = 0.3536-0.3536-0.3536 (  7570 PWs)   bands (ev):

    -6.2453  -5.5499  -4.5350  -4.0964  -4.0597  -3.4937  -3.1402  -2.5365
    -1.4359  -1.0140  -0.8402  -0.2017   0.3893   0.6261   1.5228   1.7672
     2.0676   2.3989   2.6016   2.6696   2.7999   2.9897   3.0577   3.3583
     3.6064   3.8453   4.1024   4.6352   4.7942   5.3297   5.7455   6.2181
     6.5021   6.5520   6.8627   7.0691   7.1933   7.2505

     occupation numbers 
     1.0000   1.0000   1.0000   1.0000   1.0000   1.0000   1.0000   1.0000
     1.0000   1.0000   1.0000   1.0000   1.0000   1.0000   1.0000   1.0000
     1.0000   1.0000   1.0000   1.0000   1.0000   1.0000   1.0000   1.0000
     1.0000   1.0000   1.0000   1.0000   1.0000   1.0000   0.9995   0.4960
     0.0240   0.0101   0.0000   0.0000   0.0000   0.0000

          k =-0.3536 0.3536-0.3536 (  7570 PWs)   bands (ev):

    -6.2194  -5.5457  -4.6522  -4.1781  -3.9296  -3.5785  -3.1954  -2.2443
    -1.3897  -0.9532  -0.3847  -0.2618  -0.1591   0.5441   1.3125   1.5124
     1.8614   2.0615   2.3879   2.7339   3.0397   3.4382   3.5056   3.6286
     3.6921   3.9157   4.1935   4.2317   5.2616   5.5844   5.6954   5.7834
     6.3347   6.4526   6.8782   7.1760   7.2960   7.5267

     occupation numbers 
     1.0000   1.0000   1.0000   1.0000   1.0000   1.0000   1.0000   1.0000
     1.0000   1.0000   1.0000   1.0000   1.0000   1.0000   1.0000   1.0000
     1.0000   1.0000   1.0000   1.0000   1.0000   1.0000   1.0000   1.0000
     1.0000   1.0000   1.0000   1.0000   1.0000   1.0000   0.9998   0.9987
     0.2068   0.0511   0.0000   0.0000   0.0000   0.0000

          k = 0.0000 0.3536 0.0000 (  7563 PWs)   bands (ev):

    -6.4104  -5.2795  -4.4960  -4.2721  -4.0315  -3.3004  -3.1278  -2.1310
    -1.7914  -1.2190  -0.9700  -0.4396  -0.0333   0.5084   0.9921   1.8787
     1.9735   2.5085   2.6563   2.7915   3.1277   3.3490   3.5963   3.7938
     3.8824   4.0837   4.6424   5.0092   5.1964   5.2766   5.4441   5.9513
     6.2896   6.3889   6.8789   6.9803   7.2969   7.4638

     occupation numbers 
     1.0000   1.0000   1.0000   1.0000   1.0000   1.0000   1.0000   1.0000
     1.0000   1.0000   1.0000   1.0000   1.0000   1.0000   1.0000   1.0000
     1.0000   1.0000   1.0000   1.0000   1.0000   1.0000   1.0000   1.0000
     1.0000   1.0000   1.0000   1.0000   1.0000   1.0000   1.0000   0.9670
     0.3068   0.1163   0.0000   0.0000   0.0000   0.0000

          k = 0.0000 0.0000 0.3536 (  7563 PWs)   bands (ev):

    -6.4052  -5.2572  -4.4440  -4.3395  -4.0440  -3.6690  -2.6968  -2.1260
    -1.7707  -1.3103  -0.6815  -0.5334  -0.0022   0.3939   0.8534   1.8846
     2.0342   2.2770   2.4538   2.7700   3.0446   3.3601   3.5965   3.7819
     3.9983   4.3052   4.5046   5.0656   5.3729   5.5320   5.6848   5.9684
     6.2899   6.6370   6.8066   6.9534   7.3498   7.4295

     occupation numbers 
     1.0000   1.0000   1.0000   1.0000   1.0000   1.0000   1.0000   1.0000
     1.0000   1.0000   1.0000   1.0000   1.0000   1.0000   1.0000   1.0000
     1.0000   1.0000   1.0000   1.0000   1.0000   1.0000   1.0000   1.0000
     1.0000   1.0000   1.0000   1.0000   1.0000   1.0000   0.9999   0.9573
     0.3059   0.0018   0.0000   0.0000   0.0000   0.0000

          k = 0.1768 0.5303 0.5303 (  7554 PWs)   bands (ev):

    -6.1986  -5.3810  -4.7306  -4.3977  -4.2128  -3.5983  -2.8911  -1.9494
    -1.6725  -1.0287  -0.4458   0.0498   0.3345   0.7885   1.3588   1.5462
     1.8273   2.0920   2.1744   2.4973   2.6748   3.0340   3.2965   3.4900
     3.6554   3.9013   4.2217   4.3000   4.5725   5.1102   5.4661   5.9083
     6.6575   6.7998   7.2058   7.6535   7.8393   8.0916

     occupation numbers 
     1.0000   1.0000   1.0000   1.0000   1.0000   1.0000   1.0000   1.0000
     1.0000   1.0000   1.0000   1.0000   1.0000   1.0000   1.0000   1.0000
     1.0000   1.0000   1.0000   1.0000   1.0000   1.0000   1.0000   1.0000
     1.0000   1.0000   1.0000   1.0000   1.0000   1.0000   1.0000   0.9837
     0.0011   0.0000   0.0000   0.0000   0.0000   0.0000

          k = 0.1768-0.5303-0.5303 (  7554 PWs)   bands (ev):

    -6.2007  -5.4027  -4.7355  -4.3709  -4.1935  -3.5414  -2.8165  -2.2634
    -1.5198  -1.0404  -0.5965  -0.0681   0.3309   1.0881   1.4823   1.5991
     1.9507   2.0905   2.2806   2.5062   2.6749   2.8733   3.0818   3.5517
     3.6889   3.8123   4.0207   4.4927   4.7072   4.7722   5.4392   5.9358
     6.5779   7.0111   7.2620   7.5160   7.7600   8.0186

     occupation numbers 
     1.0000   1.0000   1.0000   1.0000   1.0000   1.0000   1.0000   1.0000
     1.0000   1.0000   1.0000   1.0000   1.0000   1.0000   1.0000   1.0000
     1.0000   1.0000   1.0000   1.0000   1.0000   1.0000   1.0000   1.0000
     1.0000   1.0000   1.0000   1.0000   1.0000   1.0000   1.0000   0.9742
     0.0062   0.0000   0.0000   0.0000   0.0000   0.0000

          k =-0.1768 0.5303-0.5303 (  7554 PWs)   bands (ev):

    -6.1877  -5.3853  -4.8101  -4.4169  -4.1301  -3.5636  -2.8195  -2.1637
    -1.4809  -1.0638  -0.3151  -0.1784   0.2562   1.0493   1.2238   1.4478
     1.6543   1.9614   2.3348   2.6456   2.7825   3.0266   3.2724   3.5369
     3.8357   3.9352   4.1896   4.4425   4.6377   4.9952   5.1622   5.7293
     6.6801   6.9361   7.3231   7.6409   7.8648   8.1146

     occupation numbers 
     1.0000   1.0000   1.0000   1.0000   1.0000   1.0000   1.0000   1.0000
     1.0000   1.0000   1.0000   1.0000   1.0000   1.0000   1.0000   1.0000
     1.0000   1.0000   1.0000   1.0000   1.0000   1.0000   1.0000   1.0000
     1.0000   1.0000   1.0000   1.0000   1.0000   1.0000   1.0000   0.9996
     0.0007   0.0000   0.0000   0.0000   0.0000   0.0000

          k =-0.5303-0.1768-0.5303 (  7554 PWs)   bands (ev):

    -6.2110  -5.3841  -4.6661  -4.6227  -3.8613  -3.3979  -3.2646  -2.1812
    -1.5263  -1.0272  -0.6157   0.0115   0.5638   0.9126   1.4389   1.5577
     1.9103   1.9568   2.2427   2.5747   2.8774   2.9711   3.1572   3.4114
     3.6272   3.8653   4.1322   4.4306   4.6943   4.9910   5.3932   5.9207
     6.2193   6.7684   7.1304   7.4212   7.8770   7.9949

     occupation numbers 
     1.0000   1.0000   1.0000   1.0000   1.0000   1.0000   1.0000   1.0000
     1.0000   1.0000   1.0000   1.0000   1.0000   1.0000   1.0000   1.0000
     1.0000   1.0000   1.0000   1.0000   1.0000   1.0000   1.0000   1.0000
     1.0000   1.0000   1.0000   1.0000   1.0000   1.0000   1.0000   0.9799
     0.4929   0.0001   0.0000   0.0000   0.0000   0.0000

          k = 0.5303 0.1768-0.5303 (  7554 PWs)   bands (ev):

    -6.2133  -5.3322  -4.8904  -4.3400  -4.0988  -3.4052  -2.9933  -2.2194
    -1.7208  -0.9897  -0.7017   0.0510   0.8069   1.0601   1.3989   1.5791
     1.7060   1.8616   2.3409   2.4815   2.8037   3.0612   3.2804   3.4656
     3.5378   3.8364   4.0146   4.4031   4.6279   4.8020   5.1548   6.3442
     6.5177   6.9614   7.3961   7.5806   7.7276   8.1043

     occupation numbers 
     1.0000   1.0000   1.0000   1.0000   1.0000   1.0000   1.0000   1.0000
     1.0000   1.0000   1.0000   1.0000   1.0000   1.0000   1.0000   1.0000
     1.0000   1.0000   1.0000   1.0000   1.0000   1.0000   1.0000   1.0000
     1.0000   1.0000   1.0000   1.0000   1.0000   1.0000   1.0000   0.1886
     0.0185   0.0000   0.0000   0.0000   0.0000   0.0000

          k =-0.5303 0.1768 0.5303 (  7554 PWs)   bands (ev):

    -6.2118  -5.4162  -4.7618  -4.3448  -4.0747  -3.3681  -3.1209  -2.2439
    -1.5613  -1.0296  -0.9236   0.0917   0.5917   1.1920   1.4058   1.6455
     1.7519   1.9850   2.5173   2.6950   2.9683   3.1772   3.2926   3.3814
     3.5230   3.6378   3.7592   3.9981   4.6137   5.0260   5.1296   6.1819
     6.5994   6.9901   7.2168   7.4522   7.7084   7.9295

     occupation numbers 
     1.0000   1.0000   1.0000   1.0000   1.0000   1.0000   1.0000   1.0000
     1.0000   1.0000   1.0000   1.0000   1.0000   1.0000   1.0000   1.0000
     1.0000   1.0000   1.0000   1.0000   1.0000   1.0000   1.0000   1.0000
     1.0000   1.0000   1.0000   1.0000   1.0000   1.0000   1.0000   0.5953
     0.0040   0.0000   0.0000   0.0000   0.0000   0.0000

          k = 0.5303-0.1768 0.5303 (  7554 PWs)   bands (ev):

    -6.1976  -5.4097  -4.7820  -4.5113  -3.8062  -3.3964  -3.3105  -2.1664
    -1.4446  -0.8357  -0.7511  -0.2767   0.5065   0.9340   1.3843   1.6054
     1.9473   2.0916   2.3988   2.5421   2.7441   2.9977   3.1870   3.2901
     3.6800   3.8582   4.2392   4.5411   4.8487   5.0552   5.3259   5.5847
     6.1311   6.8450   7.1178   7.4769   7.8222   7.9055

     occupation numbers 
     1.0000   1.0000   1.0000   1.0000   1.0000   1.0000   1.0000   1.0000
     1.0000   1.0000   1.0000   1.0000   1.0000   1.0000   1.0000   1.0000
     1.0000   1.0000   1.0000   1.0000   1.0000   1.0000   1.0000   1.0000
     1.0000   1.0000   1.0000   1.0000   1.0000   1.0000   1.0000   1.0000
     0.7234   0.0000   0.0000   0.0000   0.0000   0.0000

          k = 0.5303 0.5303-0.1768 (  7554 PWs)   bands (ev):

    -6.2081  -5.3042  -4.8510  -4.3974  -4.2149  -3.5648  -2.5770  -2.2625
    -1.7393  -1.0926  -0.6462   0.3686   0.6301   1.0437   1.2120   1.4374
     1.7442   1.9137   2.2663   2.4688   2.6252   2.8857   3.3081   3.3486
     3.5219   3.9401   4.1852   4.4967   4.7282   5.1196   5.3018   6.3305
     6.6196   6.9748   7.3148   7.5460   7.6322   8.0261

     occupation numbers 
     1.0000   1.0000   1.0000   1.0000   1.0000   1.0000   1.0000   1.0000
     1.0000   1.0000   1.0000   1.0000   1.0000   1.0000   1.0000   1.0000
     1.0000   1.0000   1.0000   1.0000   1.0000   1.0000   1.0000   1.0000
     1.0000   1.0000   1.0000   1.0000   1.0000   1.0000   1.0000   0.2151
     0.0026   0.0000   0.0000   0.0000   0.0000   0.0000

          k =-0.5303 0.5303 0.1768 (  7554 PWs)   bands (ev):

    -6.2065  -5.3833  -4.7687  -4.4204  -4.0135  -3.7024  -2.6201  -2.4404
    -1.4505  -1.2328  -0.4122  -0.0837   0.4628   1.0085   1.3259   1.6581
     1.8624   2.0935   2.2657   2.5457   2.7995   2.8965   3.1762   3.4135
     3.5977   3.7948   4.0343   4.4976   4.7388   4.8703   5.5525   5.9088
     6.5793   6.8632   7.3028   7.5147   7.7651   8.0646

     occupation numbers 
     1.0000   1.0000   1.0000   1.0000   1.0000   1.0000   1.0000   1.0000
     1.0000   1.0000   1.0000   1.0000   1.0000   1.0000   1.0000   1.0000
     1.0000   1.0000   1.0000   1.0000   1.0000   1.0000   1.0000   1.0000
     1.0000   1.0000   1.0000   1.0000   1.0000   1.0000   1.0000   0.9836
     0.0060   0.0000   0.0000   0.0000   0.0000   0.0000

          k = 0.5303-0.5303 0.1768 (  7554 PWs)   bands (ev):

    -6.1920  -5.3787  -4.8249  -4.4244  -3.9973  -3.7067  -2.7913  -2.2108
    -1.3822  -1.0834  -0.3575  -0.1085   0.1326   0.9258   1.3399   1.5379
     1.8398   1.9850   2.2829   2.4698   2.8091   2.9871   3.2580   3.5313
     3.6506   3.9421   4.1212   4.4135   4.8206   5.2610   5.4324   5.7264
     6.4962   6.8439   7.0461   7.5329   7.8916   8.0195

     occupation numbers 
     1.0000   1.0000   1.0000   1.0000   1.0000   1.0000   1.0000   1.0000
     1.0000   1.0000   1.0000   1.0000   1.0000   1.0000   1.0000   1.0000
     1.0000   1.0000   1.0000   1.0000   1.0000   1.0000   1.0000   1.0000
     1.0000   1.0000   1.0000   1.0000   1.0000   1.0000   1.0000   0.9997
     0.0264   0.0000   0.0000   0.0000   0.0000   0.0000

          k =-0.5303-0.5303-0.1768 (  7554 PWs)   bands (ev):

    -6.2042  -5.3695  -4.7086  -4.4105  -4.2706  -3.5003  -2.8927  -2.1951
    -1.4270  -1.0606  -0.5711   0.1031   0.4820   0.9198   1.1412   1.5254
     1.8583   1.9012   2.2199   2.5956   2.8321   3.0062   3.1395   3.3797
     3.7077   3.8744   4.1763   4.4075   4.8785   4.9930   5.4287   6.0784
     6.5530   6.9248   7.1218   7.3451   7.8013   7.9622

     occupation numbers 
     1.0000   1.0000   1.0000   1.0000   1.0000   1.0000   1.0000   1.0000
     1.0000   1.0000   1.0000   1.0000   1.0000   1.0000   1.0000   1.0000
     1.0000   1.0000   1.0000   1.0000   1.0000   1.0000   1.0000   1.0000
     1.0000   1.0000   1.0000   1.0000   1.0000   1.0000   1.0000   0.8310
     0.0099   0.0000   0.0000   0.0000   0.0000   0.0000

          k = 0.0000 0.3536 0.3536 (  7592 PWs)   bands (ev):

    -6.2745  -5.3955  -4.6806  -4.2479  -4.0703  -3.4513  -3.0937  -2.2401
    -1.6678  -1.0452  -0.6661  -0.1658   0.5662   0.6745   0.9998   1.5532
     1.9324   2.3364   2.5412   2.7387   3.0589   3.1448   3.2860   3.5309
     3.6053   3.9101   4.0683   4.5560   4.7260   4.7996   5.4007   6.1235
     6.6489   7.0318   7.1880   7.4233   7.5722   7.8965

     occupation numbers 
     1.0000   1.0000   1.0000   1.0000   1.0000   1.0000   1.0000   1.0000
     1.0000   1.0000   1.0000   1.0000   1.0000   1.0000   1.0000   1.0000
     1.0000   1.0000   1.0000   1.0000   1.0000   1.0000   1.0000   1.0000
     1.0000   1.0000   1.0000   1.0000   1.0000   1.0000   1.0000   0.7407
     0.0014   0.0000   0.0000   0.0000   0.0000   0.0000

          k =-0.3536 0.0000-0.3536 (  7592 PWs)   bands (ev):

    -6.2627  -5.3982  -4.6228  -4.4754  -3.8758  -3.4879  -3.2202  -2.1206
    -1.4857  -0.8832  -0.5822  -0.3240   0.0498   0.7734   1.1397   1.4885
     1.7269   2.1791   2.5378   2.8027   2.8953   3.0653   3.3930   3.7627
     3.8362   3.9853   4.4294   4.6047   4.8379   4.9822   5.3343   5.9188
     6.1298   6.8147   6.9201   7.3383   7.7549   7.8421

     occupation numbers 
     1.0000   1.0000   1.0000   1.0000   1.0000   1.0000   1.0000   1.0000
     1.0000   1.0000   1.0000   1.0000   1.0000   1.0000   1.0000   1.0000
     1.0000   1.0000   1.0000   1.0000   1.0000   1.0000   1.0000   1.0000
     1.0000   1.0000   1.0000   1.0000   1.0000   1.0000   1.0000   0.9805
     0.7264   0.0000   0.0000   0.0000   0.0000   0.0000

          k = 0.3536 0.0000-0.3536 (  7592 PWs)   bands (ev):

    -6.2780  -5.3476  -4.7857  -4.2050  -4.0442  -3.5866  -2.8879  -2.0542
    -1.8797  -1.2233  -0.8579   0.1067   0.5925   0.9551   1.1049   1.4600
     1.9635   2.0760   2.3564   2.6986   2.8899   3.1464   3.3830   3.5122
     3.7970   4.0153   4.1790   4.4627   4.6829   4.8686   4.9766   6.3924
     6.6015   7.0676   7.3601   7.4913   7.7430   7.9276

     occupation numbers 
     1.0000   1.0000   1.0000   1.0000   1.0000   1.0000   1.0000   1.0000
     1.0000   1.0000   1.0000   1.0000   1.0000   1.0000   1.0000   1.0000
     1.0000   1.0000   1.0000   1.0000   1.0000   1.0000   1.0000   1.0000
     1.0000   1.0000   1.0000   1.0000   1.0000   1.0000   1.0000   0.1117
     0.0038   0.0000   0.0000   0.0000   0.0000   0.0000

          k = 0.3536 0.3536 0.0000 (  7592 PWs)   bands (ev):

    -6.2771  -5.3322  -4.6810  -4.3307  -4.2144  -3.4164  -2.9199  -2.1678
    -1.6426  -1.2246  -0.7512   0.1169   0.4207   0.8593   1.2178   1.3754
     1.8800   1.9784   2.4005   2.7125   2.8671   3.1099   3.3484   3.4426
     3.7068   4.0207   4.2704   4.6152   4.7192   5.1440   5.3588   6.3628
     6.5854   6.8760   7.1120   7.3748   7.6020   7.7412

     occupation numbers 
     1.0000   1.0000   1.0000   1.0000   1.0000   1.0000   1.0000   1.0000
     1.0000   1.0000   1.0000   1.0000   1.0000   1.0000   1.0000   1.0000
     1.0000   1.0000   1.0000   1.0000   1.0000   1.0000   1.0000   1.0000
     1.0000   1.0000   1.0000   1.0000   1.0000   1.0000   1.0000   0.1557
     0.0053   0.0000   0.0000   0.0000   0.0000   0.0000

          k =-0.3536 0.3536 0.0000 (  7592 PWs)   bands (ev):

    -6.2682  -5.3926  -4.7298  -4.2952  -3.9774  -3.5457  -2.9248  -2.2957
    -1.4732  -1.1787  -0.7476  -0.1623   0.0919   0.9402   1.2167   1.5858
     1.9547   2.2812   2.6188   2.7135   2.8125   3.1536   3.2274   3.5899
     3.6895   4.0005   4.2287   4.4717   4.8631   5.0437   5.1838   6.0250
     6.3742   6.8373   7.1655   7.4481   7.7584   7.9450

     occupation numbers 
     1.0000   1.0000   1.0000   1.0000   1.0000   1.0000   1.0000   1.0000
     1.0000   1.0000   1.0000   1.0000   1.0000   1.0000   1.0000   1.0000
     1.0000   1.0000   1.0000   1.0000   1.0000   1.0000   1.0000   1.0000
     1.0000   1.0000   1.0000   1.0000   1.0000   1.0000   1.0000   0.9080
     0.1376   0.0000   0.0000   0.0000   0.0000   0.0000

          k = 0.0000-0.7071 0.0000 (  7528 PWs)   bands (ev):

    -6.1608  -5.3068  -4.9340  -4.4229  -4.1869  -3.4056  -3.0787  -2.0768
    -1.5514  -1.1294  -0.5556   0.2390   0.7178   1.3154   1.4957   1.6522
     1.7925   2.0901   2.1719   2.3337   2.6910   2.7735   2.9244   3.1110
     3.4879   3.8614   4.0157   4.4482   4.6747   4.9579   5.2951   5.9868
     6.1023   6.5461   7.2894   7.4190   7.5213   7.8341

     occupation numbers 
     1.0000   1.0000   1.0000   1.0000   1.0000   1.0000   1.0000   1.0000
     1.0000   1.0000   1.0000   1.0000   1.0000   1.0000   1.0000   1.0000
     1.0000   1.0000   1.0000   1.0000   1.0000   1.0000   1.0000   1.0000
     1.0000   1.0000   1.0000   1.0000   1.0000   1.0000   1.0000   0.9444
     0.7860   0.0112   0.0000   0.0000   0.0000   0.0000

          k = 0.0000 0.0000-0.7071 (  7528 PWs)   bands (ev):

    -6.1491  -5.1175  -5.0969  -4.4559  -4.2058  -3.8579  -2.3280  -2.2250
    -1.4027  -1.3424   0.0254   0.0740   0.5263   1.0222   1.2559   1.6104
     1.8885   1.9862   2.1256   2.2341   2.4542   2.5628   2.9205   3.0859
     3.6225   3.9696   4.2525   4.7109   4.7963   5.1648   5.6836   6.0239
     6.1158   6.6339   7.2398   7.5548   7.8180   7.9217

     occupation numbers 
     1.0000   1.0000   1.0000   1.0000   1.0000   1.0000   1.0000   1.0000
     1.0000   1.0000   1.0000   1.0000   1.0000   1.0000   1.0000   1.0000
     1.0000   1.0000   1.0000   1.0000   1.0000   1.0000   1.0000   1.0000
     1.0000   1.0000   1.0000   1.0000   1.0000   1.0000   0.9999   0.9092
     0.7578   0.0019   0.0000   0.0000   0.0000   0.0000

          k = 0.3536-0.7071 0.0000 (  7564 PWs)   bands (ev):

    -6.1400  -5.2766  -4.9844  -4.6113  -4.0102  -3.4525  -2.9136  -2.2892
    -1.3884  -1.0103  -0.6645   0.2089   0.7960   1.1364   1.5173   1.6394
     1.7302   1.9976   2.0834   2.4275   2.7305   2.8726   3.1072   3.3936
     3.5046   3.6587   3.8944   4.2277   4.3920   4.7401   5.0748   6.0352
     6.8520   7.2240   7.4683   7.7389   7.9820   8.1126

     occupation numbers 
     1.0000   1.0000   1.0000   1.0000   1.0000   1.0000   1.0000   1.0000
     1.0000   1.0000   1.0000   1.0000   1.0000   1.0000   1.0000   1.0000
     1.0000   1.0000   1.0000   1.0000   1.0000   1.0000   1.0000   1.0000
     1.0000   1.0000   1.0000   1.0000   1.0000   1.0000   1.0000   0.8958
     0.0000   0.0000   0.0000   0.0000   0.0000   0.0000

          k = 0.7071 0.0000 0.3536 (  7564 PWs)   bands (ev):

    -6.1292  -5.3175  -4.9507  -4.6688  -3.8408  -3.4618  -3.1461  -2.1348
    -1.4893  -0.8041  -0.5998  -0.1169   0.8862   1.1801   1.3970   1.6186
     1.8565   1.9619   2.2482   2.4289   2.7760   2.8272   3.0493   3.2768
     3.5075   3.6842   3.8655   4.0479   4.7013   4.8565   5.0154   5.5848
     6.9926   7.2474   7.5492   7.9217   8.0395   8.1178

     occupation numbers 
     1.0000   1.0000   1.0000   1.0000   1.0000   1.0000   1.0000   1.0000
     1.0000   1.0000   1.0000   1.0000   1.0000   1.0000   1.0000   1.0000
     1.0000   1.0000   1.0000   1.0000   1.0000   1.0000   1.0000   1.0000
     1.0000   1.0000   1.0000   1.0000   1.0000   1.0000   1.0000   1.0000
     0.0000   0.0000   0.0000   0.0000   0.0000   0.0000

     the Fermi energy is     6.2167 ev

!    total energy              =    -151.19882311 Ry
     Harris-Foulkes estimate   =    -151.19882311 Ry
     estimated scf accuracy    <          6.5E-10 Ry

     The total energy is the sum of the following terms:

     one-electron contribution =      34.65929531 Ry
     hartree contribution      =      11.62398561 Ry
     xc contribution           =     -68.73649745 Ry
     ewald contribution        =    -128.73862670 Ry
     smearing contrib. (-TS)   =      -0.00697988 Ry

     convergence has been achieved in  14 iterations

     Forces acting on atoms (Ry/au):

     atom    1 type  1   force =  -0.15861957E+00 -0.86978920E-01 -0.76876599E-01
     atom    2 type  1   force =   0.20301861E+00  0.69413026E-01  0.52381114E-02
     atom    3 type  1   force =   0.11052543E+00 -0.16072272E+00  0.11426347E+00
     atom    4 type  1   force =  -0.12160761E+00  0.93807333E-01 -0.10379430E+00
     atom    5 type  1   force =   0.67343036E+00  0.60394211E+00 -0.60409623E+00
     atom    6 type  1   force =   0.47414438E+00 -0.51958740E+00 -0.73449613E+00
     atom    7 type  1   force =  -0.35406153E-01 -0.22869840E+00 -0.27951958E-01
     atom    8 type  1   force =  -0.59028161E+00 -0.37116847E+00  0.57822560E+00
     atom    9 type  1   force =  -0.73250448E-02  0.18363780E+00  0.32384180E-01
     atom   10 type  1   force =  -0.17464463E+00 -0.30205323E+00  0.21249340E+00
     atom   11 type  1   force =   0.28716627E+00  0.11050823E+00 -0.18437078E+00
     atom   12 type  1   force =  -0.84187777E-01  0.11082886E-01  0.86279301E-01
     atom   13 type  1   force =  -0.47098158E+00  0.51006674E+00  0.72915105E+00
     atom   14 type  1   force =  -0.25216599E+00 -0.27265506E+00  0.27323814E+00
     atom   15 type  1   force =   0.21554525E+00  0.21813715E+00 -0.18916615E+00
     atom   16 type  1   force =  -0.68610342E-01  0.14126891E+00 -0.11052111E+00
     The non-local contrib.  to forces
     atom    1 type  1   force =  -0.18367234E+00 -0.10352839E+00 -0.11930557E+00
     atom    2 type  1   force =   0.28193718E+00  0.78814571E-01 -0.13404518E-01
     atom    3 type  1   force =   0.12395462E+00 -0.12352796E+00  0.12187080E+00
     atom    4 type  1   force =  -0.15086108E+00  0.73561459E-01 -0.11179271E+00
     atom    5 type  1   force =   0.60972656E+00  0.51482482E+00 -0.51293252E+00
     atom    6 type  1   force =   0.43201522E+00 -0.48737147E+00 -0.67647373E+00
     atom    7 type  1   force =  -0.59021107E-02 -0.24064488E+00 -0.23774786E-01
     atom    8 type  1   force =  -0.49474448E+00 -0.29204836E+00  0.49128727E+00
     atom    9 type  1   force =   0.14807136E-01  0.24703689E+00  0.73296159E-01
     atom   10 type  1   force =  -0.16511259E+00 -0.33756011E+00  0.18737132E+00
     atom   11 type  1   force =   0.30654811E+00  0.98813444E-01 -0.17591381E+00
     atom   12 type  1   force =  -0.11522426E+00 -0.57066370E-02  0.10134605E+00
     atom   13 type  1   force =  -0.45795497E+00  0.46625875E+00  0.66896288E+00
     atom   14 type  1   force =  -0.27447637E+00 -0.26968622E+00  0.29747463E+00
     atom   15 type  1   force =   0.24857622E+00  0.26759865E+00 -0.18244229E+00
     atom   16 type  1   force =  -0.98343784E-01  0.14892821E+00 -0.12583917E+00
     The ionic contribution  to forces
     atom    1 type  1   force =  -0.78309491E+00 -0.52205655E+00 -0.70066663E+00
     atom    2 type  1   force =   0.12323068E+01  0.51243889E+00 -0.36942022E+00
     atom    3 type  1   force =   0.74151967E+00 -0.78263104E+00  0.67253095E+00
     atom    4 type  1   force =  -0.84597537E+00 -0.46908989E+00 -0.53753297E+00
     atom    5 type  1   force =   0.21700288E+01  0.12522035E+01 -0.14251194E+01
     atom    6 type  1   force =   0.92831501E+00 -0.12214462E+01 -0.18396554E+01
     atom    7 type  1   force =  -0.18991181E+00 -0.12606615E+01 -0.41270834E+00
     atom    8 type  1   force =  -0.62983000E+00 -0.54366464E+00  0.11349957E+01
     atom    9 type  1   force =   0.15572057E+00  0.13017857E+01  0.33217060E+00
     atom   10 type  1   force =  -0.68421896E+00 -0.10475741E+01  0.51135573E+00
     atom   11 type  1   force =   0.34144044E+00  0.13909477E+00 -0.37187677E+00
     atom   12 type  1   force =  -0.35496572E+00  0.55954847E+00  0.36386533E+00
     atom   13 type  1   force =  -0.11459981E+01  0.81149715E+00  0.15266348E+01
     atom   14 type  1   force =  -0.72592265E+00 -0.24995442E+00  0.13469597E+01
     atom   15 type  1   force =   0.28678054E+00  0.97876106E+00  0.14643245E+00
     atom   16 type  1   force =  -0.49619428E+00  0.54174881E+00 -0.37796562E+00
     The local contribution  to forces
     atom    1 type  1   force =   0.78957409E+00  0.52878135E+00  0.73226554E+00
     atom    2 type  1   force =  -0.12847712E+01 -0.51491458E+00  0.38570576E+00
     atom    3 type  1   force =  -0.74365881E+00  0.73334818E+00 -0.66931111E+00
     atom    4 type  1   force =   0.85962089E+00  0.49509792E+00  0.53607592E+00
     atom    5 type  1   force =  -0.20544477E+01 -0.11199807E+01  0.12904135E+01
     atom    6 type  1   force =  -0.84949567E+00  0.11480362E+01  0.17235391E+01
     atom    7 type  1   force =   0.16077238E+00  0.12508238E+01  0.40690921E+00
     atom    8 type  1   force =   0.49250785E+00  0.44252473E+00 -0.10063957E+01
     atom    9 type  1   force =  -0.17554907E+00 -0.13409412E+01 -0.36625096E+00
     atom   10 type  1   force =   0.66061121E+00  0.10523156E+01 -0.46915385E+00
     atom   11 type  1   force =  -0.33399279E+00 -0.11929439E+00  0.34868302E+00
     atom   12 type  1   force =   0.37557189E+00 -0.54338621E+00 -0.37061480E+00
     atom   13 type  1   force =   0.10940038E+01 -0.72887833E+00 -0.14095667E+01
     atom   14 type  1   force =   0.72378211E+00  0.22393702E+00 -0.13438308E+01
     atom   15 type  1   force =  -0.29745856E+00 -0.10044635E+01 -0.17012158E+00
     atom   16 type  1   force =   0.51687532E+00 -0.53577944E+00  0.38166839E+00
     The core correction contribution to forces
     atom    1 type  1   force =   0.18573198E-01  0.98247724E-02  0.10829513E-01
     atom    2 type  1   force =  -0.26453079E-01 -0.69239410E-02  0.23532975E-02
     atom    3 type  1   force =  -0.11290239E-01  0.12086589E-01 -0.10822556E-01
     atom    4 type  1   force =   0.15603377E-01 -0.57594842E-02  0.94576322E-02
     atom    5 type  1   force =  -0.51871903E-01 -0.43103554E-01  0.43538260E-01
     atom    6 type  1   force =  -0.36687426E-01  0.41196007E-01  0.58093436E-01
     atom    7 type  1   force =  -0.37026102E-03  0.21782994E-01  0.16219931E-02
     atom    8 type  1   force =   0.41781615E-01  0.22016293E-01 -0.41655450E-01
     atom    9 type  1   force =  -0.23040633E-02 -0.24240530E-01 -0.68346130E-02
     atom   10 type  1   force =   0.14078431E-01  0.30767522E-01 -0.17080899E-01
     atom   11 type  1   force =  -0.26827614E-01 -0.81070732E-02  0.14735634E-01
     atom   12 type  1   force =   0.10425988E-01  0.62318216E-03 -0.83173283E-02
     atom   13 type  1   force =   0.38970445E-01 -0.38807123E-01 -0.56878533E-01
     atom   14 type  1   force =   0.24453594E-01  0.23048508E-01 -0.27368969E-01
     atom   15 type  1   force =  -0.22357812E-01 -0.23764372E-01  0.16970125E-01
     atom   16 type  1   force =   0.90535110E-02 -0.13633527E-01  0.11616899E-01
     The Hubbard contrib.    to forces
     atom    1 type  1   force =   0.00000000E+00  0.00000000E+00  0.00000000E+00
     atom    2 type  1   force =   0.00000000E+00  0.00000000E+00  0.00000000E+00
     atom    3 type  1   force =   0.00000000E+00  0.00000000E+00  0.00000000E+00
     atom    4 type  1   force =   0.00000000E+00  0.00000000E+00  0.00000000E+00
     atom    5 type  1   force =   0.00000000E+00  0.00000000E+00  0.00000000E+00
     atom    6 type  1   force =   0.00000000E+00  0.00000000E+00  0.00000000E+00
     atom    7 type  1   force =   0.00000000E+00  0.00000000E+00  0.00000000E+00
     atom    8 type  1   force =   0.00000000E+00  0.00000000E+00  0.00000000E+00
     atom    9 type  1   force =   0.00000000E+00  0.00000000E+00  0.00000000E+00
     atom   10 type  1   force =   0.00000000E+00  0.00000000E+00  0.00000000E+00
     atom   11 type  1   force =   0.00000000E+00  0.00000000E+00  0.00000000E+00
     atom   12 type  1   force =   0.00000000E+00  0.00000000E+00  0.00000000E+00
     atom   13 type  1   force =   0.00000000E+00  0.00000000E+00  0.00000000E+00
     atom   14 type  1   force =   0.00000000E+00  0.00000000E+00  0.00000000E+00
     atom   15 type  1   force =   0.00000000E+00  0.00000000E+00  0.00000000E+00
     atom   16 type  1   force =   0.00000000E+00  0.00000000E+00  0.00000000E+00
     The SCF correction term to forces
     atom    1 type  1   force =   0.38965658E-06 -0.20740498E-06  0.58298318E-06
     atom    2 type  1   force =  -0.10865680E-05 -0.20297536E-05  0.38335510E-05
     atom    3 type  1   force =   0.18075961E-06  0.14001908E-05 -0.45678038E-05
     atom    4 type  1   force =   0.45712335E-05 -0.27797545E-05 -0.21424898E-05
     atom    5 type  1   force =  -0.53428898E-05 -0.20980728E-05  0.39960998E-05
     atom    6 type  1   force =  -0.27480247E-05 -0.20071409E-05  0.47144786E-06
     atom    7 type  1   force =   0.56385926E-05  0.11241572E-05  0.55291350E-08
     atom    8 type  1   force =   0.33938237E-05  0.33978446E-05 -0.61660097E-05
     atom    9 type  1   force =   0.36535112E-06 -0.31384773E-05  0.30329625E-05
     atom   10 type  1   force =  -0.27386692E-05 -0.22823964E-05  0.11360381E-05
     atom   11 type  1   force =  -0.18714244E-05  0.13681697E-05  0.11884226E-05
     atom   12 type  1   force =   0.43077216E-05  0.39783587E-05  0.87535982E-07
     atom   13 type  1   force =  -0.27605446E-05 -0.38156101E-05 -0.13813067E-05
     atom   14 type  1   force =  -0.26768278E-05 -0.54742791E-07  0.36175637E-05
     atom   15 type  1   force =   0.48562350E-05  0.51764232E-05 -0.48065251E-05
     atom   16 type  1   force =  -0.11231955E-05  0.47434520E-05 -0.15688727E-05

     Total force =     2.236177     Total SCF correction =     0.000021


     entering subroutine stress ...

          total   stress  (Ry/bohr**3)                   (kbar)     P=  208.00
   0.0013380483   0.0005783701  -0.0010712428        196.83     85.08   -157.59
   0.0005783701   0.0011452197  -0.0002852248         85.08    168.47    -41.96
  -0.0010712428  -0.0002852248   0.0017585950       -157.59    -41.96    258.70

     kinetic stress (kbar)   2258.68    -10.20    -21.54
                              -10.20   2267.98     -1.80
                              -21.54     -1.80   2266.53

     local   stress (kbar)   -436.02   -338.38    168.76
                             -338.38   -372.31    208.59
                              168.76    208.59   -607.27

     nonloc. stress (kbar)   2075.45     47.09    -52.37
                               47.09   2064.39    -12.96
                              -52.37    -12.96   2102.35

     hartree stress (kbar)    254.73     35.09     -4.71
                               35.09    254.44    -57.50
                               -4.71    -57.50    281.49

     exc-cor stress (kbar)    992.18      0.40     -0.28
                                0.40    992.07     -0.15
                               -0.28     -0.15    992.38

     corecor stress (kbar)  -2001.60     -5.31      5.24
                               -5.31  -2000.28      1.45
                                5.24      1.45  -2004.38

     ewald   stress (kbar)  -2946.59    356.37   -252.68
                              356.37  -3037.82   -179.59
                             -252.68   -179.59  -2772.41

     hubbard stress (kbar)      0.00      0.00      0.00
                                0.00      0.00      0.00
                                0.00      0.00      0.00

     london  stress (kbar)      0.00      0.00      0.00
                                0.00      0.00      0.00
                                0.00      0.00      0.00

     XDM     stress (kbar)      0.00      0.00      0.00
                                0.00      0.00      0.00
                                0.00      0.00      0.00

     dft-nl  stress (kbar)      0.00      0.00      0.00
                                0.00      0.00      0.00
                                0.00      0.00      0.00



     Writing output data file Si_diamond.scf.in.super.222.largdist.b.033.save

     init_run     :     16.50s CPU     17.33s WALL (       1 calls)
     electrons    :    468.00s CPU    468.93s WALL (       1 calls)
     forces       :      6.06s CPU      5.17s WALL (       1 calls)
     stress       :     33.28s CPU     33.14s WALL (       1 calls)

     Called by init_run:
     wfcinit      :     15.53s CPU     16.32s WALL (       1 calls)
     potinit      :      0.12s CPU      0.13s WALL (       1 calls)

     Called by electrons:
     c_bands      :    390.85s CPU    392.59s WALL (      14 calls)
     sum_band     :     65.97s CPU     65.01s WALL (      14 calls)
     v_of_rho     :      1.50s CPU      1.51s WALL (      15 calls)
     v_h          :      0.10s CPU      0.09s WALL (      15 calls)
     v_xc         :      1.62s CPU      1.64s WALL (      17 calls)
     newd         :      8.76s CPU      8.82s WALL (      15 calls)
     mix_rho      :      1.39s CPU      1.43s WALL (      14 calls)

     Called by c_bands:
     init_us_2    :      5.37s CPU      5.60s WALL (    1116 calls)
     cegterg      :    367.39s CPU    368.18s WALL (     504 calls)

     Called by sum_band:
     sum_band:bec :      0.49s CPU      0.45s WALL (     504 calls)
     addusdens    :      8.76s CPU      8.83s WALL (      14 calls)

     Called by *egterg:
     h_psi        :    251.44s CPU    248.52s WALL (    1928 calls)
     s_psi        :     25.94s CPU     21.58s WALL (    1928 calls)
     g_psi        :      0.66s CPU      0.67s WALL (    1388 calls)
     cdiaghg      :     20.94s CPU     22.41s WALL (    1892 calls)
     cegterg:over :     38.13s CPU     40.61s WALL (    1388 calls)
     cegterg:upda :     10.17s CPU     11.22s WALL (    1388 calls)
     cegterg:last :      3.81s CPU      3.62s WALL (     504 calls)

     Called by h_psi:
     h_psi:vloc   :    178.09s CPU    181.65s WALL (    1928 calls)
     h_psi:vnl    :     72.82s CPU     66.32s WALL (    1928 calls)
     add_vuspsi   :     27.00s CPU     22.80s WALL (    1928 calls)

     General routines
     calbec       :     68.38s CPU     64.00s WALL (    2504 calls)
     fft          :      1.72s CPU      1.73s WALL (     261 calls)
     ffts         :      0.75s CPU      0.73s WALL (     298 calls)
     fftw         :    187.74s CPU    191.63s WALL (  121360 calls)
     interpolate  :      0.24s CPU      0.25s WALL (      29 calls)

     Parallel routines
     fft_scatter  :     89.37s CPU     91.79s WALL (  121919 calls)

     PWSCF        :  8m45.24s CPU     8m46.41s WALL


   This run was terminated on:  14:44:26  28Sep2017            

=------------------------------------------------------------------------------=
   JOB DONE.
=------------------------------------------------------------------------------=
