
     Program PWSCF v.5.1 starts on  4Apr2018 at 20:58: 2 

     This program is part of the open-source Quantum ESPRESSO suite
     for quantum simulation of materials; please cite
         "P. Giannozzi et al., J. Phys.:Condens. Matter 21 395502 (2009);
          URL http://www.quantum-espresso.org", 
     in publications or presentations arising from this work. More details at
     http://www.quantum-espresso.org/quote

     Parallel version (MPI), running on    16 processors
     R & G space division:  proc/nbgrp/npool/nimage =      16
     Waiting for input...
     Reading input from standard input
Warning: card &IONS ignored
Warning: card   ION_DYNAMICS='BFGS', ignored
Warning: card / ignored
Warning: card &CELL ignored
Warning: card  CELL_DYNAMICS = 'BFGS' ignored
Warning: card / ignored

     Current dimensions of program PWSCF are:
     Max number of different atomic species (ntypx) = 10
     Max number of k-points (npk) =  40000
     Max angular momentum in pseudopotentials (lmaxx) =  3
 kfg - two_fermi_energies  F

     Subspace diagonalization in iterative solution of the eigenvalue problem:
     a serial algorithm will be used


     Parallelization info
     --------------------
     sticks:   dense  smooth     PW     G-vecs:    dense   smooth      PW
     Min         189     132     37                 6884     4024     609
     Max         190     133     38                 6885     4041     612
     Sum        3025    2119    601               110153    64537    9767



     bravais-lattice index     =            0
     lattice parameter (alat)  =    14.643046803  a.u.
     unit-cell volume          =    2306.8980 (a.u.)^3
     number of atoms/cell      =           16
     number of atomic types    =            2
     number of electrons       =       194.00
     number of Kohn-Sham states=          116
     kinetic-energy cutoff     =      35.0000  Ry
     charge density cutoff     =     200.0000  Ry
     convergence threshold     =      1.0E-09
     mixing beta               =       0.3000
     number of iterations used =            8  local-TF  mixing
     Exchange-correlation      = SLA  PW   PSX  PSC ( 1  4 10  8 0)
     A smooth kinetic-energy cutoff is imposed at      34.5000 Ry
     height of the smooth step-function =             800.0000 Ry
     width of the smooth step-function  =               1.0000 Ry


     celldm(1)=  14.643047  celldm(2)=   0.000000  celldm(3)=   0.000000
     celldm(4)=   0.000000  celldm(5)=   0.000000  celldm(6)=   0.000000

     crystal axes: (cart. coord. in units of alat)
               a(1) = (  -0.017419710101   0.711036142238   0.702939654687 )  
               a(2) = (   0.717435523000  -0.015823761758   0.701343706344 )  
               a(3) = (   0.713838033685   0.705842704579  -0.012226272443 )  

     reciprocal axes: (cart. coord. in units 2 pi/alat)
               b(1) = ( -0.673496  0.693330  0.704592 )  
               b(2) = (  0.687124 -0.682652  0.707543 )  
               b(3) = (  0.693856  0.703011 -0.693914 )  


     PseudoPot. # 1 for Si read from file:
     /users/kfg/psuedo/gbrv_1.5/si.pbesol.UPF
     MD5 check sum: ef58ba74faed4df802eb8a9742fc00a8
     Pseudo is Ultrasoft + core correction, Zval =  4.0
     Generated by new atomic code, or converted to UPF format
     Using radial grid of  899 points,  6 beta functions with: 
                l(1) =   0
                l(2) =   0
                l(3) =   1
                l(4) =   1
                l(5) =   2
                l(6) =   2
     Q(r) pseudized with  8 coefficients,  rinner =    0.900   0.900   0.900
                                                       0.900   0.900

     PseudoPot. # 2 for Ge read from file:
     /users/kfg/psuedo/gbrv_1.5/ge.pbesol.UPF
     MD5 check sum: 7bed0412183f5e553a4d27ec7023354d
     Pseudo is Ultrasoft + core correction, Zval = 14.0
     Generated by new atomic code, or converted to UPF format
     Using radial grid of  873 points,  6 beta functions with: 
                l(1) =   0
                l(2) =   0
                l(3) =   1
                l(4) =   1
                l(5) =   2
                l(6) =   2
     Q(r) pseudized with  8 coefficients,  rinner =    1.400   1.400   1.400
                                                       1.400   1.400

     atomic species   valence    mass     pseudopotential
        Si             4.00    28.08550     Si( 1.00)
        Ge            14.00    72.59000     Ge( 1.00)

     No symmetry found


                                    s                        frac. trans.

      isym =  1     identity                                     

 cryst.   s( 1) = (     1          0          0      )
                  (     0          1          0      )
                  (     0          0          1      )

 cart.    s( 1) = (  1.0000000  0.0000000 -0.0000000 )
                  (  0.0000000  1.0000000 -0.0000000 )
                  (  0.0000000  0.0000000  1.0000000 )


     point group C_1 (1)    
     there are  1 classes
     the character table:

       E    
A      1.00

     the symmetry operations in each class:
     E        1

   Cartesian axes

     site n.     atom                  positions (alat units)
         1           Ge  tau(   1) = (   -0.00543928365   -0.00842518075    0.00679161491  )
         2           Ge  tau(   2) = (    0.17853688460    0.17307942093    0.18697308904  )
         3           Si  tau(   3) = (    0.35594964922    0.33641042451   -0.00501511671  )
         4           Ge  tau(   4) = (    0.52473562705    0.52499090258    0.16516401541  )
         5           Ge  tau(   5) = (    0.36563556915   -0.01618170288    0.36502137776  )
         6           Ge  tau(   6) = (    0.55567596932    0.17452915933    0.53044806653  )
         7           Ge  tau(   7) = (    0.70925732850    0.34035165509    0.33586315490  )
         8           Ge  tau(   8) = (    0.90185504106    0.50504975892    0.52460594762  )
         9           Ge  tau(   9) = (   -0.00025736504    0.36673436255    0.35146732488  )
        10           Si  tau(  10) = (    0.18266358030    0.54045752449    0.53877122770  )
        11           Ge  tau(  11) = (    0.32383263434    0.70653068728    0.33669489077  )
        12           Ge  tau(  12) = (    0.50572931431    0.88517486829    0.50268942286  )
        13           Ge  tau(  13) = (    0.36487122224    0.34721467516    0.71384157879  )
        14           Si  tau(  14) = (    0.53583425003    0.54413396918    0.86838149310  )
        15           Ge  tau(  15) = (    0.70614929176    0.70565824303    0.66806183895  )
        16           Ge  tau(  16) = (    0.86423951973    0.87956665758    0.87052551643  )

   Crystallographic axes

     site n.     atom                  positions (cryst. coord.)
         1           Ge  tau(   1) = (    0.00260722548    0.00681935783   -0.01440987395  )
         2           Ge  tau(   2) = (    0.13149690619    0.13681544683    0.11581235103  )
         3           Si  tau(   3) = (   -0.01002099316    0.01138203571    0.48695809593  )
         4           Ge  tau(   4) = (    0.12695756586    0.11903313283    0.61855571194  )
         5           Ge  tau(   5) = (   -0.00028227000    0.52055170218   -0.01097115907  )
         6           Ge  tau(   6) = (    0.12051004596    0.63799036337    0.14016942871  )
         7           Ge  tau(   7) = (   -0.00505968958    0.49264371229    0.49833305876  )
         8           Ge  tau(   8) = (    0.11240320915    0.64609435865    0.61678140908  )
         9           Ge  tau(   9) = (    0.50208210468   -0.00185068185    0.01375172534  )
        10           Si  tau(  10) = (    0.63130577681    0.13777177353    0.13282898228  )
        11           Ge  tau(  11) = (    0.50899107706   -0.02157529444    0.48775489335  )
        12           Ge  tau(  12) = (    0.62730206731    0.09890673473    0.62436786565  )
        13           Ge  tau(  13) = (    0.49796181986    0.51875838961    0.00191902947  )
        14           Si  tau(  14) = (    0.62823642685    0.61114747078    0.15174176216  )
        15           Ge  tau(  15) = (    0.48437588600    0.47617555526    0.52247387102  )
        16           Ge  tau(  16) = (    0.64113284153    0.60933594270    0.61393284828  )

     number of k points=    36  gaussian smearing, width (Ry)=  0.0150
                       cart. coord. in units 2pi/alat
        k(    1) = (   0.0000000   0.0000000   0.0000000), wk =   0.0312500
        k(    2) = (   0.1734639   0.1757529  -0.1734785), wk =   0.0625000
        k(    3) = (  -0.3469278  -0.3515057   0.3469571), wk =   0.0312500
        k(    4) = (   0.1717811  -0.1706630   0.1768856), wk =   0.0625000
        k(    5) = (   0.3452450   0.0050899   0.0034071), wk =   0.0625000
        k(    6) = (  -0.1751467  -0.5221687   0.5238427), wk =   0.0625000
        k(    7) = (  -0.0016828  -0.3464158   0.3503642), wk =   0.0625000
        k(    8) = (  -0.3435622   0.3413260  -0.3537713), wk =   0.0312500
        k(    9) = (  -0.1700983   0.5170788  -0.5272498), wk =   0.0625000
        k(   10) = (  -0.6904899  -0.0101798  -0.0068142), wk =   0.0312500
        k(   11) = (  -0.1683740   0.1733324   0.1761480), wk =   0.0625000
        k(   12) = (   0.0050899   0.3490853   0.0026694), wk =   0.0625000
        k(   13) = (  -0.5153018  -0.1781734   0.5231051), wk =   0.0625000
        k(   14) = (  -0.3418379  -0.0024205   0.3496265), wk =   0.0625000
        k(   15) = (   0.0034071   0.0026694   0.3530336), wk =   0.0625000
        k(   16) = (   0.1768710   0.1784223   0.1795550), wk =   0.0625000
        k(   17) = (  -0.3435207  -0.3488363   0.6999907), wk =   0.0625000
        k(   18) = (  -0.1700568  -0.1730835   0.5265121), wk =   0.0625000
        k(   19) = (  -0.5119362   0.5146583  -0.1776233), wk =   0.0625000
        k(   20) = (  -0.3384723   0.6904112  -0.3511018), wk =   0.0625000
        k(   21) = (  -0.8588639   0.1631526   0.1693338), wk =   0.0625000
        k(   22) = (  -0.6854001   0.3389055  -0.0041447), wk =   0.0625000
        k(   23) = (  -0.3401551   0.3439954  -0.0007377), wk =   0.0625000
        k(   24) = (  -0.1666912   0.5197482  -0.1742162), wk =   0.0625000
        k(   25) = (  -0.6870829  -0.0075104   0.3462194), wk =   0.0625000
        k(   26) = (  -0.5136190   0.1682425   0.1727409), wk =   0.0625000
        k(   27) = (   0.3367480  -0.3466648  -0.3522959), wk =   0.0312500
        k(   28) = (   0.5102119  -0.1709119  -0.5257745), wk =   0.0625000
        k(   29) = (  -0.0101798  -0.6981705  -0.0053388), wk =   0.0312500
        k(   30) = (   0.5085291  -0.5173277  -0.1754103), wk =   0.0625000
        k(   31) = (   0.6819930  -0.3415749  -0.3488888), wk =   0.0625000
        k(   32) = (   0.1616013  -0.8688335   0.1715468), wk =   0.0625000
        k(   33) = (   0.3350652  -0.6930806  -0.0019317), wk =   0.0625000
        k(   34) = (  -0.0068142  -0.0053388  -0.7060672), wk =   0.0312500
        k(   35) = (   0.1666497   0.1704141  -0.8795457), wk =   0.0625000
        k(   36) = (  -0.3537419  -0.3568446  -0.3591101), wk =   0.0312500

                       cryst. coord.
        k(    1) = (   0.0000000   0.0000000   0.0000000), wk =   0.0312500
        k(    2) = (  -0.0000000   0.0000000   0.2500000), wk =   0.0625000
        k(    3) = (   0.0000000   0.0000000  -0.5000000), wk =   0.0312500
        k(    4) = (   0.0000000   0.2500000   0.0000000), wk =   0.0625000
        k(    5) = (  -0.0000000   0.2500000   0.2500000), wk =   0.0625000
        k(    6) = (   0.0000000   0.2500000  -0.5000000), wk =   0.0625000
        k(    7) = (   0.0000000   0.2500000  -0.2500000), wk =   0.0625000
        k(    8) = (   0.0000000  -0.5000000  -0.0000000), wk =   0.0312500
        k(    9) = (   0.0000000  -0.5000000   0.2500000), wk =   0.0625000
        k(   10) = (   0.0000000  -0.5000000  -0.5000000), wk =   0.0312500
        k(   11) = (   0.2500000  -0.0000000  -0.0000000), wk =   0.0625000
        k(   12) = (   0.2500000  -0.0000000   0.2500000), wk =   0.0625000
        k(   13) = (   0.2500000  -0.0000000  -0.5000000), wk =   0.0625000
        k(   14) = (   0.2500000   0.0000000  -0.2500000), wk =   0.0625000
        k(   15) = (   0.2500000   0.2500000   0.0000000), wk =   0.0625000
        k(   16) = (   0.2500000   0.2500000   0.2500000), wk =   0.0625000
        k(   17) = (   0.2500000   0.2500000  -0.5000000), wk =   0.0625000
        k(   18) = (   0.2500000   0.2500000  -0.2500000), wk =   0.0625000
        k(   19) = (   0.2500000  -0.5000000  -0.0000000), wk =   0.0625000
        k(   20) = (   0.2500000  -0.5000000   0.2500000), wk =   0.0625000
        k(   21) = (   0.2500000  -0.5000000  -0.5000000), wk =   0.0625000
        k(   22) = (   0.2500000  -0.5000000  -0.2500000), wk =   0.0625000
        k(   23) = (   0.2500000  -0.2500000  -0.0000000), wk =   0.0625000
        k(   24) = (   0.2500000  -0.2500000   0.2500000), wk =   0.0625000
        k(   25) = (   0.2500000  -0.2500000  -0.5000000), wk =   0.0625000
        k(   26) = (   0.2500000  -0.2500000  -0.2500000), wk =   0.0625000
        k(   27) = (  -0.5000000   0.0000000   0.0000000), wk =   0.0312500
        k(   28) = (  -0.5000000   0.0000000   0.2500000), wk =   0.0625000
        k(   29) = (  -0.5000000   0.0000000  -0.5000000), wk =   0.0312500
        k(   30) = (  -0.5000000   0.2500000   0.0000000), wk =   0.0625000
        k(   31) = (  -0.5000000   0.2500000   0.2500000), wk =   0.0625000
        k(   32) = (  -0.5000000   0.2500000  -0.5000000), wk =   0.0625000
        k(   33) = (  -0.5000000   0.2500000  -0.2500000), wk =   0.0625000
        k(   34) = (  -0.5000000  -0.5000000  -0.0000000), wk =   0.0312500
        k(   35) = (  -0.5000000  -0.5000000   0.2500000), wk =   0.0625000
        k(   36) = (  -0.5000000  -0.5000000  -0.5000000), wk =   0.0312500

     Dense  grid:   110153 G-vectors     FFT dimensions: (  72,  72,  72)

     Smooth grid:    64537 G-vectors     FFT dimensions: (  60,  60,  60)

     Largest allocated arrays     est. size (Mb)     dimensions
        Kohn-Sham Wavefunctions         0.91 Mb     (     515,  116)
        NL pseudopotentials             2.26 Mb     (     515,  288)
        Each V/rho on FFT grid          0.40 Mb     (   25920)
        Each G-vector array             0.05 Mb     (    6885)
        G-vector shells                 0.05 Mb     (    6689)
     Largest temporary arrays     est. size (Mb)     dimensions
        Auxiliary wavefunctions         3.65 Mb     (     515,  464)
        Each subspace H/S matrix        3.29 Mb     (     464,  464)
        Each <psi_i|beta_j> matrix      0.51 Mb     (     288,  116)
        Arrays for rho mixing           3.16 Mb     (   25920,    8)

     Check: negative/imaginary core charge=   -0.000001    0.000000

     Initial potential from superposition of free atoms

     starting charge  193.98755, renormalised to  194.00000
     Starting wfc are  129 randomized atomic wfcs

     total cpu time spent up to now is       18.0 secs

     Self-consistent Calculation

     iteration #  1     ecut=    35.00 Ry     beta=0.30
     Davidson diagonalization with overlap
     ethr =  1.00E-02,  avg # of iterations =  3.3

     Threshold (ethr) on eigenvalues was too large:
     Diagonalizing with lowered threshold

     Davidson diagonalization with overlap
     ethr =  1.60E-04,  avg # of iterations =  5.7

     total cpu time spent up to now is      166.2 secs

     total energy              =   -2800.08826093 Ry
     Harris-Foulkes estimate   =   -2800.12290320 Ry
     estimated scf accuracy    <       0.32089437 Ry

     iteration #  2     ecut=    35.00 Ry     beta=0.30
     Davidson diagonalization with overlap
     ethr =  1.65E-04,  avg # of iterations =  1.0

     total cpu time spent up to now is      205.4 secs

     total energy              =   -2800.02333770 Ry
     Harris-Foulkes estimate   =   -2800.08960165 Ry
     estimated scf accuracy    <       0.19635636 Ry

     iteration #  3     ecut=    35.00 Ry     beta=0.30
     Davidson diagonalization with overlap
     ethr =  1.01E-04,  avg # of iterations =  2.0

     total cpu time spent up to now is      253.9 secs

     total energy              =   -2800.03634564 Ry
     Harris-Foulkes estimate   =   -2800.03661339 Ry
     estimated scf accuracy    <       0.00342365 Ry

     iteration #  4     ecut=    35.00 Ry     beta=0.30
     Davidson diagonalization with overlap
     ethr =  1.76E-06,  avg # of iterations =  7.4

     total cpu time spent up to now is      364.6 secs

     total energy              =   -2800.03659072 Ry
     Harris-Foulkes estimate   =   -2800.03673221 Ry
     estimated scf accuracy    <       0.00121312 Ry

     iteration #  5     ecut=    35.00 Ry     beta=0.30
     Davidson diagonalization with overlap
     ethr =  6.25E-07,  avg # of iterations =  2.0

     total cpu time spent up to now is      414.7 secs

     total energy              =   -2800.03668641 Ry
     Harris-Foulkes estimate   =   -2800.03671059 Ry
     estimated scf accuracy    <       0.00008871 Ry

     iteration #  6     ecut=    35.00 Ry     beta=0.30
     Davidson diagonalization with overlap
     ethr =  4.57E-08,  avg # of iterations =  2.0

     total cpu time spent up to now is      459.7 secs

     total energy              =   -2800.03668524 Ry
     Harris-Foulkes estimate   =   -2800.03669243 Ry
     estimated scf accuracy    <       0.00002379 Ry

     iteration #  7     ecut=    35.00 Ry     beta=0.30
     Davidson diagonalization with overlap
     ethr =  1.23E-08,  avg # of iterations =  2.0

     total cpu time spent up to now is      504.6 secs

     total energy              =   -2800.03668710 Ry
     Harris-Foulkes estimate   =   -2800.03668702 Ry
     estimated scf accuracy    <       0.00000492 Ry

     iteration #  8     ecut=    35.00 Ry     beta=0.30
     Davidson diagonalization with overlap
     ethr =  2.53E-09,  avg # of iterations =  2.0

     total cpu time spent up to now is      552.4 secs

     total energy              =   -2800.03668745 Ry
     Harris-Foulkes estimate   =   -2800.03668767 Ry
     estimated scf accuracy    <       0.00000127 Ry

     iteration #  9     ecut=    35.00 Ry     beta=0.30
     Davidson diagonalization with overlap
     ethr =  6.56E-10,  avg # of iterations =  2.0

     total cpu time spent up to now is      611.2 secs

     total energy              =   -2800.03668784 Ry
     Harris-Foulkes estimate   =   -2800.03668788 Ry
     estimated scf accuracy    <       0.00000044 Ry

     iteration # 10     ecut=    35.00 Ry     beta=0.30
     Davidson diagonalization with overlap
     ethr =  2.26E-10,  avg # of iterations =  2.0

     total cpu time spent up to now is      655.6 secs

     total energy              =   -2800.03668788 Ry
     Harris-Foulkes estimate   =   -2800.03668787 Ry
     estimated scf accuracy    <       0.00000009 Ry

     iteration # 11     ecut=    35.00 Ry     beta=0.30
     Davidson diagonalization with overlap
     ethr =  4.41E-11,  avg # of iterations =  2.0

     total cpu time spent up to now is      715.8 secs

     total energy              =   -2800.03668793 Ry
     Harris-Foulkes estimate   =   -2800.03668790 Ry
     estimated scf accuracy    <          5.1E-09 Ry

     iteration # 12     ecut=    35.00 Ry     beta=0.30
     Davidson diagonalization with overlap
     ethr =  2.62E-12,  avg # of iterations =  2.0

     total cpu time spent up to now is      767.3 secs

     total energy              =   -2800.03668795 Ry
     Harris-Foulkes estimate   =   -2800.03668793 Ry
     estimated scf accuracy    <          1.6E-09 Ry

     iteration # 13     ecut=    35.00 Ry     beta=0.30
     Davidson diagonalization with overlap
     ethr =  8.16E-13,  avg # of iterations =  2.0

     total cpu time spent up to now is      821.5 secs

     End of self-consistent calculation

          k = 0.0000 0.0000 0.0000 (  8055 PWs)   bands (ev):

   -16.6588 -16.6094 -16.5735 -16.5378 -16.5229 -16.5096 -16.4907 -16.4815
   -16.4551 -16.4443 -16.4305 -16.4160 -16.4072 -16.4018 -16.3917 -16.3783
   -16.3722 -16.3609 -16.3452 -16.3373 -16.3308 -16.3234 -16.3070 -16.2976
   -16.2883 -16.2845 -16.2774 -16.2639 -16.2635 -16.2456 -16.2400 -16.2296
   -16.2203 -16.2113 -16.2020 -16.1986 -16.1924 -16.1753 -16.1713 -16.1677
   -16.1588 -16.1534 -16.1478 -16.1432 -16.1306 -16.1141 -16.1027 -16.0976
   -16.0897 -16.0836 -16.0788 -16.0754 -16.0701 -16.0647 -16.0564 -16.0497
   -16.0436 -16.0315 -16.0127 -15.9879 -15.9669 -15.9472 -15.9466 -15.9363
   -15.8935  -4.5610  -2.5167  -2.4259  -2.1979  -2.0507  -0.6999  -0.6416
    -0.5513  -0.4137  -0.1749  -0.1059   0.5796   0.7622   0.9511   1.1057
     4.9701   5.0838   5.2190   5.3747   5.4311   5.4566   6.7301   6.8107
     6.8549   7.0200   7.0645   7.1523   7.2129   7.3319   8.1505   8.2662
     8.3341   8.5213   8.6370   8.6916   8.8879   8.9224   9.0013   9.1379
     9.1749   9.4241   9.4647   9.5788  10.8345  10.9516  11.2253  11.7001
    11.9697  11.9923  12.0622  12.0997

     occupation numbers 
     1.0000   1.0000   1.0000   1.0000   1.0000   1.0000   1.0000   1.0000
     1.0000   1.0000   1.0000   1.0000   1.0000   1.0000   1.0000   1.0000
     1.0000   1.0000   1.0000   1.0000   1.0000   1.0000   1.0000   1.0000
     1.0000   1.0000   1.0000   1.0000   1.0000   1.0000   1.0000   1.0000
     1.0000   1.0000   1.0000   1.0000   1.0000   1.0000   1.0000   1.0000
     1.0000   1.0000   1.0000   1.0000   1.0000   1.0000   1.0000   1.0000
     1.0000   1.0000   1.0000   1.0000   1.0000   1.0000   1.0000   1.0000
     1.0000   1.0000   1.0000   1.0000   1.0000   1.0000   1.0000   1.0000
     1.0000   1.0000   1.0000   1.0000   1.0000   1.0000   1.0000   1.0000
     1.0000   1.0000   1.0000   1.0000   1.0000   1.0000   1.0000   1.0000
     1.0000   1.0000   1.0000   1.0000   1.0000   1.0000   1.0000   1.0000
     1.0000   1.0000   1.0000   1.0000   1.0000   1.0000   0.9869   0.9226
     0.8295   0.3650   0.1258   0.0636   0.0020   0.0009   0.0001   0.0000
     0.0000   0.0000   0.0000   0.0000   0.0000   0.0000   0.0000   0.0000
     0.0000   0.0000   0.0000   0.0000

          k = 0.1735 0.1758-0.1735 (  8076 PWs)   bands (ev):

   -16.6595 -16.6123 -16.5735 -16.5402 -16.5263 -16.5089 -16.4912 -16.4774
   -16.4554 -16.4429 -16.4247 -16.4159 -16.4060 -16.3983 -16.3883 -16.3767
   -16.3698 -16.3590 -16.3456 -16.3363 -16.3295 -16.3219 -16.3057 -16.2990
   -16.2884 -16.2861 -16.2758 -16.2685 -16.2614 -16.2540 -16.2397 -16.2308
   -16.2260 -16.2183 -16.2036 -16.1984 -16.1927 -16.1760 -16.1690 -16.1650
   -16.1587 -16.1527 -16.1495 -16.1437 -16.1291 -16.1139 -16.1025 -16.0976
   -16.0889 -16.0837 -16.0788 -16.0728 -16.0701 -16.0636 -16.0551 -16.0495
   -16.0427 -16.0308 -16.0123 -15.9882 -15.9667 -15.9473 -15.9464 -15.9364
   -15.8935  -4.3731  -2.8962  -2.3943  -2.1972  -2.0778  -1.3729  -1.2369
    -1.1101   0.3465   0.4874   0.6003   0.8946   1.0471   1.3738   1.7542
     4.5376   4.6371   4.7912   5.1513   5.4878   5.5672   5.6645   5.7485
     5.8265   6.2765   6.4436   6.8281   6.9103   6.9855   7.3340   7.9616
     8.3475   8.7662   8.9607   9.2398   9.3729   9.7297   9.8973  10.0388
    10.1540  10.2325  10.3844  10.4699  11.3095  11.5156  11.7778  11.8910
    11.9690  12.0816  12.2942  12.3800

     occupation numbers 
     1.0000   1.0000   1.0000   1.0000   1.0000   1.0000   1.0000   1.0000
     1.0000   1.0000   1.0000   1.0000   1.0000   1.0000   1.0000   1.0000
     1.0000   1.0000   1.0000   1.0000   1.0000   1.0000   1.0000   1.0000
     1.0000   1.0000   1.0000   1.0000   1.0000   1.0000   1.0000   1.0000
     1.0000   1.0000   1.0000   1.0000   1.0000   1.0000   1.0000   1.0000
     1.0000   1.0000   1.0000   1.0000   1.0000   1.0000   1.0000   1.0000
     1.0000   1.0000   1.0000   1.0000   1.0000   1.0000   1.0000   1.0000
     1.0000   1.0000   1.0000   1.0000   1.0000   1.0000   1.0000   1.0000
     1.0000   1.0000   1.0000   1.0000   1.0000   1.0000   1.0000   1.0000
     1.0000   1.0000   1.0000   1.0000   1.0000   1.0000   1.0000   1.0000
     1.0000   1.0000   1.0000   1.0000   1.0000   1.0000   1.0000   1.0000
     1.0000   1.0000   1.0000   1.0000   1.0000   1.0000   1.0000   0.9998
     0.8050   0.0206   0.0003   0.0000   0.0000   0.0000   0.0000   0.0000
     0.0000   0.0000   0.0000   0.0000   0.0000   0.0000   0.0000   0.0000
     0.0000   0.0000   0.0000   0.0000

          k =-0.3469-0.3515 0.3470 (  8094 PWs)   bands (ev):

   -16.6601 -16.6151 -16.5738 -16.5426 -16.5285 -16.5091 -16.4916 -16.4738
   -16.4560 -16.4422 -16.4194 -16.4159 -16.4049 -16.3937 -16.3827 -16.3781
   -16.3661 -16.3571 -16.3464 -16.3349 -16.3276 -16.3192 -16.3049 -16.2977
   -16.2916 -16.2875 -16.2752 -16.2719 -16.2657 -16.2553 -16.2427 -16.2395
   -16.2250 -16.2222 -16.2065 -16.1982 -16.1922 -16.1768 -16.1679 -16.1625
   -16.1588 -16.1530 -16.1499 -16.1437 -16.1280 -16.1136 -16.1023 -16.0977
   -16.0882 -16.0837 -16.0789 -16.0718 -16.0689 -16.0627 -16.0537 -16.0491
   -16.0418 -16.0302 -16.0120 -15.9884 -15.9664 -15.9474 -15.9463 -15.9365
   -15.8936  -3.9818  -3.5464  -2.2580  -2.0683  -1.9573  -1.7834  -1.5965
    -1.5106   0.7913   0.8705   1.0364   1.1989   1.3690   1.7508   3.5433
     3.8412   4.2565   4.3632   4.5274   4.5699   4.7061   4.7571   5.5115
     5.9011   5.9301   6.0232   6.3395   6.3852   7.1984   7.5465   7.6139
     7.9379   9.1092   9.1807   9.5165   9.6689   9.8214   9.9687  10.0738
    10.2762  11.7921  11.9248  12.2054  12.2613  12.4176  12.4894  12.5360
    12.6964  12.8925  13.1542  13.4355

     occupation numbers 
     1.0000   1.0000   1.0000   1.0000   1.0000   1.0000   1.0000   1.0000
     1.0000   1.0000   1.0000   1.0000   1.0000   1.0000   1.0000   1.0000
     1.0000   1.0000   1.0000   1.0000   1.0000   1.0000   1.0000   1.0000
     1.0000   1.0000   1.0000   1.0000   1.0000   1.0000   1.0000   1.0000
     1.0000   1.0000   1.0000   1.0000   1.0000   1.0000   1.0000   1.0000
     1.0000   1.0000   1.0000   1.0000   1.0000   1.0000   1.0000   1.0000
     1.0000   1.0000   1.0000   1.0000   1.0000   1.0000   1.0000   1.0000
     1.0000   1.0000   1.0000   1.0000   1.0000   1.0000   1.0000   1.0000
     1.0000   1.0000   1.0000   1.0000   1.0000   1.0000   1.0000   1.0000
     1.0000   1.0000   1.0000   1.0000   1.0000   1.0000   1.0000   1.0000
     1.0000   1.0000   1.0000   1.0000   1.0000   1.0000   1.0000   1.0000
     1.0000   1.0000   1.0000   1.0000   1.0000   1.0000   1.0000   1.0000
     0.9999   0.0000   0.0000   0.0000   0.0000   0.0000   0.0000   0.0000
     0.0000   0.0000   0.0000   0.0000   0.0000   0.0000   0.0000   0.0000
     0.0000   0.0000   0.0000   0.0000

          k = 0.1718-0.1707 0.1769 (  8061 PWs)   bands (ev):

   -16.6599 -16.6127 -16.5728 -16.5477 -16.5227 -16.5102 -16.4833 -16.4754
   -16.4568 -16.4344 -16.4313 -16.4154 -16.4037 -16.3979 -16.3888 -16.3774
   -16.3703 -16.3606 -16.3487 -16.3362 -16.3324 -16.3265 -16.3099 -16.2991
   -16.2916 -16.2870 -16.2805 -16.2675 -16.2548 -16.2520 -16.2405 -16.2244
   -16.2222 -16.2124 -16.2035 -16.1972 -16.1939 -16.1811 -16.1711 -16.1648
   -16.1615 -16.1536 -16.1495 -16.1378 -16.1292 -16.1100 -16.1023 -16.0975
   -16.0914 -16.0840 -16.0785 -16.0750 -16.0692 -16.0641 -16.0584 -16.0520
   -16.0460 -16.0279 -16.0099 -15.9872 -15.9667 -15.9473 -15.9466 -15.9364
   -15.8936  -4.3694  -2.9764  -2.4101  -2.1654  -1.9692  -1.4360  -1.2338
    -0.9430   0.2328   0.3979   0.6771   0.7607   1.1139   1.2332   1.8422
     4.5012   4.6719   4.8385   5.2504   5.5145   5.5897   5.6017   5.7187
     5.9364   6.3332   6.4669   6.7267   6.8130   7.0844   7.4088   7.9325
     8.3374   8.8565   8.9636   9.0980   9.3782   9.7642   9.8594   9.9720
    10.0528  10.2701  10.3529  10.5404  11.3324  11.5139  11.6449  11.7718
    11.9783  12.1183  12.1958  12.2473

     occupation numbers 
     1.0000   1.0000   1.0000   1.0000   1.0000   1.0000   1.0000   1.0000
     1.0000   1.0000   1.0000   1.0000   1.0000   1.0000   1.0000   1.0000
     1.0000   1.0000   1.0000   1.0000   1.0000   1.0000   1.0000   1.0000
     1.0000   1.0000   1.0000   1.0000   1.0000   1.0000   1.0000   1.0000
     1.0000   1.0000   1.0000   1.0000   1.0000   1.0000   1.0000   1.0000
     1.0000   1.0000   1.0000   1.0000   1.0000   1.0000   1.0000   1.0000
     1.0000   1.0000   1.0000   1.0000   1.0000   1.0000   1.0000   1.0000
     1.0000   1.0000   1.0000   1.0000   1.0000   1.0000   1.0000   1.0000
     1.0000   1.0000   1.0000   1.0000   1.0000   1.0000   1.0000   1.0000
     1.0000   1.0000   1.0000   1.0000   1.0000   1.0000   1.0000   1.0000
     1.0000   1.0000   1.0000   1.0000   1.0000   1.0000   1.0000   1.0000
     1.0000   1.0000   1.0000   1.0000   1.0000   1.0000   1.0000   0.9999
     0.8236   0.0038   0.0003   0.0000   0.0000   0.0000   0.0000   0.0000
     0.0000   0.0000   0.0000   0.0000   0.0000   0.0000   0.0000   0.0000
     0.0000   0.0000   0.0000   0.0000

          k = 0.3452 0.0051 0.0034 (  8050 PWs)   bands (ev):

   -16.6603 -16.6107 -16.5737 -16.5457 -16.5214 -16.5121 -16.4894 -16.4752
   -16.4570 -16.4386 -16.4291 -16.4150 -16.4045 -16.3982 -16.3908 -16.3744
   -16.3670 -16.3592 -16.3460 -16.3353 -16.3332 -16.3254 -16.3085 -16.2970
   -16.2890 -16.2853 -16.2837 -16.2707 -16.2532 -16.2465 -16.2409 -16.2275
   -16.2209 -16.2136 -16.2032 -16.1977 -16.1955 -16.1823 -16.1698 -16.1669
   -16.1615 -16.1549 -16.1479 -16.1456 -16.1286 -16.1100 -16.1024 -16.0975
   -16.0912 -16.0837 -16.0784 -16.0729 -16.0697 -16.0638 -16.0567 -16.0520
   -16.0455 -16.0279 -16.0097 -15.9868 -15.9668 -15.9473 -15.9464 -15.9363
   -15.8937  -4.3080  -2.7204  -2.5186  -2.3793  -2.2041  -2.0056  -0.5638
    -0.4018  -0.2635  -0.1357   1.0700   1.2122   1.3136   1.5219   1.8250
     4.5204   4.6007   4.8075   4.8475   5.3338   5.3831   5.4911   5.6278
     5.6826   5.8175   6.3402   6.8740   6.9896   7.0524   7.1884   7.5455
     7.7419   8.9276   9.5776   9.7569   9.8662   9.9570  10.0249  10.2483
    10.3262  10.4749  10.5326  10.6187  11.1366  11.8215  12.0077  12.0805
    12.1421  12.1732  12.3373  12.4292

     occupation numbers 
     1.0000   1.0000   1.0000   1.0000   1.0000   1.0000   1.0000   1.0000
     1.0000   1.0000   1.0000   1.0000   1.0000   1.0000   1.0000   1.0000
     1.0000   1.0000   1.0000   1.0000   1.0000   1.0000   1.0000   1.0000
     1.0000   1.0000   1.0000   1.0000   1.0000   1.0000   1.0000   1.0000
     1.0000   1.0000   1.0000   1.0000   1.0000   1.0000   1.0000   1.0000
     1.0000   1.0000   1.0000   1.0000   1.0000   1.0000   1.0000   1.0000
     1.0000   1.0000   1.0000   1.0000   1.0000   1.0000   1.0000   1.0000
     1.0000   1.0000   1.0000   1.0000   1.0000   1.0000   1.0000   1.0000
     1.0000   1.0000   1.0000   1.0000   1.0000   1.0000   1.0000   1.0000
     1.0000   1.0000   1.0000   1.0000   1.0000   1.0000   1.0000   1.0000
     1.0000   1.0000   1.0000   1.0000   1.0000   1.0000   1.0000   1.0000
     1.0000   1.0000   1.0000   1.0000   1.0000   1.0000   1.0000   1.0000
     1.0000   0.0008   0.0000   0.0000   0.0000   0.0000   0.0000   0.0000
     0.0000   0.0000   0.0000   0.0000   0.0000   0.0000   0.0000   0.0000
     0.0000   0.0000   0.0000   0.0000

          k =-0.1751-0.5222 0.5238 (  8070 PWs)   bands (ev):

   -16.6610 -16.6135 -16.5739 -16.5477 -16.5256 -16.5119 -16.4873 -16.4740
   -16.4566 -16.4385 -16.4220 -16.4153 -16.4022 -16.3927 -16.3919 -16.3708
   -16.3655 -16.3573 -16.3449 -16.3375 -16.3313 -16.3226 -16.3076 -16.2973
   -16.2935 -16.2867 -16.2801 -16.2709 -16.2574 -16.2510 -16.2419 -16.2350
   -16.2226 -16.2185 -16.2044 -16.1985 -16.1962 -16.1816 -16.1700 -16.1623
   -16.1618 -16.1558 -16.1508 -16.1428 -16.1280 -16.1098 -16.1022 -16.0976
   -16.0905 -16.0837 -16.0785 -16.0713 -16.0696 -16.0626 -16.0555 -16.0513
   -16.0449 -16.0273 -16.0093 -15.9872 -15.9666 -15.9475 -15.9463 -15.9364
   -15.8937  -3.9137  -3.2702  -2.8822  -2.3641  -2.2046  -1.7357  -1.1890
    -0.9547   0.3671   0.5369   0.9689   1.5740   1.9064   2.5775   2.9614
     3.9192   4.0687   4.1716   4.3523   4.6030   4.7966   5.0799   5.3337
     5.3919   5.6978   6.0888   6.2376   6.3927   6.5903   6.9090   7.1652
     7.6867   9.6798  10.0064  10.2598  10.3754  10.5693  10.6446  10.9133
    11.0420  11.1775  11.2951  11.7942  11.9032  12.2084  12.3260  12.4878
    12.6988  12.9560  13.0217  13.1695

     occupation numbers 
     1.0000   1.0000   1.0000   1.0000   1.0000   1.0000   1.0000   1.0000
     1.0000   1.0000   1.0000   1.0000   1.0000   1.0000   1.0000   1.0000
     1.0000   1.0000   1.0000   1.0000   1.0000   1.0000   1.0000   1.0000
     1.0000   1.0000   1.0000   1.0000   1.0000   1.0000   1.0000   1.0000
     1.0000   1.0000   1.0000   1.0000   1.0000   1.0000   1.0000   1.0000
     1.0000   1.0000   1.0000   1.0000   1.0000   1.0000   1.0000   1.0000
     1.0000   1.0000   1.0000   1.0000   1.0000   1.0000   1.0000   1.0000
     1.0000   1.0000   1.0000   1.0000   1.0000   1.0000   1.0000   1.0000
     1.0000   1.0000   1.0000   1.0000   1.0000   1.0000   1.0000   1.0000
     1.0000   1.0000   1.0000   1.0000   1.0000   1.0000   1.0000   1.0000
     1.0000   1.0000   1.0000   1.0000   1.0000   1.0000   1.0000   1.0000
     1.0000   1.0000   1.0000   1.0000   1.0000   1.0000   1.0000   1.0000
     1.0000   0.0000   0.0000   0.0000   0.0000   0.0000   0.0000   0.0000
     0.0000   0.0000   0.0000   0.0000   0.0000   0.0000   0.0000   0.0000
     0.0000   0.0000   0.0000   0.0000

          k =-0.0017-0.3464 0.3504 (  8054 PWs)   bands (ev):

   -16.6606 -16.6153 -16.5732 -16.5496 -16.5259 -16.5107 -16.4822 -16.4736
   -16.4563 -16.4370 -16.4211 -16.4159 -16.4028 -16.3942 -16.3832 -16.3756
   -16.3696 -16.3584 -16.3482 -16.3367 -16.3306 -16.3257 -16.3105 -16.2998
   -16.2923 -16.2871 -16.2795 -16.2707 -16.2605 -16.2537 -16.2410 -16.2302
   -16.2232 -16.2178 -16.2035 -16.1987 -16.1951 -16.1809 -16.1705 -16.1632
   -16.1597 -16.1546 -16.1499 -16.1379 -16.1283 -16.1100 -16.1020 -16.0976
   -16.0906 -16.0840 -16.0785 -16.0726 -16.0694 -16.0628 -16.0571 -16.0516
   -16.0454 -16.0272 -16.0096 -15.9875 -15.9665 -15.9474 -15.9464 -15.9364
   -15.8937  -4.0660  -3.1355  -2.9612  -2.1072  -1.9401  -1.6585  -1.5265
    -0.8961   0.1789   0.6707   0.8056   1.3875   1.6951   2.2781   2.4503
     3.7989   4.4225   4.5407   4.6792   4.8030   5.1243   5.3633   5.4466
     5.8257   5.9487   6.1464   6.1747   6.2336   6.6136   6.7920   6.9030
     8.2133   9.6037   9.8514  10.1053  10.2522  10.4040  10.4599  10.6382
    10.8254  11.0101  11.2581  11.3910  11.4958  11.7052  11.7370  11.9101
    12.0209  12.3959  13.1064  13.2112

     occupation numbers 
     1.0000   1.0000   1.0000   1.0000   1.0000   1.0000   1.0000   1.0000
     1.0000   1.0000   1.0000   1.0000   1.0000   1.0000   1.0000   1.0000
     1.0000   1.0000   1.0000   1.0000   1.0000   1.0000   1.0000   1.0000
     1.0000   1.0000   1.0000   1.0000   1.0000   1.0000   1.0000   1.0000
     1.0000   1.0000   1.0000   1.0000   1.0000   1.0000   1.0000   1.0000
     1.0000   1.0000   1.0000   1.0000   1.0000   1.0000   1.0000   1.0000
     1.0000   1.0000   1.0000   1.0000   1.0000   1.0000   1.0000   1.0000
     1.0000   1.0000   1.0000   1.0000   1.0000   1.0000   1.0000   1.0000
     1.0000   1.0000   1.0000   1.0000   1.0000   1.0000   1.0000   1.0000
     1.0000   1.0000   1.0000   1.0000   1.0000   1.0000   1.0000   1.0000
     1.0000   1.0000   1.0000   1.0000   1.0000   1.0000   1.0000   1.0000
     1.0000   1.0000   1.0000   1.0000   1.0000   1.0000   1.0000   1.0000
     0.9632   0.0000   0.0000   0.0000   0.0000   0.0000   0.0000   0.0000
     0.0000   0.0000   0.0000   0.0000   0.0000   0.0000   0.0000   0.0000
     0.0000   0.0000   0.0000   0.0000

          k =-0.3436 0.3413-0.3538 (  8062 PWs)   bands (ev):

   -16.6610 -16.6158 -16.5723 -16.5543 -16.5240 -16.5114 -16.4789 -16.4706
   -16.4539 -16.4326 -16.4234 -16.4157 -16.4039 -16.3879 -16.3859 -16.3810
   -16.3655 -16.3588 -16.3504 -16.3454 -16.3301 -16.3270 -16.3146 -16.3062
   -16.2923 -16.2879 -16.2822 -16.2715 -16.2543 -16.2476 -16.2430 -16.2228
   -16.2185 -16.2148 -16.2051 -16.2010 -16.1929 -16.1851 -16.1721 -16.1651
   -16.1612 -16.1525 -16.1513 -16.1319 -16.1288 -16.1073 -16.1024 -16.0971
   -16.0929 -16.0845 -16.0781 -16.0748 -16.0692 -16.0639 -16.0608 -16.0528
   -16.0474 -16.0261 -16.0071 -15.9866 -15.9666 -15.9474 -15.9466 -15.9364
   -15.8938  -3.8900  -3.7158  -2.2355  -2.0461  -1.9063  -1.8052  -1.5766
    -1.3459   0.6485   0.8323   0.9670   1.1164   1.4579   1.5387   3.5847
     3.8085   4.3402   4.4202   4.5029   4.6666   4.7454   4.9276   5.7303
     5.7871   6.0510   6.0904   6.1300   6.2143   7.4123   7.4535   7.7509
     7.8265   9.2451   9.2702   9.4346   9.5154   9.8899   9.9986  10.0572
    10.1123  11.8726  11.8757  12.0596  12.1049  12.2419  12.3571  12.5864
    12.6823  12.8471  13.0254  13.4387

     occupation numbers 
     1.0000   1.0000   1.0000   1.0000   1.0000   1.0000   1.0000   1.0000
     1.0000   1.0000   1.0000   1.0000   1.0000   1.0000   1.0000   1.0000
     1.0000   1.0000   1.0000   1.0000   1.0000   1.0000   1.0000   1.0000
     1.0000   1.0000   1.0000   1.0000   1.0000   1.0000   1.0000   1.0000
     1.0000   1.0000   1.0000   1.0000   1.0000   1.0000   1.0000   1.0000
     1.0000   1.0000   1.0000   1.0000   1.0000   1.0000   1.0000   1.0000
     1.0000   1.0000   1.0000   1.0000   1.0000   1.0000   1.0000   1.0000
     1.0000   1.0000   1.0000   1.0000   1.0000   1.0000   1.0000   1.0000
     1.0000   1.0000   1.0000   1.0000   1.0000   1.0000   1.0000   1.0000
     1.0000   1.0000   1.0000   1.0000   1.0000   1.0000   1.0000   1.0000
     1.0000   1.0000   1.0000   1.0000   1.0000   1.0000   1.0000   1.0000
     1.0000   1.0000   1.0000   1.0000   1.0000   1.0000   1.0000   1.0000
     1.0000   0.0000   0.0000   0.0000   0.0000   0.0000   0.0000   0.0000
     0.0000   0.0000   0.0000   0.0000   0.0000   0.0000   0.0000   0.0000
     0.0000   0.0000   0.0000   0.0000

          k =-0.1701 0.5171-0.5272 (  8072 PWs)   bands (ev):

   -16.6615 -16.6140 -16.5732 -16.5528 -16.5231 -16.5126 -16.4838 -16.4718
   -16.4543 -16.4340 -16.4243 -16.4147 -16.4015 -16.3917 -16.3875 -16.3793
   -16.3622 -16.3559 -16.3527 -16.3436 -16.3275 -16.3237 -16.3140 -16.3042
   -16.2910 -16.2870 -16.2846 -16.2690 -16.2550 -16.2464 -16.2434 -16.2259
   -16.2181 -16.2143 -16.2046 -16.2012 -16.1948 -16.1859 -16.1717 -16.1653
   -16.1609 -16.1564 -16.1508 -16.1377 -16.1283 -16.1076 -16.1023 -16.0969
   -16.0927 -16.0841 -16.0779 -16.0726 -16.0694 -16.0640 -16.0589 -16.0527
   -16.0469 -16.0260 -16.0069 -15.9863 -15.9666 -15.9473 -15.9463 -15.9364
   -15.8938  -3.8815  -3.3987  -2.7999  -2.3687  -2.2084  -1.6519  -1.1595
    -0.9586   0.3459   0.5118   0.8694   1.6060   1.8675   2.4291   3.0165
     3.8978   4.0497   4.1567   4.4885   4.7042   4.8238   5.1826   5.3280
     5.4416   5.7717   6.0536   6.2572   6.3320   6.4381   6.8709   7.2099
     7.6922   9.7152  10.1387  10.2607  10.4321  10.4916  10.5372  10.9548
    11.1225  11.1843  11.3640  11.6750  11.8368  12.0649  12.2500  12.4068
    12.7110  12.8549  12.9939  13.0961

     occupation numbers 
     1.0000   1.0000   1.0000   1.0000   1.0000   1.0000   1.0000   1.0000
     1.0000   1.0000   1.0000   1.0000   1.0000   1.0000   1.0000   1.0000
     1.0000   1.0000   1.0000   1.0000   1.0000   1.0000   1.0000   1.0000
     1.0000   1.0000   1.0000   1.0000   1.0000   1.0000   1.0000   1.0000
     1.0000   1.0000   1.0000   1.0000   1.0000   1.0000   1.0000   1.0000
     1.0000   1.0000   1.0000   1.0000   1.0000   1.0000   1.0000   1.0000
     1.0000   1.0000   1.0000   1.0000   1.0000   1.0000   1.0000   1.0000
     1.0000   1.0000   1.0000   1.0000   1.0000   1.0000   1.0000   1.0000
     1.0000   1.0000   1.0000   1.0000   1.0000   1.0000   1.0000   1.0000
     1.0000   1.0000   1.0000   1.0000   1.0000   1.0000   1.0000   1.0000
     1.0000   1.0000   1.0000   1.0000   1.0000   1.0000   1.0000   1.0000
     1.0000   1.0000   1.0000   1.0000   1.0000   1.0000   1.0000   1.0000
     1.0000   0.0000   0.0000   0.0000   0.0000   0.0000   0.0000   0.0000
     0.0000   0.0000   0.0000   0.0000   0.0000   0.0000   0.0000   0.0000
     0.0000   0.0000   0.0000   0.0000

          k =-0.6905-0.0102-0.0068 (  8074 PWs)   bands (ev):

   -16.6618 -16.6120 -16.5743 -16.5510 -16.5209 -16.5145 -16.4897 -16.4722
   -16.4546 -16.4346 -16.4269 -16.4139 -16.3984 -16.3933 -16.3896 -16.3780
   -16.3578 -16.3547 -16.3536 -16.3433 -16.3261 -16.3187 -16.3136 -16.2992
   -16.2945 -16.2885 -16.2809 -16.2714 -16.2534 -16.2461 -16.2434 -16.2269
   -16.2180 -16.2128 -16.2040 -16.2027 -16.1972 -16.1865 -16.1705 -16.1672
   -16.1623 -16.1568 -16.1497 -16.1442 -16.1278 -16.1078 -16.1021 -16.0967
   -16.0923 -16.0838 -16.0777 -16.0709 -16.0697 -16.0640 -16.0574 -16.0523
   -16.0463 -16.0260 -16.0067 -15.9860 -15.9666 -15.9474 -15.9461 -15.9363
   -15.8939  -3.6627  -3.4683  -2.6647  -2.5778  -2.3421  -2.3200  -0.4964
    -0.3252  -0.2111  -0.0409   1.7860   1.9350   2.0425   2.3003   3.7776
     3.8796   4.0812   4.1966   4.2563   4.3217   4.4198   4.4566   4.5329
     4.6319   6.1872   6.2846   6.4257   6.4935   6.8810   7.0448   7.1217
     7.1614   9.3814   9.4472  10.3638  10.4482  10.6483  10.7067  11.2033
    11.2866  12.2852  12.3792  12.4116  12.5596  12.8225  12.9519  12.9837
    13.0457  13.0730  13.1194  13.2155

     occupation numbers 
     1.0000   1.0000   1.0000   1.0000   1.0000   1.0000   1.0000   1.0000
     1.0000   1.0000   1.0000   1.0000   1.0000   1.0000   1.0000   1.0000
     1.0000   1.0000   1.0000   1.0000   1.0000   1.0000   1.0000   1.0000
     1.0000   1.0000   1.0000   1.0000   1.0000   1.0000   1.0000   1.0000
     1.0000   1.0000   1.0000   1.0000   1.0000   1.0000   1.0000   1.0000
     1.0000   1.0000   1.0000   1.0000   1.0000   1.0000   1.0000   1.0000
     1.0000   1.0000   1.0000   1.0000   1.0000   1.0000   1.0000   1.0000
     1.0000   1.0000   1.0000   1.0000   1.0000   1.0000   1.0000   1.0000
     1.0000   1.0000   1.0000   1.0000   1.0000   1.0000   1.0000   1.0000
     1.0000   1.0000   1.0000   1.0000   1.0000   1.0000   1.0000   1.0000
     1.0000   1.0000   1.0000   1.0000   1.0000   1.0000   1.0000   1.0000
     1.0000   1.0000   1.0000   1.0000   1.0000   1.0000   1.0000   1.0000
     1.0000   0.0000   0.0000   0.0000   0.0000   0.0000   0.0000   0.0000
     0.0000   0.0000   0.0000   0.0000   0.0000   0.0000   0.0000   0.0000
     0.0000   0.0000   0.0000   0.0000

          k =-0.1684 0.1733 0.1761 (  8038 PWs)   bands (ev):

   -16.6607 -16.6106 -16.5740 -16.5452 -16.5211 -16.5131 -16.4883 -16.4723
   -16.4545 -16.4395 -16.4284 -16.4154 -16.4025 -16.3988 -16.3899 -16.3780
   -16.3684 -16.3611 -16.3471 -16.3391 -16.3343 -16.3231 -16.3080 -16.3021
   -16.2916 -16.2849 -16.2801 -16.2747 -16.2544 -16.2453 -16.2409 -16.2322
   -16.2237 -16.2120 -16.2033 -16.1984 -16.1906 -16.1764 -16.1686 -16.1665
   -16.1580 -16.1536 -16.1481 -16.1438 -16.1294 -16.1129 -16.1035 -16.0973
   -16.0896 -16.0834 -16.0795 -16.0729 -16.0709 -16.0636 -16.0550 -16.0502
   -16.0430 -16.0315 -16.0133 -15.9874 -15.9668 -15.9472 -15.9464 -15.9364
   -15.8939  -4.3718  -2.9915  -2.3203  -2.1506  -2.0622  -1.3212  -1.2162
    -1.1476   0.3100   0.4294   0.6015   0.8925   1.0408   1.3670   1.7147
     4.4893   4.5854   4.8066   5.3500   5.4876   5.5698   5.5924   5.6947
     5.8774   6.1772   6.5673   6.7545   6.8570   7.1533   7.3499   8.0566
     8.3355   9.0473   9.0967   9.1893   9.4224   9.6361   9.8458   9.8894
    10.0929  10.1860  10.2858  10.5432  11.3027  11.4893  11.6172  11.8558
    12.0183  12.0611  12.1957  12.4122

     occupation numbers 
     1.0000   1.0000   1.0000   1.0000   1.0000   1.0000   1.0000   1.0000
     1.0000   1.0000   1.0000   1.0000   1.0000   1.0000   1.0000   1.0000
     1.0000   1.0000   1.0000   1.0000   1.0000   1.0000   1.0000   1.0000
     1.0000   1.0000   1.0000   1.0000   1.0000   1.0000   1.0000   1.0000
     1.0000   1.0000   1.0000   1.0000   1.0000   1.0000   1.0000   1.0000
     1.0000   1.0000   1.0000   1.0000   1.0000   1.0000   1.0000   1.0000
     1.0000   1.0000   1.0000   1.0000   1.0000   1.0000   1.0000   1.0000
     1.0000   1.0000   1.0000   1.0000   1.0000   1.0000   1.0000   1.0000
     1.0000   1.0000   1.0000   1.0000   1.0000   1.0000   1.0000   1.0000
     1.0000   1.0000   1.0000   1.0000   1.0000   1.0000   1.0000   1.0000
     1.0000   1.0000   1.0000   1.0000   1.0000   1.0000   1.0000   1.0000
     1.0000   1.0000   1.0000   1.0000   1.0000   1.0000   1.0000   0.9980
     0.8271   0.0000   0.0000   0.0000   0.0000   0.0000   0.0000   0.0000
     0.0000   0.0000   0.0000   0.0000   0.0000   0.0000   0.0000   0.0000
     0.0000   0.0000   0.0000   0.0000

          k = 0.0051 0.3491 0.0027 (  8052 PWs)   bands (ev):

   -16.6602 -16.6131 -16.5739 -16.5482 -16.5226 -16.5107 -16.4840 -16.4730
   -16.4550 -16.4352 -16.4303 -16.4136 -16.4021 -16.3989 -16.3876 -16.3778
   -16.3693 -16.3600 -16.3475 -16.3387 -16.3323 -16.3243 -16.3049 -16.3035
   -16.2945 -16.2859 -16.2756 -16.2694 -16.2592 -16.2527 -16.2405 -16.2339
   -16.2243 -16.2202 -16.2025 -16.1980 -16.1905 -16.1759 -16.1688 -16.1647
   -16.1569 -16.1522 -16.1471 -16.1412 -16.1293 -16.1132 -16.1029 -16.0973
   -16.0889 -16.0837 -16.0793 -16.0742 -16.0700 -16.0646 -16.0543 -16.0495
   -16.0433 -16.0311 -16.0129 -15.9876 -15.9666 -15.9474 -15.9466 -15.9363
   -15.8939  -4.3034  -2.6927  -2.5754  -2.3491  -2.2553  -1.9263  -0.6375
    -0.4954  -0.2851  -0.0322   1.0346   1.1762   1.4036   1.5783   1.8468
     4.5001   4.6824   4.7740   4.8588   5.3120   5.4573   5.4825   5.6711
     5.7016   5.8148   6.4037   6.7508   6.9074   7.0110   7.1980   7.3979
     7.7800   8.7810   9.5505   9.7083   9.8269  10.0206  10.1064  10.2196
    10.2965  10.3993  10.4786  10.7416  11.1700  11.8149  12.0483  12.1411
    12.2148  12.2436  12.3644  12.5160

     occupation numbers 
     1.0000   1.0000   1.0000   1.0000   1.0000   1.0000   1.0000   1.0000
     1.0000   1.0000   1.0000   1.0000   1.0000   1.0000   1.0000   1.0000
     1.0000   1.0000   1.0000   1.0000   1.0000   1.0000   1.0000   1.0000
     1.0000   1.0000   1.0000   1.0000   1.0000   1.0000   1.0000   1.0000
     1.0000   1.0000   1.0000   1.0000   1.0000   1.0000   1.0000   1.0000
     1.0000   1.0000   1.0000   1.0000   1.0000   1.0000   1.0000   1.0000
     1.0000   1.0000   1.0000   1.0000   1.0000   1.0000   1.0000   1.0000
     1.0000   1.0000   1.0000   1.0000   1.0000   1.0000   1.0000   1.0000
     1.0000   1.0000   1.0000   1.0000   1.0000   1.0000   1.0000   1.0000
     1.0000   1.0000   1.0000   1.0000   1.0000   1.0000   1.0000   1.0000
     1.0000   1.0000   1.0000   1.0000   1.0000   1.0000   1.0000   1.0000
     1.0000   1.0000   1.0000   1.0000   1.0000   1.0000   1.0000   1.0000
     1.0000   0.0160   0.0000   0.0000   0.0000   0.0000   0.0000   0.0000
     0.0000   0.0000   0.0000   0.0000   0.0000   0.0000   0.0000   0.0000
     0.0000   0.0000   0.0000   0.0000

          k =-0.5153-0.1782 0.5231 (  8070 PWs)   bands (ev):

   -16.6609 -16.6157 -16.5743 -16.5502 -16.5257 -16.5109 -16.4820 -16.4718
   -16.4548 -16.4376 -16.4221 -16.4105 -16.4024 -16.3944 -16.3861 -16.3755
   -16.3660 -16.3581 -16.3476 -16.3368 -16.3327 -16.3223 -16.3059 -16.3012
   -16.2946 -16.2869 -16.2764 -16.2723 -16.2624 -16.2543 -16.2440 -16.2406
   -16.2270 -16.2222 -16.2050 -16.1980 -16.1904 -16.1764 -16.1684 -16.1621
   -16.1567 -16.1511 -16.1474 -16.1429 -16.1280 -16.1130 -16.1025 -16.0973
   -16.0882 -16.0838 -16.0791 -16.0722 -16.0699 -16.0633 -16.0534 -16.0488
   -16.0424 -16.0303 -16.0126 -15.9879 -15.9663 -15.9475 -15.9464 -15.9363
   -15.8940  -3.9051  -3.2896  -2.8326  -2.3453  -2.2990  -1.6683  -1.2178
    -0.9972   0.4110   0.5488   0.8227   1.6975   2.0123   2.5028   2.9816
     3.9267   4.0638   4.1325   4.4231   4.7036   4.8019   5.0733   5.3231
     5.3999   5.7203   6.0681   6.1566   6.3005   6.5858   6.8471   7.1362
     7.7175   9.6101  10.0637  10.1866  10.2786  10.4340  10.6488  10.9488
    11.0440  11.1783  11.2852  11.5608  11.7375  12.2206  12.5199  12.6033
    12.8428  13.0623  13.1613  13.3008

     occupation numbers 
     1.0000   1.0000   1.0000   1.0000   1.0000   1.0000   1.0000   1.0000
     1.0000   1.0000   1.0000   1.0000   1.0000   1.0000   1.0000   1.0000
     1.0000   1.0000   1.0000   1.0000   1.0000   1.0000   1.0000   1.0000
     1.0000   1.0000   1.0000   1.0000   1.0000   1.0000   1.0000   1.0000
     1.0000   1.0000   1.0000   1.0000   1.0000   1.0000   1.0000   1.0000
     1.0000   1.0000   1.0000   1.0000   1.0000   1.0000   1.0000   1.0000
     1.0000   1.0000   1.0000   1.0000   1.0000   1.0000   1.0000   1.0000
     1.0000   1.0000   1.0000   1.0000   1.0000   1.0000   1.0000   1.0000
     1.0000   1.0000   1.0000   1.0000   1.0000   1.0000   1.0000   1.0000
     1.0000   1.0000   1.0000   1.0000   1.0000   1.0000   1.0000   1.0000
     1.0000   1.0000   1.0000   1.0000   1.0000   1.0000   1.0000   1.0000
     1.0000   1.0000   1.0000   1.0000   1.0000   1.0000   1.0000   1.0000
     1.0000   0.0000   0.0000   0.0000   0.0000   0.0000   0.0000   0.0000
     0.0000   0.0000   0.0000   0.0000   0.0000   0.0000   0.0000   0.0000
     0.0000   0.0000   0.0000   0.0000

          k =-0.3418-0.0024 0.3496 (  8065 PWs)   bands (ev):

   -16.6614 -16.6134 -16.5741 -16.5474 -16.5254 -16.5122 -16.4855 -16.4714
   -16.4544 -16.4395 -16.4201 -16.4147 -16.4015 -16.3947 -16.3911 -16.3735
   -16.3656 -16.3584 -16.3476 -16.3372 -16.3357 -16.3206 -16.3082 -16.3002
   -16.2939 -16.2878 -16.2778 -16.2758 -16.2553 -16.2524 -16.2416 -16.2358
   -16.2271 -16.2191 -16.2047 -16.1979 -16.1903 -16.1769 -16.1687 -16.1624
   -16.1576 -16.1518 -16.1503 -16.1443 -16.1282 -16.1127 -16.1033 -16.0973
   -16.0889 -16.0834 -16.0792 -16.0720 -16.0694 -16.0627 -16.0538 -16.0498
   -16.0420 -16.0307 -16.0129 -15.9877 -15.9665 -15.9473 -15.9461 -15.9364
   -15.8940  -4.0740  -3.1791  -2.8527  -2.0888  -2.0108  -1.7641  -1.4737
    -0.8467   0.1333   0.7260   0.8039   1.4208   1.8051   2.1739   2.4240
     3.8027   4.3360   4.5086   4.7512   4.8278   4.9373   5.3740   5.4097
     5.8280   6.0001   6.1260   6.1913   6.2962   6.6561   6.8293   6.8945
     8.2496   9.6227   9.9164  10.1232  10.2864  10.3797  10.5231  10.6173
    10.8000  11.0847  11.3147  11.5304  11.5994  11.6793  11.7938  12.0003
    12.0674  12.2434  12.9327  13.1493

     occupation numbers 
     1.0000   1.0000   1.0000   1.0000   1.0000   1.0000   1.0000   1.0000
     1.0000   1.0000   1.0000   1.0000   1.0000   1.0000   1.0000   1.0000
     1.0000   1.0000   1.0000   1.0000   1.0000   1.0000   1.0000   1.0000
     1.0000   1.0000   1.0000   1.0000   1.0000   1.0000   1.0000   1.0000
     1.0000   1.0000   1.0000   1.0000   1.0000   1.0000   1.0000   1.0000
     1.0000   1.0000   1.0000   1.0000   1.0000   1.0000   1.0000   1.0000
     1.0000   1.0000   1.0000   1.0000   1.0000   1.0000   1.0000   1.0000
     1.0000   1.0000   1.0000   1.0000   1.0000   1.0000   1.0000   1.0000
     1.0000   1.0000   1.0000   1.0000   1.0000   1.0000   1.0000   1.0000
     1.0000   1.0000   1.0000   1.0000   1.0000   1.0000   1.0000   1.0000
     1.0000   1.0000   1.0000   1.0000   1.0000   1.0000   1.0000   1.0000
     1.0000   1.0000   1.0000   1.0000   1.0000   1.0000   1.0000   1.0000
     0.9379   0.0000   0.0000   0.0000   0.0000   0.0000   0.0000   0.0000
     0.0000   0.0000   0.0000   0.0000   0.0000   0.0000   0.0000   0.0000
     0.0000   0.0000   0.0000   0.0000

          k = 0.0034 0.0027 0.3530 (  8058 PWs)   bands (ev):

   -16.6599 -16.6120 -16.5749 -16.5413 -16.5264 -16.5096 -16.4921 -16.4774
   -16.4556 -16.4417 -16.4237 -16.4135 -16.4050 -16.3972 -16.3868 -16.3736
   -16.3674 -16.3598 -16.3466 -16.3353 -16.3313 -16.3203 -16.3098 -16.3023
   -16.2888 -16.2832 -16.2807 -16.2660 -16.2617 -16.2540 -16.2415 -16.2301
   -16.2256 -16.2125 -16.2023 -16.1994 -16.1969 -16.1815 -16.1699 -16.1643
   -16.1601 -16.1530 -16.1504 -16.1397 -16.1294 -16.1089 -16.1029 -16.0976
   -16.0913 -16.0827 -16.0790 -16.0731 -16.0702 -16.0635 -16.0568 -16.0509
   -16.0449 -16.0279 -16.0104 -15.9877 -15.9667 -15.9472 -15.9463 -15.9363
   -15.8935  -4.2986  -2.6840  -2.5410  -2.4384  -2.2047  -1.9632  -0.5505
    -0.3921  -0.3061  -0.2140   1.0571   1.1893   1.2808   1.5543   2.0237
     4.5513   4.6678   4.7915   4.8530   5.2636   5.4345   5.6003   5.7002
     5.7638   5.8007   6.4593   6.7315   6.7879   7.0177   7.1068   7.4201
     7.7010   8.6493   9.4495   9.7215   9.8758   9.9266  10.0525  10.2162
    10.2762  10.4850  10.5996  10.6758  11.1500  11.9194  11.9637  12.1011
    12.1598  12.2460  12.3707  12.4731

     occupation numbers 
     1.0000   1.0000   1.0000   1.0000   1.0000   1.0000   1.0000   1.0000
     1.0000   1.0000   1.0000   1.0000   1.0000   1.0000   1.0000   1.0000
     1.0000   1.0000   1.0000   1.0000   1.0000   1.0000   1.0000   1.0000
     1.0000   1.0000   1.0000   1.0000   1.0000   1.0000   1.0000   1.0000
     1.0000   1.0000   1.0000   1.0000   1.0000   1.0000   1.0000   1.0000
     1.0000   1.0000   1.0000   1.0000   1.0000   1.0000   1.0000   1.0000
     1.0000   1.0000   1.0000   1.0000   1.0000   1.0000   1.0000   1.0000
     1.0000   1.0000   1.0000   1.0000   1.0000   1.0000   1.0000   1.0000
     1.0000   1.0000   1.0000   1.0000   1.0000   1.0000   1.0000   1.0000
     1.0000   1.0000   1.0000   1.0000   1.0000   1.0000   1.0000   1.0000
     1.0000   1.0000   1.0000   1.0000   1.0000   1.0000   1.0000   1.0000
     1.0000   1.0000   1.0000   1.0000   1.0000   1.0000   1.0000   1.0000
     1.0000   0.1090   0.0000   0.0000   0.0000   0.0000   0.0000   0.0000
     0.0000   0.0000   0.0000   0.0000   0.0000   0.0000   0.0000   0.0000
     0.0000   0.0000   0.0000   0.0000

          k = 0.1769 0.1784 0.1796 (  8061 PWs)   bands (ev):

   -16.6593 -16.6097 -16.5759 -16.5397 -16.5232 -16.5104 -16.4926 -16.4824
   -16.4555 -16.4432 -16.4295 -16.4140 -16.4097 -16.3980 -16.3893 -16.3723
   -16.3655 -16.3584 -16.3448 -16.3340 -16.3308 -16.3231 -16.3096 -16.2992
   -16.2896 -16.2838 -16.2780 -16.2633 -16.2604 -16.2488 -16.2420 -16.2326
   -16.2219 -16.2142 -16.2022 -16.1982 -16.1971 -16.1812 -16.1699 -16.1668
   -16.1609 -16.1544 -16.1484 -16.1430 -16.1297 -16.1089 -16.1026 -16.0975
   -16.0913 -16.0827 -16.0786 -16.0753 -16.0700 -16.0645 -16.0562 -16.0509
   -16.0453 -16.0286 -16.0101 -15.9874 -15.9668 -15.9475 -15.9466 -15.9363
   -15.8936  -4.3611  -2.8166  -2.4305  -2.3279  -2.0030  -1.4755  -1.2722
    -1.0382   0.3182   0.4942   0.6715   0.7714   1.1026   1.2728   2.0172
     4.7403   4.7971   4.8536   5.1654   5.2561   5.4061   5.8174   5.8719
     5.9555   6.4515   6.5573   6.6056   6.7818   6.8966   7.0908   7.8630
     8.0392   8.5248   8.8372   8.9040   9.1914   9.5782   9.9339  10.0457
    10.2533  10.3985  10.5853  10.7022  11.3187  11.4374  11.7801  11.9514
    12.0107  12.0962  12.1855  12.4053

     occupation numbers 
     1.0000   1.0000   1.0000   1.0000   1.0000   1.0000   1.0000   1.0000
     1.0000   1.0000   1.0000   1.0000   1.0000   1.0000   1.0000   1.0000
     1.0000   1.0000   1.0000   1.0000   1.0000   1.0000   1.0000   1.0000
     1.0000   1.0000   1.0000   1.0000   1.0000   1.0000   1.0000   1.0000
     1.0000   1.0000   1.0000   1.0000   1.0000   1.0000   1.0000   1.0000
     1.0000   1.0000   1.0000   1.0000   1.0000   1.0000   1.0000   1.0000
     1.0000   1.0000   1.0000   1.0000   1.0000   1.0000   1.0000   1.0000
     1.0000   1.0000   1.0000   1.0000   1.0000   1.0000   1.0000   1.0000
     1.0000   1.0000   1.0000   1.0000   1.0000   1.0000   1.0000   1.0000
     1.0000   1.0000   1.0000   1.0000   1.0000   1.0000   1.0000   1.0000
     1.0000   1.0000   1.0000   1.0000   1.0000   1.0000   1.0000   1.0000
     1.0000   1.0000   1.0000   1.0000   1.0000   1.0000   1.0000   1.0000
     0.9986   0.3560   0.0056   0.0014   0.0000   0.0000   0.0000   0.0000
     0.0000   0.0000   0.0000   0.0000   0.0000   0.0000   0.0000   0.0000
     0.0000   0.0000   0.0000   0.0000

          k =-0.3435-0.3488 0.7000 (  8072 PWs)   bands (ev):

   -16.6599 -16.6126 -16.5759 -16.5423 -16.5266 -16.5095 -16.4930 -16.4782
   -16.4558 -16.4426 -16.4238 -16.4124 -16.4070 -16.3955 -16.3859 -16.3723
   -16.3631 -16.3574 -16.3435 -16.3335 -16.3287 -16.3226 -16.3060 -16.2975
   -16.2933 -16.2867 -16.2763 -16.2653 -16.2607 -16.2547 -16.2434 -16.2386
   -16.2236 -16.2191 -16.2056 -16.1994 -16.1970 -16.1810 -16.1679 -16.1647
   -16.1601 -16.1529 -16.1492 -16.1442 -16.1286 -16.1087 -16.1025 -16.0975
   -16.0903 -16.0828 -16.0785 -16.0729 -16.0700 -16.0637 -16.0551 -16.0501
   -16.0444 -16.0279 -16.0097 -15.9876 -15.9665 -15.9475 -15.9464 -15.9363
   -15.8936  -4.0614  -3.0206  -2.9135  -2.2543  -2.0766  -1.7195  -1.5843
    -0.7345   0.1113   0.7046   0.8701   1.4263   1.6339   2.3852   2.6177
     3.9321   4.4917   4.5436   4.8055   4.8558   5.0674   5.3464   5.4465
     5.4810   6.0566   6.1587   6.2281   6.3031   6.4374   6.4884   6.8568
     7.9329   9.0570   9.7407   9.9015  10.2321  10.3187  10.4374  10.9407
    11.0453  11.1297  11.1782  11.4621  11.6445  11.6863  11.8538  11.9437
    12.1008  12.7777  12.8988  13.1900

     occupation numbers 
     1.0000   1.0000   1.0000   1.0000   1.0000   1.0000   1.0000   1.0000
     1.0000   1.0000   1.0000   1.0000   1.0000   1.0000   1.0000   1.0000
     1.0000   1.0000   1.0000   1.0000   1.0000   1.0000   1.0000   1.0000
     1.0000   1.0000   1.0000   1.0000   1.0000   1.0000   1.0000   1.0000
     1.0000   1.0000   1.0000   1.0000   1.0000   1.0000   1.0000   1.0000
     1.0000   1.0000   1.0000   1.0000   1.0000   1.0000   1.0000   1.0000
     1.0000   1.0000   1.0000   1.0000   1.0000   1.0000   1.0000   1.0000
     1.0000   1.0000   1.0000   1.0000   1.0000   1.0000   1.0000   1.0000
     1.0000   1.0000   1.0000   1.0000   1.0000   1.0000   1.0000   1.0000
     1.0000   1.0000   1.0000   1.0000   1.0000   1.0000   1.0000   1.0000
     1.0000   1.0000   1.0000   1.0000   1.0000   1.0000   1.0000   1.0000
     1.0000   1.0000   1.0000   1.0000   1.0000   1.0000   1.0000   1.0000
     0.9999   0.0000   0.0000   0.0000   0.0000   0.0000   0.0000   0.0000
     0.0000   0.0000   0.0000   0.0000   0.0000   0.0000   0.0000   0.0000
     0.0000   0.0000   0.0000   0.0000

          k =-0.1701-0.1731 0.5265 (  8072 PWs)   bands (ev):

   -16.6606 -16.6148 -16.5751 -16.5438 -16.5286 -16.5096 -16.4925 -16.4732
   -16.4564 -16.4417 -16.4193 -16.4115 -16.4026 -16.3933 -16.3791 -16.3773
   -16.3645 -16.3587 -16.3462 -16.3345 -16.3293 -16.3193 -16.3071 -16.3006
   -16.2922 -16.2847 -16.2786 -16.2738 -16.2663 -16.2539 -16.2425 -16.2360
   -16.2263 -16.2175 -16.2062 -16.1992 -16.1969 -16.1814 -16.1686 -16.1634
   -16.1576 -16.1529 -16.1508 -16.1411 -16.1284 -16.1087 -16.1029 -16.0976
   -16.0904 -16.0829 -16.0788 -16.0713 -16.0698 -16.0625 -16.0556 -16.0503
   -16.0440 -16.0272 -16.0101 -15.9879 -15.9664 -15.9473 -15.9462 -15.9363
   -15.8936  -3.9045  -3.2722  -2.7325  -2.5011  -2.3693  -1.5513  -1.1636
    -1.0442   0.4033   0.4527   0.9723   1.6286   1.8141   2.7219   2.9937
     3.9073   3.9883   4.1311   4.4457   4.7469   4.8800   5.3112   5.3657
     5.5089   5.6572   6.0423   6.1566   6.3544   6.4185   6.7334   7.0581
     7.4280   9.2448   9.7114  10.0138  10.4474  10.8427  10.9113  11.0737
    11.1851  11.4213  11.6292  11.8486  11.9915  12.1401  12.2650  12.5008
    12.5711  12.9667  13.0854  13.2073

     occupation numbers 
     1.0000   1.0000   1.0000   1.0000   1.0000   1.0000   1.0000   1.0000
     1.0000   1.0000   1.0000   1.0000   1.0000   1.0000   1.0000   1.0000
     1.0000   1.0000   1.0000   1.0000   1.0000   1.0000   1.0000   1.0000
     1.0000   1.0000   1.0000   1.0000   1.0000   1.0000   1.0000   1.0000
     1.0000   1.0000   1.0000   1.0000   1.0000   1.0000   1.0000   1.0000
     1.0000   1.0000   1.0000   1.0000   1.0000   1.0000   1.0000   1.0000
     1.0000   1.0000   1.0000   1.0000   1.0000   1.0000   1.0000   1.0000
     1.0000   1.0000   1.0000   1.0000   1.0000   1.0000   1.0000   1.0000
     1.0000   1.0000   1.0000   1.0000   1.0000   1.0000   1.0000   1.0000
     1.0000   1.0000   1.0000   1.0000   1.0000   1.0000   1.0000   1.0000
     1.0000   1.0000   1.0000   1.0000   1.0000   1.0000   1.0000   1.0000
     1.0000   1.0000   1.0000   1.0000   1.0000   1.0000   1.0000   1.0000
     1.0000   0.0000   0.0000   0.0000   0.0000   0.0000   0.0000   0.0000
     0.0000   0.0000   0.0000   0.0000   0.0000   0.0000   0.0000   0.0000
     0.0000   0.0000   0.0000   0.0000

          k =-0.5119 0.5147-0.1776 (  8068 PWs)   bands (ev):

   -16.6609 -16.6151 -16.5745 -16.5500 -16.5266 -16.5110 -16.4836 -16.4725
   -16.4559 -16.4376 -16.4202 -16.4116 -16.4011 -16.3934 -16.3826 -16.3773
   -16.3633 -16.3573 -16.3474 -16.3376 -16.3306 -16.3224 -16.3154 -16.3064
   -16.2904 -16.2873 -16.2833 -16.2721 -16.2595 -16.2484 -16.2430 -16.2266
   -16.2225 -16.2137 -16.2072 -16.2038 -16.1941 -16.1858 -16.1706 -16.1645
   -16.1585 -16.1530 -16.1506 -16.1341 -16.1290 -16.1067 -16.1034 -16.0969
   -16.0926 -16.0827 -16.0785 -16.0728 -16.0696 -16.0638 -16.0594 -16.0512
   -16.0461 -16.0261 -16.0074 -15.9870 -15.9665 -15.9472 -15.9463 -15.9363
   -15.8937  -3.8656  -3.3894  -2.8475  -2.3362  -2.1495  -1.7651  -1.1418
    -0.9821   0.3643   0.4489   0.9640   1.5335   1.8320   2.5663   3.0542
     3.9315   4.0805   4.3237   4.4016   4.7638   4.9194   5.0979   5.2657
     5.4095   5.8336   6.1042   6.1701   6.2353   6.4012   6.8555   7.1781
     7.6031   9.4610   9.8796  10.2065  10.3297  10.5361  10.6651  10.8723
    10.9850  11.0700  11.2405  11.5971  11.6604  12.1836  12.5467  12.6917
    12.9026  12.9161  13.2248  13.2851

     occupation numbers 
     1.0000   1.0000   1.0000   1.0000   1.0000   1.0000   1.0000   1.0000
     1.0000   1.0000   1.0000   1.0000   1.0000   1.0000   1.0000   1.0000
     1.0000   1.0000   1.0000   1.0000   1.0000   1.0000   1.0000   1.0000
     1.0000   1.0000   1.0000   1.0000   1.0000   1.0000   1.0000   1.0000
     1.0000   1.0000   1.0000   1.0000   1.0000   1.0000   1.0000   1.0000
     1.0000   1.0000   1.0000   1.0000   1.0000   1.0000   1.0000   1.0000
     1.0000   1.0000   1.0000   1.0000   1.0000   1.0000   1.0000   1.0000
     1.0000   1.0000   1.0000   1.0000   1.0000   1.0000   1.0000   1.0000
     1.0000   1.0000   1.0000   1.0000   1.0000   1.0000   1.0000   1.0000
     1.0000   1.0000   1.0000   1.0000   1.0000   1.0000   1.0000   1.0000
     1.0000   1.0000   1.0000   1.0000   1.0000   1.0000   1.0000   1.0000
     1.0000   1.0000   1.0000   1.0000   1.0000   1.0000   1.0000   1.0000
     1.0000   0.0000   0.0000   0.0000   0.0000   0.0000   0.0000   0.0000
     0.0000   0.0000   0.0000   0.0000   0.0000   0.0000   0.0000   0.0000
     0.0000   0.0000   0.0000   0.0000

          k =-0.3385 0.6904-0.3511 (  8066 PWs)   bands (ev):

   -16.6604 -16.6130 -16.5753 -16.5489 -16.5235 -16.5110 -16.4856 -16.4767
   -16.4560 -16.4347 -16.4295 -16.4122 -16.4040 -16.3978 -16.3861 -16.3750
   -16.3612 -16.3560 -16.3459 -16.3361 -16.3320 -16.3238 -16.3138 -16.3022
   -16.2897 -16.2873 -16.2836 -16.2665 -16.2548 -16.2509 -16.2430 -16.2292
   -16.2210 -16.2150 -16.2046 -16.2021 -16.1950 -16.1858 -16.1710 -16.1655
   -16.1602 -16.1531 -16.1515 -16.1366 -16.1290 -16.1067 -16.1025 -16.0967
   -16.0927 -16.0830 -16.0780 -16.0749 -16.0696 -16.0646 -16.0589 -16.0514
   -16.0464 -16.0267 -16.0072 -15.9867 -15.9666 -15.9474 -15.9465 -15.9363
   -15.8937  -4.0461  -3.1291  -2.9246  -2.2359  -1.8745  -1.7498  -1.5189
    -0.8795   0.2178   0.6124   0.9274   1.2169   1.6330   2.3577   2.6602
     3.8939   4.5163   4.6687   4.7284   4.8606   5.1994   5.3836   5.4653
     5.5876   5.9891   6.0954   6.1933   6.3151   6.4666   6.6196   6.7597
     7.9043   9.1910   9.6566   9.9572  10.2344  10.2738  10.4103  10.8513
    10.9835  11.1071  11.2245  11.5146  11.5422  11.5810  11.7270  11.7745
    12.0837  12.8023  13.0646  13.2411

     occupation numbers 
     1.0000   1.0000   1.0000   1.0000   1.0000   1.0000   1.0000   1.0000
     1.0000   1.0000   1.0000   1.0000   1.0000   1.0000   1.0000   1.0000
     1.0000   1.0000   1.0000   1.0000   1.0000   1.0000   1.0000   1.0000
     1.0000   1.0000   1.0000   1.0000   1.0000   1.0000   1.0000   1.0000
     1.0000   1.0000   1.0000   1.0000   1.0000   1.0000   1.0000   1.0000
     1.0000   1.0000   1.0000   1.0000   1.0000   1.0000   1.0000   1.0000
     1.0000   1.0000   1.0000   1.0000   1.0000   1.0000   1.0000   1.0000
     1.0000   1.0000   1.0000   1.0000   1.0000   1.0000   1.0000   1.0000
     1.0000   1.0000   1.0000   1.0000   1.0000   1.0000   1.0000   1.0000
     1.0000   1.0000   1.0000   1.0000   1.0000   1.0000   1.0000   1.0000
     1.0000   1.0000   1.0000   1.0000   1.0000   1.0000   1.0000   1.0000
     1.0000   1.0000   1.0000   1.0000   1.0000   1.0000   1.0000   1.0000
     1.0000   0.0000   0.0000   0.0000   0.0000   0.0000   0.0000   0.0000
     0.0000   0.0000   0.0000   0.0000   0.0000   0.0000   0.0000   0.0000
     0.0000   0.0000   0.0000   0.0000

          k =-0.8589 0.1632 0.1693 (  8062 PWs)   bands (ev):

   -16.6608 -16.6109 -16.5762 -16.5468 -16.5224 -16.5127 -16.4910 -16.4770
   -16.4562 -16.4381 -16.4279 -16.4126 -16.4057 -16.3959 -16.3868 -16.3731
   -16.3588 -16.3542 -16.3436 -16.3384 -16.3288 -16.3220 -16.3123 -16.2989
   -16.2917 -16.2898 -16.2791 -16.2686 -16.2537 -16.2490 -16.2438 -16.2313
   -16.2189 -16.2157 -16.2053 -16.2015 -16.1971 -16.1865 -16.1705 -16.1664
   -16.1612 -16.1548 -16.1506 -16.1431 -16.1285 -16.1070 -16.1023 -16.0966
   -16.0923 -16.0828 -16.0778 -16.0729 -16.0699 -16.0647 -16.0575 -16.0511
   -16.0459 -16.0265 -16.0070 -15.9863 -15.9665 -15.9475 -15.9464 -15.9363
   -15.8938  -3.8839  -3.2382  -2.9160  -2.3756  -2.3003  -1.6588  -1.1901
    -1.0250   0.4134   0.5578   0.8689   1.6438   1.8403   2.5185   3.2185
     3.9837   4.1431   4.2940   4.4863   4.6915   4.8247   5.0929   5.1732
     5.5334   5.6654   5.8889   6.2821   6.3540   6.4319   6.8686   6.9185
     7.5175   9.5857   9.9187  10.0363  10.2430  10.2851  10.3899  10.7937
    10.9574  11.1685  11.4054  11.9325  11.9897  12.1376  12.3178  12.8132
    12.9504  12.9859  13.1777  13.5334

     occupation numbers 
     1.0000   1.0000   1.0000   1.0000   1.0000   1.0000   1.0000   1.0000
     1.0000   1.0000   1.0000   1.0000   1.0000   1.0000   1.0000   1.0000
     1.0000   1.0000   1.0000   1.0000   1.0000   1.0000   1.0000   1.0000
     1.0000   1.0000   1.0000   1.0000   1.0000   1.0000   1.0000   1.0000
     1.0000   1.0000   1.0000   1.0000   1.0000   1.0000   1.0000   1.0000
     1.0000   1.0000   1.0000   1.0000   1.0000   1.0000   1.0000   1.0000
     1.0000   1.0000   1.0000   1.0000   1.0000   1.0000   1.0000   1.0000
     1.0000   1.0000   1.0000   1.0000   1.0000   1.0000   1.0000   1.0000
     1.0000   1.0000   1.0000   1.0000   1.0000   1.0000   1.0000   1.0000
     1.0000   1.0000   1.0000   1.0000   1.0000   1.0000   1.0000   1.0000
     1.0000   1.0000   1.0000   1.0000   1.0000   1.0000   1.0000   1.0000
     1.0000   1.0000   1.0000   1.0000   1.0000   1.0000   1.0000   1.0000
     1.0000   0.0000   0.0000   0.0000   0.0000   0.0000   0.0000   0.0000
     0.0000   0.0000   0.0000   0.0000   0.0000   0.0000   0.0000   0.0000
     0.0000   0.0000   0.0000   0.0000

          k =-0.6854 0.3389-0.0041 (  8073 PWs)   bands (ev):

   -16.6615 -16.6132 -16.5752 -16.5482 -16.5265 -16.5121 -16.4881 -16.4738
   -16.4562 -16.4386 -16.4202 -16.4139 -16.4009 -16.3911 -16.3880 -16.3739
   -16.3612 -16.3539 -16.3451 -16.3401 -16.3282 -16.3208 -16.3133 -16.3044
   -16.2916 -16.2868 -16.2836 -16.2708 -16.2583 -16.2481 -16.2433 -16.2314
   -16.2204 -16.2127 -16.2087 -16.2039 -16.1955 -16.1866 -16.1699 -16.1645
   -16.1594 -16.1558 -16.1505 -16.1402 -16.1285 -16.1070 -16.1032 -16.0969
   -16.0923 -16.0827 -16.0782 -16.0713 -16.0698 -16.0639 -16.0575 -16.0512
   -16.0457 -16.0260 -16.0073 -15.9866 -15.9665 -15.9473 -15.9462 -15.9363
   -15.8938  -3.5791  -3.3156  -3.1125  -2.9679  -1.6821  -1.5028  -1.3838
    -1.2409   0.6275   0.7092   0.9912   1.1239   2.9530   3.1117   3.3902
     3.4454   3.7827   3.9078   4.0097   4.1387   5.2565   5.3001   5.3817
     5.5537   5.5993   5.6716   5.7345   5.8062   6.6277   6.7657   6.9290
     6.9796  10.3640  10.5794  10.6419  10.7002  10.8330  10.9528  11.2067
    11.3765  11.3972  11.5842  11.7640  11.8364  12.4415  12.6049  12.7101
    12.8089  12.8884  12.9762  13.1019

     occupation numbers 
     1.0000   1.0000   1.0000   1.0000   1.0000   1.0000   1.0000   1.0000
     1.0000   1.0000   1.0000   1.0000   1.0000   1.0000   1.0000   1.0000
     1.0000   1.0000   1.0000   1.0000   1.0000   1.0000   1.0000   1.0000
     1.0000   1.0000   1.0000   1.0000   1.0000   1.0000   1.0000   1.0000
     1.0000   1.0000   1.0000   1.0000   1.0000   1.0000   1.0000   1.0000
     1.0000   1.0000   1.0000   1.0000   1.0000   1.0000   1.0000   1.0000
     1.0000   1.0000   1.0000   1.0000   1.0000   1.0000   1.0000   1.0000
     1.0000   1.0000   1.0000   1.0000   1.0000   1.0000   1.0000   1.0000
     1.0000   1.0000   1.0000   1.0000   1.0000   1.0000   1.0000   1.0000
     1.0000   1.0000   1.0000   1.0000   1.0000   1.0000   1.0000   1.0000
     1.0000   1.0000   1.0000   1.0000   1.0000   1.0000   1.0000   1.0000
     1.0000   1.0000   1.0000   1.0000   1.0000   1.0000   1.0000   1.0000
     1.0000   0.0000   0.0000   0.0000   0.0000   0.0000   0.0000   0.0000
     0.0000   0.0000   0.0000   0.0000   0.0000   0.0000   0.0000   0.0000
     0.0000   0.0000   0.0000   0.0000

          k =-0.3402 0.3440-0.0007 (  8074 PWs)   bands (ev):

   -16.6618 -16.6138 -16.5735 -16.5522 -16.5233 -16.5126 -16.4828 -16.4668
   -16.4543 -16.4353 -16.4222 -16.4149 -16.4016 -16.3904 -16.3850 -16.3817
   -16.3654 -16.3589 -16.3513 -16.3427 -16.3353 -16.3256 -16.3109 -16.3045
   -16.2944 -16.2884 -16.2826 -16.2717 -16.2546 -16.2481 -16.2414 -16.2273
   -16.2245 -16.2126 -16.2054 -16.1966 -16.1935 -16.1816 -16.1695 -16.1633
   -16.1600 -16.1533 -16.1483 -16.1397 -16.1284 -16.1090 -16.1034 -16.0972
   -16.0911 -16.0839 -16.0792 -16.0725 -16.0699 -16.0633 -16.0573 -16.0515
   -16.0460 -16.0279 -16.0104 -15.9867 -15.9666 -15.9472 -15.9464 -15.9363
   -15.8941  -4.0684  -3.1685  -2.9731  -2.0218  -1.8711  -1.6634  -1.5580
    -0.9737   0.2212   0.6918   0.9338   1.2530   1.5676   2.2778   2.4142
     3.7668   4.4470   4.4951   4.7807   4.8697   5.0541   5.3289   5.4626
     5.8189   5.9107   6.1324   6.3014   6.3911   6.6487   6.7945   6.8589
     8.1567   9.4157   9.8374  10.0436  10.4152  10.4811  10.6731  10.7710
    10.9049  11.0009  11.2142  11.4943  11.6710  11.7131  11.7929  11.9568
    12.0483  12.0868  13.1152  13.1537

     occupation numbers 
     1.0000   1.0000   1.0000   1.0000   1.0000   1.0000   1.0000   1.0000
     1.0000   1.0000   1.0000   1.0000   1.0000   1.0000   1.0000   1.0000
     1.0000   1.0000   1.0000   1.0000   1.0000   1.0000   1.0000   1.0000
     1.0000   1.0000   1.0000   1.0000   1.0000   1.0000   1.0000   1.0000
     1.0000   1.0000   1.0000   1.0000   1.0000   1.0000   1.0000   1.0000
     1.0000   1.0000   1.0000   1.0000   1.0000   1.0000   1.0000   1.0000
     1.0000   1.0000   1.0000   1.0000   1.0000   1.0000   1.0000   1.0000
     1.0000   1.0000   1.0000   1.0000   1.0000   1.0000   1.0000   1.0000
     1.0000   1.0000   1.0000   1.0000   1.0000   1.0000   1.0000   1.0000
     1.0000   1.0000   1.0000   1.0000   1.0000   1.0000   1.0000   1.0000
     1.0000   1.0000   1.0000   1.0000   1.0000   1.0000   1.0000   1.0000
     1.0000   1.0000   1.0000   1.0000   1.0000   1.0000   1.0000   1.0000
     0.9854   0.0000   0.0000   0.0000   0.0000   0.0000   0.0000   0.0000
     0.0000   0.0000   0.0000   0.0000   0.0000   0.0000   0.0000   0.0000
     0.0000   0.0000   0.0000   0.0000

          k =-0.1667 0.5197-0.1742 (  8072 PWs)   bands (ev):

   -16.6614 -16.6160 -16.5737 -16.5546 -16.5240 -16.5115 -16.4789 -16.4683
   -16.4536 -16.4325 -16.4230 -16.4115 -16.4034 -16.3891 -16.3866 -16.3794
   -16.3651 -16.3552 -16.3508 -16.3456 -16.3347 -16.3273 -16.3113 -16.3016
   -16.2949 -16.2883 -16.2792 -16.2728 -16.2579 -16.2509 -16.2424 -16.2324
   -16.2238 -16.2179 -16.2046 -16.1965 -16.1942 -16.1803 -16.1697 -16.1631
   -16.1587 -16.1511 -16.1493 -16.1358 -16.1282 -16.1092 -16.1026 -16.0971
   -16.0904 -16.0842 -16.0788 -16.0741 -16.0692 -16.0635 -16.0572 -16.0508
   -16.0462 -16.0276 -16.0099 -15.9870 -15.9664 -15.9474 -15.9465 -15.9363
   -15.8940  -3.8829  -3.3699  -2.7731  -2.5418  -2.0589  -1.6423  -1.2839
    -0.8892   0.2532   0.5065   1.1202   1.4154   1.7992   2.6144   3.0100
     3.8634   4.0517   4.2026   4.3905   4.7624   4.9269   5.2417   5.3016
     5.5510   5.7848   6.0120   6.1705   6.3446   6.5127   6.8765   7.0474
     7.4143   9.3781   9.6820  10.2341  10.3310  10.7602  10.9787  11.0424
    11.1896  11.3645  11.7180  11.8833  12.0228  12.1061  12.2418  12.3298
    12.6016  12.8372  13.0357  13.1434

     occupation numbers 
     1.0000   1.0000   1.0000   1.0000   1.0000   1.0000   1.0000   1.0000
     1.0000   1.0000   1.0000   1.0000   1.0000   1.0000   1.0000   1.0000
     1.0000   1.0000   1.0000   1.0000   1.0000   1.0000   1.0000   1.0000
     1.0000   1.0000   1.0000   1.0000   1.0000   1.0000   1.0000   1.0000
     1.0000   1.0000   1.0000   1.0000   1.0000   1.0000   1.0000   1.0000
     1.0000   1.0000   1.0000   1.0000   1.0000   1.0000   1.0000   1.0000
     1.0000   1.0000   1.0000   1.0000   1.0000   1.0000   1.0000   1.0000
     1.0000   1.0000   1.0000   1.0000   1.0000   1.0000   1.0000   1.0000
     1.0000   1.0000   1.0000   1.0000   1.0000   1.0000   1.0000   1.0000
     1.0000   1.0000   1.0000   1.0000   1.0000   1.0000   1.0000   1.0000
     1.0000   1.0000   1.0000   1.0000   1.0000   1.0000   1.0000   1.0000
     1.0000   1.0000   1.0000   1.0000   1.0000   1.0000   1.0000   1.0000
     1.0000   0.0000   0.0000   0.0000   0.0000   0.0000   0.0000   0.0000
     0.0000   0.0000   0.0000   0.0000   0.0000   0.0000   0.0000   0.0000
     0.0000   0.0000   0.0000   0.0000

          k =-0.6871-0.0075 0.3462 (  8057 PWs)   bands (ev):

   -16.6618 -16.6143 -16.5745 -16.5530 -16.5230 -16.5133 -16.4840 -16.4690
   -16.4540 -16.4330 -16.4249 -16.4115 -16.4008 -16.3943 -16.3869 -16.3779
   -16.3598 -16.3543 -16.3500 -16.3466 -16.3324 -16.3233 -16.3095 -16.3004
   -16.2953 -16.2882 -16.2795 -16.2711 -16.2574 -16.2503 -16.2431 -16.2360
   -16.2241 -16.2184 -16.2035 -16.1978 -16.1935 -16.1806 -16.1708 -16.1635
   -16.1578 -16.1552 -16.1496 -16.1404 -16.1281 -16.1091 -16.1023 -16.0972
   -16.0905 -16.0838 -16.0788 -16.0724 -16.0699 -16.0626 -16.0561 -16.0505
   -16.0459 -16.0276 -16.0096 -15.9867 -15.9664 -15.9475 -15.9463 -15.9364
   -15.8942  -3.5671  -3.3743  -3.0999  -2.9360  -1.6332  -1.5203  -1.4245
    -1.2046   0.6344   0.7190   0.8057   1.3177   2.9274   3.1384   3.3322
     3.4344   3.7548   3.8618   3.9963   4.0923   5.2614   5.3497   5.3805
     5.4854   5.5738   5.7048   5.8052   5.8381   6.6757   6.7653   6.8913
     7.0458  10.4889  10.7022  10.7998  10.8209  10.8717  11.0651  11.1695
    11.2985  11.3806  11.4685  11.6365  11.9835  12.4430  12.5452  12.6743
    12.7488  12.9016  12.9617  13.0187

     occupation numbers 
     1.0000   1.0000   1.0000   1.0000   1.0000   1.0000   1.0000   1.0000
     1.0000   1.0000   1.0000   1.0000   1.0000   1.0000   1.0000   1.0000
     1.0000   1.0000   1.0000   1.0000   1.0000   1.0000   1.0000   1.0000
     1.0000   1.0000   1.0000   1.0000   1.0000   1.0000   1.0000   1.0000
     1.0000   1.0000   1.0000   1.0000   1.0000   1.0000   1.0000   1.0000
     1.0000   1.0000   1.0000   1.0000   1.0000   1.0000   1.0000   1.0000
     1.0000   1.0000   1.0000   1.0000   1.0000   1.0000   1.0000   1.0000
     1.0000   1.0000   1.0000   1.0000   1.0000   1.0000   1.0000   1.0000
     1.0000   1.0000   1.0000   1.0000   1.0000   1.0000   1.0000   1.0000
     1.0000   1.0000   1.0000   1.0000   1.0000   1.0000   1.0000   1.0000
     1.0000   1.0000   1.0000   1.0000   1.0000   1.0000   1.0000   1.0000
     1.0000   1.0000   1.0000   1.0000   1.0000   1.0000   1.0000   1.0000
     1.0000   0.0000   0.0000   0.0000   0.0000   0.0000   0.0000   0.0000
     0.0000   0.0000   0.0000   0.0000   0.0000   0.0000   0.0000   0.0000
     0.0000   0.0000   0.0000   0.0000

          k =-0.5136 0.1682 0.1727 (  8052 PWs)   bands (ev):

   -16.6623 -16.6118 -16.5746 -16.5504 -16.5208 -16.5152 -16.4885 -16.4675
   -16.4545 -16.4351 -16.4265 -16.4138 -16.3990 -16.3933 -16.3869 -16.3795
   -16.3601 -16.3582 -16.3504 -16.3438 -16.3329 -16.3224 -16.3086 -16.3025
   -16.2929 -16.2894 -16.2834 -16.2750 -16.2516 -16.2463 -16.2422 -16.2310
   -16.2224 -16.2141 -16.2030 -16.1980 -16.1945 -16.1821 -16.1699 -16.1644
   -16.1600 -16.1552 -16.1487 -16.1454 -16.1280 -16.1090 -16.1031 -16.0972
   -16.0910 -16.0835 -16.0790 -16.0712 -16.0702 -16.0624 -16.0560 -16.0514
   -16.0456 -16.0278 -16.0101 -15.9864 -15.9666 -15.9473 -15.9462 -15.9363
   -15.8942  -3.9002  -3.3653  -2.7880  -2.3422  -2.2977  -1.5846  -1.1628
    -1.0114   0.3734   0.4592   0.9902   1.6079   1.7872   2.5920   2.9036
     3.8362   4.0429   4.1403   4.2994   4.6903   4.8165   5.2899   5.3275
     5.5054   5.8893   6.0287   6.2837   6.3664   6.4811   6.9338   7.0622
     7.5909   9.5304   9.8984  10.3429  10.4978  10.7034  10.8560  11.0735
    11.1768  11.3257  11.7217  11.8573  11.9896  12.0579  12.2547  12.3550
    12.4820  12.7978  12.9266  13.0567

     occupation numbers 
     1.0000   1.0000   1.0000   1.0000   1.0000   1.0000   1.0000   1.0000
     1.0000   1.0000   1.0000   1.0000   1.0000   1.0000   1.0000   1.0000
     1.0000   1.0000   1.0000   1.0000   1.0000   1.0000   1.0000   1.0000
     1.0000   1.0000   1.0000   1.0000   1.0000   1.0000   1.0000   1.0000
     1.0000   1.0000   1.0000   1.0000   1.0000   1.0000   1.0000   1.0000
     1.0000   1.0000   1.0000   1.0000   1.0000   1.0000   1.0000   1.0000
     1.0000   1.0000   1.0000   1.0000   1.0000   1.0000   1.0000   1.0000
     1.0000   1.0000   1.0000   1.0000   1.0000   1.0000   1.0000   1.0000
     1.0000   1.0000   1.0000   1.0000   1.0000   1.0000   1.0000   1.0000
     1.0000   1.0000   1.0000   1.0000   1.0000   1.0000   1.0000   1.0000
     1.0000   1.0000   1.0000   1.0000   1.0000   1.0000   1.0000   1.0000
     1.0000   1.0000   1.0000   1.0000   1.0000   1.0000   1.0000   1.0000
     1.0000   0.0000   0.0000   0.0000   0.0000   0.0000   0.0000   0.0000
     0.0000   0.0000   0.0000   0.0000   0.0000   0.0000   0.0000   0.0000
     0.0000   0.0000   0.0000   0.0000

          k = 0.3367-0.3467-0.3523 (  8052 PWs)   bands (ev):

   -16.6627 -16.6118 -16.5750 -16.5497 -16.5208 -16.5156 -16.4873 -16.4630
   -16.4541 -16.4359 -16.4258 -16.4140 -16.4009 -16.3925 -16.3831 -16.3816
   -16.3612 -16.3583 -16.3522 -16.3473 -16.3369 -16.3223 -16.3106 -16.3020
   -16.2961 -16.2899 -16.2825 -16.2771 -16.2505 -16.2464 -16.2412 -16.2355
   -16.2251 -16.2127 -16.2040 -16.1980 -16.1897 -16.1770 -16.1689 -16.1632
   -16.1574 -16.1534 -16.1490 -16.1442 -16.1282 -16.1118 -16.1044 -16.0969
   -16.0896 -16.0832 -16.0799 -16.0722 -16.0700 -16.0629 -16.0536 -16.0508
   -16.0421 -16.0315 -16.0139 -15.9870 -15.9667 -15.9472 -15.9462 -15.9364
   -15.8944  -3.9211  -3.6894  -2.1230  -2.0771  -1.9046  -1.7263  -1.6411
    -1.5072   0.7138   0.7889   1.0625   1.2087   1.3249   1.6789   3.4648
     3.7971   4.2927   4.4042   4.4881   4.5698   4.6639   4.7524   5.7839
     5.9778   6.0097   6.0464   6.1695   6.2923   7.3685   7.6878   7.6974
     7.8348   9.4065   9.4986   9.5185   9.6121   9.8050  10.0139  10.0684
[...]
     1.0000   1.0000   1.0000   1.0000   1.0000   1.0000   1.0000   1.0000
     1.0000   0.0000   0.0000   0.0000   0.0000   0.0000   0.0000   0.0000
     0.0000   0.0000   0.0000   0.0000   0.0000   0.0000   0.0000   0.0000
     0.0000   0.0000   0.0000   0.0000

          k = 0.1666 0.1704-0.8795 (  8065 PWs)   bands (ev):

   -16.6603 -16.6122 -16.5771 -16.5433 -16.5266 -16.5102 -16.4936 -16.4780
   -16.4559 -16.4414 -16.4231 -16.4091 -16.4071 -16.3944 -16.3845 -16.3699
   -16.3608 -16.3563 -16.3431 -16.3318 -16.3300 -16.3201 -16.3139 -16.3000
   -16.2928 -16.2864 -16.2804 -16.2644 -16.2629 -16.2524 -16.2442 -16.2346
   -16.2239 -16.2141 -16.2078 -16.2034 -16.1952 -16.1864 -16.1698 -16.1650
   -16.1590 -16.1522 -16.1511 -16.1393 -16.1289 -16.1062 -16.1036 -16.0968
   -16.0923 -16.0814 -16.0785 -16.0731 -16.0701 -16.0645 -16.0577 -16.0499
   -16.0450 -16.0268 -16.0076 -15.9871 -15.9665 -15.9474 -15.9463 -15.9363
   -15.8936  -3.8686  -3.2682  -2.7715  -2.5015  -2.3829  -1.5652  -1.1877
    -1.0676   0.4141   0.4913   0.8989   1.6442   1.8299   2.5987   3.2768
     4.0548   4.1091   4.1985   4.6907   4.7589   4.8494   5.2144   5.2674
     5.5269   5.6977   5.8136   6.0767   6.2566   6.3551   6.7599   6.9060
     7.3691   9.3568   9.6287   9.8805  10.1710  10.4635  10.6398  10.8243
    11.0404  11.2737  11.3888  11.8298  11.9208  12.0278  12.4090  12.8385
    13.0239  13.1188  13.2907  13.5414

     occupation numbers 
     1.0000   1.0000   1.0000   1.0000   1.0000   1.0000   1.0000   1.0000
     1.0000   1.0000   1.0000   1.0000   1.0000   1.0000   1.0000   1.0000
     1.0000   1.0000   1.0000   1.0000   1.0000   1.0000   1.0000   1.0000
     1.0000   1.0000   1.0000   1.0000   1.0000   1.0000   1.0000   1.0000
     1.0000   1.0000   1.0000   1.0000   1.0000   1.0000   1.0000   1.0000
     1.0000   1.0000   1.0000   1.0000   1.0000   1.0000   1.0000   1.0000
     1.0000   1.0000   1.0000   1.0000   1.0000   1.0000   1.0000   1.0000
     1.0000   1.0000   1.0000   1.0000   1.0000   1.0000   1.0000   1.0000
     1.0000   1.0000   1.0000   1.0000   1.0000   1.0000   1.0000   1.0000
     1.0000   1.0000   1.0000   1.0000   1.0000   1.0000   1.0000   1.0000
     1.0000   1.0000   1.0000   1.0000   1.0000   1.0000   1.0000   1.0000
     1.0000   1.0000   1.0000   1.0000   1.0000   1.0000   1.0000   1.0000
     1.0000   0.0000   0.0000   0.0000   0.0000   0.0000   0.0000   0.0000
     0.0000   0.0000   0.0000   0.0000   0.0000   0.0000   0.0000   0.0000
     0.0000   0.0000   0.0000   0.0000

          k =-0.3537-0.3568-0.3591 (  8050 PWs)   bands (ev):

   -16.6596 -16.6098 -16.5779 -16.5413 -16.5233 -16.5111 -16.4940 -16.4831
   -16.4556 -16.4418 -16.4284 -16.4125 -16.4105 -16.3950 -16.3868 -16.3675
   -16.3594 -16.3536 -16.3423 -16.3316 -16.3281 -16.3214 -16.3139 -16.2999
   -16.2918 -16.2876 -16.2758 -16.2617 -16.2581 -16.2529 -16.2450 -16.2353
   -16.2214 -16.2161 -16.2056 -16.2001 -16.1971 -16.1863 -16.1708 -16.1660
   -16.1601 -16.1528 -16.1516 -16.1414 -16.1291 -16.1060 -16.1026 -16.0965
   -16.0923 -16.0814 -16.0782 -16.0751 -16.0701 -16.0650 -16.0577 -16.0497
   -16.0454 -16.0272 -16.0073 -15.9867 -15.9665 -15.9475 -15.9465 -15.9362
   -15.8936  -3.9248  -3.5392  -2.2696  -2.1831  -1.9146  -1.8904  -1.6173
    -1.4831   0.8163   0.8533   1.0179   1.1463   1.5014   1.6509   3.9819
     4.0650   4.4745   4.5074   4.6559   4.7187   4.7471   4.8294   5.5335
     5.7014   5.8188   5.9121   5.9738   6.2235   7.2243   7.3297   7.3776
     7.6173   8.8682   9.1070   9.3572   9.4545   9.6235   9.6810   9.7755
     9.9494  11.7444  11.8255  12.0407  12.0828  12.8600  12.9741  13.0818
    13.1855  13.2076  13.4557  13.8701

     occupation numbers 
     1.0000   1.0000   1.0000   1.0000   1.0000   1.0000   1.0000   1.0000
     1.0000   1.0000   1.0000   1.0000   1.0000   1.0000   1.0000   1.0000
     1.0000   1.0000   1.0000   1.0000   1.0000   1.0000   1.0000   1.0000
     1.0000   1.0000   1.0000   1.0000   1.0000   1.0000   1.0000   1.0000
     1.0000   1.0000   1.0000   1.0000   1.0000   1.0000   1.0000   1.0000
     1.0000   1.0000   1.0000   1.0000   1.0000   1.0000   1.0000   1.0000
     1.0000   1.0000   1.0000   1.0000   1.0000   1.0000   1.0000   1.0000
     1.0000   1.0000   1.0000   1.0000   1.0000   1.0000   1.0000   1.0000
     1.0000   1.0000   1.0000   1.0000   1.0000   1.0000   1.0000   1.0000
     1.0000   1.0000   1.0000   1.0000   1.0000   1.0000   1.0000   1.0000
     1.0000   1.0000   1.0000   1.0000   1.0000   1.0000   1.0000   1.0000
     1.0000   1.0000   1.0000   1.0000   1.0000   1.0000   1.0000   1.0000
     1.0000   0.0030   0.0000   0.0000   0.0000   0.0000   0.0000   0.0000
     0.0000   0.0000   0.0000   0.0000   0.0000   0.0000   0.0000   0.0000
     0.0000   0.0000   0.0000   0.0000

     the Fermi energy is     8.4715 ev

!    total energy              =   -2800.03668796 Ry
     Harris-Foulkes estimate   =   -2800.03668795 Ry
     estimated scf accuracy    <          9.2E-11 Ry

     The total energy is the sum of the following terms:

     one-electron contribution =   -1883.10450193 Ry
     hartree contribution      =    1115.53133066 Ry
     xc contribution           =    -762.30273549 Ry
     ewald contribution        =   -1270.15924638 Ry
     smearing contrib. (-TS)   =      -0.00153483 Ry

     convergence has been achieved in  13 iterations

     Forces acting on atoms (Ry/au):

     atom    1 type  2   force =   0.44329729E-01  0.13801912E-01 -0.11878121E-01
     atom    2 type  2   force =   0.67789142E-02 -0.15299212E-01  0.66819483E-04
     atom    3 type  1   force =  -0.78939039E-02 -0.95444915E-03  0.11641680E-01
     atom    4 type  2   force =  -0.23893965E-01 -0.51550554E-02  0.11451266E-01
     atom    5 type  2   force =   0.15421291E-01  0.20407671E-01 -0.27556589E-01
     atom    6 type  2   force =  -0.50555452E-01 -0.29667606E-01  0.19748043E-01
     atom    7 type  2   force =   0.43384020E-02  0.54040081E-01  0.17786090E-01
     atom    8 type  2   force =  -0.14906387E-01  0.37684765E-03 -0.72485412E-02
     atom    9 type  2   force =  -0.23667312E-01  0.25016772E-01  0.55310998E-02
     atom   10 type  1   force =  -0.31217430E-01 -0.45655348E-01  0.17636915E-01
     atom   11 type  2   force =   0.18691848E-01 -0.10066774E-01 -0.16506875E-01
     atom   12 type  2   force =   0.43876246E-01  0.21773122E-01 -0.19422610E-02
     atom   13 type  2   force =  -0.23445895E-01  0.10768687E-01 -0.87133151E-02
     atom   14 type  1   force =   0.13403737E-01 -0.20488589E-01  0.30931439E-01
     atom   15 type  2   force =  -0.14819378E-01 -0.63619032E-02  0.12416334E-01
     atom   16 type  2   force =   0.43559554E-01 -0.12536155E-01 -0.53363983E-01
     The non-local contrib.  to forces
     atom    1 type  2   force =  -0.55668501E-01 -0.16924745E-01  0.68026735E-02
     atom    2 type  2   force =   0.15583132E-01  0.10348228E-01  0.40250697E-02
     atom    3 type  1   force =  -0.95681142E-02  0.15959744E-02 -0.32013019E-02
     atom    4 type  2   force =   0.53075064E-01  0.47680170E-01  0.72655631E-01
     atom    5 type  2   force =  -0.49525897E-01 -0.86047945E-02 -0.82090896E-02
     atom    6 type  2   force =   0.89787168E-02  0.26441573E-01  0.23167911E-01
     atom    7 type  2   force =  -0.14511186E-01 -0.88525963E-02 -0.20416474E-01
     atom    8 type  2   force =  -0.46578750E-01  0.72082828E-01 -0.11949467E-01
     atom    9 type  2   force =  -0.30660535E-01 -0.10041197E+00 -0.12407761E-01
     atom   10 type  1   force =  -0.20358189E-01 -0.20876216E-01  0.32019876E-01
     atom   11 type  2   force =   0.68617989E-01  0.95915338E-02 -0.78437000E-01
     atom   12 type  2   force =   0.44649028E-01 -0.21769484E-01  0.47774898E-01
     atom   13 type  2   force =  -0.66024759E-01 -0.80871974E-01 -0.74934771E-01
     atom   14 type  1   force =   0.16313490E-01 -0.27533251E-02  0.41128558E-01
     atom   15 type  2   force =   0.37750179E-01 -0.69637814E-02 -0.21068136E-01
     atom   16 type  2   force =   0.53492137E-01  0.21605141E-01  0.36378461E-01
     The ionic contribution  to forces
     atom    1 type  2   force =   0.75253164E+01 -0.61770494E+01 -0.59831193E+01
     atom    2 type  2   force =   0.65822194E+01  0.44747622E+01 -0.45957023E+01
     atom    3 type  1   force =   0.43738972E-01 -0.82742307E+00  0.24373382E+00
     atom    4 type  2   force =  -0.67533463E+01 -0.53040003E+01 -0.41390437E+01
     atom    5 type  2   force =   0.56797032E+01 -0.48143659E+01 -0.73958827E+01
     atom    6 type  2   force =  -0.10908267E+01 -0.23942845E-02  0.14201322E+01
     atom    7 type  2   force =  -0.13988456E+01  0.22843092E+01 -0.14335816E+01
     atom    8 type  2   force =   0.57228072E+01 -0.57782261E+01  0.69522318E+01
     atom    9 type  2   force =  -0.40637216E+00  0.11126799E+02  0.10504232E+01
     atom   10 type  1   force =   0.19318874E+00 -0.48647109E+00  0.94990412E+00
     atom   11 type  2   force =  -0.55896491E+01 -0.79058898E+01  0.52694762E+01
     atom   12 type  2   force =  -0.38161445E+01  0.65052115E+01  0.60623976E+01
     atom   13 type  2   force =  -0.85662097E+00  0.11020705E+02  0.29869499E+00
     atom   14 type  1   force =   0.14697405E+00  0.36435755E+00  0.39045969E+00
     atom   15 type  2   force =  -0.65941315E+01 -0.43475846E+01  0.36569540E+01
     atom   16 type  2   force =   0.61198890E+00 -0.13274032E+00 -0.27470779E+01
     The local contribution  to forces
     atom    1 type  2   force =  -0.74254044E+01  0.62070434E+01  0.59639071E+01
     atom    2 type  2   force =  -0.65903013E+01 -0.45021344E+01  0.45939741E+01
     atom    3 type  1   force =  -0.42828599E-01  0.82432627E+00 -0.22891612E+00
     atom    4 type  2   force =   0.66758113E+01  0.52540108E+01  0.40828869E+01
     atom    5 type  2   force =  -0.56160994E+01  0.48440787E+01  0.73759585E+01
     atom    6 type  2   force =   0.10295039E+01 -0.53530746E-01 -0.14205603E+01
     atom    7 type  2   force =   0.14163394E+01 -0.22158246E+01  0.14707577E+01
     atom    8 type  2   force =  -0.56936307E+01  0.57076735E+01 -0.69470714E+01
     atom    9 type  2   force =   0.41018733E+00 -0.11002462E+02 -0.10322562E+01
     atom   10 type  1   force =  -0.20532251E+00  0.45963041E+00 -0.96045995E+00
     atom   11 type  2   force =   0.55419023E+01  0.78848829E+01 -0.52150785E+01
     atom   12 type  2   force =   0.38199656E+01 -0.64603942E+01 -0.61131688E+01
     atom   13 type  2   force =   0.89526010E+00 -0.10934717E+02 -0.23438024E+00
     atom   14 type  1   force =  -0.14797722E+00 -0.38156087E+00 -0.39691147E+00
     atom   15 type  2   force =   0.65428563E+01  0.43484553E+01 -0.36286514E+01
     atom   16 type  2   force =  -0.61787344E+00  0.99062619E-01  0.26542524E+01
     The core correction contribution to forces
     atom    1 type  2   force =   0.85766081E-04  0.72585120E-03  0.54258484E-03
     atom    2 type  2   force =  -0.72059874E-03  0.17305578E-02 -0.22344622E-02
     atom    3 type  1   force =   0.76429550E-03  0.54831545E-03  0.25935811E-04
     atom    4 type  2   force =   0.55935291E-03 -0.28484944E-02 -0.50515822E-02
     atom    5 type  2   force =   0.13333994E-02 -0.70493136E-03  0.57754690E-03
     atom    6 type  2   force =   0.17907423E-02 -0.18601786E-03 -0.29913266E-02
     atom    7 type  2   force =   0.13548345E-02 -0.55738319E-02  0.10247588E-02
     atom    8 type  2   force =   0.24990854E-02 -0.11581506E-02 -0.45374311E-03
     atom    9 type  2   force =   0.31794500E-02  0.10892497E-02 -0.22603575E-03
     atom   10 type  1   force =   0.12736746E-02  0.20616084E-02 -0.38282839E-02
     atom   11 type  2   force =  -0.21687151E-02  0.13414734E-02  0.75307608E-02
     atom   12 type  2   force =  -0.45961872E-02 -0.12700405E-02  0.10555541E-02
     atom   13 type  2   force =   0.39386047E-02  0.56568718E-02  0.19069956E-02
     atom   14 type  1   force =  -0.19058851E-02 -0.53224057E-03 -0.37447895E-02
     atom   15 type  2   force =  -0.12930367E-02 -0.27116846E-03  0.51712341E-02
     atom   16 type  2   force =  -0.40483300E-02 -0.46734881E-03  0.30825974E-02
     The Hubbard contrib.    to forces
     atom    1 type  2   force =   0.00000000E+00  0.00000000E+00  0.00000000E+00
     atom    2 type  2   force =   0.00000000E+00  0.00000000E+00  0.00000000E+00
     atom    3 type  1   force =   0.00000000E+00  0.00000000E+00  0.00000000E+00
     atom    4 type  2   force =   0.00000000E+00  0.00000000E+00  0.00000000E+00
     atom    5 type  2   force =   0.00000000E+00  0.00000000E+00  0.00000000E+00
     atom    6 type  2   force =   0.00000000E+00  0.00000000E+00  0.00000000E+00
     atom    7 type  2   force =   0.00000000E+00  0.00000000E+00  0.00000000E+00
     atom    8 type  2   force =   0.00000000E+00  0.00000000E+00  0.00000000E+00
     atom    9 type  2   force =   0.00000000E+00  0.00000000E+00  0.00000000E+00
     atom   10 type  1   force =   0.00000000E+00  0.00000000E+00  0.00000000E+00
     atom   11 type  2   force =   0.00000000E+00  0.00000000E+00  0.00000000E+00
     atom   12 type  2   force =   0.00000000E+00  0.00000000E+00  0.00000000E+00
     atom   13 type  2   force =   0.00000000E+00  0.00000000E+00  0.00000000E+00
     atom   14 type  1   force =   0.00000000E+00  0.00000000E+00  0.00000000E+00
     atom   15 type  2   force =   0.00000000E+00  0.00000000E+00  0.00000000E+00
     atom   16 type  2   force =   0.00000000E+00  0.00000000E+00  0.00000000E+00
     The SCF correction term to forces
     atom    1 type  2   force =   0.47407601E-06  0.70722163E-05 -0.10926679E-04
     atom    2 type  2   force =  -0.17026643E-05 -0.55395562E-05  0.45610391E-05
     atom    3 type  1   force =  -0.45154512E-06 -0.16445799E-05 -0.47479487E-06
     atom    4 type  2   force =   0.66672660E-05  0.30888930E-05  0.42064180E-05
     atom    5 type  2   force =   0.10021357E-04  0.48887428E-05 -0.67300716E-06
     atom    6 type  2   force =  -0.20755956E-05  0.21689870E-05 -0.20483137E-06
     atom    7 type  2   force =   0.95726826E-06 -0.17852037E-04  0.19076495E-05
     atom    8 type  2   force =  -0.32158724E-05  0.50348947E-05 -0.55162443E-05
     atom    9 type  2   force =  -0.13865883E-05  0.26799733E-05 -0.18886237E-05
     atom   10 type  1   force =   0.85967363E-06  0.23522275E-06  0.13305279E-05
     atom   11 type  2   force =  -0.10636260E-04  0.74379098E-05  0.17512931E-05
     atom   12 type  2   force =   0.23216825E-05 -0.43187150E-05 -0.13561809E-05
     atom   13 type  2   force =   0.11344142E-05 -0.45592101E-05 -0.10889428E-06
     atom   14 type  1   force =  -0.68984368E-06  0.60138909E-06 -0.36924320E-06
     atom   15 type  2   force =  -0.13758523E-05  0.26702333E-05  0.10855841E-04
     atom   16 type  2   force =   0.29658478E-06  0.40529367E-05  0.57567128E-06

     Total force =     0.166136     Total SCF correction =     0.000035


     entering subroutine stress ...

          total   stress  (Ry/bohr**3)                   (kbar)     P=   30.27
   0.0001326228   0.0001094167   0.0000049892         19.51     16.10      0.73
   0.0001094167   0.0002200441   0.0000427061         16.10     32.37      6.28
   0.0000049892   0.0000427061   0.0002647107          0.73      6.28     38.94

     kinetic stress (kbar)   9079.88     17.16     19.06
                               17.16   9091.46     11.21
                               19.06     11.21   9101.13

     local   stress (kbar)  -1618.46     88.66   -776.10
                               88.66    136.28    -37.19
                             -776.10    -37.19   1157.87

     nonloc. stress (kbar)   2908.85      4.96     -3.83
                                4.96   2907.94      1.14
                               -3.83      1.14   2906.90

     hartree stress (kbar)  24381.98    -41.17    455.49
                              -41.17  23565.69     31.69
                              455.49     31.69  23186.95

     exc-cor stress (kbar)  17073.04      0.03     -0.20
                                0.03  17072.92     -0.02
                               -0.20     -0.02  17072.66

     corecor stress (kbar) -25646.43     -0.38      0.48
                               -0.38 -25646.44      0.00
                                0.48      0.00 -25646.57

     ewald   stress (kbar) -26159.35    -53.16    305.84
                              -53.16 -27095.50     -0.55
                              305.84     -0.55 -27739.99

     hubbard stress (kbar)      0.00      0.00      0.00
                                0.00      0.00      0.00
                                0.00      0.00      0.00

     london  stress (kbar)      0.00      0.00      0.00
                                0.00      0.00      0.00
                                0.00      0.00      0.00

     XDM     stress (kbar)      0.00      0.00      0.00
                                0.00      0.00      0.00
                                0.00      0.00      0.00

     dft-nl  stress (kbar)      0.00      0.00      0.00
                                0.00      0.00      0.00
                                0.00      0.00      0.00



     Writing output data file Si_diamond.scf.in.super.222.replace4851.save

     init_run     :     18.57s CPU     17.63s WALL (       1 calls)
     electrons    :    883.87s CPU    803.60s WALL (       1 calls)
     forces       :      8.57s CPU      6.85s WALL (       1 calls)
     stress       :     13.60s CPU     13.50s WALL (       1 calls)

     Called by init_run:
     wfcinit      :     16.75s CPU     15.79s WALL (       1 calls)
     potinit      :      0.41s CPU      0.41s WALL (       1 calls)

     Called by electrons:
     c_bands      :    803.47s CPU    727.52s WALL (      14 calls)
     sum_band     :     75.96s CPU     71.53s WALL (      14 calls)
     v_of_rho     :      0.58s CPU      0.60s WALL (      14 calls)
     v_h          :      0.03s CPU      0.03s WALL (      14 calls)
     v_xc         :      0.64s CPU      0.65s WALL (      16 calls)
     newd         :      3.38s CPU      3.40s WALL (      14 calls)
     mix_rho      :      0.65s CPU      0.70s WALL (      14 calls)

     Called by c_bands:
     init_us_2    :      2.78s CPU      2.84s WALL (    1116 calls)
     cegterg      :    791.01s CPU    714.05s WALL (     504 calls)

     Called by sum_band:
     sum_band:bec :      1.32s CPU      1.36s WALL (     504 calls)
     addusdens    :      4.06s CPU      4.11s WALL (      14 calls)

     Called by *egterg:
     h_psi        :    301.61s CPU    280.55s WALL (    1887 calls)
     s_psi        :     45.13s CPU     29.94s WALL (    1887 calls)
     g_psi        :      0.62s CPU      0.65s WALL (    1347 calls)
     cdiaghg      :    292.01s CPU    266.19s WALL (    1815 calls)
     cegterg:over :     72.99s CPU     62.87s WALL (    1347 calls)
     cegterg:upda :     27.71s CPU     18.95s WALL (    1347 calls)
     cegterg:last :     16.09s CPU     10.72s WALL (     504 calls)

     Called by h_psi:
     h_psi:vloc   :    192.44s CPU    201.25s WALL (    1887 calls)
     h_psi:vnl    :    108.68s CPU     78.83s WALL (    1887 calls)
     add_vuspsi   :     48.47s CPU     32.31s WALL (    1887 calls)

     General routines
     calbec       :     88.25s CPU     68.34s WALL (    2463 calls)
     fft          :      1.03s CPU      1.02s WALL (     249 calls)
     ffts         :      0.52s CPU      0.53s WALL (     398 calls)
     fftw         :    222.93s CPU    232.18s WALL (  339804 calls)
     interpolate  :      0.14s CPU      0.14s WALL (      28 calls)

     Parallel routines
     fft_scatter  :    102.72s CPU    109.20s WALL (  340451 calls)

     PWSCF        : 15m27.61s CPU    14m 5.33s WALL


   This run was terminated on:  21:12: 8   4Apr2018            

=------------------------------------------------------------------------------=
   JOB DONE.
=------------------------------------------------------------------------------=
