
     Program PWSCF v.5.1 starts on 28Sep2017 at 14:35:39 

     This program is part of the open-source Quantum ESPRESSO suite
     for quantum simulation of materials; please cite
         "P. Giannozzi et al., J. Phys.:Condens. Matter 21 395502 (2009);
          URL http://www.quantum-espresso.org", 
     in publications or presentations arising from this work. More details at
     http://www.quantum-espresso.org/quote

     Parallel version (MPI), running on     8 processors
     R & G space division:  proc/nbgrp/npool/nimage =       8
     Reading input from /tmp/Si_diamond.scf.in.super.222.largdist.b.01.13021/Si_diamond.scf.in.super.222.largdist.b.01.t
Warning: card &IONS ignored
Warning: card   ION_DYNAMICS='BFGS', ignored
Warning: card / ignored
Warning: card &CELL ignored
Warning: card  CELL_DYNAMICS = 'BFGS' ignored
Warning: card / ignored
     Message from routine read_cards :
     DEPRECATED: no units specified in CELL_PARAMETERS card

     Current dimensions of program PWSCF are:
     Max number of different atomic species (ntypx) = 10
     Max number of k-points (npk) =  40000
     Max angular momentum in pseudopotentials (lmaxx) =  3
 kfg - two_fermi_energies  F

     Subspace diagonalization in iterative solution of the eigenvalue problem:
     a serial algorithm will be used


     Parallelization info
     --------------------
     sticks:   dense  smooth     PW     G-vecs:    dense   smooth      PW
     Min         363     256     71                12921     7555    1109
     Max         364     257     73                12925     7568    1110
     Sum        2905    2053    571               103379    60495    8873



     bravais-lattice index     =            0
     lattice parameter (alat)  =    14.515605984  a.u.
     unit-cell volume          =    2162.6713 (a.u.)^3
     number of atoms/cell      =           16
     number of atomic types    =            1
     number of electrons       =        64.00
     number of Kohn-Sham states=           38
     kinetic-energy cutoff     =      35.0000  Ry
     charge density cutoff     =     200.0000  Ry
     convergence threshold     =      1.0E-09
     mixing beta               =       0.3000
     number of iterations used =            8  local-TF  mixing
     Exchange-correlation      = SLA  PW   PSX  PSC ( 1  4 10  8 0)
     A smooth kinetic-energy cutoff is imposed at      34.5000 Ry
     height of the smooth step-function =             800.0000 Ry
     width of the smooth step-function  =               1.0000 Ry


     celldm(1)=  14.515606  celldm(2)=   0.000000  celldm(3)=   0.000000
     celldm(4)=   0.000000  celldm(5)=   0.000000  celldm(6)=   0.000000

     crystal axes: (cart. coord. in units of alat)
               a(1) = (   0.000000000000   0.707106781187   0.707106781187 )  
               a(2) = (   0.707106781187   0.000000000000   0.707106781187 )  
               a(3) = (   0.707106781187   0.707106781187  -0.000000000000 )  

     reciprocal axes: (cart. coord. in units 2 pi/alat)
               b(1) = ( -0.707107  0.707107  0.707107 )  
               b(2) = (  0.707107 -0.707107  0.707107 )  
               b(3) = (  0.707107  0.707107 -0.707107 )  


     PseudoPot. # 1 for Si read from file:
     /users/kfg/psuedo/gbrv_1.5/si.pbesol.UPF
     MD5 check sum: ef58ba74faed4df802eb8a9742fc00a8
     Pseudo is Ultrasoft + core correction, Zval =  4.0
     Generated by new atomic code, or converted to UPF format
     Using radial grid of  899 points,  6 beta functions with: 
                l(1) =   0
                l(2) =   0
                l(3) =   1
                l(4) =   1
                l(5) =   2
                l(6) =   2
     Q(r) pseudized with  8 coefficients,  rinner =    0.900   0.900   0.900
                                                       0.900   0.900

     atomic species   valence    mass     pseudopotential
        Si             4.00    28.08550     Si( 1.00)

     No symmetry found


                                    s                        frac. trans.

      isym =  1     identity                                     

 cryst.   s( 1) = (     1          0          0      )
                  (     0          1          0      )
                  (     0          0          1      )

 cart.    s( 1) = (  1.0000000  0.0000000  0.0000000 )
                  (  0.0000000  1.0000000  0.0000000 )
                  (  0.0000000  0.0000000  1.0000000 )


     point group C_1 (1)    
     there are  1 classes
     the character table:

       E    
A      1.00

     the symmetry operations in each class:
     E        1

   Cartesian axes

     site n.     atom                  positions (alat units)
         1           Si  tau(   1) = (   -0.00543240868   -0.02005459105   -0.02037188388  )
         2           Si  tau(   2) = (    0.16815234107    0.17696001349    0.15105745794  )
         3           Si  tau(   3) = (    0.36595488617    0.32757188043   -0.04812879568  )
         4           Si  tau(   4) = (    0.50514078946    0.49789902511    0.20342123603  )
         5           Si  tau(   5) = (    0.31606398292    0.03736522330    0.39623920615  )
         6           Si  tau(   6) = (    0.50342741589    0.22307579969    0.49236229453  )
         7           Si  tau(   7) = (    0.67261385013    0.36781928876    0.37251042323  )
         8           Si  tau(   8) = (    0.89459064627    0.55655643488    0.51735208871  )
         9           Si  tau(   9) = (   -0.03008483100    0.36590640003    0.35750127575  )
        10           Si  tau(  10) = (    0.18146084245    0.50036886555    0.48603374769  )
        11           Si  tau(  11) = (    0.30679733762    0.67693988506    0.39309881680  )
        12           Si  tau(  12) = (    0.50637120385    0.89506968124    0.48497918251  )
        13           Si  tau(  13) = (    0.31622089838    0.32948374823    0.67405748370  )
        14           Si  tau(  14) = (    0.49897080706    0.53894877822    0.87662227650  )
        15           Si  tau(  15) = (    0.70557078899    0.71217351980    0.70120713877  )
        16           Si  tau(  16) = (    0.87123116900    0.89657257620    0.92251729600  )

   Crystallographic axes

     site n.     atom                  positions (cryst. coord.)
         1           Si  tau(   1) = (   -0.02474454154   -0.00406565293   -0.00361693311  )
         2           Si  tau(   2) = (    0.11304171776    0.10058578796    0.13721753332  )
         3           Si  tau(   3) = (   -0.06117308144   -0.00689131416    0.52442967740  )
         4           Si  tau(   4) = (    0.13871983476    0.14896123612    0.56541571924  )
         5           Si  tau(   5) = (    0.08311364681    0.47725321247   -0.03027124125  )
         6           Si  tau(   6) = (    0.14991418833    0.54639124620    0.16556263303  )
         7           Si  tau(   7) = (    0.04788234512    0.47892694754    0.47229268155  )
         8           Si  tau(   8) = (    0.12679688704    0.60484945334    0.66029277139  )
         9           Si  tau(   9) = (    0.53279966112   -0.02721650839   -0.01532986763  )
        10           Si  tau(  10) = (    0.56917978459    0.11817573316    0.13844865126  )
        11           Si  tau(  11) = (    0.53969314434    0.01623253374    0.41764442203  )
        12           Si  tau(  12) = (    0.61778339789    0.06808073949    0.64803628458  )
        13           Si  tau(  13) = (    0.48600886870    0.46725236657   -0.02004848337  )
        14           Si  tau(  14) = (    0.64813425076    0.59159686174    0.11405442082  )
        15           Si  tau(  15) = (    0.50049715857    0.49115948711    0.50666829190  )
        16           Si  tau(  16) = (    0.67023731664    0.63439915488    0.59770778027  )

     number of k points=    36  gaussian smearing, width (Ry)=  0.0150
                       cart. coord. in units 2pi/alat
        k(    1) = (   0.0000000   0.0000000   0.0000000), wk =   0.0312500
        k(    2) = (   0.1767767   0.1767767  -0.1767767), wk =   0.0625000
        k(    3) = (  -0.3535534  -0.3535534   0.3535534), wk =   0.0312500
        k(    4) = (   0.3535534   0.0000000   0.0000000), wk =   0.0625000
        k(    5) = (  -0.1767767  -0.5303301   0.5303301), wk =   0.0625000
        k(    6) = (   0.0000000  -0.3535534   0.3535534), wk =   0.0625000
        k(    7) = (  -0.7071068   0.0000000   0.0000000), wk =   0.0312500
        k(    8) = (  -0.7071068   0.3535534   0.0000000), wk =   0.0625000
        k(    9) = (  -0.1767767  -0.1767767  -0.1767767), wk =   0.0625000
        k(   10) = (  -0.1767767   0.1767767   0.1767767), wk =   0.0625000
        k(   11) = (   0.1767767  -0.1767767   0.1767767), wk =   0.0625000
        k(   12) = (   0.3535534   0.3535534   0.3535534), wk =   0.0312500
        k(   13) = (   0.3535534  -0.3535534  -0.3535534), wk =   0.0312500
        k(   14) = (  -0.3535534   0.3535534  -0.3535534), wk =   0.0312500
        k(   15) = (   0.0000000   0.3535534   0.0000000), wk =   0.0625000
        k(   16) = (   0.0000000   0.0000000   0.3535534), wk =   0.0625000
        k(   17) = (   0.1767767   0.5303301   0.5303301), wk =   0.0625000
        k(   18) = (   0.1767767  -0.5303301  -0.5303301), wk =   0.0625000
        k(   19) = (  -0.1767767   0.5303301  -0.5303301), wk =   0.0625000
        k(   20) = (  -0.5303301  -0.1767767  -0.5303301), wk =   0.0625000
        k(   21) = (   0.5303301   0.1767767  -0.5303301), wk =   0.0625000
        k(   22) = (  -0.5303301   0.1767767   0.5303301), wk =   0.0625000
        k(   23) = (   0.5303301  -0.1767767   0.5303301), wk =   0.0625000
        k(   24) = (   0.5303301   0.5303301  -0.1767767), wk =   0.0625000
        k(   25) = (  -0.5303301   0.5303301   0.1767767), wk =   0.0625000
        k(   26) = (   0.5303301  -0.5303301   0.1767767), wk =   0.0625000
        k(   27) = (  -0.5303301  -0.5303301  -0.1767767), wk =   0.0625000
        k(   28) = (   0.0000000   0.3535534   0.3535534), wk =   0.0625000
        k(   29) = (  -0.3535534   0.0000000  -0.3535534), wk =   0.0625000
        k(   30) = (   0.3535534   0.0000000  -0.3535534), wk =   0.0625000
        k(   31) = (   0.3535534   0.3535534   0.0000000), wk =   0.0625000
        k(   32) = (  -0.3535534   0.3535534   0.0000000), wk =   0.0625000
        k(   33) = (   0.0000000  -0.7071068   0.0000000), wk =   0.0312500
        k(   34) = (   0.0000000   0.0000000  -0.7071068), wk =   0.0312500
        k(   35) = (   0.3535534  -0.7071068   0.0000000), wk =   0.0625000
        k(   36) = (   0.7071068   0.0000000   0.3535534), wk =   0.0625000

                       cryst. coord.
        k(    1) = (   0.0000000   0.0000000   0.0000000), wk =   0.0312500
        k(    2) = (   0.0000000   0.0000000   0.2500000), wk =   0.0625000
        k(    3) = (   0.0000000   0.0000000  -0.5000000), wk =   0.0312500
        k(    4) = (   0.0000000   0.2500000   0.2500000), wk =   0.0625000
        k(    5) = (   0.0000000   0.2500000  -0.5000000), wk =   0.0625000
        k(    6) = (   0.0000000   0.2500000  -0.2500000), wk =   0.0625000
        k(    7) = (   0.0000000  -0.5000000  -0.5000000), wk =   0.0312500
        k(    8) = (   0.2500000  -0.5000000  -0.2500000), wk =   0.0625000
        k(    9) = (  -0.2500000  -0.2500000  -0.2500000), wk =   0.0625000
        k(   10) = (   0.2500000   0.0000000   0.0000000), wk =   0.0625000
        k(   11) = (   0.0000000   0.2500000   0.0000000), wk =   0.0625000
        k(   12) = (   0.5000000   0.5000000   0.5000000), wk =   0.0312500
        k(   13) = (  -0.5000000   0.0000000   0.0000000), wk =   0.0312500
        k(   14) = (   0.0000000  -0.5000000   0.0000000), wk =   0.0312500
        k(   15) = (   0.2500000   0.0000000   0.2500000), wk =   0.0625000
        k(   16) = (   0.2500000   0.2500000   0.0000000), wk =   0.0625000
        k(   17) = (   0.7500000   0.5000000   0.5000000), wk =   0.0625000
        k(   18) = (  -0.7500000  -0.2500000  -0.2500000), wk =   0.0625000
        k(   19) = (   0.0000000  -0.5000000   0.2500000), wk =   0.0625000
        k(   20) = (  -0.5000000  -0.7500000  -0.5000000), wk =   0.0625000
        k(   21) = (  -0.2500000   0.0000000   0.5000000), wk =   0.0625000
        k(   22) = (   0.5000000   0.0000000  -0.2500000), wk =   0.0625000
        k(   23) = (   0.2500000   0.7500000   0.2500000), wk =   0.0625000
        k(   24) = (   0.2500000   0.2500000   0.7500000), wk =   0.0625000
        k(   25) = (   0.5000000  -0.2500000   0.0000000), wk =   0.0625000
        k(   26) = (  -0.2500000   0.5000000   0.0000000), wk =   0.0625000
        k(   27) = (  -0.5000000  -0.5000000  -0.7500000), wk =   0.0625000
        k(   28) = (   0.5000000   0.2500000   0.2500000), wk =   0.0625000
        k(   29) = (  -0.2500000  -0.5000000  -0.2500000), wk =   0.0625000
        k(   30) = (  -0.2500000   0.0000000   0.2500000), wk =   0.0625000
        k(   31) = (   0.2500000   0.2500000   0.5000000), wk =   0.0625000
        k(   32) = (   0.2500000  -0.2500000   0.0000000), wk =   0.0625000
        k(   33) = (  -0.5000000   0.0000000  -0.5000000), wk =   0.0312500
        k(   34) = (  -0.5000000  -0.5000000   0.0000000), wk =   0.0312500
        k(   35) = (  -0.5000000   0.2500000  -0.2500000), wk =   0.0625000
        k(   36) = (   0.2500000   0.7500000   0.5000000), wk =   0.0625000

     Dense  grid:   103379 G-vectors     FFT dimensions: (  72,  72,  72)

     Smooth grid:    60495 G-vectors     FFT dimensions: (  60,  60,  60)

     Largest allocated arrays     est. size (Mb)     dimensions
        Kohn-Sham Wavefunctions         0.56 Mb     (     974,   38)
        NL pseudopotentials             4.28 Mb     (     974,  288)
        Each V/rho on FFT grid          0.71 Mb     (   46656)
        Each G-vector array             0.10 Mb     (   12923)
        G-vector shells                 0.01 Mb     (     706)
     Largest temporary arrays     est. size (Mb)     dimensions
        Auxiliary wavefunctions         2.26 Mb     (     974,  152)
        Each subspace H/S matrix        0.35 Mb     (     152,  152)
        Each <psi_i|beta_j> matrix      0.17 Mb     (     288,   38)
        Arrays for rho mixing           5.70 Mb     (   46656,    8)

     Initial potential from superposition of free atoms

     starting charge   63.98963, renormalised to   64.00000
     Starting wfc are   64 randomized atomic wfcs

     total cpu time spent up to now is       17.0 secs

     per-process dynamical memory:    37.0 Mb

     Self-consistent Calculation

     iteration #  1     ecut=    35.00 Ry     beta=0.30
     Davidson diagonalization with overlap
     ethr =  1.00E-02,  avg # of iterations =  3.0

     Threshold (ethr) on eigenvalues was too large:
     Diagonalizing with lowered threshold

     Davidson diagonalization with overlap
     ethr =  9.26E-04,  avg # of iterations =  1.3

     total cpu time spent up to now is       86.7 secs

     total energy              =    -152.18598908 Ry
     Harris-Foulkes estimate   =    -152.26202040 Ry
     estimated scf accuracy    <       0.60052207 Ry

     iteration #  2     ecut=    35.00 Ry     beta=0.30
     Davidson diagonalization with overlap
     ethr =  9.38E-04,  avg # of iterations =  1.0

     total cpu time spent up to now is      113.5 secs

     total energy              =    -152.02923872 Ry
     Harris-Foulkes estimate   =    -152.19101972 Ry
     estimated scf accuracy    <       0.36996381 Ry

     iteration #  3     ecut=    35.00 Ry     beta=0.30
     Davidson diagonalization with overlap
     ethr =  5.78E-04,  avg # of iterations =  2.1

     total cpu time spent up to now is      149.8 secs

     total energy              =    -152.08961549 Ry
     Harris-Foulkes estimate   =    -152.09262606 Ry
     estimated scf accuracy    <       0.02099085 Ry

     iteration #  4     ecut=    35.00 Ry     beta=0.30
     Davidson diagonalization with overlap
     ethr =  3.28E-05,  avg # of iterations =  9.0

     total cpu time spent up to now is      205.0 secs

     total energy              =    -152.08832469 Ry
     Harris-Foulkes estimate   =    -152.09088146 Ry
     estimated scf accuracy    <       0.01171855 Ry

     iteration #  5     ecut=    35.00 Ry     beta=0.30
     Davidson diagonalization with overlap
     ethr =  1.83E-05,  avg # of iterations =  2.0

     total cpu time spent up to now is      236.3 secs

     total energy              =    -152.08881455 Ry
     Harris-Foulkes estimate   =    -152.08938222 Ry
     estimated scf accuracy    <       0.00154313 Ry

     iteration #  6     ecut=    35.00 Ry     beta=0.30
     Davidson diagonalization with overlap
     ethr =  2.41E-06,  avg # of iterations =  4.9

     total cpu time spent up to now is      288.1 secs

     total energy              =    -152.08940325 Ry
     Harris-Foulkes estimate   =    -152.08949626 Ry
     estimated scf accuracy    <       0.00084063 Ry

     iteration #  7     ecut=    35.00 Ry     beta=0.30
     Davidson diagonalization with overlap
     ethr =  1.31E-06,  avg # of iterations =  1.0

     total cpu time spent up to now is      309.4 secs

     total energy              =    -152.08925390 Ry
     Harris-Foulkes estimate   =    -152.08942199 Ry
     estimated scf accuracy    <       0.00044040 Ry

     iteration #  8     ecut=    35.00 Ry     beta=0.30
     Davidson diagonalization with overlap
     ethr =  6.88E-07,  avg # of iterations =  2.0

     total cpu time spent up to now is      337.1 secs

     total energy              =    -152.08934769 Ry
     Harris-Foulkes estimate   =    -152.08935061 Ry
     estimated scf accuracy    <       0.00001910 Ry

     iteration #  9     ecut=    35.00 Ry     beta=0.30
     Davidson diagonalization with overlap
     ethr =  2.98E-08,  avg # of iterations =  2.0

     total cpu time spent up to now is      362.7 secs

     total energy              =    -152.08934724 Ry
     Harris-Foulkes estimate   =    -152.08934958 Ry
     estimated scf accuracy    <       0.00000817 Ry

     iteration # 10     ecut=    35.00 Ry     beta=0.30
     Davidson diagonalization with overlap
     ethr =  1.28E-08,  avg # of iterations =  2.0

     total cpu time spent up to now is      390.3 secs

     total energy              =    -152.08934868 Ry
     Harris-Foulkes estimate   =    -152.08934868 Ry
     estimated scf accuracy    <       0.00000020 Ry

     iteration # 11     ecut=    35.00 Ry     beta=0.30
     Davidson diagonalization with overlap
     ethr =  3.15E-10,  avg # of iterations =  3.1

     total cpu time spent up to now is      426.7 secs

     total energy              =    -152.08934874 Ry
     Harris-Foulkes estimate   =    -152.08934885 Ry
     estimated scf accuracy    <       0.00000039 Ry

     iteration # 12     ecut=    35.00 Ry     beta=0.30
     Davidson diagonalization with overlap
     ethr =  3.15E-10,  avg # of iterations =  2.0

     total cpu time spent up to now is      454.7 secs

     total energy              =    -152.08934878 Ry
     Harris-Foulkes estimate   =    -152.08934879 Ry
     estimated scf accuracy    <       0.00000001 Ry

     iteration # 13     ecut=    35.00 Ry     beta=0.30
     Davidson diagonalization with overlap
     ethr =  2.18E-11,  avg # of iterations =  3.0

     total cpu time spent up to now is      485.8 secs

     total energy              =    -152.08934879 Ry
     Harris-Foulkes estimate   =    -152.08934879 Ry
     estimated scf accuracy    <          5.2E-09 Ry

     iteration # 14     ecut=    35.00 Ry     beta=0.30
     Davidson diagonalization with overlap
     ethr =  8.09E-12,  avg # of iterations =  1.0

     total cpu time spent up to now is      515.4 secs

     total energy              =    -152.08934879 Ry
     Harris-Foulkes estimate   =    -152.08934879 Ry
     estimated scf accuracy    <          1.2E-09 Ry

     iteration # 15     ecut=    35.00 Ry     beta=0.30
     Davidson diagonalization with overlap
     ethr =  1.91E-12,  avg # of iterations =  2.7

     total cpu time spent up to now is      547.4 secs

     End of self-consistent calculation

          k = 0.0000 0.0000 0.0000 (  7631 PWs)   bands (ev):

    -6.4411  -4.8084  -4.4018  -3.8381  -3.0362  -2.8291  -2.3532  -1.9606
    -1.6456  -1.3792  -1.1363  -0.9013  -0.8052  -0.5848  -0.0670   2.3879
     2.9063   2.9600   3.0685   3.2402   3.4098   3.5245   4.2330   4.5906
     4.8256   5.1325   5.4171   5.4489   5.6107   5.7863   5.8445   6.0026
     6.1451   6.4136   6.7532   6.9598   7.0121   7.1800

     occupation numbers 
     1.0000   1.0000   1.0000   1.0000   1.0000   1.0000   1.0000   1.0000
     1.0000   1.0000   1.0000   1.0000   1.0000   1.0000   1.0000   1.0000
     1.0000   1.0000   1.0000   1.0000   1.0000   1.0000   1.0000   1.0000
     1.0000   1.0000   1.0000   1.0000   0.9999   0.9957   0.9870   0.8709
     0.5569   0.0429   0.0000   0.0000   0.0000   0.0000

          k = 0.1768 0.1768-0.1768 (  7564 PWs)   bands (ev):

    -6.2786  -4.8725  -4.7278  -3.8383  -3.3859  -2.8284  -2.6154  -1.8920
    -1.4939  -1.3539  -0.6454  -0.5346  -0.0480   0.0720   0.2186   1.6260
     2.1922   2.4054   2.5134   3.1795   3.3919   3.5488   3.8100   4.0174
     4.5348   4.5963   4.9017   5.0817   5.3236   5.5916   5.8307   6.1768
     6.4357   6.5785   6.9306   7.1914   7.5735   7.5939

     occupation numbers 
     1.0000   1.0000   1.0000   1.0000   1.0000   1.0000   1.0000   1.0000
     1.0000   1.0000   1.0000   1.0000   1.0000   1.0000   1.0000   1.0000
     1.0000   1.0000   1.0000   1.0000   1.0000   1.0000   1.0000   1.0000
     1.0000   1.0000   1.0000   1.0000   1.0000   1.0000   0.9899   0.4695
     0.0307   0.0021   0.0000   0.0000   0.0000   0.0000

          k =-0.3536-0.3536 0.3536 (  7570 PWs)   bands (ev):

    -5.9904  -5.3746  -4.6008  -4.0578  -3.2883  -3.2427  -2.5048  -2.2775
    -1.0726  -0.7841  -0.2221  -0.1018   0.3147   0.4228   0.9852   1.4508
     1.6131   1.7835   2.1302   2.5021   2.8713   3.1319   3.5772   3.9862
     4.0181   4.2853   4.4243   4.4896   5.3702   5.5156   5.8351   6.1684
     6.5349   6.5986   7.2720   7.6315   7.8474   7.9236

     occupation numbers 
     1.0000   1.0000   1.0000   1.0000   1.0000   1.0000   1.0000   1.0000
     1.0000   1.0000   1.0000   1.0000   1.0000   1.0000   1.0000   1.0000
     1.0000   1.0000   1.0000   1.0000   1.0000   1.0000   1.0000   1.0000
     1.0000   1.0000   1.0000   1.0000   1.0000   1.0000   0.9890   0.4928
     0.0053   0.0014   0.0000   0.0000   0.0000   0.0000

          k = 0.3536 0.0000 0.0000 (  7563 PWs)   bands (ev):

    -6.2202  -5.0026  -4.5957  -4.1122  -3.4216  -2.8923  -2.2487  -1.7682
    -1.5227  -1.3582  -1.0087  -0.5451   0.0470   0.3779   0.5204   1.7620
     2.1267   2.3970   2.4668   2.8139   3.2695   3.4860   3.7732   3.9759
     4.2841   4.4781   4.7490   5.0619   5.4122   5.5963   5.7263   5.8533
     6.1193   6.4843   7.0760   7.4533   7.7045   7.8670

     occupation numbers 
     1.0000   1.0000   1.0000   1.0000   1.0000   1.0000   1.0000   1.0000
     1.0000   1.0000   1.0000   1.0000   1.0000   1.0000   1.0000   1.0000
     1.0000   1.0000   1.0000   1.0000   1.0000   1.0000   1.0000   1.0000
     1.0000   1.0000   1.0000   1.0000   1.0000   1.0000   0.9988   0.9848
     0.6263   0.0136   0.0000   0.0000   0.0000   0.0000

          k =-0.1768-0.5303 0.5303 (  7554 PWs)   bands (ev):

    -5.9360  -5.2130  -4.8387  -4.3293  -3.5184  -2.7290  -2.5206  -2.0319
    -1.1290  -0.8647  -0.6440   0.0883   0.4869   0.7215   1.0657   1.3507
     1.6182   1.9332   2.3595   2.6746   2.7631   3.0206   3.2475   3.6409
     3.8086   4.1174   4.3332   4.6060   4.9376   5.2032   5.3597   5.8314
     6.9469   7.1767   7.4071   7.9784   8.2164   8.3346

     occupation numbers 
     1.0000   1.0000   1.0000   1.0000   1.0000   1.0000   1.0000   1.0000
     1.0000   1.0000   1.0000   1.0000   1.0000   1.0000   1.0000   1.0000
     1.0000   1.0000   1.0000   1.0000   1.0000   1.0000   1.0000   1.0000
     1.0000   1.0000   1.0000   1.0000   1.0000   1.0000   1.0000   0.9897
     0.0000   0.0000   0.0000   0.0000   0.0000   0.0000

          k = 0.0000-0.3536 0.3536 (  7592 PWs)   bands (ev):

    -6.0752  -5.1402  -4.7897  -3.9785  -3.2883  -3.1685  -2.6696  -1.9528
    -1.4084  -1.0854  -0.4993   0.0672   0.3417   0.5129   1.0964   1.4403
     1.8806   2.0425   2.4548   2.6925   2.9805   3.1662   3.4270   3.7458
     3.8699   4.1061   4.5288   4.6366   4.9186   5.0744   5.4036   6.2633
     6.5362   7.0836   7.4219   7.7202   7.8093   8.1348

     occupation numbers 
     1.0000   1.0000   1.0000   1.0000   1.0000   1.0000   1.0000   1.0000
     1.0000   1.0000   1.0000   1.0000   1.0000   1.0000   1.0000   1.0000
     1.0000   1.0000   1.0000   1.0000   1.0000   1.0000   1.0000   1.0000
     1.0000   1.0000   1.0000   1.0000   1.0000   1.0000   1.0000   0.2495
     0.0051   0.0000   0.0000   0.0000   0.0000   0.0000

          k =-0.7071 0.0000 0.0000 (  7528 PWs)   bands (ev):

    -5.8461  -5.1428  -4.8756  -4.6572  -3.4963  -2.9367  -2.1247  -1.5596
    -1.4254  -1.2962  -0.2045   0.1600   0.3981   0.7564   1.1432   1.5422
     1.8759   2.0598   2.3135   2.4147   2.5578   2.8123   2.8495   3.2812
     3.7730   4.3657   4.5027   4.7364   4.8267   5.1525   5.4348   5.5146
     6.7361   6.9330   7.5268   7.6933   8.0416   8.1445

     occupation numbers 
     1.0000   1.0000   1.0000   1.0000   1.0000   1.0000   1.0000   1.0000
     1.0000   1.0000   1.0000   1.0000   1.0000   1.0000   1.0000   1.0000
     1.0000   1.0000   1.0000   1.0000   1.0000   1.0000   1.0000   1.0000
     1.0000   1.0000   1.0000   1.0000   1.0000   1.0000   1.0000   1.0000
     0.0000   0.0000   0.0000   0.0000   0.0000   0.0000

          k =-0.7071 0.3536 0.0000 (  7564 PWs)   bands (ev):

    -5.9209  -5.2007  -4.8974  -3.9736  -3.7920  -3.0596  -2.5231  -2.1866
    -0.8731  -0.7494  -0.5825  -0.1343   0.8067   1.1739   1.4935   1.6487
     1.8193   1.9532   2.1381   2.5093   2.5634   2.9415   3.2741   3.4092
     3.5686   3.6670   3.9474   4.0350   4.7963   5.1371   5.2114   5.4409
     7.2367   7.4674   7.7574   7.9069   8.2223   8.4012

     occupation numbers 
     1.0000   1.0000   1.0000   1.0000   1.0000   1.0000   1.0000   1.0000
     1.0000   1.0000   1.0000   1.0000   1.0000   1.0000   1.0000   1.0000
     1.0000   1.0000   1.0000   1.0000   1.0000   1.0000   1.0000   1.0000
     1.0000   1.0000   1.0000   1.0000   1.0000   1.0000   1.0000   1.0000
     0.0000   0.0000   0.0000   0.0000   0.0000   0.0000

          k =-0.1768-0.1768-0.1768 (  7564 PWs)   bands (ev):

    -6.2912  -4.8797  -4.7131  -3.8264  -3.2956  -2.8098  -2.4815  -2.1701
    -1.4221  -1.3170  -0.9321  -0.6753  -0.1572   0.0354   0.4445   1.8971
     2.3802   2.4782   2.7641   3.1405   3.4574   3.5541   3.8816   4.0778
     4.3006   4.6202   4.8828   5.0065   5.4140   5.4699   5.6168   5.7796
     6.3571   6.6792   6.7888   7.0890   7.3634   7.5331

     occupation numbers 
     1.0000   1.0000   1.0000   1.0000   1.0000   1.0000   1.0000   1.0000
     1.0000   1.0000   1.0000   1.0000   1.0000   1.0000   1.0000   1.0000
     1.0000   1.0000   1.0000   1.0000   1.0000   1.0000   1.0000   1.0000
     1.0000   1.0000   1.0000   1.0000   1.0000   1.0000   0.9999   0.9963
     0.0925   0.0002   0.0000   0.0000   0.0000   0.0000

          k =-0.1768 0.1768 0.1768 (  7564 PWs)   bands (ev):

    -6.2843  -5.1361  -4.2388  -3.8764  -3.2714  -2.9878  -2.7754  -2.2671
    -1.2724  -1.0436  -0.6926  -0.6237  -0.3739  -0.1439   0.5920   2.1960
     2.2857   2.5151   2.7858   3.0320   3.3647   3.4464   3.5547   3.9176
     4.2447   4.5511   4.7707   4.9831   5.5002   5.6595   5.9734   6.0902
     6.2163   6.4143   6.6702   7.0476   7.5546   7.7650

     occupation numbers 
     1.0000   1.0000   1.0000   1.0000   1.0000   1.0000   1.0000   1.0000
     1.0000   1.0000   1.0000   1.0000   1.0000   1.0000   1.0000   1.0000
     1.0000   1.0000   1.0000   1.0000   1.0000   1.0000   1.0000   1.0000
     1.0000   1.0000   1.0000   1.0000   1.0000   0.9998   0.9088   0.6997
     0.3631   0.0425   0.0002   0.0000   0.0000   0.0000

          k = 0.1768-0.1768 0.1768 (  7564 PWs)   bands (ev):

    -6.2916  -5.1186  -4.2796  -3.8377  -3.2574  -2.9584  -2.7170  -2.3905
    -1.2446  -1.0101  -0.7907  -0.5564  -0.4249  -0.2262   0.6248   2.1337
     2.3716   2.6345   2.8379   2.9864   3.2887   3.4579   3.6922   4.0516
     4.2118   4.5219   4.6701   5.0473   5.5037   5.7641   5.9194   6.0409
     6.1779   6.4252   6.6735   7.0326   7.4820   7.5761

     occupation numbers 
     1.0000   1.0000   1.0000   1.0000   1.0000   1.0000   1.0000   1.0000
     1.0000   1.0000   1.0000   1.0000   1.0000   1.0000   1.0000   1.0000
     1.0000   1.0000   1.0000   1.0000   1.0000   1.0000   1.0000   1.0000
     1.0000   1.0000   1.0000   1.0000   1.0000   0.9973   0.9561   0.8066
     0.4664   0.0361   0.0002   0.0000   0.0000   0.0000

          k = 0.3536 0.3536 0.3536 (  7570 PWs)   bands (ev):

    -6.0447  -5.3238  -4.5875  -4.0686  -3.2607  -2.7969  -2.7430  -2.4060
    -0.9826  -0.9539  -0.7520  -0.2671   0.0444   0.2533   1.4591   1.8601
     1.9352   2.0356   2.6537   2.8407   3.0421   3.1766   3.5480   3.8500
     3.9487   4.0057   4.2347   4.2767   5.3292   5.4094   5.5467   5.8991
     6.1906   6.7584   7.1610   7.4046   7.4279   7.6383

     occupation numbers 
     1.0000   1.0000   1.0000   1.0000   1.0000   1.0000   1.0000   1.0000
     1.0000   1.0000   1.0000   1.0000   1.0000   1.0000   1.0000   1.0000
     1.0000   1.0000   1.0000   1.0000   1.0000   1.0000   1.0000   1.0000
     1.0000   1.0000   1.0000   1.0000   1.0000   1.0000   1.0000   0.9677
     0.4316   0.0000   0.0000   0.0000   0.0000   0.0000

          k = 0.3536-0.3536-0.3536 (  7570 PWs)   bands (ev):

    -5.9897  -5.5616  -4.0302  -3.9726  -3.4798  -3.1517  -2.8273  -2.6697
    -0.8445  -0.6621  -0.4231  -0.2489   0.0438   0.1993   1.6857   1.8514
     2.0141   2.2272   2.4467   2.5440   2.9921   3.0927   3.2533   3.3607
     3.8373   3.8829   4.1221   4.3684   5.4924   5.6629   5.8890   6.0390
     6.5057   6.5721   6.9465   7.3126   7.4642   7.5591

     occupation numbers 
     1.0000   1.0000   1.0000   1.0000   1.0000   1.0000   1.0000   1.0000
     1.0000   1.0000   1.0000   1.0000   1.0000   1.0000   1.0000   1.0000
     1.0000   1.0000   1.0000   1.0000   1.0000   1.0000   1.0000   1.0000
     1.0000   1.0000   1.0000   1.0000   1.0000   0.9998   0.9724   0.8101
     0.0092   0.0024   0.0000   0.0000   0.0000   0.0000

          k =-0.3536 0.3536-0.3536 (  7570 PWs)   bands (ev):

    -6.0302  -5.5071  -4.1189  -3.9497  -3.3087  -3.0421  -2.9757  -2.7283
    -0.7555  -0.7372  -0.4982  -0.2372  -0.1194   0.1386   1.5616   1.8993
     2.2268   2.2935   2.6442   2.7262   3.0172   3.0565   3.2185   3.3313
     3.7879   3.9458   4.1755   4.3885   5.4366   5.7944   5.9162   6.0662
     6.2648   6.6123   6.9549   7.1130   7.1891   7.5410

     occupation numbers 
     1.0000   1.0000   1.0000   1.0000   1.0000   1.0000   1.0000   1.0000
     1.0000   1.0000   1.0000   1.0000   1.0000   1.0000   1.0000   1.0000
     1.0000   1.0000   1.0000   1.0000   1.0000   1.0000   1.0000   1.0000
     1.0000   1.0000   1.0000   1.0000   1.0000   0.9950   0.9581   0.7548
     0.2462   0.0010   0.0000   0.0000   0.0000   0.0000

          k = 0.0000 0.3536 0.0000 (  7563 PWs)   bands (ev):

    -6.2190  -5.0330  -4.5940  -4.0487  -3.3781  -2.9572  -2.2331  -1.9107
    -1.5455  -1.2624  -1.0328  -0.4514   0.0101   0.3444   0.5527   1.7568
     2.1782   2.3378   2.5419   2.8342   3.3913   3.4728   3.6441   4.0244
     4.2612   4.3195   4.9147   5.0487   5.3421   5.5445   5.6824   5.8333
     6.1206   6.5586   7.0707   7.4637   7.6893   7.7951

     occupation numbers 
     1.0000   1.0000   1.0000   1.0000   1.0000   1.0000   1.0000   1.0000
     1.0000   1.0000   1.0000   1.0000   1.0000   1.0000   1.0000   1.0000
     1.0000   1.0000   1.0000   1.0000   1.0000   1.0000   1.0000   1.0000
     1.0000   1.0000   1.0000   1.0000   1.0000   1.0000   0.9996   0.9894
     0.6228   0.0032   0.0000   0.0000   0.0000   0.0000

          k = 0.0000 0.0000 0.3536 (  7563 PWs)   bands (ev):

    -6.2759  -4.8952  -4.5184  -4.0194  -3.3017  -3.0164  -2.8753  -2.0245
    -1.3545  -1.1085  -0.7078  -0.5118  -0.0448   0.3043   0.6246   2.0029
     2.4167   2.5780   2.7011   2.9559   3.1282   3.2157   3.4115   3.6037
     3.9770   4.3205   4.8311   4.9706   5.3886   5.5871   5.7424   5.9824
     6.1324   6.6637   6.9368   7.1732   7.5644   7.8188

     occupation numbers 
     1.0000   1.0000   1.0000   1.0000   1.0000   1.0000   1.0000   1.0000
     1.0000   1.0000   1.0000   1.0000   1.0000   1.0000   1.0000   1.0000
     1.0000   1.0000   1.0000   1.0000   1.0000   1.0000   1.0000   1.0000
     1.0000   1.0000   1.0000   1.0000   1.0000   1.0000   0.9983   0.8980
     0.5913   0.0003   0.0000   0.0000   0.0000   0.0000

          k = 0.1768 0.5303 0.5303 (  7554 PWs)   bands (ev):

    -5.9683  -5.1619  -4.8476  -4.3492  -3.4384  -2.6466  -2.4897  -2.1449
    -1.1768  -1.0389  -0.6118  -0.1653   0.1839   0.8946   1.3322   1.5046
     1.7589   2.1086   2.3882   2.7161   2.9806   3.1655   3.3019   3.4899
     3.8641   4.0872   4.2630   4.4882   4.8513   5.1021   5.4104   5.5626
     6.3424   7.2907   7.4757   7.7932   8.1220   8.2726

     occupation numbers 
     1.0000   1.0000   1.0000   1.0000   1.0000   1.0000   1.0000   1.0000
     1.0000   1.0000   1.0000   1.0000   1.0000   1.0000   1.0000   1.0000
     1.0000   1.0000   1.0000   1.0000   1.0000   1.0000   1.0000   1.0000
     1.0000   1.0000   1.0000   1.0000   1.0000   1.0000   1.0000   1.0000
     0.1104   0.0000   0.0000   0.0000   0.0000   0.0000

          k = 0.1768-0.5303-0.5303 (  7554 PWs)   bands (ev):

    -5.9364  -5.3898  -4.5425  -4.2996  -3.4868  -2.8942  -2.5356  -2.1915
    -1.1097  -0.8994  -0.5896   0.0220   0.1277   0.9733   1.3664   1.5900
     1.8979   2.1346   2.2218   2.3571   2.9769   3.1330   3.2755   3.4347
     3.6559   3.8767   4.2731   4.6503   4.9010   5.1845   5.4523   5.6883
     6.7514   7.0718   7.3750   7.6924   7.8837   8.2342

     occupation numbers 
     1.0000   1.0000   1.0000   1.0000   1.0000   1.0000   1.0000   1.0000
     1.0000   1.0000   1.0000   1.0000   1.0000   1.0000   1.0000   1.0000
     1.0000   1.0000   1.0000   1.0000   1.0000   1.0000   1.0000   1.0000
     1.0000   1.0000   1.0000   1.0000   1.0000   1.0000   1.0000   0.9995
     0.0000   0.0000   0.0000   0.0000   0.0000   0.0000

          k =-0.1768 0.5303-0.5303 (  7554 PWs)   bands (ev):

    -5.9610  -5.3391  -4.5830  -4.3144  -3.4168  -2.8044  -2.6527  -2.1750
    -1.1068  -0.9105  -0.7833   0.0336   0.3987   0.7538   1.2139   1.6714
     1.9767   2.1171   2.3301   2.5543   2.8662   3.0287   3.2752   3.5266
     3.7618   3.9942   4.2764   4.5762   4.7681   5.0909   5.4005   5.9215
     6.8878   7.0117   7.2411   7.5707   7.9660   8.2709

     occupation numbers 
     1.0000   1.0000   1.0000   1.0000   1.0000   1.0000   1.0000   1.0000
     1.0000   1.0000   1.0000   1.0000   1.0000   1.0000   1.0000   1.0000
     1.0000   1.0000   1.0000   1.0000   1.0000   1.0000   1.0000   1.0000
     1.0000   1.0000   1.0000   1.0000   1.0000   1.0000   1.0000   0.9547
     0.0000   0.0000   0.0000   0.0000   0.0000   0.0000

          k =-0.5303-0.1768-0.5303 (  7554 PWs)   bands (ev):

    -5.9673  -5.1926  -4.8144  -4.3504  -3.3858  -2.6912  -2.5144  -2.1553
    -1.1854  -0.9456  -0.7112  -0.2325   0.2491   0.9415   1.2560   1.6033
     1.7491   2.2052   2.3463   2.7599   2.9688   3.0816   3.3459   3.5497
     3.7933   4.0568   4.2334   4.5329   4.8770   4.9814   5.4277   5.6147
     6.3877   7.1594   7.4444   7.7265   8.0435   8.3340

     occupation numbers 
     1.0000   1.0000   1.0000   1.0000   1.0000   1.0000   1.0000   1.0000
     1.0000   1.0000   1.0000   1.0000   1.0000   1.0000   1.0000   1.0000
     1.0000   1.0000   1.0000   1.0000   1.0000   1.0000   1.0000   1.0000
     1.0000   1.0000   1.0000   1.0000   1.0000   1.0000   1.0000   0.9999
     0.0621   0.0000   0.0000   0.0000   0.0000   0.0000

          k = 0.5303 0.1768-0.5303 (  7554 PWs)   bands (ev):

    -5.9368  -5.2213  -4.8331  -4.3386  -3.4327  -2.8015  -2.5207  -2.0470
    -1.1304  -0.9381  -0.5821   0.0308   0.5276   0.7630   1.1154   1.3200
     1.6224   1.8724   2.4064   2.6359   3.0140   3.1224   3.2009   3.4763
     3.7976   4.0399   4.2490   4.6280   4.8918   5.2020   5.4326   5.7784
     6.9703   7.2408   7.3978   7.9506   8.1727   8.3767

     occupation numbers 
     1.0000   1.0000   1.0000   1.0000   1.0000   1.0000   1.0000   1.0000
     1.0000   1.0000   1.0000   1.0000   1.0000   1.0000   1.0000   1.0000
     1.0000   1.0000   1.0000   1.0000   1.0000   1.0000   1.0000   1.0000
     1.0000   1.0000   1.0000   1.0000   1.0000   1.0000   1.0000   0.9964
     0.0000   0.0000   0.0000   0.0000   0.0000   0.0000

          k =-0.5303 0.1768 0.5303 (  7554 PWs)   bands (ev):

    -5.9383  -5.3908  -4.5183  -4.3530  -3.3564  -2.8894  -2.6857  -2.1374
    -1.1569  -0.9594  -0.5879  -0.0759   0.4931   0.8260   1.2084   1.5692
     1.9952   2.1440   2.3970   2.5384   2.8346   3.1120   3.1965   3.4330
     3.6935   3.8740   4.2712   4.4847   4.8324   5.1412   5.3400   5.8857
     6.9849   7.1782   7.3957   7.6070   7.9014   8.3247

     occupation numbers 
     1.0000   1.0000   1.0000   1.0000   1.0000   1.0000   1.0000   1.0000
     1.0000   1.0000   1.0000   1.0000   1.0000   1.0000   1.0000   1.0000
     1.0000   1.0000   1.0000   1.0000   1.0000   1.0000   1.0000   1.0000
     1.0000   1.0000   1.0000   1.0000   1.0000   1.0000   1.0000   0.9739
     0.0000   0.0000   0.0000   0.0000   0.0000   0.0000

          k = 0.5303-0.1768 0.5303 (  7554 PWs)   bands (ev):

    -5.9584  -5.3614  -4.5257  -4.3519  -3.3438  -2.8938  -2.6167  -2.2311
    -1.1922  -0.8229  -0.6235  -0.1229   0.2084   0.9398   1.3039   1.6723
     1.9337   2.1177   2.3665   2.5087   2.9401   3.0974   3.2554   3.4918
     3.7721   3.9206   4.2133   4.6028   4.8948   5.1484   5.4289   5.7262
     6.5878   6.9489   7.4352   7.6486   7.8125   8.0207

     occupation numbers 
     1.0000   1.0000   1.0000   1.0000   1.0000   1.0000   1.0000   1.0000
     1.0000   1.0000   1.0000   1.0000   1.0000   1.0000   1.0000   1.0000
     1.0000   1.0000   1.0000   1.0000   1.0000   1.0000   1.0000   1.0000
     1.0000   1.0000   1.0000   1.0000   1.0000   1.0000   1.0000   0.9988
     0.0017   0.0000   0.0000   0.0000   0.0000   0.0000

          k = 0.5303 0.5303-0.1768 (  7554 PWs)   bands (ev):

    -6.0354  -5.0900  -4.8190  -3.9418  -3.6228  -3.2738  -2.7204  -1.8323
    -1.2424  -0.7904  -0.4916  -0.0372   0.5996   1.0404   1.3062   1.6437
     1.7787   1.8985   2.0938   2.3623   2.7119   3.0369   3.4495   3.4952
     3.6796   3.8430   4.0216   4.5313   5.0227   5.2686   5.4143   5.9228
     6.9114   7.0334   7.3153   7.7493   8.1006   8.3120

     occupation numbers 
     1.0000   1.0000   1.0000   1.0000   1.0000   1.0000   1.0000   1.0000
     1.0000   1.0000   1.0000   1.0000   1.0000   1.0000   1.0000   1.0000
     1.0000   1.0000   1.0000   1.0000   1.0000   1.0000   1.0000   1.0000
     1.0000   1.0000   1.0000   1.0000   1.0000   1.0000   1.0000   0.9539
     0.0000   0.0000   0.0000   0.0000   0.0000   0.0000

          k =-0.5303 0.5303 0.1768 (  7554 PWs)   bands (ev):

    -6.0382  -5.3077  -4.3871  -4.0167  -3.6457  -3.2135  -2.7451  -2.3484
    -0.9894  -0.6641  -0.4576  -0.1467   0.3355   1.0052   1.4316   1.6068
     1.9243   2.2667   2.5396   2.6979   2.7987   2.9353   3.0854   3.3014
     3.4155   3.7874   4.0972   4.5028   4.7449   5.2810   5.4024   5.8053
     6.5473   6.7705   7.4791   7.9143   8.0507   8.4623

     occupation numbers 
     1.0000   1.0000   1.0000   1.0000   1.0000   1.0000   1.0000   1.0000
     1.0000   1.0000   1.0000   1.0000   1.0000   1.0000   1.0000   1.0000
     1.0000   1.0000   1.0000   1.0000   1.0000   1.0000   1.0000   1.0000
     1.0000   1.0000   1.0000   1.0000   1.0000   1.0000   1.0000   0.9937
     0.0041   0.0000   0.0000   0.0000   0.0000   0.0000

          k = 0.5303-0.5303 0.1768 (  7554 PWs)   bands (ev):

    -6.0536  -5.2752  -4.4348  -3.9914  -3.6164  -3.2047  -2.7355  -2.3679
    -0.9476  -0.7678  -0.5392  -0.1296   0.3927   0.9235   1.4447   1.5940
     1.9971   2.2326   2.5198   2.7788   2.8454   2.9831   3.1912   3.2928
     3.4810   3.9307   4.0306   4.3203   4.6896   5.2864   5.4246   5.8603
     6.4521   6.7805   7.5494   7.7859   8.0539   8.3923

     occupation numbers 
     1.0000   1.0000   1.0000   1.0000   1.0000   1.0000   1.0000   1.0000
     1.0000   1.0000   1.0000   1.0000   1.0000   1.0000   1.0000   1.0000
     1.0000   1.0000   1.0000   1.0000   1.0000   1.0000   1.0000   1.0000
     1.0000   1.0000   1.0000   1.0000   1.0000   1.0000   1.0000   0.9828
     0.0236   0.0000   0.0000   0.0000   0.0000   0.0000

          k =-0.5303-0.5303-0.1768 (  7554 PWs)   bands (ev):

    -6.0588  -5.0628  -4.8053  -4.0176  -3.5332  -3.1854  -2.6875  -1.9521
    -1.1921  -0.9504  -0.7471  -0.0331   0.6387   0.8586   1.1942   1.8314
     2.0714   2.2831   2.4344   2.5261   2.7673   2.9314   3.3292   3.5149
     3.6265   3.7613   3.8961   4.4337   4.9358   5.0249   5.4901   5.9159
     6.7214   6.9709   7.3880   7.6116   7.8412   8.2325

     occupation numbers 
     1.0000   1.0000   1.0000   1.0000   1.0000   1.0000   1.0000   1.0000
     1.0000   1.0000   1.0000   1.0000   1.0000   1.0000   1.0000   1.0000
     1.0000   1.0000   1.0000   1.0000   1.0000   1.0000   1.0000   1.0000
     1.0000   1.0000   1.0000   1.0000   1.0000   1.0000   1.0000   0.9583
     0.0001   0.0000   0.0000   0.0000   0.0000   0.0000

          k = 0.0000 0.3536 0.3536 (  7592 PWs)   bands (ev):

    -6.0835  -5.1644  -4.7453  -3.9899  -3.3460  -2.9375  -2.6913  -2.1645
    -1.2700  -1.1314  -0.6772  -0.0295   0.0580   0.7443   1.0662   1.8001
     2.0662   2.3578   2.6066   2.6793   2.8016   3.0417   3.3412   3.7062
     3.9310   4.1893   4.2919   4.6343   4.9632   5.1168   5.2982   5.8803
     6.2844   7.1223   7.4502   7.5863   7.9210   8.0314

     occupation numbers 
     1.0000   1.0000   1.0000   1.0000   1.0000   1.0000   1.0000   1.0000
     1.0000   1.0000   1.0000   1.0000   1.0000   1.0000   1.0000   1.0000
     1.0000   1.0000   1.0000   1.0000   1.0000   1.0000   1.0000   1.0000
     1.0000   1.0000   1.0000   1.0000   1.0000   1.0000   1.0000   0.9760
     0.2054   0.0000   0.0000   0.0000   0.0000   0.0000

          k =-0.3536 0.0000-0.3536 (  7592 PWs)   bands (ev):

    -6.0985  -5.1085  -4.7728  -4.0558  -3.2719  -2.8796  -2.6167  -2.3451
    -1.2236  -1.0839  -0.7118  -0.3107   0.2071   0.7660   1.0801   1.7358
     2.0447   2.3451   2.5853   2.7127   3.0213   3.0825   3.4575   3.7711
     3.9990   4.0874   4.3236   4.5638   4.9180   5.0462   5.3292   5.9389
     6.2767   7.0643   7.3321   7.5032   7.7772   7.9345

     occupation numbers 
     1.0000   1.0000   1.0000   1.0000   1.0000   1.0000   1.0000   1.0000
     1.0000   1.0000   1.0000   1.0000   1.0000   1.0000   1.0000   1.0000
     1.0000   1.0000   1.0000   1.0000   1.0000   1.0000   1.0000   1.0000
     1.0000   1.0000   1.0000   1.0000   1.0000   1.0000   1.0000   0.9420
     0.2210   0.0000   0.0000   0.0000   0.0000   0.0000

          k = 0.3536 0.0000-0.3536 (  7592 PWs)   bands (ev):

    -6.0637  -5.1798  -4.7372  -4.0296  -3.3084  -3.1602  -2.6775  -1.8910
    -1.4865  -0.8565  -0.5190  -0.1701   0.3541   0.6904   1.0878   1.4561
     1.8670   2.0052   2.4852   2.6645   2.8729   3.1425   3.3865   3.7288
     3.8737   4.0762   4.4119   4.6332   4.9361   5.1415   5.4425   6.2417
     6.6163   7.2462   7.4938   7.5398   7.8754   8.2056

     occupation numbers 
     1.0000   1.0000   1.0000   1.0000   1.0000   1.0000   1.0000   1.0000
     1.0000   1.0000   1.0000   1.0000   1.0000   1.0000   1.0000   1.0000
     1.0000   1.0000   1.0000   1.0000   1.0000   1.0000   1.0000   1.0000
     1.0000   1.0000   1.0000   1.0000   1.0000   1.0000   1.0000   0.2993
     0.0009   0.0000   0.0000   0.0000   0.0000   0.0000

          k = 0.3536 0.3536 0.0000 (  7592 PWs)   bands (ev):

    -6.0498  -5.2442  -4.6084  -4.0843  -3.6734  -2.8988  -2.4077  -1.9411
    -1.4020  -1.0566  -0.5105  -0.0594   0.1121   0.6220   1.0918   1.3202
     1.6142   2.1650   2.3470   3.0003   3.3188   3.3762   3.5742   3.6550
     3.9329   4.0209   4.3164   4.4898   4.7927   4.8774   5.5138   6.2435
     6.4963   7.1925   7.6211   7.7007   7.8194   8.2162

     occupation numbers 
     1.0000   1.0000   1.0000   1.0000   1.0000   1.0000   1.0000   1.0000
     1.0000   1.0000   1.0000   1.0000   1.0000   1.0000   1.0000   1.0000
     1.0000   1.0000   1.0000   1.0000   1.0000   1.0000   1.0000   1.0000
     1.0000   1.0000   1.0000   1.0000   1.0000   1.0000   1.0000   0.2950
     0.0110   0.0000   0.0000   0.0000   0.0000   0.0000

          k =-0.3536 0.3536 0.0000 (  7592 PWs)   bands (ev):

    -6.0506  -5.4413  -4.1468  -3.9434  -3.5396  -3.2382  -2.9327  -2.0988
    -1.0489  -0.9172  -0.6332  -0.2292   0.3161   0.3690   1.3233   1.5722
     2.1963   2.3901   2.5566   2.7203   2.8536   3.1363   3.3996   3.6331
     3.9578   4.0121   4.2000   4.6133   4.7366   4.9027   5.5430   6.0718
     6.2558   6.9266   7.1229   7.6300   8.3555   8.4235

     occupation numbers 
     1.0000   1.0000   1.0000   1.0000   1.0000   1.0000   1.0000   1.0000
     1.0000   1.0000   1.0000   1.0000   1.0000   1.0000   1.0000   1.0000
     1.0000   1.0000   1.0000   1.0000   1.0000   1.0000   1.0000   1.0000
     1.0000   1.0000   1.0000   1.0000   1.0000   1.0000   1.0000   0.7424
     0.2663   0.0000   0.0000   0.0000   0.0000   0.0000

          k = 0.0000-0.7071 0.0000 (  7528 PWs)   bands (ev):

    -5.8464  -5.1812  -4.8437  -4.6564  -3.3507  -3.0359  -2.1437  -1.7861
    -1.4242  -1.0293  -0.4265   0.0827   0.4503   0.9592   1.2181   1.4957
     1.7906   2.1473   2.3616   2.4966   2.6138   2.7247   2.9867   3.2335
     3.7274   4.1462   4.3878   4.8417   4.9151   4.9757   5.4137   5.6069
     6.6900   7.0071   7.5867   7.6857   7.9540   8.0914

     occupation numbers 
     1.0000   1.0000   1.0000   1.0000   1.0000   1.0000   1.0000   1.0000
     1.0000   1.0000   1.0000   1.0000   1.0000   1.0000   1.0000   1.0000
     1.0000   1.0000   1.0000   1.0000   1.0000   1.0000   1.0000   1.0000
     1.0000   1.0000   1.0000   1.0000   1.0000   1.0000   1.0000   0.9999
     0.0001   0.0000   0.0000   0.0000   0.0000   0.0000

          k = 0.0000 0.0000-0.7071 (  7528 PWs)   bands (ev):

    -6.0552  -4.9827  -4.5812  -4.2805  -3.8625  -3.0058  -2.9474  -1.9556
    -1.0792  -0.9698  -0.0488   0.2799   0.5350   1.1601   1.4404   1.8228
     1.9388   2.2351   2.3680   2.4404   2.5293   2.6880   2.8353   3.0327
     3.2952   3.5572   3.7979   4.7275   5.1669   5.2383   5.4884   5.7027
     6.2390   6.9298   7.0632   7.6862   8.1122   8.6600

     occupation numbers 
     1.0000   1.0000   1.0000   1.0000   1.0000   1.0000   1.0000   1.0000
     1.0000   1.0000   1.0000   1.0000   1.0000   1.0000   1.0000   1.0000
     1.0000   1.0000   1.0000   1.0000   1.0000   1.0000   1.0000   1.0000
     1.0000   1.0000   1.0000   1.0000   1.0000   1.0000   1.0000   0.9993
     0.3058   0.0000   0.0000   0.0000   0.0000   0.0000

          k = 0.3536-0.7071 0.0000 (  7564 PWs)   bands (ev):

    -5.9242  -5.2188  -4.8482  -4.1207  -3.6253  -3.0712  -2.5390  -2.2142
    -0.9189  -0.7409  -0.4806  -0.2708   0.8316   1.1708   1.4756   1.6916
     1.7572   2.1163   2.2713   2.3771   2.7279   2.9178   3.1231   3.3392
     3.6106   3.7521   3.8088   4.0568   4.9507   5.1016   5.1646   5.3219
     7.2423   7.5009   7.6374   8.0722   8.1984   8.4730

     occupation numbers 
     1.0000   1.0000   1.0000   1.0000   1.0000   1.0000   1.0000   1.0000
     1.0000   1.0000   1.0000   1.0000   1.0000   1.0000   1.0000   1.0000
     1.0000   1.0000   1.0000   1.0000   1.0000   1.0000   1.0000   1.0000
     1.0000   1.0000   1.0000   1.0000   1.0000   1.0000   1.0000   1.0000
     0.0000   0.0000   0.0000   0.0000   0.0000   0.0000

          k = 0.7071 0.0000 0.3536 (  7564 PWs)   bands (ev):

    -5.8273  -5.1347  -4.9111  -4.7595  -2.9905  -2.8051  -2.5973  -2.2124
    -0.9286  -0.8250  -0.6613  -0.2042   0.5974   0.9539   1.2018   1.3101
     2.1472   2.1695   2.4101   2.6710   2.7117   2.8337   3.0571   3.2052
     3.8186   3.9796   4.0901   4.3419   4.7823   4.9500   5.1149   5.2618
     7.3018   7.6830   7.8630   8.0516   8.2745   8.4196

     occupation numbers 
     1.0000   1.0000   1.0000   1.0000   1.0000   1.0000   1.0000   1.0000
     1.0000   1.0000   1.0000   1.0000   1.0000   1.0000   1.0000   1.0000
     1.0000   1.0000   1.0000   1.0000   1.0000   1.0000   1.0000   1.0000
     1.0000   1.0000   1.0000   1.0000   1.0000   1.0000   1.0000   1.0000
     0.0000   0.0000   0.0000   0.0000   0.0000   0.0000

     the Fermi energy is     6.1658 ev

!    total energy              =    -152.08934879 Ry
     Harris-Foulkes estimate   =    -152.08934879 Ry
     estimated scf accuracy    <          2.5E-10 Ry

     The total energy is the sum of the following terms:

     one-electron contribution =      37.08402352 Ry
     hartree contribution      =      10.46022362 Ry
     xc contribution           =     -68.33538917 Ry
     ewald contribution        =    -131.29236715 Ry
     smearing contrib. (-TS)   =      -0.00583961 Ry

     convergence has been achieved in  15 iterations

     Forces acting on atoms (Ry/au):

     atom    1 type  1   force =  -0.32496649E-01  0.94235475E-02  0.18172213E-01
     atom    2 type  1   force =  -0.20869270E-01 -0.16872868E-02  0.63630606E-02
     atom    3 type  1   force =  -0.12826911E+00  0.14187551E+00  0.19054628E+00
     atom    4 type  1   force =  -0.80991360E-01  0.10526040E+00 -0.15687960E+00
     atom    5 type  1   force =   0.89603745E-01  0.94547521E-01 -0.23332370E+00
     atom    6 type  1   force =  -0.54871801E-01 -0.20484583E+00  0.17622485E+00
     atom    7 type  1   force =   0.30623107E+00  0.11648371E+00 -0.70657155E-01
     atom    8 type  1   force =  -0.13081614E+00 -0.20449889E+00  0.14080755E+00
     atom    9 type  1   force =   0.85647051E-02  0.70813053E-02 -0.16055367E+00
     atom   10 type  1   force =  -0.28808556E+00 -0.29625054E+00  0.26588719E+00
     atom   11 type  1   force =   0.31134755E+00  0.39977512E+00 -0.27518554E+00
     atom   12 type  1   force =   0.82196263E-01 -0.20177480E+00 -0.14263146E-01
     atom   13 type  1   force =   0.27494712E-02  0.31534905E-01  0.15801656E+00
     atom   14 type  1   force =  -0.77360135E-02  0.16924805E-01 -0.17026219E-01
     atom   15 type  1   force =  -0.37491999E-01  0.25588243E-01  0.34526603E-01
     atom   16 type  1   force =  -0.19064894E-01 -0.39437725E-01 -0.62655274E-01
     The non-local contrib.  to forces
     atom    1 type  1   force =  -0.38110359E-01  0.76900746E-03 -0.33578432E-02
     atom    2 type  1   force =  -0.36079729E-02  0.36333313E-01  0.26967805E-01
     atom    3 type  1   force =  -0.13097966E+00  0.17311926E+00  0.20561547E+00
     atom    4 type  1   force =  -0.11484025E+00  0.10831889E+00 -0.17857841E+00
     atom    5 type  1   force =   0.94912872E-01  0.96786798E-01 -0.20805200E+00
     atom    6 type  1   force =  -0.33131057E-01 -0.20877483E+00  0.15243253E+00
     atom    7 type  1   force =   0.34335225E+00  0.11066990E+00 -0.13061593E-01
     atom    8 type  1   force =  -0.13790935E+00 -0.23484845E+00  0.96690358E-01
     atom    9 type  1   force =   0.27250556E-01 -0.11301539E-01 -0.12140901E+00
     atom   10 type  1   force =  -0.25722263E+00 -0.25941512E+00  0.21488696E+00
     atom   11 type  1   force =   0.29729179E+00  0.39582130E+00 -0.23768906E+00
     atom   12 type  1   force =   0.70900972E-01 -0.25151173E+00 -0.83756726E-01
     atom   13 type  1   force =  -0.35534023E-01  0.59362401E-02  0.19620187E+00
     atom   14 type  1   force =  -0.35297038E-01  0.10903204E-01 -0.43121334E-02
     atom   15 type  1   force =  -0.45699713E-01  0.49523976E-01  0.12816710E-01
     atom   16 type  1   force =   0.19450553E-01 -0.14023846E-01 -0.66233426E-01
     The ionic contribution  to forces
     atom    1 type  1   force =  -0.53064241E+00  0.41381651E-01  0.28518975E+00
     atom    2 type  1   force =  -0.39364143E+00 -0.10693183E-01 -0.29554982E+00
     atom    3 type  1   force =  -0.32261356E+00  0.46779691E+00  0.59593256E+00
     atom    4 type  1   force =  -0.15375532E+00  0.80503459E+00 -0.10737035E+01
     atom    5 type  1   force =   0.19230532E+00 -0.21469290E+00 -0.63275199E+00
     atom    6 type  1   force =   0.58523002E+00 -0.85002395E+00  0.73263890E+00
     atom    7 type  1   force =   0.12226457E+01  0.40033609E+00 -0.21244806E-01
     atom    8 type  1   force =  -0.22715971E+00 -0.68396324E+00  0.39378097E+00
     atom    9 type  1   force =  -0.22219225E+00  0.11762691E-01 -0.73668697E+00
     atom   10 type  1   force =  -0.80739140E+00 -0.33255647E+00  0.53186767E+00
     atom   11 type  1   force =   0.61314821E+00  0.10767241E+01 -0.66863670E+00
     atom   12 type  1   force =   0.35182923E+00 -0.71597374E+00 -0.39475982E+00
     atom   13 type  1   force =  -0.46650039E-01 -0.15411895E+00  0.13687396E+01
     atom   14 type  1   force =  -0.27255236E+00  0.11517316E+00 -0.17268974E+00
     atom   15 type  1   force =  -0.17705513E+00  0.19815674E-01  0.31406454E+00
     atom   16 type  1   force =   0.18849516E+00  0.23997613E-01 -0.22619060E+00
     The local contribution  to forces
     atom    1 type  1   force =   0.53178560E+00 -0.33367807E-01 -0.26468958E+00
     atom    2 type  1   force =   0.37580940E+00 -0.23592115E-01  0.27731344E+00
     atom    3 type  1   force =   0.31411959E+00 -0.48377281E+00 -0.59303678E+00
     atom    4 type  1   force =   0.17651060E+00 -0.79772981E+00  0.10788728E+01
     atom    5 type  1   force =  -0.18959217E+00  0.22103652E+00  0.58936408E+00
     atom    6 type  1   force =  -0.60789770E+00  0.83580395E+00 -0.69574369E+00
     atom    7 type  1   force =  -0.12280073E+01 -0.38402515E+00 -0.36458933E-01
     atom    8 type  1   force =   0.22237896E+00  0.69221781E+00 -0.34108225E+00
     atom    9 type  1   force =   0.20608294E+00  0.60822616E-02  0.68642721E+00
     atom   10 type  1   force =   0.75488921E+00  0.27315369E+00 -0.46304043E+00
     atom   11 type  1   force =  -0.57388245E+00 -0.10387964E+01  0.61161739E+00
     atom   12 type  1   force =  -0.33364764E+00  0.74227033E+00  0.45548928E+00
     atom   13 type  1   force =   0.81203917E-01  0.17943425E+00 -0.13881697E+01
     atom   14 type  1   force =   0.29544995E+00 -0.10771615E+00  0.15934778E+00
     atom   15 type  1   force =   0.18117499E+00 -0.38838885E-01 -0.29122124E+00
     atom   16 type  1   force =  -0.22487189E+00 -0.50161131E-01  0.22484541E+00
     The core correction contribution to forces
     atom    1 type  1   force =   0.44675612E-02  0.63841170E-03  0.10299925E-02
     atom    2 type  1   force =   0.57337155E-03 -0.37327028E-02 -0.23616926E-02
     atom    3 type  1   force =   0.11208193E-01 -0.15266351E-01 -0.17959855E-01
     atom    4 type  1   force =   0.11091046E-01 -0.10365836E-01  0.16532186E-01
     atom    5 type  1   force =  -0.80242961E-02 -0.85765745E-02  0.18119534E-01
     atom    6 type  1   force =   0.91983754E-03  0.18151067E-01 -0.13104913E-01
     atom    7 type  1   force =  -0.31767426E-01 -0.10494387E-01  0.10752071E-03
     atom    8 type  1   force =   0.11872047E-01  0.22102757E-01 -0.85796521E-02
     atom    9 type  1   force =  -0.25699903E-02  0.53578203E-03  0.11118804E-01
     atom   10 type  1   force =   0.21641885E-01  0.22559754E-01 -0.17828728E-01
     atom   11 type  1   force =  -0.25206824E-01 -0.33981502E-01  0.19521818E-01
     atom   12 type  1   force =  -0.68789095E-02  0.23438191E-01  0.87675521E-02
     atom   13 type  1   force =   0.37278601E-02  0.28119288E-03 -0.18763020E-01
     atom   14 type  1   force =   0.46644736E-02 -0.14329830E-02  0.62544726E-03
     atom   15 type  1   force =   0.40892279E-02 -0.49099383E-02 -0.11378968E-02
     atom   16 type  1   force =  -0.21410633E-02  0.74832319E-03  0.49169160E-02
     The Hubbard contrib.    to forces
     atom    1 type  1   force =   0.00000000E+00  0.00000000E+00  0.00000000E+00
     atom    2 type  1   force =   0.00000000E+00  0.00000000E+00  0.00000000E+00
     atom    3 type  1   force =   0.00000000E+00  0.00000000E+00  0.00000000E+00
     atom    4 type  1   force =   0.00000000E+00  0.00000000E+00  0.00000000E+00
     atom    5 type  1   force =   0.00000000E+00  0.00000000E+00  0.00000000E+00
     atom    6 type  1   force =   0.00000000E+00  0.00000000E+00  0.00000000E+00
     atom    7 type  1   force =   0.00000000E+00  0.00000000E+00  0.00000000E+00
     atom    8 type  1   force =   0.00000000E+00  0.00000000E+00  0.00000000E+00
     atom    9 type  1   force =   0.00000000E+00  0.00000000E+00  0.00000000E+00
     atom   10 type  1   force =   0.00000000E+00  0.00000000E+00  0.00000000E+00
     atom   11 type  1   force =   0.00000000E+00  0.00000000E+00  0.00000000E+00
     atom   12 type  1   force =   0.00000000E+00  0.00000000E+00  0.00000000E+00
     atom   13 type  1   force =   0.00000000E+00  0.00000000E+00  0.00000000E+00
     atom   14 type  1   force =   0.00000000E+00  0.00000000E+00  0.00000000E+00
     atom   15 type  1   force =   0.00000000E+00  0.00000000E+00  0.00000000E+00
     atom   16 type  1   force =   0.00000000E+00  0.00000000E+00  0.00000000E+00
     The SCF correction term to forces
     atom    1 type  1   force =   0.29576943E-05  0.23863111E-05 -0.15583346E-06
     atom    2 type  1   force =  -0.26369622E-05 -0.24967423E-05 -0.67231559E-05
     atom    3 type  1   force =  -0.36699786E-05 -0.14083167E-05 -0.51700081E-05
     atom    4 type  1   force =   0.25581604E-05  0.26641925E-05 -0.26669054E-05
     atom    5 type  1   force =   0.20136956E-05 -0.62166858E-05 -0.33861928E-05
     atom    6 type  1   force =   0.70951559E-05 -0.19706838E-05  0.19724579E-05
     atom    7 type  1   force =   0.78980739E-05 -0.26405711E-05  0.60212329E-06
     atom    8 type  1   force =   0.19005358E-05 -0.76708855E-05 -0.19275351E-05
     atom    9 type  1   force =  -0.65505878E-05  0.22121212E-05 -0.37511940E-05
     atom   10 type  1   force =  -0.26352372E-05  0.77093109E-05  0.16640062E-05
     atom   11 type  1   force =  -0.31771396E-05  0.77396579E-05  0.95927462E-06
     atom   12 type  1   force =  -0.73911112E-05  0.22537655E-05 -0.34862821E-05
     atom   13 type  1   force =   0.17531628E-05  0.22748487E-05  0.77625417E-05
     atom   14 type  1   force =  -0.10404691E-05 -0.23261137E-05  0.23764081E-05
     atom   15 type  1   force =  -0.13756479E-05 -0.24811698E-05  0.44385628E-05
     atom   16 type  1   force =   0.23353925E-05  0.14185176E-05  0.63708975E-05

     Total force =     1.067166     Total SCF correction =     0.000029


     entering subroutine stress ...

          total   stress  (Ry/bohr**3)                   (kbar)     P=   84.74
   0.0006648940   0.0006318782  -0.0004229782         97.81     92.95    -62.22
   0.0006318782   0.0008185758  -0.0004785175         92.95    120.42    -70.39
  -0.0004229782  -0.0004785175   0.0002446249        -62.22    -70.39     35.99

     kinetic stress (kbar)   2218.25    -10.73     10.03
                              -10.73   2218.30     -0.98
                               10.03     -0.98   2213.83

     local   stress (kbar)   -538.45   -352.38    314.90
                             -352.38   -549.81    198.11
                              314.90    198.11    -80.65

     nonloc. stress (kbar)   2002.77     52.10    -32.01
                               52.10   2007.39    -35.55
                              -32.01    -35.55   1977.40

     hartree stress (kbar)    280.70     41.14    -52.72
                               41.14    282.34    -18.94
                              -52.72    -18.94    148.47

     exc-cor stress (kbar)    995.05      0.50     -0.34
                                0.50    995.06     -0.26
                               -0.34     -0.26    994.77

     corecor stress (kbar)  -1994.42     -5.80      3.59
                               -5.80  -1994.79      3.94
                                3.59      3.94  -1991.48

     ewald   stress (kbar)  -2866.10    368.12   -305.67
                              368.12  -2838.07   -216.70
                             -305.67   -216.70  -3226.35

     hubbard stress (kbar)      0.00      0.00      0.00
                                0.00      0.00      0.00
                                0.00      0.00      0.00

     london  stress (kbar)      0.00      0.00      0.00
                                0.00      0.00      0.00
                                0.00      0.00      0.00

     XDM     stress (kbar)      0.00      0.00      0.00
                                0.00      0.00      0.00
                                0.00      0.00      0.00

     dft-nl  stress (kbar)      0.00      0.00      0.00
                                0.00      0.00      0.00
                                0.00      0.00      0.00



     Writing output data file Si_diamond.scf.in.super.222.largdist.b.011.save

     init_run     :     16.07s CPU     16.79s WALL (       1 calls)
     electrons    :    533.36s CPU    530.45s WALL (       1 calls)
     forces       :      7.28s CPU      5.60s WALL (       1 calls)
     stress       :     14.10s CPU     13.64s WALL (       1 calls)

     Called by init_run:
     wfcinit      :     15.11s CPU     15.80s WALL (       1 calls)
     potinit      :      0.12s CPU      0.13s WALL (       1 calls)

     Called by electrons:
     c_bands      :    442.56s CPU    440.30s WALL (      16 calls)
     sum_band     :     78.64s CPU     77.85s WALL (      16 calls)
     v_of_rho     :      1.53s CPU      1.55s WALL (      16 calls)
     v_h          :      0.09s CPU      0.10s WALL (      16 calls)
     v_xc         :      1.59s CPU      1.60s WALL (      18 calls)
     newd         :      9.48s CPU      9.59s WALL (      16 calls)
     mix_rho      :      1.50s CPU      1.53s WALL (      16 calls)

     Called by c_bands:
     init_us_2    :      5.62s CPU      5.88s WALL (    1260 calls)
     cegterg      :    415.65s CPU    412.30s WALL (     576 calls)

     Called by sum_band:
     sum_band:bec :      0.52s CPU      0.53s WALL (     576 calls)
     addusdens    :     10.14s CPU     10.26s WALL (      16 calls)

     Called by *egterg:
     h_psi        :    283.04s CPU    278.45s WALL (    2130 calls)
     s_psi        :     29.37s CPU     23.41s WALL (    2130 calls)
     g_psi        :      0.80s CPU      0.81s WALL (    1518 calls)
     cdiaghg      :     22.62s CPU     23.97s WALL (    2058 calls)
     cegterg:over :     42.97s CPU     45.37s WALL (    1518 calls)
     cegterg:upda :     11.97s CPU     12.62s WALL (    1518 calls)
     cegterg:last :      4.63s CPU      4.21s WALL (     576 calls)

     Called by h_psi:
     h_psi:vloc   :    201.78s CPU    205.33s WALL (    2130 calls)
     h_psi:vnl    :     80.71s CPU     72.51s WALL (    2130 calls)
     add_vuspsi   :     30.28s CPU     25.21s WALL (    2130 calls)

     General routines
     calbec       :     71.47s CPU     65.59s WALL (    2778 calls)
     fft          :      1.55s CPU      1.62s WALL (     281 calls)
     ffts         :      0.79s CPU      0.81s WALL (     306 calls)
     fftw         :    217.82s CPU    222.05s WALL (  136956 calls)
     interpolate  :      0.28s CPU      0.29s WALL (      32 calls)

     Parallel routines
     fft_scatter  :    107.63s CPU    110.06s WALL (  137543 calls)

     PWSCF        :  9m32.18s CPU     9m28.34s WALL


   This run was terminated on:  14:45: 8  28Sep2017            

=------------------------------------------------------------------------------=
   JOB DONE.
=------------------------------------------------------------------------------=
