
     Program PWSCF v.5.1 starts on 27Sep2017 at 17: 7:22 

     This program is part of the open-source Quantum ESPRESSO suite
     for quantum simulation of materials; please cite
         "P. Giannozzi et al., J. Phys.:Condens. Matter 21 395502 (2009);
          URL http://www.quantum-espresso.org", 
     in publications or presentations arising from this work. More details at
     http://www.quantum-espresso.org/quote

     Parallel version (MPI), running on     8 processors
     R & G space division:  proc/nbgrp/npool/nimage =       8
     Reading input from /tmp/Si_diamond.scf.in.super.222.largdist.a.04.26674/Si_diamond.scf.in.super.222.largdist.a.04.t
Warning: card &IONS ignored
Warning: card   ION_DYNAMICS='BFGS', ignored
Warning: card / ignored
Warning: card &CELL ignored
Warning: card  CELL_DYNAMICS = 'BFGS' ignored
Warning: card / ignored
     Message from routine read_cards :
     DEPRECATED: no units specified in CELL_PARAMETERS card

     Current dimensions of program PWSCF are:
     Max number of different atomic species (ntypx) = 10
     Max number of k-points (npk) =  40000
     Max angular momentum in pseudopotentials (lmaxx) =  3
 kfg - two_fermi_energies  F

     Subspace diagonalization in iterative solution of the eigenvalue problem:
     a serial algorithm will be used


     Parallelization info
     --------------------
     sticks:   dense  smooth     PW     G-vecs:    dense   smooth      PW
     Min         363     256     71                12921     7555    1109
     Max         364     257     73                12925     7568    1110
     Sum        2905    2053    571               103379    60495    8873



     bravais-lattice index     =            0
     lattice parameter (alat)  =    14.515605984  a.u.
     unit-cell volume          =    2162.6713 (a.u.)^3
     number of atoms/cell      =           16
     number of atomic types    =            1
     number of electrons       =        64.00
     number of Kohn-Sham states=           38
     kinetic-energy cutoff     =      35.0000  Ry
     charge density cutoff     =     200.0000  Ry
     convergence threshold     =      1.0E-09
     mixing beta               =       0.3000
     number of iterations used =            8  local-TF  mixing
     Exchange-correlation      = SLA  PW   PSX  PSC ( 1  4 10  8 0)
     A smooth kinetic-energy cutoff is imposed at      34.5000 Ry
     height of the smooth step-function =             800.0000 Ry
     width of the smooth step-function  =               1.0000 Ry


     celldm(1)=  14.515606  celldm(2)=   0.000000  celldm(3)=   0.000000
     celldm(4)=   0.000000  celldm(5)=   0.000000  celldm(6)=   0.000000

     crystal axes: (cart. coord. in units of alat)
               a(1) = (  -0.000000000000   0.707106781187   0.707106781187 )  
               a(2) = (   0.707106781187   0.000000000000   0.707106781187 )  
               a(3) = (   0.707106781187   0.707106781187  -0.000000000000 )  

     reciprocal axes: (cart. coord. in units 2 pi/alat)
               b(1) = ( -0.707107  0.707107  0.707107 )  
               b(2) = (  0.707107 -0.707107  0.707107 )  
               b(3) = (  0.707107  0.707107 -0.707107 )  


     PseudoPot. # 1 for Si read from file:
     /users/kfg/psuedo/gbrv_1.5/si.pbesol.UPF
     MD5 check sum: ef58ba74faed4df802eb8a9742fc00a8
     Pseudo is Ultrasoft + core correction, Zval =  4.0
     Generated by new atomic code, or converted to UPF format
     Using radial grid of  899 points,  6 beta functions with: 
                l(1) =   0
                l(2) =   0
                l(3) =   1
                l(4) =   1
                l(5) =   2
                l(6) =   2
     Q(r) pseudized with  8 coefficients,  rinner =    0.900   0.900   0.900
                                                       0.900   0.900

     atomic species   valence    mass     pseudopotential
        Si             4.00    28.08550     Si( 1.00)

     No symmetry found


                                    s                        frac. trans.

      isym =  1     identity                                     

 cryst.   s( 1) = (     1          0          0      )
                  (     0          1          0      )
                  (     0          0          1      )

 cart.    s( 1) = (  1.0000000  0.0000000  0.0000000 )
                  (  0.0000000  1.0000000  0.0000000 )
                  (  0.0000000  0.0000000  1.0000000 )


     point group C_1 (1)    
     there are  1 classes
     the character table:

       E    
A      1.00

     the symmetry operations in each class:
     E        1

   Cartesian axes

     site n.     atom                  positions (alat units)
         1           Si  tau(   1) = (    0.01560068570    0.02082765173   -0.00964722866  )
         2           Si  tau(   2) = (    0.17334346198    0.21051403860    0.17492842660  )
         3           Si  tau(   3) = (    0.34205676651    0.38710097760   -0.00288646574  )
         4           Si  tau(   4) = (    0.49792909107    0.56145967044    0.14919634899  )
         5           Si  tau(   5) = (    0.36655243472   -0.01728889150    0.32922952174  )
         6           Si  tau(   6) = (    0.50663442841    0.20751430624    0.54505353726  )
         7           Si  tau(   7) = (    0.67507803849    0.32826104683    0.32465049358  )
         8           Si  tau(   8) = (    0.87294024955    0.55764598227    0.50582527671  )
         9           Si  tau(   9) = (    0.02307397290    0.37451002376    0.32397473673  )
        10           Si  tau(  10) = (    0.19262304110    0.56124491205    0.53080427268  )
        11           Si  tau(  11) = (    0.37805572620    0.67542131808    0.35075896224  )
        12           Si  tau(  12) = (    0.50151529322    0.85356162464    0.54577354517  )
        13           Si  tau(  13) = (    0.33235949364    0.33793282177    0.71789477844  )
        14           Si  tau(  14) = (    0.56268598154    0.53446056998    0.90051090164  )
        15           Si  tau(  15) = (    0.69890012668    0.69146254736    0.72253395546  )
        16           Si  tau(  16) = (    0.88936330250    0.91650493703    0.91613478279  )

   Crystallographic axes

     site n.     atom                  positions (cryst. coord.)
         1           Si  tau(   1) = (   -0.00312559768   -0.01051764393    0.03258034523  )
         2           Si  tau(   2) = (    0.14997664346    0.09740950988    0.14773516500  )
         3           Si  tau(   3) = (    0.02981002762   -0.03389210662    0.51763342491  )
         4           Si  tau(   4) = (    0.15042065358    0.06057484662    0.64360322708  )
         5           Si  tau(   5) = (   -0.03861637728    0.50421723206    0.01416619245  )
         6           Si  tau(   6) = (    0.17390118553    0.59692091908    0.11956836074  )
         7           Si  tau(   7) = (   -0.01567408110    0.47479921216    0.47990530553  )
         8           Si  tau(   8) = (    0.13472576879    0.58061919772    0.65390474234  )
         9           Si  tau(   9) = (    0.47758754799   -0.01941808144    0.05204960686  )
        10           Si  tau(  10) = (    0.63599032534    0.11468027605    0.15772984110  )
        11           Si  tau(  11) = (    0.45829326728    0.03775481425    0.49689672107  )
        12           Si  tau(  12) = (    0.63485452302    0.13698582655    0.57226390287  )
        13           Si  tau(  13) = (    0.51156920413    0.50368732790   -0.03366002441  )
        14           Si  tau(  14) = (    0.61679898517    0.65671574500    0.13904240145  )
        15           Si  tau(  15) = (    0.50564949677    0.51616782231    0.47222621558  )
        16           Si  tau(  16) = (    0.66699715121    0.62861308357    0.62913656071  )

     number of k points=    36  gaussian smearing, width (Ry)=  0.0150
                       cart. coord. in units 2pi/alat
        k(    1) = (   0.0000000   0.0000000   0.0000000), wk =   0.0312500
        k(    2) = (   0.1767767   0.1767767  -0.1767767), wk =   0.0625000
        k(    3) = (  -0.3535534  -0.3535534   0.3535534), wk =   0.0312500
        k(    4) = (   0.3535534   0.0000000   0.0000000), wk =   0.0625000
        k(    5) = (  -0.1767767  -0.5303301   0.5303301), wk =   0.0625000
        k(    6) = (   0.0000000  -0.3535534   0.3535534), wk =   0.0625000
        k(    7) = (  -0.7071068   0.0000000   0.0000000), wk =   0.0312500
        k(    8) = (  -0.7071068   0.3535534   0.0000000), wk =   0.0625000
        k(    9) = (  -0.1767767  -0.1767767  -0.1767767), wk =   0.0625000
        k(   10) = (  -0.1767767   0.1767767   0.1767767), wk =   0.0625000
        k(   11) = (   0.1767767  -0.1767767   0.1767767), wk =   0.0625000
        k(   12) = (   0.3535534   0.3535534   0.3535534), wk =   0.0312500
        k(   13) = (   0.3535534  -0.3535534  -0.3535534), wk =   0.0312500
        k(   14) = (  -0.3535534   0.3535534  -0.3535534), wk =   0.0312500
        k(   15) = (   0.0000000   0.3535534   0.0000000), wk =   0.0625000
        k(   16) = (   0.0000000   0.0000000   0.3535534), wk =   0.0625000
        k(   17) = (   0.1767767   0.5303301   0.5303301), wk =   0.0625000
        k(   18) = (   0.1767767  -0.5303301  -0.5303301), wk =   0.0625000
        k(   19) = (  -0.1767767   0.5303301  -0.5303301), wk =   0.0625000
        k(   20) = (  -0.5303301  -0.1767767  -0.5303301), wk =   0.0625000
        k(   21) = (   0.5303301   0.1767767  -0.5303301), wk =   0.0625000
        k(   22) = (  -0.5303301   0.1767767   0.5303301), wk =   0.0625000
        k(   23) = (   0.5303301  -0.1767767   0.5303301), wk =   0.0625000
        k(   24) = (   0.5303301   0.5303301  -0.1767767), wk =   0.0625000
        k(   25) = (  -0.5303301   0.5303301   0.1767767), wk =   0.0625000
        k(   26) = (   0.5303301  -0.5303301   0.1767767), wk =   0.0625000
        k(   27) = (  -0.5303301  -0.5303301  -0.1767767), wk =   0.0625000
        k(   28) = (   0.0000000   0.3535534   0.3535534), wk =   0.0625000
        k(   29) = (  -0.3535534   0.0000000  -0.3535534), wk =   0.0625000
        k(   30) = (   0.3535534   0.0000000  -0.3535534), wk =   0.0625000
        k(   31) = (   0.3535534   0.3535534   0.0000000), wk =   0.0625000
        k(   32) = (  -0.3535534   0.3535534   0.0000000), wk =   0.0625000
        k(   33) = (   0.0000000  -0.7071068   0.0000000), wk =   0.0312500
        k(   34) = (   0.0000000   0.0000000  -0.7071068), wk =   0.0312500
        k(   35) = (   0.3535534  -0.7071068   0.0000000), wk =   0.0625000
        k(   36) = (   0.7071068   0.0000000   0.3535534), wk =   0.0625000

                       cryst. coord.
        k(    1) = (   0.0000000   0.0000000   0.0000000), wk =   0.0312500
        k(    2) = (   0.0000000   0.0000000   0.2500000), wk =   0.0625000
        k(    3) = (   0.0000000   0.0000000  -0.5000000), wk =   0.0312500
        k(    4) = (   0.0000000   0.2500000   0.2500000), wk =   0.0625000
        k(    5) = (   0.0000000   0.2500000  -0.5000000), wk =   0.0625000
        k(    6) = (   0.0000000   0.2500000  -0.2500000), wk =   0.0625000
        k(    7) = (   0.0000000  -0.5000000  -0.5000000), wk =   0.0312500
        k(    8) = (   0.2500000  -0.5000000  -0.2500000), wk =   0.0625000
        k(    9) = (  -0.2500000  -0.2500000  -0.2500000), wk =   0.0625000
        k(   10) = (   0.2500000   0.0000000   0.0000000), wk =   0.0625000
        k(   11) = (   0.0000000   0.2500000   0.0000000), wk =   0.0625000
        k(   12) = (   0.5000000   0.5000000   0.5000000), wk =   0.0312500
        k(   13) = (  -0.5000000   0.0000000   0.0000000), wk =   0.0312500
        k(   14) = (   0.0000000  -0.5000000   0.0000000), wk =   0.0312500
        k(   15) = (   0.2500000   0.0000000   0.2500000), wk =   0.0625000
        k(   16) = (   0.2500000   0.2500000   0.0000000), wk =   0.0625000
        k(   17) = (   0.7500000   0.5000000   0.5000000), wk =   0.0625000
        k(   18) = (  -0.7500000  -0.2500000  -0.2500000), wk =   0.0625000
        k(   19) = (   0.0000000  -0.5000000   0.2500000), wk =   0.0625000
        k(   20) = (  -0.5000000  -0.7500000  -0.5000000), wk =   0.0625000
        k(   21) = (  -0.2500000   0.0000000   0.5000000), wk =   0.0625000
        k(   22) = (   0.5000000   0.0000000  -0.2500000), wk =   0.0625000
        k(   23) = (   0.2500000   0.7500000   0.2500000), wk =   0.0625000
        k(   24) = (   0.2500000   0.2500000   0.7500000), wk =   0.0625000
        k(   25) = (   0.5000000  -0.2500000   0.0000000), wk =   0.0625000
        k(   26) = (  -0.2500000   0.5000000   0.0000000), wk =   0.0625000
        k(   27) = (  -0.5000000  -0.5000000  -0.7500000), wk =   0.0625000
        k(   28) = (   0.5000000   0.2500000   0.2500000), wk =   0.0625000
        k(   29) = (  -0.2500000  -0.5000000  -0.2500000), wk =   0.0625000
        k(   30) = (  -0.2500000   0.0000000   0.2500000), wk =   0.0625000
        k(   31) = (   0.2500000   0.2500000   0.5000000), wk =   0.0625000
        k(   32) = (   0.2500000  -0.2500000   0.0000000), wk =   0.0625000
        k(   33) = (  -0.5000000   0.0000000  -0.5000000), wk =   0.0312500
        k(   34) = (  -0.5000000  -0.5000000   0.0000000), wk =   0.0312500
        k(   35) = (  -0.5000000   0.2500000  -0.2500000), wk =   0.0625000
        k(   36) = (   0.2500000   0.7500000   0.5000000), wk =   0.0625000

     Dense  grid:   103379 G-vectors     FFT dimensions: (  72,  72,  72)

     Smooth grid:    60495 G-vectors     FFT dimensions: (  60,  60,  60)

     Largest allocated arrays     est. size (Mb)     dimensions
        Kohn-Sham Wavefunctions         0.56 Mb     (     974,   38)
        NL pseudopotentials             4.28 Mb     (     974,  288)
        Each V/rho on FFT grid          0.71 Mb     (   46656)
        Each G-vector array             0.10 Mb     (   12923)
        G-vector shells                 0.01 Mb     (     706)
     Largest temporary arrays     est. size (Mb)     dimensions
        Auxiliary wavefunctions         2.26 Mb     (     974,  152)
        Each subspace H/S matrix        0.35 Mb     (     152,  152)
        Each <psi_i|beta_j> matrix      0.17 Mb     (     288,   38)
        Arrays for rho mixing           5.70 Mb     (   46656,    8)

     Initial potential from superposition of free atoms

     starting charge   63.98963, renormalised to   64.00000
     Starting wfc are   64 randomized atomic wfcs

     total cpu time spent up to now is       15.7 secs

     per-process dynamical memory:    44.7 Mb

     Self-consistent Calculation

     iteration #  1     ecut=    35.00 Ry     beta=0.30
     Davidson diagonalization with overlap
     ethr =  1.00E-02,  avg # of iterations =  3.0

     Threshold (ethr) on eigenvalues was too large:
     Diagonalizing with lowered threshold

     Davidson diagonalization with overlap
     ethr =  8.04E-04,  avg # of iterations =  1.6

     total cpu time spent up to now is       88.7 secs

     total energy              =    -152.45181358 Ry
     Harris-Foulkes estimate   =    -152.51341469 Ry
     estimated scf accuracy    <       0.51208804 Ry

     iteration #  2     ecut=    35.00 Ry     beta=0.30
     Davidson diagonalization with overlap
     ethr =  8.00E-04,  avg # of iterations =  1.0

     total cpu time spent up to now is      119.3 secs

     total energy              =    -152.32743507 Ry
     Harris-Foulkes estimate   =    -152.45543925 Ry
     estimated scf accuracy    <       0.31648718 Ry

     iteration #  3     ecut=    35.00 Ry     beta=0.30
     Davidson diagonalization with overlap
     ethr =  4.95E-04,  avg # of iterations =  2.3

     total cpu time spent up to now is      156.5 secs

     total energy              =    -152.36459973 Ry
     Harris-Foulkes estimate   =    -152.36580701 Ry
     estimated scf accuracy    <       0.00851124 Ry

     iteration #  4     ecut=    35.00 Ry     beta=0.30
     Davidson diagonalization with overlap
     ethr =  1.33E-05,  avg # of iterations =  9.1

     total cpu time spent up to now is      234.2 secs

     total energy              =    -152.36608643 Ry
     Harris-Foulkes estimate   =    -152.36646242 Ry
     estimated scf accuracy    <       0.00470145 Ry

     iteration #  5     ecut=    35.00 Ry     beta=0.30
     Davidson diagonalization with overlap
     ethr =  7.35E-06,  avg # of iterations =  1.0

     total cpu time spent up to now is      264.3 secs

     total energy              =    -152.36587710 Ry
     Harris-Foulkes estimate   =    -152.36624224 Ry
     estimated scf accuracy    <       0.00184144 Ry

     iteration #  6     ecut=    35.00 Ry     beta=0.30
     Davidson diagonalization with overlap
     ethr =  2.88E-06,  avg # of iterations =  2.4

     total cpu time spent up to now is      306.1 secs

     total energy              =    -152.36634886 Ry
     Harris-Foulkes estimate   =    -152.36635879 Ry
     estimated scf accuracy    <       0.00049619 Ry

     iteration #  7     ecut=    35.00 Ry     beta=0.30
     Davidson diagonalization with overlap
     ethr =  7.75E-07,  avg # of iterations =  1.0

     total cpu time spent up to now is      336.5 secs

     total energy              =    -152.36628228 Ry
     Harris-Foulkes estimate   =    -152.36635573 Ry
     estimated scf accuracy    <       0.00045190 Ry

     iteration #  8     ecut=    35.00 Ry     beta=0.30
     Davidson diagonalization with overlap
     ethr =  7.06E-07,  avg # of iterations =  1.0

     total cpu time spent up to now is      366.8 secs

     total energy              =    -152.36622920 Ry
     Harris-Foulkes estimate   =    -152.36629644 Ry
     estimated scf accuracy    <       0.00016427 Ry

     iteration #  9     ecut=    35.00 Ry     beta=0.30
     Davidson diagonalization with overlap
     ethr =  2.57E-07,  avg # of iterations =  2.6

     total cpu time spent up to now is      407.4 secs

     total energy              =    -152.36627186 Ry
     Harris-Foulkes estimate   =    -152.36627423 Ry
     estimated scf accuracy    <       0.00001979 Ry

     iteration # 10     ecut=    35.00 Ry     beta=0.30
     Davidson diagonalization with overlap
     ethr =  3.09E-08,  avg # of iterations =  1.6

     total cpu time spent up to now is      439.7 secs

     total energy              =    -152.36626876 Ry
     Harris-Foulkes estimate   =    -152.36627267 Ry
     estimated scf accuracy    <       0.00001066 Ry

     iteration # 11     ecut=    35.00 Ry     beta=0.30
     Davidson diagonalization with overlap
     ethr =  1.67E-08,  avg # of iterations =  2.1

     total cpu time spent up to now is      479.1 secs

     total energy              =    -152.36627114 Ry
     Harris-Foulkes estimate   =    -152.36627116 Ry
     estimated scf accuracy    <       0.00000056 Ry

     iteration # 12     ecut=    35.00 Ry     beta=0.30
     Davidson diagonalization with overlap
     ethr =  8.71E-10,  avg # of iterations =  3.1

     total cpu time spent up to now is      523.1 secs

     total energy              =    -152.36627110 Ry
     Harris-Foulkes estimate   =    -152.36627125 Ry
     estimated scf accuracy    <       0.00000050 Ry

     iteration # 13     ecut=    35.00 Ry     beta=0.30
     Davidson diagonalization with overlap
     ethr =  7.80E-10,  avg # of iterations =  2.0

     total cpu time spent up to now is      561.7 secs

     total energy              =    -152.36627114 Ry
     Harris-Foulkes estimate   =    -152.36627115 Ry
     estimated scf accuracy    <       0.00000002 Ry

     iteration # 14     ecut=    35.00 Ry     beta=0.30
     Davidson diagonalization with overlap
     ethr =  3.62E-11,  avg # of iterations =  3.2

     total cpu time spent up to now is      612.0 secs

     total energy              =    -152.36627115 Ry
     Harris-Foulkes estimate   =    -152.36627116 Ry
     estimated scf accuracy    <       0.00000003 Ry

     iteration # 15     ecut=    35.00 Ry     beta=0.30
     Davidson diagonalization with overlap
     ethr =  3.62E-11,  avg # of iterations =  2.0

     total cpu time spent up to now is      653.7 secs

     total energy              =    -152.36627115 Ry
     Harris-Foulkes estimate   =    -152.36627115 Ry
     estimated scf accuracy    <          1.0E-09 Ry

     iteration # 16     ecut=    35.00 Ry     beta=0.30
     Davidson diagonalization with overlap
     ethr =  1.59E-12,  avg # of iterations =  2.7

     total cpu time spent up to now is      691.3 secs

     End of self-consistent calculation

          k = 0.0000 0.0000 0.0000 (  7631 PWs)   bands (ev):

    -6.1382  -4.3721  -4.0279  -3.5443  -3.4580  -2.5680  -2.3518  -2.1415
    -1.8241  -1.7077  -1.4208  -1.1795  -0.6512  -0.3384  -0.0484   2.6864
     2.9653   3.0721   3.2543   3.3685   3.4357   3.9737   4.1187   4.4087
     4.7026   4.9410   5.1044   5.3851   5.5573   5.9186   5.9342   6.2381
     6.4171   6.5559   6.6137   6.9870   7.0340   7.2570

     occupation numbers 
     1.0000   1.0000   1.0000   1.0000   1.0000   1.0000   1.0000   1.0000
     1.0000   1.0000   1.0000   1.0000   1.0000   1.0000   1.0000   1.0000
     1.0000   1.0000   1.0000   1.0000   1.0000   1.0000   1.0000   1.0000
     1.0000   1.0000   1.0000   1.0000   1.0000   0.9989   0.9985   0.8039
     0.3501   0.0890   0.0403   0.0000   0.0000   0.0000

          k = 0.1768 0.1768-0.1768 (  7564 PWs)   bands (ev):

    -5.9573  -4.6148  -4.0412  -3.7375  -3.4150  -3.0880  -2.8420  -2.3498
    -1.4940  -1.1167  -0.8172  -0.5775  -0.2821   0.0179   0.3718   2.1374
     2.5083   2.6397   2.9551   3.1579   3.3379   3.4972   3.6621   3.8806
     4.3372   4.4697   4.7916   4.9228   5.1782   5.5968   5.9131   6.1881
     6.4415   6.6277   7.0584   7.2906   7.4715   7.6765

     occupation numbers 
     1.0000   1.0000   1.0000   1.0000   1.0000   1.0000   1.0000   1.0000
     1.0000   1.0000   1.0000   1.0000   1.0000   1.0000   1.0000   1.0000
     1.0000   1.0000   1.0000   1.0000   1.0000   1.0000   1.0000   1.0000
     1.0000   1.0000   1.0000   1.0000   1.0000   1.0000   0.9991   0.8853
     0.2897   0.0326   0.0000   0.0000   0.0000   0.0000

          k =-0.3536-0.3536 0.3536 (  7570 PWs)   bands (ev):

    -5.5958  -5.1455  -3.9917  -3.6605  -3.4763  -3.3472  -3.1745  -2.5887
    -1.1615  -0.7118  -0.1901  -0.0572   0.1187   0.2783   1.5460   1.6680
     1.9403   2.1529   2.3370   2.4591   2.6338   3.3988   3.6603   3.7484
     4.0024   4.1038   4.1770   4.3937   4.8776   5.5606   5.9064   6.0155
     6.5513   6.9620   7.1073   7.3141   7.5561   7.7711

     occupation numbers 
     1.0000   1.0000   1.0000   1.0000   1.0000   1.0000   1.0000   1.0000
     1.0000   1.0000   1.0000   1.0000   1.0000   1.0000   1.0000   1.0000
     1.0000   1.0000   1.0000   1.0000   1.0000   1.0000   1.0000   1.0000
     1.0000   1.0000   1.0000   1.0000   1.0000   1.0000   0.9992   0.9918
     0.0943   0.0000   0.0000   0.0000   0.0000   0.0000

          k = 0.3536 0.0000 0.0000 (  7563 PWs)   bands (ev):

    -5.8877  -4.5924  -4.0885  -3.8087  -3.6158  -3.5230  -2.3524  -1.9366
    -1.6840  -1.1934  -0.8839  -0.5706  -0.0883   0.2712   0.6955   2.0856
     2.3338   2.6386   2.7543   3.0059   3.1925   3.3364   3.5608   3.7155
     3.9602   4.5162   4.6709   4.9005   5.2590   5.4675   5.7322   6.1001
     6.3965   6.9643   7.0636   7.4316   7.7428   7.8740

     occupation numbers 
     1.0000   1.0000   1.0000   1.0000   1.0000   1.0000   1.0000   1.0000
     1.0000   1.0000   1.0000   1.0000   1.0000   1.0000   1.0000   1.0000
     1.0000   1.0000   1.0000   1.0000   1.0000   1.0000   1.0000   1.0000
     1.0000   1.0000   1.0000   1.0000   1.0000   1.0000   1.0000   0.9650
     0.4043   0.0000   0.0000   0.0000   0.0000   0.0000

          k =-0.1768-0.5303 0.5303 (  7554 PWs)   bands (ev):

    -5.5187  -4.9655  -4.3739  -3.9542  -3.7759  -3.2874  -2.7281  -2.1829
    -1.3694  -0.6833  -0.3860  -0.0206   0.3931   1.0224   1.3667   1.6710
     1.8720   1.9523   2.1704   2.6424   2.8400   3.1086   3.2679   3.4943
     3.7337   3.9420   4.2493   4.4565   4.6467   5.0258   5.5051   5.7129
     6.8918   7.3207   7.5760   7.8719   8.1745   8.2127

     occupation numbers 
     1.0000   1.0000   1.0000   1.0000   1.0000   1.0000   1.0000   1.0000
     1.0000   1.0000   1.0000   1.0000   1.0000   1.0000   1.0000   1.0000
     1.0000   1.0000   1.0000   1.0000   1.0000   1.0000   1.0000   1.0000
     1.0000   1.0000   1.0000   1.0000   1.0000   1.0000   1.0000   1.0000
     0.0001   0.0000   0.0000   0.0000   0.0000   0.0000

          k = 0.0000-0.3536 0.3536 (  7592 PWs)   bands (ev):

    -5.6787  -4.8079  -4.4915  -3.7611  -3.5640  -3.0916  -2.8040  -2.3221
    -1.4010  -1.1389  -0.6926  -0.1920   0.4166   0.7047   1.1252   1.7101
     2.2878   2.4408   2.6252   2.9133   3.1217   3.1938   3.4118   3.5813
     3.6806   3.9759   4.2344   4.4059   4.6394   5.0259   5.1414   6.2974
     6.7340   7.2610   7.4497   7.7996   7.8930   8.1226

     occupation numbers 
     1.0000   1.0000   1.0000   1.0000   1.0000   1.0000   1.0000   1.0000
     1.0000   1.0000   1.0000   1.0000   1.0000   1.0000   1.0000   1.0000
     1.0000   1.0000   1.0000   1.0000   1.0000   1.0000   1.0000   1.0000
     1.0000   1.0000   1.0000   1.0000   1.0000   1.0000   1.0000   0.6715
     0.0049   0.0000   0.0000   0.0000   0.0000   0.0000

          k =-0.7071 0.0000 0.0000 (  7528 PWs)   bands (ev):

    -5.2972  -5.0765  -4.4042  -4.0522  -3.9487  -3.6472  -2.2598  -1.7470
    -1.6504  -0.9912   0.1543   0.2879   0.4303   0.9294   1.6311   1.7149
     2.0313   2.1297   2.2909   2.3020   2.3396   2.4360   2.7433   3.0321
     3.7927   4.1585   4.3455   4.6784   4.9705   5.1196   5.1908   5.5990
     6.8507   6.9100   7.8090   7.9997   8.0497   8.2297

     occupation numbers 
     1.0000   1.0000   1.0000   1.0000   1.0000   1.0000   1.0000   1.0000
     1.0000   1.0000   1.0000   1.0000   1.0000   1.0000   1.0000   1.0000
     1.0000   1.0000   1.0000   1.0000   1.0000   1.0000   1.0000   1.0000
     1.0000   1.0000   1.0000   1.0000   1.0000   1.0000   1.0000   1.0000
     0.0004   0.0001   0.0000   0.0000   0.0000   0.0000

          k =-0.7071 0.3536 0.0000 (  7564 PWs)   bands (ev):

    -5.2742  -5.0036  -4.6110  -4.3963  -3.3421  -3.2855  -2.8341  -2.2383
    -0.9979  -0.7647  -0.3963  -0.1052   1.0731   1.3018   1.4014   1.5809
     1.7978   1.9187   2.0500   2.4012   2.7946   3.0800   3.2099   3.3651
     3.5867   3.7148   3.8924   4.0520   4.6461   4.8821   5.1598   5.6355
     7.5409   7.6703   8.0044   8.2308   8.3775   8.5475

     occupation numbers 
     1.0000   1.0000   1.0000   1.0000   1.0000   1.0000   1.0000   1.0000
     1.0000   1.0000   1.0000   1.0000   1.0000   1.0000   1.0000   1.0000
     1.0000   1.0000   1.0000   1.0000   1.0000   1.0000   1.0000   1.0000
     1.0000   1.0000   1.0000   1.0000   1.0000   1.0000   1.0000   1.0000
     0.0000   0.0000   0.0000   0.0000   0.0000   0.0000

          k =-0.1768-0.1768-0.1768 (  7564 PWs)   bands (ev):

    -5.9548  -4.7071  -4.0422  -3.6403  -3.4276  -2.9031  -2.7486  -2.2940
    -1.7143  -1.2895  -1.0178  -0.7160  -0.4029   0.0693   0.6594   2.3877
     2.5989   2.8533   2.9806   3.1862   3.4107   3.7154   3.8035   3.9756
     4.1800   4.3053   4.5841   4.8618   5.1188   5.3518   5.9439   6.1566
     6.2566   6.4895   6.8138   7.2153   7.4453   7.5797

     occupation numbers 
     1.0000   1.0000   1.0000   1.0000   1.0000   1.0000   1.0000   1.0000
     1.0000   1.0000   1.0000   1.0000   1.0000   1.0000   1.0000   1.0000
     1.0000   1.0000   1.0000   1.0000   1.0000   1.0000   1.0000   1.0000
     1.0000   1.0000   1.0000   1.0000   1.0000   1.0000   0.9981   0.9222
     0.7665   0.1876   0.0009   0.0000   0.0000   0.0000

          k =-0.1768 0.1768 0.1768 (  7564 PWs)   bands (ev):

    -5.9462  -4.4805  -4.2064  -3.8196  -3.4869  -3.0754  -2.7335  -2.4476
    -1.3635  -0.9957  -0.6747  -0.4246  -0.2828  -0.0385   0.2928   1.9975
     2.2235   2.3691   3.0633   3.1788   3.2673   3.5363   3.5787   3.7060
     4.0456   4.7348   4.8066   4.9376   5.3870   5.6837   6.1208   6.4148
     6.6418   6.8986   7.1114   7.2076   7.3959   7.6099

     occupation numbers 
     1.0000   1.0000   1.0000   1.0000   1.0000   1.0000   1.0000   1.0000
     1.0000   1.0000   1.0000   1.0000   1.0000   1.0000   1.0000   1.0000
     1.0000   1.0000   1.0000   1.0000   1.0000   1.0000   1.0000   1.0000
     1.0000   1.0000   1.0000   1.0000   1.0000   1.0000   0.9524   0.3560
     0.0261   0.0001   0.0000   0.0000   0.0000   0.0000

          k = 0.1768-0.1768 0.1768 (  7564 PWs)   bands (ev):

    -5.9548  -4.6583  -4.1563  -3.5741  -3.4528  -2.9261  -2.6636  -2.3639
    -1.5616  -1.3056  -1.2033  -0.7553  -0.3148   0.2733   0.5553   2.3710
     2.6349   2.7691   2.8690   3.1808   3.4150   3.5996   3.8162   4.0627
     4.2179   4.3834   4.6520   4.8057   4.9290   5.1627   6.0418   6.1727
     6.6302   6.6893   6.8954   7.2591   7.3482   7.6364

     occupation numbers 
     1.0000   1.0000   1.0000   1.0000   1.0000   1.0000   1.0000   1.0000
     1.0000   1.0000   1.0000   1.0000   1.0000   1.0000   1.0000   1.0000
     1.0000   1.0000   1.0000   1.0000   1.0000   1.0000   1.0000   1.0000
     1.0000   1.0000   1.0000   1.0000   1.0000   1.0000   0.9867   0.9047
     0.0313   0.0116   0.0001   0.0000   0.0000   0.0000

          k = 0.3536 0.3536 0.3536 (  7570 PWs)   bands (ev):

    -5.5205  -5.3189  -3.9941  -3.6799  -3.4087  -3.1949  -2.7638  -2.6922
    -1.4430  -0.9837  -0.7010  -0.3153  -0.0986   0.4449   1.7965   2.2157
     2.2686   2.5933   2.8669   2.9680   3.1074   3.2114   3.4626   3.6084
     3.6504   3.7644   3.8968   4.3634   4.4276   5.4798   5.9137   5.9797
     6.4114   6.8508   7.0007   7.1435   7.2789   7.5507

     occupation numbers 
     1.0000   1.0000   1.0000   1.0000   1.0000   1.0000   1.0000   1.0000
     1.0000   1.0000   1.0000   1.0000   1.0000   1.0000   1.0000   1.0000
     1.0000   1.0000   1.0000   1.0000   1.0000   1.0000   1.0000   1.0000
     1.0000   1.0000   1.0000   1.0000   1.0000   1.0000   0.9990   0.9959
     0.3650   0.0003   0.0000   0.0000   0.0000   0.0000

          k = 0.3536-0.3536-0.3536 (  7570 PWs)   bands (ev):

    -5.5469  -5.0952  -4.2262  -3.7675  -3.4588  -3.2754  -3.0929  -2.7650
    -0.7456  -0.3826  -0.1252   0.0556   0.2544   0.5140   1.1861   1.4489
     1.7290   1.8365   2.0456   2.1373   2.4670   2.7837   3.7705   3.8887
     4.0121   4.2826   4.3303   4.3959   5.3736   5.6680   5.9207   6.0538
     6.9905   7.2679   7.4710   7.5958   7.6371   7.8032

     occupation numbers 
     1.0000   1.0000   1.0000   1.0000   1.0000   1.0000   1.0000   1.0000
     1.0000   1.0000   1.0000   1.0000   1.0000   1.0000   1.0000   1.0000
     1.0000   1.0000   1.0000   1.0000   1.0000   1.0000   1.0000   1.0000
     1.0000   1.0000   1.0000   1.0000   1.0000   1.0000   0.9989   0.9835
     0.0000   0.0000   0.0000   0.0000   0.0000   0.0000

          k =-0.3536 0.3536-0.3536 (  7570 PWs)   bands (ev):

    -5.5482  -5.2530  -4.1418  -3.5659  -3.4813  -3.0553  -2.9439  -2.6012
    -1.2307  -1.0597  -0.8592  -0.5029   0.0472   0.7448   1.8831   2.2988
     2.3577   2.4752   2.5889   2.7855   2.9229   3.1137   3.2196   3.3325
     3.8204   4.0047   4.2084   4.4264   4.5606   4.9486   6.0040   6.5562
     6.6530   6.7939   6.9901   7.2973   7.3397   7.6995

     occupation numbers 
     1.0000   1.0000   1.0000   1.0000   1.0000   1.0000   1.0000   1.0000
     1.0000   1.0000   1.0000   1.0000   1.0000   1.0000   1.0000   1.0000
     1.0000   1.0000   1.0000   1.0000   1.0000   1.0000   1.0000   1.0000
     1.0000   1.0000   1.0000   1.0000   1.0000   1.0000   0.9934   0.0887
     0.0217   0.0014   0.0000   0.0000   0.0000   0.0000

          k = 0.0000 0.3536 0.0000 (  7563 PWs)   bands (ev):

    -5.8937  -4.4861  -4.2554  -3.9029  -3.6590  -3.2178  -2.1755  -2.0158
    -1.7594  -1.5594  -0.9121  -0.4275  -0.1164   0.3042   0.7809   2.2807
     2.4692   2.6456   2.7041   3.0264   3.2407   3.5168   3.5565   3.7518
     3.9197   4.2333   4.3023   4.9356   5.2474   5.4286   5.6678   5.9146
     6.2774   6.9972   7.2647   7.5473   7.6506   7.7325

     occupation numbers 
     1.0000   1.0000   1.0000   1.0000   1.0000   1.0000   1.0000   1.0000
     1.0000   1.0000   1.0000   1.0000   1.0000   1.0000   1.0000   1.0000
     1.0000   1.0000   1.0000   1.0000   1.0000   1.0000   1.0000   1.0000
     1.0000   1.0000   1.0000   1.0000   1.0000   1.0000   1.0000   0.9990
     0.7201   0.0000   0.0000   0.0000   0.0000   0.0000

          k = 0.0000 0.0000 0.3536 (  7563 PWs)   bands (ev):

    -5.8937  -4.5184  -4.1829  -3.8625  -3.6278  -3.3732  -2.4909  -1.8932
    -1.6025  -1.3559  -0.7753  -0.5335   0.0462   0.2217   0.5471   2.0983
     2.3241   2.5528   2.7907   3.0688   3.2198   3.3993   3.5355   3.8161
     3.9396   4.3428   4.6841   4.9007   5.2830   5.5947   5.7841   6.0249
     6.2636   6.9627   7.1509   7.3911   7.5627   7.7799

     occupation numbers 
     1.0000   1.0000   1.0000   1.0000   1.0000   1.0000   1.0000   1.0000
     1.0000   1.0000   1.0000   1.0000   1.0000   1.0000   1.0000   1.0000
     1.0000   1.0000   1.0000   1.0000   1.0000   1.0000   1.0000   1.0000
     1.0000   1.0000   1.0000   1.0000   1.0000   1.0000   1.0000   0.9902
     0.7514   0.0000   0.0000   0.0000   0.0000   0.0000

          k = 0.1768 0.5303 0.5303 (  7554 PWs)   bands (ev):

    -5.4945  -5.0587  -4.3602  -4.0060  -3.6564  -3.1578  -2.6099  -2.2986
    -1.2219  -1.0673  -0.7232  -0.1253   0.4210   0.9434   1.5673   1.8796
     2.0360   2.3567   2.5893   2.7217   2.8487   3.0402   3.1321   3.3280
     3.5896   4.0114   4.2210   4.3287   4.5784   4.9155   5.2291   5.7866
     7.1443   7.3256   7.4678   7.6440   8.0206   8.1934

     occupation numbers 
     1.0000   1.0000   1.0000   1.0000   1.0000   1.0000   1.0000   1.0000
     1.0000   1.0000   1.0000   1.0000   1.0000   1.0000   1.0000   1.0000
     1.0000   1.0000   1.0000   1.0000   1.0000   1.0000   1.0000   1.0000
     1.0000   1.0000   1.0000   1.0000   1.0000   1.0000   1.0000   1.0000
     0.0000   0.0000   0.0000   0.0000   0.0000   0.0000

          k = 0.1768-0.5303-0.5303 (  7554 PWs)   bands (ev):

    -5.4940  -4.8580  -4.5824  -3.9894  -3.6915  -3.3261  -2.7103  -2.3226
    -1.1449  -0.5621  -0.1755  -0.0291   0.6458   0.8395   1.3886   1.5842
     1.6465   1.6820   2.1449   2.3830   2.7425   3.0169   3.2197   3.4724
     3.8712   3.9572   4.2370   4.5511   4.6852   5.1222   5.6319   5.8240
     7.1868   7.5372   7.6804   8.1198   8.3347   8.4640

     occupation numbers 
     1.0000   1.0000   1.0000   1.0000   1.0000   1.0000   1.0000   1.0000
     1.0000   1.0000   1.0000   1.0000   1.0000   1.0000   1.0000   1.0000
     1.0000   1.0000   1.0000   1.0000   1.0000   1.0000   1.0000   1.0000
     1.0000   1.0000   1.0000   1.0000   1.0000   1.0000   1.0000   0.9999
     0.0000   0.0000   0.0000   0.0000   0.0000   0.0000

          k =-0.1768 0.5303-0.5303 (  7554 PWs)   bands (ev):

    -5.4960  -5.0398  -4.3817  -3.9639  -3.7456  -3.1432  -2.6017  -2.2191
    -1.4283  -0.8135  -0.7222  -0.3229   0.6053   0.9626   1.7171   1.8710
     2.0172   2.0918   2.5033   2.5858   2.8956   3.1236   3.1936   3.3906
     3.6543   3.8216   4.0656   4.4090   4.6398   4.8434   5.3402   6.0458
     6.9086   7.2991   7.5241   7.7453   8.0395   8.2127

     occupation numbers 
     1.0000   1.0000   1.0000   1.0000   1.0000   1.0000   1.0000   1.0000
     1.0000   1.0000   1.0000   1.0000   1.0000   1.0000   1.0000   1.0000
     1.0000   1.0000   1.0000   1.0000   1.0000   1.0000   1.0000   1.0000
     1.0000   1.0000   1.0000   1.0000   1.0000   1.0000   1.0000   0.9857
     0.0001   0.0000   0.0000   0.0000   0.0000   0.0000

          k =-0.5303-0.1768-0.5303 (  7554 PWs)   bands (ev):

    -5.5078  -5.0339  -4.4219  -3.9543  -3.6736  -3.0481  -2.6375  -2.2366
    -1.5629  -1.1000  -0.4114  -0.1476   0.0793   1.1924   1.6258   1.9712
     2.0782   2.2989   2.6288   2.8064   2.9182   3.0564   3.2693   3.4654
     3.6607   3.8433   4.0419   4.2323   4.3620   4.7986   5.2387   5.6839
     6.7124   7.1898   7.4956   7.8205   8.0819   8.1461

     occupation numbers 
     1.0000   1.0000   1.0000   1.0000   1.0000   1.0000   1.0000   1.0000
     1.0000   1.0000   1.0000   1.0000   1.0000   1.0000   1.0000   1.0000
     1.0000   1.0000   1.0000   1.0000   1.0000   1.0000   1.0000   1.0000
     1.0000   1.0000   1.0000   1.0000   1.0000   1.0000   1.0000   1.0000
     0.0075   0.0000   0.0000   0.0000   0.0000   0.0000

          k = 0.5303 0.1768-0.5303 (  7554 PWs)   bands (ev):

    -5.5382  -4.9077  -4.3445  -4.1774  -3.7528  -2.8921  -2.6801  -2.4949
    -1.2926  -0.8722  -0.7183   0.2717   0.5577   1.0401   1.1744   1.7310
     1.8731   2.2219   2.6380   2.7400   2.8244   3.0117   3.1945   3.2687
     3.5583   3.8227   4.1514   4.4159   4.6961   4.8377   5.2092   5.9454
     7.2015   7.4150   7.6668   8.0169   8.1147   8.3177

     occupation numbers 
     1.0000   1.0000   1.0000   1.0000   1.0000   1.0000   1.0000   1.0000
     1.0000   1.0000   1.0000   1.0000   1.0000   1.0000   1.0000   1.0000
     1.0000   1.0000   1.0000   1.0000   1.0000   1.0000   1.0000   1.0000
     1.0000   1.0000   1.0000   1.0000   1.0000   1.0000   1.0000   0.9980
     0.0000   0.0000   0.0000   0.0000   0.0000   0.0000

          k =-0.5303 0.1768 0.5303 (  7554 PWs)   bands (ev):

    -5.5101  -4.8250  -4.5165  -4.2082  -3.6837  -2.9701  -2.6538  -2.5837
    -1.0143  -0.9252  -0.4671   0.3960   0.6307   0.8198   1.3336   1.6016
     1.8583   1.9071   2.2569   2.4220   2.8589   2.9015   3.1492   3.4007
     3.6997   3.8570   4.2118   4.4938   4.6113   5.1377   5.3586   5.9433
     7.1932   7.6382   7.8217   8.0402   8.1559   8.4594

     occupation numbers 
     1.0000   1.0000   1.0000   1.0000   1.0000   1.0000   1.0000   1.0000
     1.0000   1.0000   1.0000   1.0000   1.0000   1.0000   1.0000   1.0000
     1.0000   1.0000   1.0000   1.0000   1.0000   1.0000   1.0000   1.0000
     1.0000   1.0000   1.0000   1.0000   1.0000   1.0000   1.0000   0.9981
     0.0000   0.0000   0.0000   0.0000   0.0000   0.0000

          k = 0.5303-0.1768 0.5303 (  7554 PWs)   bands (ev):

    -5.5145  -4.9843  -4.4943  -3.9340  -3.6696  -3.1070  -2.5558  -2.2589
    -1.4808  -1.1527  -0.4814  -0.2291   0.1908   1.4307   1.6734   1.9097
     2.1151   2.2020   2.5478   2.7463   2.8194   3.0743   3.2207   3.4020
     3.6296   3.7592   3.9212   4.2484   4.5856   4.8606   5.3339   5.7778
     6.7331   7.0900   7.6163   7.9369   8.0963   8.2387

     occupation numbers 
     1.0000   1.0000   1.0000   1.0000   1.0000   1.0000   1.0000   1.0000
     1.0000   1.0000   1.0000   1.0000   1.0000   1.0000   1.0000   1.0000
     1.0000   1.0000   1.0000   1.0000   1.0000   1.0000   1.0000   1.0000
     1.0000   1.0000   1.0000   1.0000   1.0000   1.0000   1.0000   1.0000
     0.0050   0.0000   0.0000   0.0000   0.0000   0.0000

          k = 0.5303 0.5303-0.1768 (  7554 PWs)   bands (ev):

    -5.5356  -4.9270  -4.3622  -4.0839  -3.6042  -3.2957  -2.8839  -2.0895
    -1.4102  -0.5951  -0.3594  -0.0827   0.3926   1.0480   1.3243   1.5942
     1.7965   2.0610   2.2166   2.6330   2.8326   3.0536   3.2544   3.5975
     3.8102   3.9595   4.1284   4.4953   4.7385   4.9503   5.5872   5.6612
     6.7668   7.1871   7.4765   7.9095   8.1405   8.3204

     occupation numbers 
     1.0000   1.0000   1.0000   1.0000   1.0000   1.0000   1.0000   1.0000
     1.0000   1.0000   1.0000   1.0000   1.0000   1.0000   1.0000   1.0000
     1.0000   1.0000   1.0000   1.0000   1.0000   1.0000   1.0000   1.0000
     1.0000   1.0000   1.0000   1.0000   1.0000   1.0000   1.0000   1.0000
     0.0025   0.0000   0.0000   0.0000   0.0000   0.0000

          k =-0.5303 0.5303 0.1768 (  7554 PWs)   bands (ev):

    -5.5116  -4.8302  -4.5058  -4.1790  -3.5540  -3.2664  -2.8932  -2.2500
    -1.0574  -0.6146  -0.3540   0.1981   0.5753   0.8472   1.2617   1.5177
     1.7162   1.8795   2.1438   2.4724   2.6292   3.0726   3.1796   3.3218
     3.7291   4.0575   4.2792   4.6084   4.7246   5.3057   5.4257   5.9246
     7.1392   7.5175   7.5924   8.0230   8.2030   8.3008

     occupation numbers 
     1.0000   1.0000   1.0000   1.0000   1.0000   1.0000   1.0000   1.0000
     1.0000   1.0000   1.0000   1.0000   1.0000   1.0000   1.0000   1.0000
     1.0000   1.0000   1.0000   1.0000   1.0000   1.0000   1.0000   1.0000
     1.0000   1.0000   1.0000   1.0000   1.0000   1.0000   1.0000   0.9988
     0.0000   0.0000   0.0000   0.0000   0.0000   0.0000

          k = 0.5303-0.5303 0.1768 (  7554 PWs)   bands (ev):

    -5.5240  -4.9710  -4.3409  -4.1869  -3.5901  -3.0611  -2.7146  -2.2244
    -1.3380  -1.0417  -0.7604   0.0178   0.5436   0.9596   1.4941   1.9014
     1.9667   2.1591   2.5277   2.5907   2.9387   3.1482   3.3254   3.5010
     3.7103   3.7998   4.0322   4.1366   4.5277   4.7357   5.4626   6.2240
     6.9460   7.3565   7.6084   7.7769   7.9498   8.2503

     occupation numbers 
     1.0000   1.0000   1.0000   1.0000   1.0000   1.0000   1.0000   1.0000
     1.0000   1.0000   1.0000   1.0000   1.0000   1.0000   1.0000   1.0000
     1.0000   1.0000   1.0000   1.0000   1.0000   1.0000   1.0000   1.0000
     1.0000   1.0000   1.0000   1.0000   1.0000   1.0000   1.0000   0.8298
     0.0000   0.0000   0.0000   0.0000   0.0000   0.0000

          k =-0.5303-0.5303-0.1768 (  7554 PWs)   bands (ev):

    -5.5065  -5.0562  -4.2769  -4.0720  -3.5992  -3.2503  -2.7417  -2.0201
    -1.5579  -0.8217  -0.5470  -0.3337   0.4286   0.8959   1.5104   2.0017
     2.0812   2.2721   2.4767   2.8410   2.9469   2.9766   3.1067   3.3610
     3.6354   3.9472   4.2238   4.2593   4.6428   5.0834   5.2963   5.6556
     6.7331   7.0362   7.6016   7.7605   8.1499   8.2578

     occupation numbers 
     1.0000   1.0000   1.0000   1.0000   1.0000   1.0000   1.0000   1.0000
     1.0000   1.0000   1.0000   1.0000   1.0000   1.0000   1.0000   1.0000
     1.0000   1.0000   1.0000   1.0000   1.0000   1.0000   1.0000   1.0000
     1.0000   1.0000   1.0000   1.0000   1.0000   1.0000   1.0000   1.0000
     0.0050   0.0000   0.0000   0.0000   0.0000   0.0000

          k = 0.0000 0.3536 0.3536 (  7592 PWs)   bands (ev):

    -5.6564  -4.7929  -4.5193  -3.8674  -3.4229  -3.1296  -3.0212  -2.2374
    -1.3289  -0.9109  -0.5704  -0.0438   0.2213   0.6115   1.1970   1.6998
     2.0169   2.3335   2.5067   2.7425   3.0063   3.0788   3.4321   3.6662
     3.7040   4.0456   4.2784   4.6253   4.7288   4.9223   5.3638   6.2092
     6.9394   7.2537   7.6074   7.8008   7.9720   8.1660

     occupation numbers 
     1.0000   1.0000   1.0000   1.0000   1.0000   1.0000   1.0000   1.0000
     1.0000   1.0000   1.0000   1.0000   1.0000   1.0000   1.0000   1.0000
     1.0000   1.0000   1.0000   1.0000   1.0000   1.0000   1.0000   1.0000
     1.0000   1.0000   1.0000   1.0000   1.0000   1.0000   1.0000   0.8544
     0.0000   0.0000   0.0000   0.0000   0.0000   0.0000

          k =-0.3536 0.0000-0.3536 (  7592 PWs)   bands (ev):

    -5.6641  -4.9235  -4.4778  -3.6972  -3.3992  -3.0258  -2.8009  -2.3734
    -1.5642  -1.1028  -0.8394  -0.4019   0.0885   1.0048   1.2782   1.8653
     2.3685   2.5485   2.9310   2.9650   3.0646   3.3389   3.5368   3.6833
     3.8086   3.9498   4.0630   4.3547   4.4561   4.7843   5.0133   5.9294
     6.5074   7.2147   7.4745   7.6949   7.7918   8.1547

     occupation numbers 
     1.0000   1.0000   1.0000   1.0000   1.0000   1.0000   1.0000   1.0000
     1.0000   1.0000   1.0000   1.0000   1.0000   1.0000   1.0000   1.0000
     1.0000   1.0000   1.0000   1.0000   1.0000   1.0000   1.0000   1.0000
     1.0000   1.0000   1.0000   1.0000   1.0000   1.0000   1.0000   0.9986
     0.1561   0.0000   0.0000   0.0000   0.0000   0.0000

          k = 0.3536 0.0000-0.3536 (  7592 PWs)   bands (ev):

    -5.6612  -4.7555  -4.4110  -3.9971  -3.4637  -3.2364  -3.1136  -2.0645
    -1.5188  -0.5746  -0.2776   0.2144   0.3376   0.5359   0.8702   1.4156
     1.8695   1.9694   2.4789   2.6506   2.9014   3.1974   3.2808   3.7201
     3.9285   4.0920   4.3710   4.6022   4.8786   4.9906   5.1464   6.5469
     7.1281   7.3917   7.7676   7.9071   8.1281   8.2813

     occupation numbers 
     1.0000   1.0000   1.0000   1.0000   1.0000   1.0000   1.0000   1.0000
     1.0000   1.0000   1.0000   1.0000   1.0000   1.0000   1.0000   1.0000
     1.0000   1.0000   1.0000   1.0000   1.0000   1.0000   1.0000   1.0000
     1.0000   1.0000   1.0000   1.0000   1.0000   1.0000   1.0000   0.0995
     0.0000   0.0000   0.0000   0.0000   0.0000   0.0000

          k = 0.3536 0.3536 0.0000 (  7592 PWs)   bands (ev):

    -5.6711  -4.9228  -4.2950  -3.8499  -3.4617  -3.2546  -2.7998  -2.2267
    -1.5216  -1.0625  -0.4437  -0.3711   0.1690   0.6889   1.2361   1.7819
     2.2355   2.6007   2.6792   2.8695   3.0236   3.1767   3.3554   3.6102
     3.7185   4.1357   4.2532   4.5223   4.7691   4.9597   5.0115   5.9956
     6.5072   7.1635   7.4796   7.7002   7.9544   8.2077

     occupation numbers 
     1.0000   1.0000   1.0000   1.0000   1.0000   1.0000   1.0000   1.0000
     1.0000   1.0000   1.0000   1.0000   1.0000   1.0000   1.0000   1.0000
     1.0000   1.0000   1.0000   1.0000   1.0000   1.0000   1.0000   1.0000
     1.0000   1.0000   1.0000   1.0000   1.0000   1.0000   1.0000   0.9944
     0.1565   0.0000   0.0000   0.0000   0.0000   0.0000

          k =-0.3536 0.3536 0.0000 (  7592 PWs)   bands (ev):

    -5.6530  -4.8378  -4.3420  -4.0771  -3.4755  -3.1415  -2.8477  -2.1790
    -1.4799  -0.9635  -0.5334   0.0028   0.2541   0.7910   1.2019   1.5930
     2.0507   2.2673   2.4051   2.6385   3.0033   3.2251   3.4303   3.5661
     3.8062   3.9542   4.2917   4.4983   4.6523   4.8883   5.5233   6.5480
     6.9327   7.3592   7.5479   7.8364   8.0144   8.2062

     occupation numbers 
     1.0000   1.0000   1.0000   1.0000   1.0000   1.0000   1.0000   1.0000
     1.0000   1.0000   1.0000   1.0000   1.0000   1.0000   1.0000   1.0000
     1.0000   1.0000   1.0000   1.0000   1.0000   1.0000   1.0000   1.0000
     1.0000   1.0000   1.0000   1.0000   1.0000   1.0000   1.0000   0.0982
     0.0000   0.0000   0.0000   0.0000   0.0000   0.0000

          k = 0.0000-0.7071 0.0000 (  7528 PWs)   bands (ev):

    -5.3768  -4.9085  -4.5285  -4.2091  -3.8901  -3.3875  -2.0781  -1.8753
    -1.6986  -1.3904  -0.0958   0.1816   0.7341   1.1179   1.8439   1.9685
     2.0308   2.1780   2.2354   2.3030   2.5823   2.6191   2.9350   3.1189
     3.4746   3.6998   4.1448   4.4755   4.6200   5.1008   5.2897   5.5370
     6.7875   6.8325   7.5836   7.8371   8.3244   8.6618

     occupation numbers 
     1.0000   1.0000   1.0000   1.0000   1.0000   1.0000   1.0000   1.0000
     1.0000   1.0000   1.0000   1.0000   1.0000   1.0000   1.0000   1.0000
     1.0000   1.0000   1.0000   1.0000   1.0000   1.0000   1.0000   1.0000
     1.0000   1.0000   1.0000   1.0000   1.0000   1.0000   1.0000   1.0000
     0.0016   0.0006   0.0000   0.0000   0.0000   0.0000

          k = 0.0000 0.0000-0.7071 (  7528 PWs)   bands (ev):

    -5.3929  -4.8732  -4.5054  -4.1956  -3.7556  -3.6512  -2.4902  -1.7544
    -1.2950  -1.1120  -0.0579   0.4081   0.5991   0.7712   1.5889   1.8496
     1.9057   2.1274   2.2330   2.3319   2.4541   2.5806   2.7240   2.8504
     3.9088   4.0582   4.3748   4.7823   4.8807   5.0696   5.3133   5.6573
     6.5527   7.0191   7.4485   7.9708   8.1381   8.4408

     occupation numbers 
     1.0000   1.0000   1.0000   1.0000   1.0000   1.0000   1.0000   1.0000
     1.0000   1.0000   1.0000   1.0000   1.0000   1.0000   1.0000   1.0000
     1.0000   1.0000   1.0000   1.0000   1.0000   1.0000   1.0000   1.0000
     1.0000   1.0000   1.0000   1.0000   1.0000   1.0000   1.0000   1.0000
     0.0927   0.0000   0.0000   0.0000   0.0000   0.0000

          k = 0.3536-0.7071 0.0000 (  7564 PWs)   bands (ev):

    -5.3015  -4.9542  -4.6404  -4.4067  -3.4958  -2.9893  -2.7143  -2.4405
    -1.2329  -0.7718  -0.3854  -0.0333   0.8703   1.3930   1.5609   1.6696
     1.8566   2.1202   2.2599   2.4610   2.8269   2.9435   3.1260   3.2287
     3.4811   3.6162   3.9454   4.0504   4.4885   4.8181   5.2331   5.4585
     7.5901   7.8187   7.8614   8.0029   8.3496   8.5786

     occupation numbers 
     1.0000   1.0000   1.0000   1.0000   1.0000   1.0000   1.0000   1.0000
     1.0000   1.0000   1.0000   1.0000   1.0000   1.0000   1.0000   1.0000
     1.0000   1.0000   1.0000   1.0000   1.0000   1.0000   1.0000   1.0000
     1.0000   1.0000   1.0000   1.0000   1.0000   1.0000   1.0000   1.0000
     0.0000   0.0000   0.0000   0.0000   0.0000   0.0000

          k = 0.7071 0.0000 0.3536 (  7564 PWs)   bands (ev):

    -5.2780  -4.9627  -4.6180  -4.5089  -3.3100  -3.0019  -2.7863  -2.5434
    -0.9527  -0.7851  -0.6040  -0.1027   0.9725   1.4029   1.5518   1.7006
     1.9377   2.0725   2.2203   2.3774   2.8252   2.9230   3.1419   3.2084
     3.4912   3.7166   3.8796   4.0657   4.5096   4.8936   5.1768   5.3711
     7.6717   7.8655   7.9375   8.1319   8.2781   8.5530

     occupation numbers 
     1.0000   1.0000   1.0000   1.0000   1.0000   1.0000   1.0000   1.0000
     1.0000   1.0000   1.0000   1.0000   1.0000   1.0000   1.0000   1.0000
     1.0000   1.0000   1.0000   1.0000   1.0000   1.0000   1.0000   1.0000
     1.0000   1.0000   1.0000   1.0000   1.0000   1.0000   1.0000   1.0000
     0.0000   0.0000   0.0000   0.0000   0.0000   0.0000

     the Fermi energy is     6.3615 ev

!    total energy              =    -152.36627115 Ry
     Harris-Foulkes estimate   =    -152.36627115 Ry
     estimated scf accuracy    <          3.9E-10 Ry

     The total energy is the sum of the following terms:

     one-electron contribution =      38.88035616 Ry
     hartree contribution      =       9.57412584 Ry
     xc contribution           =     -68.28704403 Ry
     ewald contribution        =    -132.52965403 Ry
     smearing contrib. (-TS)   =      -0.00405509 Ry

     convergence has been achieved in  16 iterations

     Forces acting on atoms (Ry/au):

     atom    1 type  1   force =  -0.69520596E-01  0.42343629E-01  0.20705992E-01
     atom    2 type  1   force =   0.11233001E+00 -0.13552720E+00 -0.76324484E-01
     atom    3 type  1   force =  -0.51614442E-01 -0.85467883E-01 -0.10423535E+00
     atom    4 type  1   force =   0.21612703E+00 -0.71914434E-01 -0.10570840E+00
     atom    5 type  1   force =  -0.57894598E-01  0.12184090E+00  0.52312908E-01
     atom    6 type  1   force =   0.78986401E-01 -0.12189497E+00 -0.81997775E-01
     atom    7 type  1   force =  -0.92609246E-01  0.14810326E+00  0.73019424E-01
     atom    8 type  1   force =  -0.28044151E-01 -0.65792156E-01  0.12914995E-01
     atom    9 type  1   force =  -0.62884186E-02 -0.33896858E-01  0.25004671E+00
     atom   10 type  1   force =  -0.44830309E-01 -0.11047095E+00  0.22970340E-01
     atom   11 type  1   force =  -0.97364328E-01  0.16068657E+00  0.91591751E-01
     atom   12 type  1   force =   0.62038402E-01  0.88330962E-01  0.22126146E-01
     atom   13 type  1   force =   0.54157730E-02  0.14672434E+00 -0.41761281E-02
     atom   14 type  1   force =  -0.15486538E+00 -0.31395307E-01 -0.69319488E-01
     atom   15 type  1   force =   0.81046956E-01  0.12278734E+00 -0.89569541E-01
     atom   16 type  1   force =   0.47086896E-01 -0.17445726E+00 -0.14357108E-01
     The non-local contrib.  to forces
     atom    1 type  1   force =  -0.66731607E-01 -0.36873582E-02  0.17978141E-01
     atom    2 type  1   force =   0.12398594E+00 -0.17617188E+00 -0.50740704E-01
     atom    3 type  1   force =  -0.11498230E-02 -0.96619344E-01 -0.11445987E+00
     atom    4 type  1   force =   0.24335851E+00 -0.36687907E-01 -0.10033255E+00
     atom    5 type  1   force =  -0.50063568E-01  0.12150458E+00  0.19937705E-01
     atom    6 type  1   force =   0.68573436E-01 -0.91264184E-01 -0.83268915E-01
     atom    7 type  1   force =  -0.10672125E+00  0.13667314E+00  0.68313235E-01
     atom    8 type  1   force =  -0.43082372E-01 -0.39826693E-01  0.12859190E-02
     atom    9 type  1   force =  -0.92391115E-02 -0.36914383E-01  0.29006432E+00
     atom   10 type  1   force =  -0.53956126E-01 -0.95955226E-01  0.54428915E-01
     atom   11 type  1   force =  -0.10073276E+00  0.15117782E+00  0.55320175E-01
     atom   12 type  1   force =   0.45180628E-01  0.11990834E+00  0.10447267E-01
     atom   13 type  1   force =   0.13321347E-02  0.14252160E+00 -0.80121418E-03
     atom   14 type  1   force =  -0.20409842E+00 -0.39688780E-01 -0.59451430E-01
     atom   15 type  1   force =   0.11750118E+00  0.12502067E+00 -0.82181931E-01
     atom   16 type  1   force =   0.70828169E-01 -0.17234507E+00 -0.10876952E-01
     The ionic contribution  to forces
     atom    1 type  1   force =  -0.12446723E+00 -0.15775616E+00  0.87978209E-01
     atom    2 type  1   force =   0.28771298E+00 -0.76063636E+00  0.10528731E+00
     atom    3 type  1   force =   0.23104437E+00 -0.31023549E+00 -0.75014507E+00
     atom    4 type  1   force =   0.94191265E+00  0.13574910E-01 -0.54838831E+00
     atom    5 type  1   force =  -0.26943667E+00  0.26149742E+00  0.84326243E-01
     atom    6 type  1   force =   0.29561278E-01 -0.27676550E+00 -0.14112674E+00
     atom    7 type  1   force =  -0.29092523E+00  0.39420417E+00 -0.30006996E-01
     atom    8 type  1   force =  -0.27949890E+00  0.22550860E-01 -0.39665857E+00
     atom    9 type  1   force =  -0.30927170E+00 -0.55553232E+00  0.13080614E+01
     atom   10 type  1   force =  -0.40804749E+00 -0.37140352E+00  0.46547805E+00
     atom   11 type  1   force =   0.94608906E-01  0.44870663E+00  0.82464220E-01
     atom   12 type  1   force =   0.42407371E+00  0.76711155E+00  0.24835971E-01
     atom   13 type  1   force =  -0.28713348E+00  0.30560983E+00  0.43396839E-01
     atom   14 type  1   force =  -0.67785333E+00 -0.23809729E+00 -0.13433976E-01
     atom   15 type  1   force =   0.41471260E+00  0.68948196E+00 -0.42809816E+00
     atom   16 type  1   force =   0.22300756E+00 -0.23231069E+00  0.10602958E+00
     The local contribution  to forces
     atom    1 type  1   force =   0.11589943E+00  0.20357606E+00 -0.83566903E-01
     atom    2 type  1   force =  -0.28776863E+00  0.78496051E+00 -0.13496353E+00
     atom    3 type  1   force =  -0.28189997E+00  0.31280651E+00  0.74934437E+00
     atom    4 type  1   force =  -0.94697565E+00 -0.51375549E-01  0.53311775E+00
     atom    5 type  1   force =   0.25759268E+00 -0.25000101E+00 -0.50780526E-01
     atom    6 type  1   force =  -0.13593053E-01  0.23788270E+00  0.13529382E+00
     atom    7 type  1   force =   0.29413421E+00 -0.37032514E+00  0.40067460E-01
     atom    8 type  1   force =   0.28952551E+00 -0.52090542E-01  0.40724060E+00
     atom    9 type  1   force =   0.31126781E+00  0.55470172E+00 -0.13210184E+01
     atom   10 type  1   force =   0.41227421E+00  0.34825750E+00 -0.49176754E+00
     atom   11 type  1   force =  -0.99591118E-01 -0.42658995E+00 -0.42357582E-01
     atom   12 type  1   force =  -0.40319865E+00 -0.78704223E+00 -0.11965087E-01
     atom   13 type  1   force =   0.29082610E+00 -0.28803026E+00 -0.46294406E-01
     atom   14 type  1   force =   0.70868948E+00  0.24188625E+00 -0.19930215E-02
     atom   15 type  1   force =  -0.43976513E+00 -0.67998417E+00  0.41404778E+00
     atom   16 type  1   force =  -0.23954014E+00  0.21399261E+00 -0.10909230E+00
     The core correction contribution to forces
     atom    1 type  1   force =   0.57729245E-02  0.21561626E-03 -0.16826779E-02
     atom    2 type  1   force =  -0.11602192E-01  0.16330998E-01  0.40958853E-02
     atom    3 type  1   force =   0.38703763E-03  0.85864716E-02  0.11031550E-01
     atom    4 type  1   force =  -0.22176621E-01  0.25735081E-02  0.98957763E-02
     atom    5 type  1   force =   0.40147184E-02 -0.11156083E-01 -0.11669381E-02
     atom    6 type  1   force =  -0.55566452E-02  0.82546302E-02  0.71052233E-02
     atom    7 type  1   force =   0.10896392E-01 -0.12448985E-01 -0.53504823E-02
     atom    8 type  1   force =   0.50100590E-02  0.35752936E-02  0.10563593E-02
     atom    9 type  1   force =   0.95832006E-03  0.38495189E-02 -0.27066242E-01
     atom   10 type  1   force =   0.48996127E-02  0.86253147E-02 -0.51780085E-02
     atom   11 type  1   force =   0.83496235E-02 -0.12614407E-01 -0.38430902E-02
     atom   12 type  1   force =  -0.40136857E-02 -0.11645622E-01 -0.11922564E-02
     atom   13 type  1   force =   0.39744491E-03 -0.13381237E-01 -0.48220004E-03
     atom   14 type  1   force =   0.18407191E-01  0.45009392E-02  0.55570228E-02
     atom   15 type  1   force =  -0.11396158E-01 -0.11737423E-01  0.66652130E-02
     atom   16 type  1   force =  -0.72078436E-02  0.16198373E-01 -0.41951732E-03
     The Hubbard contrib.    to forces
     atom    1 type  1   force =   0.00000000E+00  0.00000000E+00  0.00000000E+00
     atom    2 type  1   force =   0.00000000E+00  0.00000000E+00  0.00000000E+00
     atom    3 type  1   force =   0.00000000E+00  0.00000000E+00  0.00000000E+00
     atom    4 type  1   force =   0.00000000E+00  0.00000000E+00  0.00000000E+00
     atom    5 type  1   force =   0.00000000E+00  0.00000000E+00  0.00000000E+00
     atom    6 type  1   force =   0.00000000E+00  0.00000000E+00  0.00000000E+00
     atom    7 type  1   force =   0.00000000E+00  0.00000000E+00  0.00000000E+00
     atom    8 type  1   force =   0.00000000E+00  0.00000000E+00  0.00000000E+00
     atom    9 type  1   force =   0.00000000E+00  0.00000000E+00  0.00000000E+00
     atom   10 type  1   force =   0.00000000E+00  0.00000000E+00  0.00000000E+00
     atom   11 type  1   force =   0.00000000E+00  0.00000000E+00  0.00000000E+00
     atom   12 type  1   force =   0.00000000E+00  0.00000000E+00  0.00000000E+00
     atom   13 type  1   force =   0.00000000E+00  0.00000000E+00  0.00000000E+00
     atom   14 type  1   force =   0.00000000E+00  0.00000000E+00  0.00000000E+00
     atom   15 type  1   force =   0.00000000E+00  0.00000000E+00  0.00000000E+00
     atom   16 type  1   force =   0.00000000E+00  0.00000000E+00  0.00000000E+00
     The SCF correction term to forces
     atom    1 type  1   force =   0.59574083E-05 -0.45289274E-05 -0.76197054E-06
     atom    2 type  1   force =   0.19625009E-05 -0.10472081E-04 -0.34233409E-05
     atom    3 type  1   force =   0.40059226E-05 -0.60330604E-05 -0.63093525E-05
     atom    4 type  1   force =   0.82060643E-05  0.60421682E-06 -0.10543861E-05
     atom    5 type  1   force =  -0.16947367E-05 -0.40108584E-05 -0.35615977E-05
     atom    6 type  1   force =   0.14474648E-05 -0.26097363E-05 -0.11520440E-05
     atom    7 type  1   force =   0.66911508E-05  0.73934834E-07 -0.37773576E-05
     atom    8 type  1   force =   0.16231354E-05 -0.10735273E-05 -0.92965921E-05
     atom    9 type  1   force =  -0.36681481E-05 -0.13851914E-05  0.56336522E-05
     atom   10 type  1   force =  -0.44811135E-06  0.49816526E-05  0.89460176E-05
     atom   11 type  1   force =   0.10819416E-05  0.64827035E-05  0.80424965E-05
     atom   12 type  1   force =  -0.35406922E-05 -0.10672045E-05  0.26578244E-06
     atom   13 type  1   force =  -0.63652110E-05  0.44170334E-05  0.48685153E-05
     atom   14 type  1   force =  -0.10238697E-04  0.35820409E-05  0.19313611E-05
     atom   15 type  1   force =  -0.54787800E-05  0.63162128E-05 -0.24321033E-05
     atom   16 type  1   force =  -0.79023071E-06  0.75137299E-05  0.20969205E-05

     Total force =     0.682491     Total SCF correction =     0.000034


     entering subroutine stress ...

          total   stress  (Ry/bohr**3)                   (kbar)     P=   57.89
   0.0004589238  -0.0002367798  -0.0005541246         67.51    -34.83    -81.51
  -0.0002367798   0.0002100373   0.0001422933        -34.83     30.90     20.93
  -0.0005541246   0.0001422933   0.0005116923        -81.51     20.93     75.27

     kinetic stress (kbar)   2206.42     14.05     34.74
                               14.05   2212.21    -12.54
                               34.74    -12.54   2205.79

     local   stress (kbar)   -401.60    282.19    505.10
                              282.19   -215.75   -173.01
                              505.10   -173.01   -413.11

     nonloc. stress (kbar)   1983.99    -28.98    -65.58
                              -28.98   1957.85     14.82
                              -65.58     14.82   1992.55

     hartree stress (kbar)    226.89    -42.09    -49.84
                              -42.09    206.41     33.44
                              -49.84     33.44    217.94

     exc-cor stress (kbar)    994.96     -0.34     -0.71
                               -0.34    994.72      0.19
                               -0.71      0.19    995.01

     corecor stress (kbar)  -1992.68      3.40      7.70
                                3.40  -1989.59     -1.67
                                7.70     -1.67  -1993.66

     ewald   stress (kbar)  -2950.47   -263.07   -512.93
                             -263.07  -3134.96    159.70
                             -512.93    159.70  -2929.24

     hubbard stress (kbar)      0.00      0.00      0.00
                                0.00      0.00      0.00
                                0.00      0.00      0.00

     london  stress (kbar)      0.00      0.00      0.00
                                0.00      0.00      0.00
                                0.00      0.00      0.00

     XDM     stress (kbar)      0.00      0.00      0.00
                                0.00      0.00      0.00
                                0.00      0.00      0.00

     dft-nl  stress (kbar)      0.00      0.00      0.00
                                0.00      0.00      0.00
                                0.00      0.00      0.00



     Writing output data file Si_diamond.scf.in.super.222.largdist.a.044.save

     init_run     :     14.96s CPU     15.52s WALL (       1 calls)
     electrons    :    623.45s CPU    675.62s WALL (       1 calls)
     forces       :      6.10s CPU      6.21s WALL (       1 calls)
     stress       :     26.31s CPU     27.06s WALL (       1 calls)

     Called by init_run:
     wfcinit      :     13.93s CPU     14.48s WALL (       1 calls)
     potinit      :      0.14s CPU      0.14s WALL (       1 calls)

     Called by electrons:
     c_bands      :    518.52s CPU    566.42s WALL (      17 calls)
     sum_band     :     91.31s CPU     95.27s WALL (      17 calls)
     v_of_rho     :      1.84s CPU      1.90s WALL (      17 calls)
     v_h          :      0.10s CPU      0.10s WALL (      17 calls)
     v_xc         :      2.02s CPU      2.07s WALL (      19 calls)
     newd         :     10.49s CPU     10.72s WALL (      17 calls)
     mix_rho      :      1.68s CPU      1.70s WALL (      17 calls)

     Called by c_bands:
     init_us_2    :      6.52s CPU      6.90s WALL (    1332 calls)
     cegterg      :    487.07s CPU    532.94s WALL (     612 calls)

     Called by sum_band:
     sum_band:bec :      0.47s CPU      0.51s WALL (     612 calls)
     addusdens    :     11.15s CPU     11.64s WALL (      17 calls)

     Called by *egterg:
     h_psi        :    334.50s CPU    350.53s WALL (    2145 calls)
     s_psi        :     28.20s CPU     27.76s WALL (    2145 calls)
     g_psi        :      0.67s CPU      0.70s WALL (    1497 calls)
     cdiaghg      :     23.77s CPU     28.26s WALL (    2073 calls)
     cegterg:over :     52.47s CPU     62.77s WALL (    1497 calls)
     cegterg:upda :     10.54s CPU     16.51s WALL (    1497 calls)
     cegterg:last :      3.89s CPU      5.27s WALL (     612 calls)

     Called by h_psi:
     h_psi:vloc   :    248.42s CPU    258.96s WALL (    2145 calls)
     h_psi:vnl    :     85.57s CPU     90.93s WALL (    2145 calls)
     add_vuspsi   :     28.83s CPU     29.74s WALL (    2145 calls)

     General routines
     calbec       :     81.98s CPU     87.56s WALL (    2829 calls)
     fft          :      2.34s CPU      2.44s WALL (     297 calls)
     ffts         :      0.88s CPU      0.88s WALL (     319 calls)
     fftw         :    270.33s CPU    281.44s WALL (  142772 calls)
     interpolate  :      0.27s CPU      0.27s WALL (      34 calls)

     Parallel routines
     fft_scatter  :    156.06s CPU    162.55s WALL (  143388 calls)

     PWSCF        : 11m12.56s CPU    12m 6.73s WALL


   This run was terminated on:  17:19:29  27Sep2017            

=------------------------------------------------------------------------------=
   JOB DONE.
=------------------------------------------------------------------------------=
