
     Program PWSCF v.5.1 starts on  5Oct2017 at 13:35:58 

     This program is part of the open-source Quantum ESPRESSO suite
     for quantum simulation of materials; please cite
         "P. Giannozzi et al., J. Phys.:Condens. Matter 21 395502 (2009);
          URL http://www.quantum-espresso.org", 
     in publications or presentations arising from this work. More details at
     http://www.quantum-espresso.org/quote

     Parallel version (MPI), running on     4 processors
     R & G space division:  proc/nbgrp/npool/nimage =       4
     Reading input from /tmp/SiGe_zns.scf.in.super.222.a.05.30560/SiGe_zns.scf.in.super.222.a.05.t
Warning: card &IONS ignored
Warning: card   ION_DYNAMICS='BFGS', ignored
Warning: card / ignored
Warning: card &CELL ignored
Warning: card  CELL_DYNAMICS = 'BFGS' ignored
Warning: card / ignored
     Message from routine read_cards :
     DEPRECATED: no units specified in CELL_PARAMETERS card

     Current dimensions of program PWSCF are:
     Max number of different atomic species (ntypx) = 10
     Max number of k-points (npk) =  40000
     Max angular momentum in pseudopotentials (lmaxx) =  3
 kfg - two_fermi_energies  F

     Subspace diagonalization in iterative solution of the eigenvalue problem:
     a serial algorithm will be used


     Parallelization info
     --------------------
     sticks:   dense  smooth     PW     G-vecs:    dense   smooth      PW
     Min         758     526    148                27448    16020    2429
     Max         759     527    149                27450    16033    2431
     Sum        3033    2107    595               109795    64113    9721



     bravais-lattice index     =            0
     lattice parameter (alat)  =    14.807958248  a.u.
     unit-cell volume          =    2294.1282 (a.u.)^3
     number of atoms/cell      =           16
     number of atomic types    =            2
     number of electrons       =       144.00
     number of Kohn-Sham states=           86
     kinetic-energy cutoff     =      35.0000  Ry
     charge density cutoff     =     200.0000  Ry
     convergence threshold     =      1.0E-09
     mixing beta               =       0.3000
     number of iterations used =            8  local-TF  mixing
     Exchange-correlation      = SLA  PW   PSX  PSC ( 1  4 10  8 0)
     A smooth kinetic-energy cutoff is imposed at      34.5000 Ry
     height of the smooth step-function =             800.0000 Ry
     width of the smooth step-function  =               1.0000 Ry


     celldm(1)=  14.807958  celldm(2)=   0.000000  celldm(3)=   0.000000
     celldm(4)=   0.000000  celldm(5)=   0.000000  celldm(6)=   0.000000

     crystal axes: (cart. coord. in units of alat)
               a(1) = (  -0.000634171324   0.706957229544   0.707256016887 )  
               a(2) = (   0.706201661854  -0.000257378597   0.707013771735 )  
               a(3) = (   0.706392110845   0.706750734654  -0.000029227925 )  

     reciprocal axes: (cart. coord. in units 2 pi/alat)
               b(1) = ( -0.707232  0.706903  0.706677 )  
               b(2) = (  0.707504 -0.707115  0.707451 )  
               b(3) = (  0.707696  0.707559 -0.706626 )  


     PseudoPot. # 1 for Si read from file:
     /users/kfg/psuedo/gbrv_1.5/si.pbesol.UPF
     MD5 check sum: ef58ba74faed4df802eb8a9742fc00a8
     Pseudo is Ultrasoft + core correction, Zval =  4.0
     Generated by new atomic code, or converted to UPF format
     Using radial grid of  899 points,  6 beta functions with: 
                l(1) =   0
                l(2) =   0
                l(3) =   1
                l(4) =   1
                l(5) =   2
                l(6) =   2
     Q(r) pseudized with  8 coefficients,  rinner =    0.900   0.900   0.900
                                                       0.900   0.900

     PseudoPot. # 2 for Ge read from file:
     /users/kfg/psuedo/gbrv_1.5/ge.pbesol.UPF
     MD5 check sum: 7bed0412183f5e553a4d27ec7023354d
     Pseudo is Ultrasoft + core correction, Zval = 14.0
     Generated by new atomic code, or converted to UPF format
     Using radial grid of  873 points,  6 beta functions with: 
                l(1) =   0
                l(2) =   0
                l(3) =   1
                l(4) =   1
                l(5) =   2
                l(6) =   2
     Q(r) pseudized with  8 coefficients,  rinner =    1.400   1.400   1.400
                                                       1.400   1.400

     atomic species   valence    mass     pseudopotential
        Si             4.00    28.08550     Si( 1.00)
        Ge            14.00    72.64000     Ge( 1.00)

     No symmetry found


                                    s                        frac. trans.

      isym =  1     identity                                     

 cryst.   s( 1) = (     1          0          0      )
                  (     0          1          0      )
                  (     0          0          1      )

 cart.    s( 1) = (  1.0000000 -0.0000000 -0.0000000 )
                  ( -0.0000000  1.0000000 -0.0000000 )
                  ( -0.0000000 -0.0000000  1.0000000 )


     point group C_1 (1)    
     there are  1 classes
     the character table:

       E    
A      1.00

     the symmetry operations in each class:
     E        1

   Cartesian axes

     site n.     atom                  positions (alat units)
         1           Si  tau(   1) = (   -0.00409182634    0.00300442917    0.00247884941  )
         2           Ge  tau(   2) = (    0.17543819445    0.18641964319    0.18435134607  )
         3           Si  tau(   3) = (    0.35855723774    0.36102855994    0.00487124562  )
         4           Ge  tau(   4) = (    0.52880939452    0.53298341099    0.17114622736  )
         5           Si  tau(   5) = (    0.35007523200    0.00011606486    0.34842493205  )
         6           Ge  tau(   6) = (    0.51965702599    0.18808619512    0.51697877472  )
         7           Si  tau(   7) = (    0.71221300829    0.33973616516    0.34337516206  )
         8           Ge  tau(   8) = (    0.88424269357    0.53296984143    0.52649167947  )
         9           Si  tau(   9) = (   -0.00624835752    0.36288737297    0.34470726231  )
        10           Ge  tau(  10) = (    0.16613355922    0.53143082329    0.52687524838  )
        11           Si  tau(  11) = (    0.35123180124    0.69576116636    0.35575272673  )
        12           Ge  tau(  12) = (    0.53553696924    0.88210162512    0.52951283187  )
        13           Si  tau(  13) = (    0.36009689764    0.35355479923    0.70564002565  )
        14           Ge  tau(  14) = (    0.52144548978    0.53103503184    0.88778294878  )
        15           Si  tau(  15) = (    0.69579336589    0.69841270754    0.70687486800  )
        16           Ge  tau(  16) = (    0.87651522218    0.88236508972    0.88018221472  )

   Crystallographic axes

     site n.     atom                  positions (cryst. coord.)
         1           Si  tau(   1) = (    0.00676945587   -0.00326579592   -0.00252157805  )
         2           Ge  tau(   2) = (    0.13798186206    0.12272253247    0.12579251786  )
         3           Si  tau(   3) = (    0.00507118579    0.00183787251    0.50575670316  )
         4           Ge  tau(   4) = (    0.12372142928    0.11833139781    0.63041760869  )
         5           Si  tau(   5) = (   -0.00127848237    0.49409107403    0.00162301308  )
         6           Ge  tau(   6) = (    0.13077752323    0.60039784627    0.13553096511  )
         7           Si  tau(   7) = (   -0.02088421730    0.50658181015    0.50177633992  )
         8           Ge  tau(   8) = (    0.12345248398    0.62120092054    0.63085056348  )
         9           Si  tau(   9) = (    0.50454177367   -0.01716046736    0.00876334671  )
        10           Ge  tau(  10) = (    0.63050547741    0.11449564918    0.12128729734  )
        11           Si  tau(  11) = (    0.49483520842    0.00819199673    0.48947377034  )
        12           Ge  tau(  12) = (    0.61900549825    0.12975115321    0.62896943204  )
        13           Si  tau(  13) = (    0.49391633977    0.50397166665    0.00637676530  )
        14           Ge  tau(  14) = (    0.63398288785    0.62148459711    0.11743348628  )
        15           Si  tau(  15) = (    0.50115455954    0.49849739975    0.48708286280  )
        16           Ge  tau(  16) = (    0.62585099128    0.61888969125    0.62267285225  )

     number of k points=    36  gaussian smearing, width (Ry)=  0.0150
                       cart. coord. in units 2pi/alat
        k(    1) = (   0.0000000   0.0000000   0.0000000), wk =   0.0312500
        k(    2) = (   0.1769241   0.1768899  -0.1766565), wk =   0.0625000
        k(    3) = (  -0.3538482  -0.3537797   0.3533130), wk =   0.0312500
        k(    4) = (   0.1768759  -0.1767789   0.1768628), wk =   0.0625000
        k(    5) = (   0.3538000   0.0001110   0.0002063), wk =   0.0625000
        k(    6) = (  -0.1769723  -0.5305586   0.5301758), wk =   0.0625000
        k(    7) = (  -0.0000482  -0.3536687   0.3535193), wk =   0.0625000
        k(    8) = (  -0.3537519   0.3535577  -0.3537256), wk =   0.0312500
        k(    9) = (  -0.1768278   0.5304476  -0.5303821), wk =   0.0625000
        k(   10) = (  -0.7076001  -0.0002220  -0.0004126), wk =   0.0312500
        k(   11) = (  -0.1768080   0.1767256   0.1766693), wk =   0.0625000
        k(   12) = (   0.0001161   0.3536155   0.0000128), wk =   0.0625000
        k(   13) = (  -0.5306563  -0.1770541   0.5299823), wk =   0.0625000
        k(   14) = (  -0.3537321  -0.0001642   0.3533258), wk =   0.0625000
        k(   15) = (   0.0000679  -0.0000532   0.3535321), wk =   0.0625000
        k(   16) = (   0.1769920   0.1768366   0.1768756), wk =   0.0625000
        k(   17) = (  -0.3537803  -0.3538330   0.7068451), wk =   0.0625000
        k(   18) = (  -0.1768562  -0.1769431   0.5301886), wk =   0.0625000
        k(   19) = (  -0.5305599   0.5302834  -0.1770563), wk =   0.0625000
        k(   20) = (  -0.3536358   0.7071732  -0.3537128), wk =   0.0625000
        k(   21) = (  -0.8844081   0.1765036   0.1762567), wk =   0.0625000
        k(   22) = (  -0.7074840   0.3533935  -0.0003998), wk =   0.0625000
        k(   23) = (  -0.3536840   0.3535045  -0.0001935), wk =   0.0625000
        k(   24) = (  -0.1767599   0.5303944  -0.1768500), wk =   0.0625000
        k(   25) = (  -0.7075322  -0.0002752   0.3531195), wk =   0.0625000
        k(   26) = (  -0.5306081   0.1766146   0.1764630), wk =   0.0625000
        k(   27) = (   0.3536161  -0.3534513  -0.3533386), wk =   0.0312500
        k(   28) = (   0.5305402  -0.1765614  -0.5299951), wk =   0.0625000
        k(   29) = (  -0.0002321  -0.7072310  -0.0000256), wk =   0.0312500
        k(   30) = (   0.5304920  -0.5302301  -0.1764758), wk =   0.0625000
        k(   31) = (   0.7074161  -0.3533403  -0.3531323), wk =   0.0625000
        k(   32) = (   0.1766438  -0.8840098   0.1768372), wk =   0.0625000
        k(   33) = (   0.3535679  -0.7071200   0.0001807), wk =   0.0625000
        k(   34) = (  -0.0001358   0.0001065  -0.7070641), wk =   0.0312500
        k(   35) = (   0.1767883   0.1769963  -0.8837206), wk =   0.0625000
        k(   36) = (  -0.3539840  -0.3536732  -0.3537511), wk =   0.0312500

                       cryst. coord.
        k(    1) = (   0.0000000   0.0000000   0.0000000), wk =   0.0312500
        k(    2) = (  -0.0000000  -0.0000000   0.2500000), wk =   0.0625000
        k(    3) = (   0.0000000   0.0000000  -0.5000000), wk =   0.0312500
        k(    4) = (   0.0000000   0.2500000  -0.0000000), wk =   0.0625000
        k(    5) = (  -0.0000000   0.2500000   0.2500000), wk =   0.0625000
        k(    6) = (   0.0000000   0.2500000  -0.5000000), wk =   0.0625000
        k(    7) = (   0.0000000   0.2500000  -0.2500000), wk =   0.0625000
        k(    8) = (   0.0000000  -0.5000000   0.0000000), wk =   0.0312500
        k(    9) = (   0.0000000  -0.5000000   0.2500000), wk =   0.0625000
        k(   10) = (   0.0000000  -0.5000000  -0.5000000), wk =   0.0312500
        k(   11) = (   0.2500000   0.0000000  -0.0000000), wk =   0.0625000
        k(   12) = (   0.2500000  -0.0000000   0.2500000), wk =   0.0625000
        k(   13) = (   0.2500000   0.0000000  -0.5000000), wk =   0.0625000
        k(   14) = (   0.2500000   0.0000000  -0.2500000), wk =   0.0625000
        k(   15) = (   0.2500000   0.2500000  -0.0000000), wk =   0.0625000
        k(   16) = (   0.2500000   0.2500000   0.2500000), wk =   0.0625000
        k(   17) = (   0.2500000   0.2500000  -0.5000000), wk =   0.0625000
        k(   18) = (   0.2500000   0.2500000  -0.2500000), wk =   0.0625000
        k(   19) = (   0.2500000  -0.5000000  -0.0000000), wk =   0.0625000
        k(   20) = (   0.2500000  -0.5000000   0.2500000), wk =   0.0625000
        k(   21) = (   0.2500000  -0.5000000  -0.5000000), wk =   0.0625000
        k(   22) = (   0.2500000  -0.5000000  -0.2500000), wk =   0.0625000
        k(   23) = (   0.2500000  -0.2500000  -0.0000000), wk =   0.0625000
        k(   24) = (   0.2500000  -0.2500000   0.2500000), wk =   0.0625000
        k(   25) = (   0.2500000  -0.2500000  -0.5000000), wk =   0.0625000
        k(   26) = (   0.2500000  -0.2500000  -0.2500000), wk =   0.0625000
        k(   27) = (  -0.5000000   0.0000000   0.0000000), wk =   0.0312500
        k(   28) = (  -0.5000000  -0.0000000   0.2500000), wk =   0.0625000
        k(   29) = (  -0.5000000   0.0000000  -0.5000000), wk =   0.0312500
        k(   30) = (  -0.5000000   0.2500000  -0.0000000), wk =   0.0625000
        k(   31) = (  -0.5000000   0.2500000   0.2500000), wk =   0.0625000
        k(   32) = (  -0.5000000   0.2500000  -0.5000000), wk =   0.0625000
        k(   33) = (  -0.5000000   0.2500000  -0.2500000), wk =   0.0625000
        k(   34) = (  -0.5000000  -0.5000000   0.0000000), wk =   0.0312500
        k(   35) = (  -0.5000000  -0.5000000   0.2500000), wk =   0.0625000
        k(   36) = (  -0.5000000  -0.5000000  -0.5000000), wk =   0.0312500

     Dense  grid:   109795 G-vectors     FFT dimensions: (  72,  72,  72)

     Smooth grid:    64113 G-vectors     FFT dimensions: (  60,  60,  60)

     Largest allocated arrays     est. size (Mb)     dimensions
        Kohn-Sham Wavefunctions         2.66 Mb     (    2024,   86)
        NL pseudopotentials             8.89 Mb     (    2024,  288)
        Each V/rho on FFT grid          1.42 Mb     (   93312)
        Each G-vector array             0.21 Mb     (   27449)
        G-vector shells                 0.21 Mb     (   27030)
     Largest temporary arrays     est. size (Mb)     dimensions
        Auxiliary wavefunctions        10.62 Mb     (    2024,  344)
        Each subspace H/S matrix        1.81 Mb     (     344,  344)
        Each <psi_i|beta_j> matrix      0.38 Mb     (     288,   86)
        Arrays for rho mixing          11.39 Mb     (   93312,    8)

     Check: negative/imaginary core charge=   -0.000001    0.000000

     Initial potential from superposition of free atoms

     starting charge  143.98835, renormalised to  144.00000
     Starting wfc are  104 randomized atomic wfcs

     total cpu time spent up to now is       59.8 secs

     Self-consistent Calculation

     iteration #  1     ecut=    35.00 Ry     beta=0.30
     Davidson diagonalization with overlap
     ethr =  1.00E-02,  avg # of iterations =  3.0

     Threshold (ethr) on eigenvalues was too large:
     Diagonalizing with lowered threshold

     Davidson diagonalization with overlap
     ethr =  2.41E-04,  avg # of iterations =  4.8

     total cpu time spent up to now is      338.8 secs

     total energy              =   -1781.96159489 Ry
     Harris-Foulkes estimate   =   -1781.99803290 Ry
     estimated scf accuracy    <       0.34759656 Ry

     iteration #  2     ecut=    35.00 Ry     beta=0.30
     Davidson diagonalization with overlap
     ethr =  2.41E-04,  avg # of iterations =  1.0

     total cpu time spent up to now is      475.5 secs

     total energy              =   -1781.89314610 Ry
     Harris-Foulkes estimate   =   -1781.96353270 Ry
     estimated scf accuracy    <       0.21413872 Ry

     iteration #  3     ecut=    35.00 Ry     beta=0.30
     Davidson diagonalization with overlap
     ethr =  1.49E-04,  avg # of iterations =  2.3

     total cpu time spent up to now is      627.0 secs

     total energy              =   -1781.90621221 Ry
     Harris-Foulkes estimate   =   -1781.90617709 Ry
     estimated scf accuracy    <       0.00341717 Ry

     iteration #  4     ecut=    35.00 Ry     beta=0.30
     Davidson diagonalization with overlap
     ethr =  2.37E-06,  avg # of iterations =  8.0

     total cpu time spent up to now is      919.1 secs

     total energy              =   -1781.90677401 Ry
     Harris-Foulkes estimate   =   -1781.90709350 Ry
     estimated scf accuracy    <       0.00162288 Ry

     iteration #  5     ecut=    35.00 Ry     beta=0.30
     Davidson diagonalization with overlap
     ethr =  1.13E-06,  avg # of iterations =  2.0

     total cpu time spent up to now is     1062.1 secs

     total energy              =   -1781.90680828 Ry
     Harris-Foulkes estimate   =   -1781.90685453 Ry
     estimated scf accuracy    <       0.00014211 Ry

     iteration #  6     ecut=    35.00 Ry     beta=0.30
     Davidson diagonalization with overlap
     ethr =  9.87E-08,  avg # of iterations =  2.1

     total cpu time spent up to now is     1218.1 secs

     total energy              =   -1781.90681698 Ry
     Harris-Foulkes estimate   =   -1781.90682378 Ry
     estimated scf accuracy    <       0.00002403 Ry

     iteration #  7     ecut=    35.00 Ry     beta=0.30
     Davidson diagonalization with overlap
     ethr =  1.67E-08,  avg # of iterations =  2.0

     total cpu time spent up to now is     1354.8 secs

     total energy              =   -1781.90681862 Ry
     Harris-Foulkes estimate   =   -1781.90681890 Ry
     estimated scf accuracy    <       0.00000308 Ry

     iteration #  8     ecut=    35.00 Ry     beta=0.30
     Davidson diagonalization with overlap
     ethr =  2.14E-09,  avg # of iterations =  2.0

     total cpu time spent up to now is     1469.0 secs

     total energy              =   -1781.90681858 Ry
     Harris-Foulkes estimate   =   -1781.90681881 Ry
     estimated scf accuracy    <       0.00000157 Ry

     iteration #  9     ecut=    35.00 Ry     beta=0.30
     Davidson diagonalization with overlap
     ethr =  1.09E-09,  avg # of iterations =  2.0

     total cpu time spent up to now is     1594.6 secs

     total energy              =   -1781.90681878 Ry
     Harris-Foulkes estimate   =   -1781.90681875 Ry
     estimated scf accuracy    <       0.00000026 Ry

     iteration # 10     ecut=    35.00 Ry     beta=0.30
     Davidson diagonalization with overlap
     ethr =  1.82E-10,  avg # of iterations =  2.1

     total cpu time spent up to now is     1717.6 secs

     total energy              =   -1781.90681879 Ry
     Harris-Foulkes estimate   =   -1781.90681881 Ry
     estimated scf accuracy    <       0.00000010 Ry

     iteration # 11     ecut=    35.00 Ry     beta=0.30
     Davidson diagonalization with overlap
     ethr =  7.16E-11,  avg # of iterations =  2.0

     total cpu time spent up to now is     1850.1 secs

     total energy              =   -1781.90681883 Ry
     Harris-Foulkes estimate   =   -1781.90681881 Ry
     estimated scf accuracy    <          2.2E-09 Ry

     iteration # 12     ecut=    35.00 Ry     beta=0.30
     Davidson diagonalization with overlap
     ethr =  1.54E-12,  avg # of iterations =  3.0

     total cpu time spent up to now is     2057.7 secs

     total energy              =   -1781.90681884 Ry
     Harris-Foulkes estimate   =   -1781.90681883 Ry
     estimated scf accuracy    <          1.2E-09 Ry

     iteration # 13     ecut=    35.00 Ry     beta=0.30
     Davidson diagonalization with overlap
     ethr =  8.34E-13,  avg # of iterations =  2.0

     total cpu time spent up to now is     2223.6 secs

     End of self-consistent calculation

          k = 0.0000 0.0000 0.0000 (  7991 PWs)   bands (ev):

   -17.2987 -17.2931 -17.2912 -17.2633 -17.2621 -17.0733 -17.0692 -17.0580
   -17.0567 -17.0523 -17.0455 -17.0399 -17.0377 -17.0273 -17.0248 -17.0034
   -17.0009 -16.9972 -16.9901 -16.9858 -16.9794 -16.9767 -16.9743 -16.9731
   -16.9719 -16.9710 -16.9680 -16.9623 -16.9554 -16.9539 -16.9536 -16.9512
   -16.9495 -16.9445 -16.9386 -16.9345 -16.9334 -16.9323 -16.9180 -16.9168
    -5.1310  -3.1646  -2.9625  -2.8276  -2.7772  -1.6638  -1.4495  -1.3913
    -0.6860  -0.6305  -0.5377  -0.0681  -0.0057   0.1747   0.3331   4.2314
     4.2846   4.2975   4.3460   4.3773   4.4463   5.7703   5.8272   5.8823
     5.9852   6.0192   6.1472   6.2628   6.3067   7.1951   7.3628   7.6272
     7.6914   7.7357   7.9462   7.9593   8.0995   8.1675   8.1984   8.2199
     8.2506   8.3482   8.9760   9.7162   9.8343   9.9505

     occupation numbers 
     1.0000   1.0000   1.0000   1.0000   1.0000   1.0000   1.0000   1.0000
     1.0000   1.0000   1.0000   1.0000   1.0000   1.0000   1.0000   1.0000
     1.0000   1.0000   1.0000   1.0000   1.0000   1.0000   1.0000   1.0000
     1.0000   1.0000   1.0000   1.0000   1.0000   1.0000   1.0000   1.0000
     1.0000   1.0000   1.0000   1.0000   1.0000   1.0000   1.0000   1.0000
     1.0000   1.0000   1.0000   1.0000   1.0000   1.0000   1.0000   1.0000
     1.0000   1.0000   1.0000   1.0000   1.0000   1.0000   1.0000   1.0000
     1.0000   1.0000   1.0000   1.0000   1.0000   1.0000   1.0000   1.0000
     1.0000   1.0000   1.0000   1.0000   1.0000   0.9967   0.9400   0.3905
     0.2351   0.1516   0.0064   0.0050   0.0002   0.0000   0.0000   0.0000
     0.0000   0.0000   0.0000   0.0000   0.0000   0.0000

          k = 0.1769 0.1769-0.1767 (  8008 PWs)   bands (ev):

   -17.2985 -17.2929 -17.2910 -17.2632 -17.2621 -17.0730 -17.0689 -17.0577
   -17.0564 -17.0520 -17.0451 -17.0398 -17.0376 -17.0271 -17.0247 -17.0033
   -17.0008 -16.9972 -16.9901 -16.9850 -16.9788 -16.9763 -16.9742 -16.9731
   -16.9720 -16.9708 -16.9682 -16.9622 -16.9551 -16.9539 -16.9532 -16.9514
   -16.9502 -16.9446 -16.9386 -16.9346 -16.9336 -16.9325 -16.9181 -16.9169
    -4.9387  -3.5356  -2.9373  -2.8442  -2.7343  -2.1242  -1.9519  -1.8958
    -0.1103  -0.0581   0.0574   0.2372   0.3137   0.5151   1.0254   3.7029
     3.7621   3.8279   4.4574   4.4751   4.5736   4.7334   4.8131   4.8995
     5.3453   5.6278   5.6749   5.7678   6.1192   6.3599   6.9663   7.2563
     8.0520   8.0834   8.1856   8.3510   9.0486   9.0847   9.1340   9.2172
     9.2476   9.3022   9.3513  10.1849  10.3699  10.7036

     occupation numbers 
     1.0000   1.0000   1.0000   1.0000   1.0000   1.0000   1.0000   1.0000
     1.0000   1.0000   1.0000   1.0000   1.0000   1.0000   1.0000   1.0000
     1.0000   1.0000   1.0000   1.0000   1.0000   1.0000   1.0000   1.0000
     1.0000   1.0000   1.0000   1.0000   1.0000   1.0000   1.0000   1.0000
     1.0000   1.0000   1.0000   1.0000   1.0000   1.0000   1.0000   1.0000
     1.0000   1.0000   1.0000   1.0000   1.0000   1.0000   1.0000   1.0000
     1.0000   1.0000   1.0000   1.0000   1.0000   1.0000   1.0000   1.0000
     1.0000   1.0000   1.0000   1.0000   1.0000   1.0000   1.0000   1.0000
     1.0000   1.0000   1.0000   1.0000   1.0000   1.0000   1.0000   0.9891
     0.0006   0.0003   0.0000   0.0000   0.0000   0.0000   0.0000   0.0000
     0.0000   0.0000   0.0000   0.0000   0.0000   0.0000

          k =-0.3538-0.3538 0.3533 (  8034 PWs)   bands (ev):

   -17.2983 -17.2927 -17.2909 -17.2632 -17.2620 -17.0726 -17.0687 -17.0574
   -17.0561 -17.0518 -17.0449 -17.0396 -17.0376 -17.0270 -17.0246 -17.0033
   -17.0007 -16.9970 -16.9900 -16.9844 -16.9783 -16.9760 -16.9743 -16.9731
   -16.9721 -16.9705 -16.9685 -16.9621 -16.9545 -16.9541 -16.9526 -16.9519
   -16.9508 -16.9446 -16.9386 -16.9345 -16.9337 -16.9326 -16.9182 -16.9170
    -4.4822  -4.2405  -2.7465  -2.6477  -2.5994  -2.4928  -2.3846  -2.3414
     0.2781   0.3310   0.4804   0.6213   0.6629   0.7905   2.9145   3.0413
     3.4953   3.5594   3.6306   3.6693   3.6904   3.7664   4.8090   4.8525
     4.9801   5.0619   5.1720   5.2379   6.3194   6.5634   6.6237   6.7953
     8.3970   8.5927   8.6269   8.7477   8.8037   8.8291   8.8597   9.0304
    10.6500  10.8426  10.9423  11.0949  11.5268  11.6319

     occupation numbers 
     1.0000   1.0000   1.0000   1.0000   1.0000   1.0000   1.0000   1.0000
     1.0000   1.0000   1.0000   1.0000   1.0000   1.0000   1.0000   1.0000
     1.0000   1.0000   1.0000   1.0000   1.0000   1.0000   1.0000   1.0000
     1.0000   1.0000   1.0000   1.0000   1.0000   1.0000   1.0000   1.0000
     1.0000   1.0000   1.0000   1.0000   1.0000   1.0000   1.0000   1.0000
     1.0000   1.0000   1.0000   1.0000   1.0000   1.0000   1.0000   1.0000
     1.0000   1.0000   1.0000   1.0000   1.0000   1.0000   1.0000   1.0000
     1.0000   1.0000   1.0000   1.0000   1.0000   1.0000   1.0000   1.0000
     1.0000   1.0000   1.0000   1.0000   1.0000   1.0000   1.0000   1.0000
     0.0000   0.0000   0.0000   0.0000   0.0000   0.0000   0.0000   0.0000
     0.0000   0.0000   0.0000   0.0000   0.0000   0.0000

          k = 0.1769-0.1768 0.1769 (  8008 PWs)   bands (ev):

   -17.2984 -17.2929 -17.2911 -17.2633 -17.2621 -17.0730 -17.0690 -17.0575
   -17.0565 -17.0523 -17.0452 -17.0397 -17.0377 -17.0273 -17.0248 -17.0033
   -17.0005 -16.9969 -16.9899 -16.9854 -16.9793 -16.9763 -16.9739 -16.9728
   -16.9719 -16.9705 -16.9681 -16.9627 -16.9551 -16.9538 -16.9531 -16.9513
   -16.9500 -16.9446 -16.9386 -16.9347 -16.9336 -16.9325 -16.9181 -16.9169
    -4.9395  -3.5619  -3.0180  -2.7494  -2.6995  -2.1535  -1.8984  -1.8424
    -0.1844  -0.0470   0.0450   0.1644   0.2245   0.3911   1.2040   3.7515
     3.8154   3.8871   4.3996   4.4614   4.5378   4.7863   5.0000   5.0461
     5.5396   5.5899   5.6498   5.7149   6.0300   6.2285   6.9240   7.0720
     7.9305   8.0606   8.2089   8.2447   8.9975   9.0661   9.1068   9.1969
     9.2236   9.3101   9.5072  10.2097  10.3680  10.6167

     occupation numbers 
     1.0000   1.0000   1.0000   1.0000   1.0000   1.0000   1.0000   1.0000
     1.0000   1.0000   1.0000   1.0000   1.0000   1.0000   1.0000   1.0000
     1.0000   1.0000   1.0000   1.0000   1.0000   1.0000   1.0000   1.0000
     1.0000   1.0000   1.0000   1.0000   1.0000   1.0000   1.0000   1.0000
     1.0000   1.0000   1.0000   1.0000   1.0000   1.0000   1.0000   1.0000
     1.0000   1.0000   1.0000   1.0000   1.0000   1.0000   1.0000   1.0000
     1.0000   1.0000   1.0000   1.0000   1.0000   1.0000   1.0000   1.0000
     1.0000   1.0000   1.0000   1.0000   1.0000   1.0000   1.0000   1.0000
     1.0000   1.0000   1.0000   1.0000   1.0000   1.0000   1.0000   0.9998
     0.0087   0.0005   0.0000   0.0000   0.0000   0.0000   0.0000   0.0000
     0.0000   0.0000   0.0000   0.0000   0.0000   0.0000

          k = 0.3538 0.0001 0.0002 (  8028 PWs)   bands (ev):

   -17.2984 -17.2928 -17.2910 -17.2633 -17.2619 -17.0727 -17.0688 -17.0574
   -17.0564 -17.0522 -17.0452 -17.0397 -17.0377 -17.0273 -17.0247 -17.0032
   -17.0006 -16.9968 -16.9899 -16.9851 -16.9788 -16.9764 -16.9737 -16.9730
   -16.9716 -16.9704 -16.9682 -16.9627 -16.9553 -16.9534 -16.9533 -16.9510
   -16.9501 -16.9448 -16.9387 -16.9347 -16.9336 -16.9325 -16.9182 -16.9168
    -4.8723  -3.3134  -3.1141  -2.9700  -2.9019  -2.7364  -1.5041  -1.3814
    -0.5457  -0.5274   0.4275   0.5350   0.6639   0.8119   1.0942   3.7143
     3.7564   3.8235   3.8652   4.4916   4.5642   4.5957   4.6485   4.7487
     4.9017   5.5264   5.8285   5.9499   5.9950   6.1593   6.5037   6.6598
     7.8088   8.7194   8.9434   9.0469   9.1169   9.1473   9.2558   9.3007
     9.3262   9.4398   9.5344  10.5343  10.7109  10.8165

     occupation numbers 
     1.0000   1.0000   1.0000   1.0000   1.0000   1.0000   1.0000   1.0000
     1.0000   1.0000   1.0000   1.0000   1.0000   1.0000   1.0000   1.0000
     1.0000   1.0000   1.0000   1.0000   1.0000   1.0000   1.0000   1.0000
     1.0000   1.0000   1.0000   1.0000   1.0000   1.0000   1.0000   1.0000
     1.0000   1.0000   1.0000   1.0000   1.0000   1.0000   1.0000   1.0000
     1.0000   1.0000   1.0000   1.0000   1.0000   1.0000   1.0000   1.0000
     1.0000   1.0000   1.0000   1.0000   1.0000   1.0000   1.0000   1.0000
     1.0000   1.0000   1.0000   1.0000   1.0000   1.0000   1.0000   1.0000
     1.0000   1.0000   1.0000   1.0000   1.0000   1.0000   1.0000   1.0000
     0.0623   0.0000   0.0000   0.0000   0.0000   0.0000   0.0000   0.0000
     0.0000   0.0000   0.0000   0.0000   0.0000   0.0000

          k =-0.1770-0.5306 0.5302 (  8024 PWs)   bands (ev):

   -17.2983 -17.2926 -17.2908 -17.2632 -17.2619 -17.0724 -17.0686 -17.0572
   -17.0562 -17.0519 -17.0449 -17.0395 -17.0376 -17.0271 -17.0246 -17.0032
   -17.0005 -16.9968 -16.9899 -16.9845 -16.9783 -16.9761 -16.9737 -16.9729
   -16.9719 -16.9701 -16.9687 -16.9626 -16.9550 -16.9533 -16.9530 -16.9512
   -16.9507 -16.9449 -16.9387 -16.9347 -16.9337 -16.9326 -16.9182 -16.9169
    -4.4471  -3.9226  -3.4253  -3.0545  -2.8872  -2.4007  -1.9114  -1.7763
    -0.1630   0.0008   0.4589   0.8957   1.0933   1.9310   2.2901   3.1322
     3.1752   3.2147   3.6104   3.7674   3.8668   4.2227   4.3315   4.5108
     4.8734   4.9530   5.3247   5.3512   5.4802   5.9116   6.2029   6.4650
     8.4978   8.9459   9.2822   9.4583   9.6161   9.6967   9.9288  10.1029
    10.1860  10.4614  10.8120  10.9304  11.0901  11.2123

     occupation numbers 
     1.0000   1.0000   1.0000   1.0000   1.0000   1.0000   1.0000   1.0000
     1.0000   1.0000   1.0000   1.0000   1.0000   1.0000   1.0000   1.0000
     1.0000   1.0000   1.0000   1.0000   1.0000   1.0000   1.0000   1.0000
     1.0000   1.0000   1.0000   1.0000   1.0000   1.0000   1.0000   1.0000
     1.0000   1.0000   1.0000   1.0000   1.0000   1.0000   1.0000   1.0000
     1.0000   1.0000   1.0000   1.0000   1.0000   1.0000   1.0000   1.0000
     1.0000   1.0000   1.0000   1.0000   1.0000   1.0000   1.0000   1.0000
     1.0000   1.0000   1.0000   1.0000   1.0000   1.0000   1.0000   1.0000
     1.0000   1.0000   1.0000   1.0000   1.0000   1.0000   1.0000   1.0000
     0.0000   0.0000   0.0000   0.0000   0.0000   0.0000   0.0000   0.0000
     0.0000   0.0000   0.0000   0.0000   0.0000   0.0000

          k =-0.0000-0.3537 0.3535 (  8042 PWs)   bands (ev):

   -17.2983 -17.2927 -17.2908 -17.2631 -17.2621 -17.0727 -17.0687 -17.0573
   -17.0562 -17.0521 -17.0449 -17.0396 -17.0377 -17.0271 -17.0247 -17.0032
   -17.0005 -16.9969 -16.9899 -16.9848 -16.9788 -16.9759 -16.9739 -16.9727
   -16.9721 -16.9703 -16.9684 -16.9626 -16.9547 -16.9540 -16.9523 -16.9519
   -16.9506 -16.9447 -16.9385 -16.9348 -16.9338 -16.9325 -16.9181 -16.9170
    -4.6302  -3.7193  -3.5635  -2.7540  -2.5694  -2.4019  -2.2975  -1.6733
    -0.2232   0.0089   0.2151   0.7142   0.9004   1.5853   1.7928   2.9726
     3.6431   3.7544   3.8521   3.9064   4.3168   4.4249   4.5523   4.7109
     5.0139   5.1062   5.2323   5.4926   5.5588   5.6765   5.7753   6.9631
     8.3403   9.0405   9.1114   9.2404   9.3280   9.7204   9.8577   9.9315
    10.0580  10.1454  10.3312  10.5147  10.5917  10.6255

     occupation numbers 
     1.0000   1.0000   1.0000   1.0000   1.0000   1.0000   1.0000   1.0000
     1.0000   1.0000   1.0000   1.0000   1.0000   1.0000   1.0000   1.0000
     1.0000   1.0000   1.0000   1.0000   1.0000   1.0000   1.0000   1.0000
     1.0000   1.0000   1.0000   1.0000   1.0000   1.0000   1.0000   1.0000
     1.0000   1.0000   1.0000   1.0000   1.0000   1.0000   1.0000   1.0000
     1.0000   1.0000   1.0000   1.0000   1.0000   1.0000   1.0000   1.0000
     1.0000   1.0000   1.0000   1.0000   1.0000   1.0000   1.0000   1.0000
     1.0000   1.0000   1.0000   1.0000   1.0000   1.0000   1.0000   1.0000
     1.0000   1.0000   1.0000   1.0000   1.0000   1.0000   1.0000   1.0000
     0.0000   0.0000   0.0000   0.0000   0.0000   0.0000   0.0000   0.0000
     0.0000   0.0000   0.0000   0.0000   0.0000   0.0000

          k =-0.3538 0.3536-0.3537 (  8030 PWs)   bands (ev):

   -17.2984 -17.2926 -17.2908 -17.2632 -17.2621 -17.0726 -17.0687 -17.0572
   -17.0561 -17.0524 -17.0449 -17.0395 -17.0378 -17.0273 -17.0248 -17.0030
   -17.0001 -16.9967 -16.9898 -16.9851 -16.9791 -16.9759 -16.9734 -16.9727
   -16.9720 -16.9694 -16.9687 -16.9631 -16.9548 -16.9540 -16.9523 -16.9517
   -16.9505 -16.9449 -16.9385 -16.9348 -16.9337 -16.9326 -16.9182 -16.9170
    -4.4622  -4.2879  -2.8255  -2.6530  -2.5416  -2.4826  -2.3037  -2.2462
     0.1724   0.3738   0.3899   0.5060   0.5310   0.6977   2.9368   3.1195
     3.5674   3.6568   3.7711   3.8054   3.9226   4.0333   4.7908   4.8504
     4.9469   4.9816   5.0793   5.1836   6.2272   6.5408   6.5725   6.6158
     8.3550   8.5440   8.6115   8.6462   8.6862   8.7143   8.7737   9.0041
    10.5995  10.8465  10.9139  10.9982  11.4852  11.5896

     occupation numbers 
     1.0000   1.0000   1.0000   1.0000   1.0000   1.0000   1.0000   1.0000
     1.0000   1.0000   1.0000   1.0000   1.0000   1.0000   1.0000   1.0000
     1.0000   1.0000   1.0000   1.0000   1.0000   1.0000   1.0000   1.0000
     1.0000   1.0000   1.0000   1.0000   1.0000   1.0000   1.0000   1.0000
     1.0000   1.0000   1.0000   1.0000   1.0000   1.0000   1.0000   1.0000
     1.0000   1.0000   1.0000   1.0000   1.0000   1.0000   1.0000   1.0000
     1.0000   1.0000   1.0000   1.0000   1.0000   1.0000   1.0000   1.0000
     1.0000   1.0000   1.0000   1.0000   1.0000   1.0000   1.0000   1.0000
     1.0000   1.0000   1.0000   1.0000   1.0000   1.0000   1.0000   1.0000
     0.0000   0.0000   0.0000   0.0000   0.0000   0.0000   0.0000   0.0000
     0.0000   0.0000   0.0000   0.0000   0.0000   0.0000

          k =-0.1768 0.5304-0.5304 (  8025 PWs)   bands (ev):

   -17.2983 -17.2925 -17.2908 -17.2632 -17.2619 -17.0725 -17.0686 -17.0571
   -17.0562 -17.0522 -17.0450 -17.0395 -17.0377 -17.0272 -17.0248 -17.0031
   -17.0002 -16.9966 -16.9898 -16.9849 -16.9787 -16.9761 -16.9733 -16.9728
   -16.9718 -16.9695 -16.9688 -16.9632 -16.9551 -16.9533 -16.9529 -16.9510
   -16.9506 -16.9450 -16.9387 -16.9348 -16.9337 -16.9326 -16.9182 -16.9169
    -4.4436  -3.9577  -3.3931  -3.0750  -2.8843  -2.3529  -1.8894  -1.7568
    -0.1675  -0.0156   0.2875   0.8806   1.0848   1.8031   2.3821   3.0497
     3.2618   3.3848   3.7451   3.8620   3.9655   4.1988   4.2973   4.6261
     4.8562   4.9251   5.2940   5.3296   5.4580   5.8602   5.9849   6.4833
     8.4801   8.9309   9.2633   9.4413   9.5156   9.6400   9.9536  10.0069
    10.2580  10.4252  10.7148  10.8318  11.0060  11.1832

     occupation numbers 
     1.0000   1.0000   1.0000   1.0000   1.0000   1.0000   1.0000   1.0000
     1.0000   1.0000   1.0000   1.0000   1.0000   1.0000   1.0000   1.0000
     1.0000   1.0000   1.0000   1.0000   1.0000   1.0000   1.0000   1.0000
     1.0000   1.0000   1.0000   1.0000   1.0000   1.0000   1.0000   1.0000
     1.0000   1.0000   1.0000   1.0000   1.0000   1.0000   1.0000   1.0000
     1.0000   1.0000   1.0000   1.0000   1.0000   1.0000   1.0000   1.0000
     1.0000   1.0000   1.0000   1.0000   1.0000   1.0000   1.0000   1.0000
     1.0000   1.0000   1.0000   1.0000   1.0000   1.0000   1.0000   1.0000
     1.0000   1.0000   1.0000   1.0000   1.0000   1.0000   1.0000   1.0000
     0.0000   0.0000   0.0000   0.0000   0.0000   0.0000   0.0000   0.0000
     0.0000   0.0000   0.0000   0.0000   0.0000   0.0000

          k =-0.7076-0.0002-0.0004 (  7996 PWs)   bands (ev):

   -17.2981 -17.2924 -17.2907 -17.2631 -17.2616 -17.0722 -17.0684 -17.0568
   -17.0561 -17.0520 -17.0449 -17.0394 -17.0375 -17.0271 -17.0246 -17.0029
   -17.0003 -16.9964 -16.9897 -16.9845 -16.9782 -16.9762 -16.9730 -16.9727
   -16.9714 -16.9696 -16.9686 -16.9632 -16.9550 -16.9530 -16.9527 -16.9510
   -16.9502 -16.9450 -16.9387 -16.9348 -16.9336 -16.9325 -16.9182 -16.9167
    -4.2037  -4.0071  -3.3797  -3.1755  -3.0686  -2.9744  -1.4500  -1.3285
    -0.4476  -0.4230   1.1919   1.3871   1.4097   1.4688   3.0759   3.2055
     3.3270   3.3660   3.4000   3.4354   3.4893   3.5076   3.5811   3.6946
     5.1406   5.2743   5.4132   5.4751   5.8847   5.9209   5.9791   6.1435
     8.2670   8.3326   9.4125   9.4713   9.5121   9.6525  10.2727  10.3308
    11.4834  11.6117  11.6245  11.7064  11.7967  11.8440

     occupation numbers 
     1.0000   1.0000   1.0000   1.0000   1.0000   1.0000   1.0000   1.0000
     1.0000   1.0000   1.0000   1.0000   1.0000   1.0000   1.0000   1.0000
     1.0000   1.0000   1.0000   1.0000   1.0000   1.0000   1.0000   1.0000
     1.0000   1.0000   1.0000   1.0000   1.0000   1.0000   1.0000   1.0000
     1.0000   1.0000   1.0000   1.0000   1.0000   1.0000   1.0000   1.0000
     1.0000   1.0000   1.0000   1.0000   1.0000   1.0000   1.0000   1.0000
     1.0000   1.0000   1.0000   1.0000   1.0000   1.0000   1.0000   1.0000
     1.0000   1.0000   1.0000   1.0000   1.0000   1.0000   1.0000   1.0000
     1.0000   1.0000   1.0000   1.0000   1.0000   1.0000   1.0000   1.0000
     0.0000   0.0000   0.0000   0.0000   0.0000   0.0000   0.0000   0.0000
     0.0000   0.0000   0.0000   0.0000   0.0000   0.0000

          k =-0.1768 0.1767 0.1767 (  8002 PWs)   bands (ev):

   -17.2985 -17.2928 -17.2910 -17.2633 -17.2621 -17.0729 -17.0690 -17.0577
   -17.0564 -17.0522 -17.0452 -17.0398 -17.0377 -17.0273 -17.0247 -17.0027
   -17.0008 -16.9969 -16.9900 -16.9853 -16.9791 -16.9763 -16.9741 -16.9731
   -16.9715 -16.9705 -16.9682 -16.9625 -16.9555 -16.9538 -16.9534 -16.9512
   -16.9498 -16.9447 -16.9386 -16.9346 -16.9336 -16.9325 -16.9183 -16.9169
    -4.9348  -3.5249  -2.9948  -2.8528  -2.7025  -2.1350  -1.9729  -1.8577
    -0.0925  -0.0000   0.0662   0.1932   0.3584   0.5374   0.9638   3.6634
     3.7185   3.7475   4.4868   4.5091   4.5933   4.6826   4.7519   4.8646
     5.3753   5.6632   5.7125   5.8306   6.1372   6.3214   7.0208   7.2513
     8.0775   8.1120   8.2797   8.4154   8.9901   9.0815   9.1050   9.1705
     9.2448   9.2920   9.3914  10.2049  10.3372  10.7137

     occupation numbers 
     1.0000   1.0000   1.0000   1.0000   1.0000   1.0000   1.0000   1.0000
     1.0000   1.0000   1.0000   1.0000   1.0000   1.0000   1.0000   1.0000
     1.0000   1.0000   1.0000   1.0000   1.0000   1.0000   1.0000   1.0000
     1.0000   1.0000   1.0000   1.0000   1.0000   1.0000   1.0000   1.0000
     1.0000   1.0000   1.0000   1.0000   1.0000   1.0000   1.0000   1.0000
     1.0000   1.0000   1.0000   1.0000   1.0000   1.0000   1.0000   1.0000
     1.0000   1.0000   1.0000   1.0000   1.0000   1.0000   1.0000   1.0000
     1.0000   1.0000   1.0000   1.0000   1.0000   1.0000   1.0000   1.0000
     1.0000   1.0000   1.0000   1.0000   1.0000   1.0000   1.0000   0.9900
     0.0003   0.0001   0.0000   0.0000   0.0000   0.0000   0.0000   0.0000
     0.0000   0.0000   0.0000   0.0000   0.0000   0.0000

          k = 0.0001 0.3536 0.0000 (  8033 PWs)   bands (ev):

   -17.2985 -17.2927 -17.2910 -17.2631 -17.2621 -17.0730 -17.0690 -17.0575
   -17.0564 -17.0520 -17.0451 -17.0396 -17.0376 -17.0270 -17.0247 -17.0027
   -17.0007 -16.9970 -16.9901 -16.9854 -16.9789 -16.9761 -16.9742 -16.9729
   -16.9718 -16.9706 -16.9680 -16.9625 -16.9552 -16.9540 -16.9531 -16.9512
   -16.9497 -16.9448 -16.9386 -16.9346 -16.9336 -16.9324 -16.9182 -16.9169
    -4.8723  -3.3066  -3.1091  -3.0119  -2.8700  -2.7439  -1.4929  -1.3778
    -0.5642  -0.4885   0.4109   0.4955   0.6370   0.7933   1.1655   3.7155
     3.7680   3.8122   3.8506   4.5072   4.5374   4.6142   4.6735   4.7324
     4.8894   5.6027   5.8204   5.8807   5.9782   6.2269   6.4523   6.6623
     7.8181   8.7359   8.9626   9.0629   9.1097   9.1676   9.2342   9.2779
     9.3546   9.4038   9.5014  10.5482  10.7733  10.8323

     occupation numbers 
     1.0000   1.0000   1.0000   1.0000   1.0000   1.0000   1.0000   1.0000
     1.0000   1.0000   1.0000   1.0000   1.0000   1.0000   1.0000   1.0000
     1.0000   1.0000   1.0000   1.0000   1.0000   1.0000   1.0000   1.0000
     1.0000   1.0000   1.0000   1.0000   1.0000   1.0000   1.0000   1.0000
     1.0000   1.0000   1.0000   1.0000   1.0000   1.0000   1.0000   1.0000
     1.0000   1.0000   1.0000   1.0000   1.0000   1.0000   1.0000   1.0000
     1.0000   1.0000   1.0000   1.0000   1.0000   1.0000   1.0000   1.0000
     1.0000   1.0000   1.0000   1.0000   1.0000   1.0000   1.0000   1.0000
     1.0000   1.0000   1.0000   1.0000   1.0000   1.0000   1.0000   1.0000
     0.0547   0.0000   0.0000   0.0000   0.0000   0.0000   0.0000   0.0000
     0.0000   0.0000   0.0000   0.0000   0.0000   0.0000

          k =-0.5307-0.1771 0.5300 (  8029 PWs)   bands (ev):

   -17.2983 -17.2926 -17.2908 -17.2631 -17.2620 -17.0727 -17.0688 -17.0573
   -17.0561 -17.0517 -17.0448 -17.0395 -17.0375 -17.0268 -17.0245 -17.0027
   -17.0006 -16.9970 -16.9900 -16.9848 -16.9784 -16.9756 -16.9742 -16.9731
   -16.9719 -16.9704 -16.9682 -16.9624 -16.9546 -16.9540 -16.9524 -16.9518
   -16.9502 -16.9449 -16.9386 -16.9347 -16.9336 -16.9325 -16.9183 -16.9170
    -4.4498  -3.9084  -3.4299  -3.0640  -2.9409  -2.2925  -1.9142  -1.8216
    -0.0881   0.0568   0.1608   1.0714   1.1764   1.8626   2.2134   3.0727
     3.1679   3.2600   3.6305   3.8397   3.9462   4.2551   4.2810   4.5140
     4.8602   5.0509   5.1747   5.2557   5.4707   5.9032   6.0832   6.6792
     8.5980   9.0858   9.3137   9.4787   9.5399   9.6211   9.9613  10.0897
    10.1160  10.5472  10.6420  10.7036  10.9103  11.3144

     occupation numbers 
     1.0000   1.0000   1.0000   1.0000   1.0000   1.0000   1.0000   1.0000
     1.0000   1.0000   1.0000   1.0000   1.0000   1.0000   1.0000   1.0000
     1.0000   1.0000   1.0000   1.0000   1.0000   1.0000   1.0000   1.0000
     1.0000   1.0000   1.0000   1.0000   1.0000   1.0000   1.0000   1.0000
     1.0000   1.0000   1.0000   1.0000   1.0000   1.0000   1.0000   1.0000
     1.0000   1.0000   1.0000   1.0000   1.0000   1.0000   1.0000   1.0000
     1.0000   1.0000   1.0000   1.0000   1.0000   1.0000   1.0000   1.0000
     1.0000   1.0000   1.0000   1.0000   1.0000   1.0000   1.0000   1.0000
     1.0000   1.0000   1.0000   1.0000   1.0000   1.0000   1.0000   1.0000
     0.0000   0.0000   0.0000   0.0000   0.0000   0.0000   0.0000   0.0000
     0.0000   0.0000   0.0000   0.0000   0.0000   0.0000

          k =-0.3537-0.0002 0.3533 (  8038 PWs)   bands (ev):

   -17.2983 -17.2927 -17.2908 -17.2633 -17.2620 -17.0727 -17.0687 -17.0575
   -17.0561 -17.0520 -17.0449 -17.0398 -17.0375 -17.0272 -17.0245 -17.0026
   -17.0007 -16.9969 -16.9901 -16.9846 -16.9786 -16.9758 -16.9741 -16.9732
   -16.9717 -16.9703 -16.9686 -16.9625 -16.9551 -16.9535 -16.9531 -16.9514
   -16.9505 -16.9449 -16.9386 -16.9346 -16.9336 -16.9327 -16.9183 -16.9169
    -4.6200  -3.7138  -3.5575  -2.7220  -2.6226  -2.4525  -2.3627  -1.6005
    -0.3683   0.1763   0.3378   0.8712   0.9691   1.5340   1.6924   2.9007
     3.5482   3.6030   3.8169   3.8537   4.1775   4.3518   4.4419   4.8332
     5.0089   5.0994   5.2942   5.3636   5.6951   5.7276   5.8939   7.2146
     8.5139   9.0759   9.1849   9.3001   9.3902   9.7299   9.8219   9.8691
    10.0137  10.0813  10.3502  10.5123  10.5820  10.8225

     occupation numbers 
     1.0000   1.0000   1.0000   1.0000   1.0000   1.0000   1.0000   1.0000
     1.0000   1.0000   1.0000   1.0000   1.0000   1.0000   1.0000   1.0000
     1.0000   1.0000   1.0000   1.0000   1.0000   1.0000   1.0000   1.0000
     1.0000   1.0000   1.0000   1.0000   1.0000   1.0000   1.0000   1.0000
     1.0000   1.0000   1.0000   1.0000   1.0000   1.0000   1.0000   1.0000
     1.0000   1.0000   1.0000   1.0000   1.0000   1.0000   1.0000   1.0000
     1.0000   1.0000   1.0000   1.0000   1.0000   1.0000   1.0000   1.0000
     1.0000   1.0000   1.0000   1.0000   1.0000   1.0000   1.0000   1.0000
     1.0000   1.0000   1.0000   1.0000   1.0000   1.0000   1.0000   0.9951
     0.0000   0.0000   0.0000   0.0000   0.0000   0.0000   0.0000   0.0000
     0.0000   0.0000   0.0000   0.0000   0.0000   0.0000

          k = 0.0001-0.0001 0.3535 (  8035 PWs)   bands (ev):

   -17.2984 -17.2929 -17.2909 -17.2632 -17.2620 -17.0729 -17.0688 -17.0576
   -17.0563 -17.0523 -17.0449 -17.0398 -17.0376 -17.0273 -17.0246 -17.0027
   -17.0008 -16.9967 -16.9901 -16.9851 -16.9791 -16.9759 -16.9738 -16.9730
   -16.9721 -16.9709 -16.9684 -16.9621 -16.9550 -16.9539 -16.9531 -16.9512
   -16.9499 -16.9448 -16.9386 -16.9347 -16.9335 -16.9325 -16.9182 -16.9169
    -4.8740  -3.3033  -3.0672  -2.9983  -2.9344  -2.7345  -1.5517  -1.3321
    -0.5894  -0.4607   0.4310   0.5141   0.6576   0.8015   1.1065   3.7109
     3.7452   3.8211   3.8793   4.5147   4.5539   4.5922   4.6598   4.7283
     4.8663   5.5345   5.8291   5.9269   6.0120   6.2155   6.5196   6.6275
     7.8246   8.7364   8.9332   9.0215   9.1195   9.1686   9.2636   9.2919
     9.3588   9.4127   9.5156  10.5470  10.7790  10.8378

     occupation numbers 
     1.0000   1.0000   1.0000   1.0000   1.0000   1.0000   1.0000   1.0000
     1.0000   1.0000   1.0000   1.0000   1.0000   1.0000   1.0000   1.0000
     1.0000   1.0000   1.0000   1.0000   1.0000   1.0000   1.0000   1.0000
     1.0000   1.0000   1.0000   1.0000   1.0000   1.0000   1.0000   1.0000
     1.0000   1.0000   1.0000   1.0000   1.0000   1.0000   1.0000   1.0000
     1.0000   1.0000   1.0000   1.0000   1.0000   1.0000   1.0000   1.0000
     1.0000   1.0000   1.0000   1.0000   1.0000   1.0000   1.0000   1.0000
     1.0000   1.0000   1.0000   1.0000   1.0000   1.0000   1.0000   1.0000
     1.0000   1.0000   1.0000   1.0000   1.0000   1.0000   1.0000   1.0000
     0.0500   0.0000   0.0000   0.0000   0.0000   0.0000   0.0000   0.0000
     0.0000   0.0000   0.0000   0.0000   0.0000   0.0000

          k = 0.1770 0.1768 0.1769 (  8010 PWs)   bands (ev):

   -17.2985 -17.2929 -17.2910 -17.2633 -17.2621 -17.0729 -17.0689 -17.0576
   -17.0565 -17.0522 -17.0452 -17.0398 -17.0378 -17.0272 -17.0248 -17.0027
   -17.0009 -16.9968 -16.9901 -16.9855 -16.9790 -16.9763 -16.9739 -16.9731
   -16.9720 -16.9710 -16.9680 -16.9621 -16.9553 -16.9538 -16.9535 -16.9508
   -16.9494 -16.9449 -16.9387 -16.9348 -16.9336 -16.9325 -16.9183 -16.9169
    -4.9387  -3.5529  -2.9412  -2.8281  -2.7274  -2.1117  -1.9738  -1.8390
    -0.1725  -0.0669   0.0557   0.1443   0.2846   0.5695   1.0849   3.7173
     3.8027   3.8336   4.4418   4.4787   4.5329   4.7635   4.9028   4.9757
     5.4711   5.5825   5.6409   5.7442   6.0642   6.2676   6.9222   7.2728
     8.0039   8.0725   8.1668   8.2945   8.9946   9.0906   9.1247   9.1797
     9.2432   9.3487   9.4015  10.1644  10.3475  10.6434

     occupation numbers 
     1.0000   1.0000   1.0000   1.0000   1.0000   1.0000   1.0000   1.0000
     1.0000   1.0000   1.0000   1.0000   1.0000   1.0000   1.0000   1.0000
     1.0000   1.0000   1.0000   1.0000   1.0000   1.0000   1.0000   1.0000
     1.0000   1.0000   1.0000   1.0000   1.0000   1.0000   1.0000   1.0000
     1.0000   1.0000   1.0000   1.0000   1.0000   1.0000   1.0000   1.0000
     1.0000   1.0000   1.0000   1.0000   1.0000   1.0000   1.0000   1.0000
     1.0000   1.0000   1.0000   1.0000   1.0000   1.0000   1.0000   1.0000
     1.0000   1.0000   1.0000   1.0000   1.0000   1.0000   1.0000   1.0000
     1.0000   1.0000   1.0000   1.0000   1.0000   1.0000   1.0000   0.9853
     0.0019   0.0004   0.0000   0.0000   0.0000   0.0000   0.0000   0.0000
     0.0000   0.0000   0.0000   0.0000   0.0000   0.0000

          k =-0.3538-0.3538 0.7068 (  8038 PWs)   bands (ev):

   -17.2984 -17.2927 -17.2908 -17.2632 -17.2620 -17.0727 -17.0687 -17.0573
   -17.0562 -17.0520 -17.0449 -17.0396 -17.0377 -17.0270 -17.0247 -17.0027
   -17.0008 -16.9968 -16.9902 -16.9849 -16.9785 -16.9759 -16.9739 -16.9731
   -16.9721 -16.9708 -16.9683 -16.9620 -16.9550 -16.9538 -16.9531 -16.9510
   -16.9501 -16.9450 -16.9386 -16.9348 -16.9337 -16.9325 -16.9184 -16.9170
    -4.6276  -3.7542  -3.4986  -2.7099  -2.6745  -2.4590  -2.2490  -1.6546
    -0.2943   0.0325   0.2524   0.8227   0.9805   1.5445   1.7515   2.9546
     3.6420   3.6779   3.8250   3.9171   4.2245   4.4497   4.4830   4.7403
     4.9608   5.1435   5.2714   5.3454   5.5212   5.7147   5.9285   7.1082
     8.3885   9.0685   9.1055   9.2111   9.3738   9.7112   9.8440   9.9336
    10.0474  10.1361  10.3794  10.4368  10.5919  10.7051

     occupation numbers 
     1.0000   1.0000   1.0000   1.0000   1.0000   1.0000   1.0000   1.0000
     1.0000   1.0000   1.0000   1.0000   1.0000   1.0000   1.0000   1.0000
     1.0000   1.0000   1.0000   1.0000   1.0000   1.0000   1.0000   1.0000
     1.0000   1.0000   1.0000   1.0000   1.0000   1.0000   1.0000   1.0000
     1.0000   1.0000   1.0000   1.0000   1.0000   1.0000   1.0000   1.0000
     1.0000   1.0000   1.0000   1.0000   1.0000   1.0000   1.0000   1.0000
     1.0000   1.0000   1.0000   1.0000   1.0000   1.0000   1.0000   1.0000
     1.0000   1.0000   1.0000   1.0000   1.0000   1.0000   1.0000   1.0000
     1.0000   1.0000   1.0000   1.0000   1.0000   1.0000   1.0000   0.9995
     0.0000   0.0000   0.0000   0.0000   0.0000   0.0000   0.0000   0.0000
     0.0000   0.0000   0.0000   0.0000   0.0000   0.0000

          k =-0.1769-0.1769 0.5302 (  8024 PWs)   bands (ev):

   -17.2982 -17.2928 -17.2907 -17.2631 -17.2620 -17.0726 -17.0685 -17.0573
   -17.0560 -17.0521 -17.0446 -17.0396 -17.0376 -17.0271 -17.0246 -17.0027
   -17.0007 -16.9967 -16.9902 -16.9844 -16.9786 -16.9755 -16.9739 -16.9730
   -16.9722 -16.9705 -16.9688 -16.9621 -16.9544 -16.9540 -16.9523 -16.9518
   -16.9505 -16.9449 -16.9385 -16.9347 -16.9337 -16.9325 -16.9183 -16.9169
    -4.4533  -3.9161  -3.3951  -3.0460  -2.9620  -2.3402  -1.9485  -1.7684
    -0.1381   0.0655   0.2870   0.9808   1.1509   1.8810   2.2735   3.0639
     3.1863   3.2420   3.5910   3.8328   3.9008   4.2035   4.3348   4.5222
     4.8379   4.9611   5.2958   5.3699   5.4363   5.9493   6.1038   6.5807
     8.5120   8.9761   9.3224   9.4871   9.5615   9.6628   9.9473  10.1533
    10.2100  10.5030  10.7135  10.8389  11.0020  11.2851

     occupation numbers 
     1.0000   1.0000   1.0000   1.0000   1.0000   1.0000   1.0000   1.0000
     1.0000   1.0000   1.0000   1.0000   1.0000   1.0000   1.0000   1.0000
     1.0000   1.0000   1.0000   1.0000   1.0000   1.0000   1.0000   1.0000
     1.0000   1.0000   1.0000   1.0000   1.0000   1.0000   1.0000   1.0000
     1.0000   1.0000   1.0000   1.0000   1.0000   1.0000   1.0000   1.0000
     1.0000   1.0000   1.0000   1.0000   1.0000   1.0000   1.0000   1.0000
     1.0000   1.0000   1.0000   1.0000   1.0000   1.0000   1.0000   1.0000
     1.0000   1.0000   1.0000   1.0000   1.0000   1.0000   1.0000   1.0000
     1.0000   1.0000   1.0000   1.0000   1.0000   1.0000   1.0000   1.0000
     0.0000   0.0000   0.0000   0.0000   0.0000   0.0000   0.0000   0.0000
     0.0000   0.0000   0.0000   0.0000   0.0000   0.0000

          k =-0.5306 0.5303-0.1771 (  8028 PWs)   bands (ev):

   -17.2982 -17.2928 -17.2907 -17.2631 -17.2620 -17.0726 -17.0685 -17.0572
   -17.0561 -17.0524 -17.0447 -17.0396 -17.0377 -17.0272 -17.0247 -17.0025
   -17.0005 -16.9965 -16.9900 -16.9848 -16.9790 -16.9756 -16.9733 -16.9729
   -16.9720 -16.9704 -16.9687 -16.9625 -16.9546 -16.9539 -16.9522 -16.9517
   -16.9504 -16.9450 -16.9386 -16.9348 -16.9337 -16.9325 -16.9183 -16.9170
    -4.4519  -3.9359  -3.4131  -3.0894  -2.8503  -2.3508  -1.9592  -1.7049
    -0.1196  -0.0230   0.2135   0.9485   1.0820   1.7897   2.3389   3.0858
     3.2607   3.3994   3.7030   3.8165   4.0575   4.2216   4.2521   4.6126
     4.8112   5.0027   5.1963   5.3504   5.4617   5.8648   5.9971   6.5240
     8.5511   9.0095   9.2273   9.4111   9.5148   9.6173   9.9126  10.0274
    10.1844  10.4327  10.6481  10.8642  10.9366  11.2038

     occupation numbers 
     1.0000   1.0000   1.0000   1.0000   1.0000   1.0000   1.0000   1.0000
     1.0000   1.0000   1.0000   1.0000   1.0000   1.0000   1.0000   1.0000
     1.0000   1.0000   1.0000   1.0000   1.0000   1.0000   1.0000   1.0000
     1.0000   1.0000   1.0000   1.0000   1.0000   1.0000   1.0000   1.0000
     1.0000   1.0000   1.0000   1.0000   1.0000   1.0000   1.0000   1.0000
     1.0000   1.0000   1.0000   1.0000   1.0000   1.0000   1.0000   1.0000
     1.0000   1.0000   1.0000   1.0000   1.0000   1.0000   1.0000   1.0000
     1.0000   1.0000   1.0000   1.0000   1.0000   1.0000   1.0000   1.0000
     1.0000   1.0000   1.0000   1.0000   1.0000   1.0000   1.0000   1.0000
     0.0000   0.0000   0.0000   0.0000   0.0000   0.0000   0.0000   0.0000
     0.0000   0.0000   0.0000   0.0000   0.0000   0.0000

          k =-0.3536 0.7072-0.3537 (  8039 PWs)   bands (ev):

   -17.2983 -17.2928 -17.2908 -17.2633 -17.2620 -17.0727 -17.0687 -17.0572
   -17.0562 -17.0523 -17.0449 -17.0397 -17.0377 -17.0273 -17.0248 -17.0026
   -17.0006 -16.9965 -16.9900 -16.9853 -16.9789 -16.9758 -16.9735 -16.9730
   -16.9719 -16.9704 -16.9683 -16.9626 -16.9550 -16.9538 -16.9530 -16.9509
   -16.9498 -16.9451 -16.9387 -16.9349 -16.9336 -16.9327 -16.9184 -16.9170
    -4.6292  -3.7386  -3.5609  -2.7201  -2.6031  -2.4014  -2.2284  -1.7077
    -0.1984   0.0056   0.1353   0.6995   0.8533   1.6418   1.7900   2.9920
     3.6419   3.6939   3.9330   4.0091   4.3283   4.4891   4.5615   4.7030
     4.9874   5.0897   5.3284   5.4220   5.5257   5.6236   5.7782   6.8887
     8.3137   9.0278   9.1491   9.1968   9.2612   9.6982   9.7704   9.9502
    10.1048  10.2058  10.3726  10.4887  10.5439  10.5953

     occupation numbers 
     1.0000   1.0000   1.0000   1.0000   1.0000   1.0000   1.0000   1.0000
     1.0000   1.0000   1.0000   1.0000   1.0000   1.0000   1.0000   1.0000
     1.0000   1.0000   1.0000   1.0000   1.0000   1.0000   1.0000   1.0000
     1.0000   1.0000   1.0000   1.0000   1.0000   1.0000   1.0000   1.0000
     1.0000   1.0000   1.0000   1.0000   1.0000   1.0000   1.0000   1.0000
     1.0000   1.0000   1.0000   1.0000   1.0000   1.0000   1.0000   1.0000
     1.0000   1.0000   1.0000   1.0000   1.0000   1.0000   1.0000   1.0000
     1.0000   1.0000   1.0000   1.0000   1.0000   1.0000   1.0000   1.0000
     1.0000   1.0000   1.0000   1.0000   1.0000   1.0000   1.0000   1.0000
     0.0000   0.0000   0.0000   0.0000   0.0000   0.0000   0.0000   0.0000
     0.0000   0.0000   0.0000   0.0000   0.0000   0.0000

          k =-0.8844 0.1765 0.1763 (  8025 PWs)   bands (ev):

   -17.2983 -17.2926 -17.2908 -17.2632 -17.2619 -17.0725 -17.0686 -17.0571
   -17.0562 -17.0521 -17.0450 -17.0396 -17.0377 -17.0271 -17.0248 -17.0025
   -17.0006 -16.9965 -16.9900 -16.9850 -16.9785 -16.9761 -16.9735 -16.9730
   -16.9717 -16.9703 -16.9685 -16.9625 -16.9552 -16.9534 -16.9532 -16.9504
   -16.9499 -16.9452 -16.9388 -16.9350 -16.9337 -16.9326 -16.9183 -16.9170
    -4.4475  -3.9263  -3.4248  -3.0232  -2.9651  -2.2908  -1.9232  -1.7882
    -0.1279  -0.0111   0.1987   1.0272   1.2041   1.8100   2.2610   3.0874
     3.1858   3.3082   3.7034   3.8583   3.9591   4.2143   4.3034   4.5708
     4.8146   4.9949   5.1932   5.3113   5.4610   5.8745   6.0010   6.6797
     8.5456   9.0641   9.2793   9.4406   9.5053   9.6095   9.9445  10.0622
    10.1363  10.5231  10.6522  10.6949  10.9047  11.2558

     occupation numbers 
     1.0000   1.0000   1.0000   1.0000   1.0000   1.0000   1.0000   1.0000
     1.0000   1.0000   1.0000   1.0000   1.0000   1.0000   1.0000   1.0000
     1.0000   1.0000   1.0000   1.0000   1.0000   1.0000   1.0000   1.0000
     1.0000   1.0000   1.0000   1.0000   1.0000   1.0000   1.0000   1.0000
     1.0000   1.0000   1.0000   1.0000   1.0000   1.0000   1.0000   1.0000
     1.0000   1.0000   1.0000   1.0000   1.0000   1.0000   1.0000   1.0000
     1.0000   1.0000   1.0000   1.0000   1.0000   1.0000   1.0000   1.0000
     1.0000   1.0000   1.0000   1.0000   1.0000   1.0000   1.0000   1.0000
     1.0000   1.0000   1.0000   1.0000   1.0000   1.0000   1.0000   1.0000
     0.0000   0.0000   0.0000   0.0000   0.0000   0.0000   0.0000   0.0000
     0.0000   0.0000   0.0000   0.0000   0.0000   0.0000

          k =-0.7075 0.3534-0.0004 (  8004 PWs)   bands (ev):

   -17.2982 -17.2928 -17.2907 -17.2631 -17.2619 -17.0725 -17.0684 -17.0571
   -17.0561 -17.0523 -17.0448 -17.0395 -17.0377 -17.0271 -17.0247 -17.0026
   -17.0006 -16.9964 -16.9901 -16.9846 -16.9787 -16.9757 -16.9733 -16.9730
   -16.9718 -16.9702 -16.9691 -16.9626 -16.9549 -16.9534 -16.9528 -16.9509
   -16.9506 -16.9452 -16.9387 -16.9349 -16.9337 -16.9325 -16.9183 -16.9170
    -4.1071  -3.8476  -3.7731  -3.6605  -2.3551  -2.2227  -2.0957  -1.9760
     0.1114   0.2367   0.2856   0.5320   2.3570   2.4334   2.5547   2.6563
     2.9552   3.0426   3.0796   3.1400   4.2850   4.4277   4.4738   4.5555
     4.6150   4.7065   4.7830   4.8224   5.6458   5.8200   5.8381   6.1013
     9.4601   9.5699   9.6691   9.7467   9.9611  10.0104  10.0983  10.2301
    10.6356  10.6886  10.7531  10.8190  11.4755  11.5955

     occupation numbers 
     1.0000   1.0000   1.0000   1.0000   1.0000   1.0000   1.0000   1.0000
     1.0000   1.0000   1.0000   1.0000   1.0000   1.0000   1.0000   1.0000
     1.0000   1.0000   1.0000   1.0000   1.0000   1.0000   1.0000   1.0000
     1.0000   1.0000   1.0000   1.0000   1.0000   1.0000   1.0000   1.0000
     1.0000   1.0000   1.0000   1.0000   1.0000   1.0000   1.0000   1.0000
     1.0000   1.0000   1.0000   1.0000   1.0000   1.0000   1.0000   1.0000
     1.0000   1.0000   1.0000   1.0000   1.0000   1.0000   1.0000   1.0000
     1.0000   1.0000   1.0000   1.0000   1.0000   1.0000   1.0000   1.0000
     1.0000   1.0000   1.0000   1.0000   1.0000   1.0000   1.0000   1.0000
     0.0000   0.0000   0.0000   0.0000   0.0000   0.0000   0.0000   0.0000
     0.0000   0.0000   0.0000   0.0000   0.0000   0.0000

          k =-0.3537 0.3535-0.0002 (  8040 PWs)   bands (ev):

   -17.2983 -17.2926 -17.2909 -17.2632 -17.2620 -17.0727 -17.0688 -17.0573
   -17.0562 -17.0521 -17.0450 -17.0396 -17.0378 -17.0272 -17.0248 -17.0026
   -17.0004 -16.9967 -16.9898 -16.9851 -16.9790 -16.9760 -16.9738 -16.9729
   -16.9715 -16.9696 -16.9688 -16.9630 -16.9552 -16.9535 -16.9530 -16.9512
   -16.9502 -16.9449 -16.9386 -16.9348 -16.9338 -16.9326 -16.9184 -16.9169
    -4.6190  -3.7734  -3.5127  -2.7785  -2.5295  -2.4996  -2.2500  -1.6478
    -0.2879   0.1073   0.2406   0.7769   0.8594   1.5380   1.8150   2.9103
     3.5540   3.7033   3.8975   3.9325   4.2508   4.3333   4.6035   4.7719
     5.0487   5.0681   5.2398   5.5127   5.6001   5.6955   5.7733   7.0193
     8.4308   9.0294   9.1573   9.2347   9.3743   9.7116   9.7756   9.9929
    10.0151  10.1672  10.3467  10.4980  10.5789  10.6642

     occupation numbers 
     1.0000   1.0000   1.0000   1.0000   1.0000   1.0000   1.0000   1.0000
     1.0000   1.0000   1.0000   1.0000   1.0000   1.0000   1.0000   1.0000
     1.0000   1.0000   1.0000   1.0000   1.0000   1.0000   1.0000   1.0000
     1.0000   1.0000   1.0000   1.0000   1.0000   1.0000   1.0000   1.0000
     1.0000   1.0000   1.0000   1.0000   1.0000   1.0000   1.0000   1.0000
     1.0000   1.0000   1.0000   1.0000   1.0000   1.0000   1.0000   1.0000
     1.0000   1.0000   1.0000   1.0000   1.0000   1.0000   1.0000   1.0000
     1.0000   1.0000   1.0000   1.0000   1.0000   1.0000   1.0000   1.0000
     1.0000   1.0000   1.0000   1.0000   1.0000   1.0000   1.0000   1.0000
     0.0000   0.0000   0.0000   0.0000   0.0000   0.0000   0.0000   0.0000
     0.0000   0.0000   0.0000   0.0000   0.0000   0.0000

          k =-0.1768 0.5304-0.1768 (  8022 PWs)   bands (ev):

   -17.2983 -17.2925 -17.2908 -17.2631 -17.2620 -17.0727 -17.0688 -17.0572
   -17.0562 -17.0520 -17.0449 -17.0395 -17.0376 -17.0270 -17.0247 -17.0025
   -17.0003 -16.9968 -16.9899 -16.9851 -16.9789 -16.9756 -16.9739 -16.9728
   -16.9718 -16.9695 -16.9686 -16.9629 -16.9548 -16.9540 -16.9523 -16.9518
   -16.9500 -16.9450 -16.9386 -16.9348 -16.9336 -16.9325 -16.9183 -16.9170
    -4.4430  -3.9561  -3.4124  -3.0496  -2.8893  -2.3563  -1.8949  -1.7486
    -0.1558  -0.0441   0.3503   0.8506   1.0282   1.8245   2.4154   3.0435
     3.2251   3.3444   3.8255   3.8418   3.9807   4.1840   4.2810   4.6730
     4.8384   4.9439   5.2836   5.3110   5.5191   5.8408   5.9968   6.4249
     8.4623   8.9294   9.2296   9.4487   9.5195   9.6378   9.9194  10.1199
    10.2163  10.4887  10.7078  10.8930  11.0765  11.1377

     occupation numbers 
     1.0000   1.0000   1.0000   1.0000   1.0000   1.0000   1.0000   1.0000
     1.0000   1.0000   1.0000   1.0000   1.0000   1.0000   1.0000   1.0000
     1.0000   1.0000   1.0000   1.0000   1.0000   1.0000   1.0000   1.0000
     1.0000   1.0000   1.0000   1.0000   1.0000   1.0000   1.0000   1.0000
     1.0000   1.0000   1.0000   1.0000   1.0000   1.0000   1.0000   1.0000
     1.0000   1.0000   1.0000   1.0000   1.0000   1.0000   1.0000   1.0000
     1.0000   1.0000   1.0000   1.0000   1.0000   1.0000   1.0000   1.0000
     1.0000   1.0000   1.0000   1.0000   1.0000   1.0000   1.0000   1.0000
     1.0000   1.0000   1.0000   1.0000   1.0000   1.0000   1.0000   1.0000
     0.0000   0.0000   0.0000   0.0000   0.0000   0.0000   0.0000   0.0000
     0.0000   0.0000   0.0000   0.0000   0.0000   0.0000

          k =-0.7075-0.0003 0.3531 (  8004 PWs)   bands (ev):

   -17.2983 -17.2924 -17.2909 -17.2631 -17.2619 -17.0725 -17.0688 -17.0571
   -17.0562 -17.0518 -17.0450 -17.0395 -17.0376 -17.0270 -17.0246 -17.0026
   -17.0005 -16.9968 -16.9899 -16.9849 -16.9785 -16.9759 -16.9739 -16.9730
   -16.9714 -16.9694 -16.9689 -16.9630 -16.9550 -16.9535 -16.9529 -16.9509
   -16.9503 -16.9452 -16.9388 -16.9349 -16.9337 -16.9326 -16.9183 -16.9170
    -4.0747  -3.8936  -3.7612  -3.6732  -2.3211  -2.1951  -2.0752  -2.0400
     0.0977   0.2458   0.3487   0.4553   2.3289   2.4161   2.5735   2.6548
     2.9785   3.0596   3.1077   3.1471   4.2851   4.3633   4.4949   4.5448
     4.6478   4.7174   4.7757   4.8305   5.6011   5.8417   5.9072   6.0226
     9.5216   9.5918   9.6292   9.7045   9.9573  10.0267  10.1027  10.2292
    10.6337  10.6903  10.7390  10.7812  11.4806  11.5865

     occupation numbers 
     1.0000   1.0000   1.0000   1.0000   1.0000   1.0000   1.0000   1.0000
     1.0000   1.0000   1.0000   1.0000   1.0000   1.0000   1.0000   1.0000
     1.0000   1.0000   1.0000   1.0000   1.0000   1.0000   1.0000   1.0000
     1.0000   1.0000   1.0000   1.0000   1.0000   1.0000   1.0000   1.0000
     1.0000   1.0000   1.0000   1.0000   1.0000   1.0000   1.0000   1.0000
     1.0000   1.0000   1.0000   1.0000   1.0000   1.0000   1.0000   1.0000
     1.0000   1.0000   1.0000   1.0000   1.0000   1.0000   1.0000   1.0000
     1.0000   1.0000   1.0000   1.0000   1.0000   1.0000   1.0000   1.0000
     1.0000   1.0000   1.0000   1.0000   1.0000   1.0000   1.0000   1.0000
     0.0000   0.0000   0.0000   0.0000   0.0000   0.0000   0.0000   0.0000
     0.0000   0.0000   0.0000   0.0000   0.0000   0.0000

          k =-0.5306 0.1766 0.1765 (  8023 PWs)   bands (ev):

   -17.2982 -17.2926 -17.2908 -17.2632 -17.2619 -17.0725 -17.0686 -17.0572
   -17.0562 -17.0520 -17.0450 -17.0396 -17.0376 -17.0272 -17.0247 -17.0025
   -17.0006 -16.9966 -16.9899 -16.9847 -16.9786 -16.9760 -16.9737 -16.9731
   -16.9709 -16.9697 -16.9689 -16.9631 -16.9553 -16.9534 -16.9529 -16.9508
   -16.9504 -16.9450 -16.9387 -16.9348 -16.9337 -16.9326 -16.9183 -16.9169
    -4.4282  -3.9481  -3.4172  -3.0202  -2.9727  -2.3413  -1.9148  -1.7968
    -0.0861   0.0186   0.2924   1.0628   1.1812   1.8977   2.1843   2.9941
     3.1073   3.2658   3.5666   3.7924   3.9393   4.2497   4.2585   4.5098
     4.8677   5.0820   5.2728   5.3506   5.4179   5.9802   6.1106   6.6000
     8.5623   8.9986   9.3607   9.5542   9.6261   9.6733   9.9493  10.0808
    10.1908  10.4716  10.6989  10.8619  11.0074  11.2844

     occupation numbers 
     1.0000   1.0000   1.0000   1.0000   1.0000   1.0000   1.0000   1.0000
     1.0000   1.0000   1.0000   1.0000   1.0000   1.0000   1.0000   1.0000
     1.0000   1.0000   1.0000   1.0000   1.0000   1.0000   1.0000   1.0000
     1.0000   1.0000   1.0000   1.0000   1.0000   1.0000   1.0000   1.0000
     1.0000   1.0000   1.0000   1.0000   1.0000   1.0000   1.0000   1.0000
     1.0000   1.0000   1.0000   1.0000   1.0000   1.0000   1.0000   1.0000
     1.0000   1.0000   1.0000   1.0000   1.0000   1.0000   1.0000   1.0000
     1.0000   1.0000   1.0000   1.0000   1.0000   1.0000   1.0000   1.0000
     1.0000   1.0000   1.0000   1.0000   1.0000   1.0000   1.0000   1.0000
     0.0000   0.0000   0.0000   0.0000   0.0000   0.0000   0.0000   0.0000
     0.0000   0.0000   0.0000   0.0000   0.0000   0.0000

          k = 0.3536-0.3535-0.3533 (  8040 PWs)   bands (ev):

   -17.2982 -17.2927 -17.2907 -17.2633 -17.2621 -17.0728 -17.0687 -17.0575
   -17.0562 -17.0519 -17.0449 -17.0398 -17.0377 -17.0273 -17.0247 -17.0019
   -17.0010 -16.9967 -16.9899 -16.9848 -16.9790 -16.9757 -16.9742 -16.9734
   -16.9706 -16.9696 -16.9692 -16.9628 -16.9556 -16.9538 -16.9532 -16.9509
   -16.9502 -16.9450 -16.9385 -16.9347 -16.9338 -16.9327 -16.9184 -16.9170
    -4.4060  -4.3181  -2.8035  -2.6488  -2.5854  -2.5109  -2.4199  -2.2652
     0.3406   0.4387   0.4934   0.5276   0.6962   0.8564   2.7984   2.9180
     3.3892   3.4633   3.5614   3.6160   3.6848   3.8455   4.9315   4.9729
     5.0290   5.0644   5.1101   5.2430   6.4395   6.5421   6.6088   6.7715
     8.5470   8.6281   8.7035   8.7414   8.7678   8.8422   8.9588   9.0259
    10.7188  10.8715  10.9094  11.0936  11.5199  11.5316

     occupation numbers 
     1.0000   1.0000   1.0000   1.0000   1.0000   1.0000   1.0000   1.0000
     1.0000   1.0000   1.0000   1.0000   1.0000   1.0000   1.0000   1.0000
     1.0000   1.0000   1.0000   1.0000   1.0000   1.0000   1.0000   1.0000
     1.0000   1.0000   1.0000   1.0000   1.0000   1.0000   1.0000   1.0000
     1.0000   1.0000   1.0000   1.0000   1.0000   1.0000   1.0000   1.0000
     1.0000   1.0000   1.0000   1.0000   1.0000   1.0000   1.0000   1.0000
     1.0000   1.0000   1.0000   1.0000   1.0000   1.0000   1.0000   1.0000
     1.0000   1.0000   1.0000   1.0000   1.0000   1.0000   1.0000   1.0000
     1.0000   1.0000   1.0000   1.0000   1.0000   1.0000   1.0000   1.0000
     0.0000   0.0000   0.0000   0.0000   0.0000   0.0000   0.0000   0.0000
     0.0000   0.0000   0.0000   0.0000   0.0000   0.0000

          k = 0.5305-0.1766-0.5300 (  8025 PWs)   bands (ev):

   -17.2983 -17.2925 -17.2908 -17.2631 -17.2620 -17.0728 -17.0688 -17.0573
   -17.0562 -17.0518 -17.0448 -17.0396 -17.0375 -17.0270 -17.0246 -17.0019
   -17.0008 -16.9968 -16.9900 -16.9849 -16.9788 -16.9755 -16.9742 -16.9733
   -16.9712 -16.9695 -16.9688 -16.9628 -16.9552 -16.9537 -16.9530 -16.9511
   -16.9499 -16.9451 -16.9386 -16.9347 -16.9337 -16.9326 -16.9184 -16.9170
    -4.4278  -3.9492  -3.4046  -3.0714  -2.9499  -2.3070  -1.9190  -1.8077
    -0.0483   0.0502   0.1952   1.0764   1.1934   1.9090   2.1644   2.9501
     3.1129   3.2617   3.6357   3.7945   3.9302   4.2208   4.3098   4.5104
     4.9140   5.0753   5.1951   5.3197   5.4446   5.9413   6.0945   6.6582
     8.6054   9.0766   9.3829   9.5591   9.5854   9.6408   9.9341  10.0759
    10.1682  10.5100  10.6198  10.8170  10.9317  11.3056

     occupation numbers 
     1.0000   1.0000   1.0000   1.0000   1.0000   1.0000   1.0000   1.0000
     1.0000   1.0000   1.0000   1.0000   1.0000   1.0000   1.0000   1.0000
     1.0000   1.0000   1.0000   1.0000   1.0000   1.0000   1.0000   1.0000
     1.0000   1.0000   1.0000   1.0000   1.0000   1.0000   1.0000   1.0000
     1.0000   1.0000   1.0000   1.0000   1.0000   1.0000   1.0000   1.0000
     1.0000   1.0000   1.0000   1.0000   1.0000   1.0000   1.0000   1.0000
     1.0000   1.0000   1.0000   1.0000   1.0000   1.0000   1.0000   1.0000
     1.0000   1.0000   1.0000   1.0000   1.0000   1.0000   1.0000   1.0000
     1.0000   1.0000   1.0000   1.0000   1.0000   1.0000   1.0000   1.0000
     0.0000   0.0000   0.0000   0.0000   0.0000   0.0000   0.0000   0.0000
     0.0000   0.0000   0.0000   0.0000   0.0000   0.0000

          k =-0.0002-0.7072-0.0000 (  7992 PWs)   bands (ev):

   -17.2982 -17.2923 -17.2907 -17.2628 -17.2619 -17.0726 -17.0687 -17.0570
   -17.0561 -17.0516 -17.0447 -17.0392 -17.0374 -17.0266 -17.0245 -17.0018
   -17.0006 -16.9968 -16.9900 -16.9850 -16.9785 -16.9750 -16.9743 -16.9731
   -16.9715 -16.9695 -16.9684 -16.9626 -16.9547 -16.9540 -16.9523 -16.9516
   -16.9495 -16.9451 -16.9386 -16.9347 -16.9336 -16.9323 -16.9182 -16.9169
    -4.1919  -4.0247  -3.3555  -3.2187  -3.0742  -2.9433  -1.4463  -1.3219
    -0.4702  -0.3949   1.1469   1.3347   1.4131   1.5292   3.0191   3.1609
     3.3105   3.3805   3.4108   3.4924   3.5157   3.5643   3.5923   3.6734
     5.2103   5.2886   5.3099   5.5622   5.7725   5.8984   5.9691   6.1897
     8.2893   8.3367   9.4035   9.4356   9.5293   9.7106  10.2864  10.3372
    11.5044  11.5146  11.6044  11.6953  11.8213  11.8617

     occupation numbers 
     1.0000   1.0000   1.0000   1.0000   1.0000   1.0000   1.0000   1.0000
     1.0000   1.0000   1.0000   1.0000   1.0000   1.0000   1.0000   1.0000
     1.0000   1.0000   1.0000   1.0000   1.0000   1.0000   1.0000   1.0000
     1.0000   1.0000   1.0000   1.0000   1.0000   1.0000   1.0000   1.0000
     1.0000   1.0000   1.0000   1.0000   1.0000   1.0000   1.0000   1.0000
     1.0000   1.0000   1.0000   1.0000   1.0000   1.0000   1.0000   1.0000
     1.0000   1.0000   1.0000   1.0000   1.0000   1.0000   1.0000   1.0000
     1.0000   1.0000   1.0000   1.0000   1.0000   1.0000   1.0000   1.0000
     1.0000   1.0000   1.0000   1.0000   1.0000   1.0000   1.0000   1.0000
     0.0000   0.0000   0.0000   0.0000   0.0000   0.0000   0.0000   0.0000
     0.0000   0.0000   0.0000   0.0000   0.0000   0.0000

          k = 0.5305-0.5302-0.1765 (  8026 PWs)   bands (ev):

   -17.2982 -17.2928 -17.2906 -17.2631 -17.2620 -17.0727 -17.0685 -17.0574
   -17.0561 -17.0522 -17.0446 -17.0397 -17.0377 -17.0272 -17.0246 -17.0019
   -17.0009 -16.9965 -16.9901 -16.9846 -16.9789 -16.9753 -16.9738 -16.9734
   -16.9715 -16.9703 -16.9690 -16.9624 -16.9550 -16.9536 -16.9530 -16.9511
   -16.9502 -16.9451 -16.9385 -16.9348 -16.9337 -16.9326 -16.9183 -16.9169
    -4.4337  -3.9403  -3.4154  -3.0936  -2.8530  -2.4060  -1.9829  -1.7158
    -0.1178  -0.0010   0.4558   0.9736   1.0981   1.9491   2.2120   3.0072
     3.1267   3.2416   3.5515   3.7792   3.8571   4.2621   4.2964   4.4747
     4.9578   5.0244   5.2276   5.3567   5.5317   5.9666   6.2008   6.4859
     8.5711   9.0006   9.3149   9.4935   9.6448   9.7554   9.9394  10.0321
    10.1484  10.4649  10.8227  10.9515  11.1018  11.1818

     occupation numbers 
     1.0000   1.0000   1.0000   1.0000   1.0000   1.0000   1.0000   1.0000
     1.0000   1.0000   1.0000   1.0000   1.0000   1.0000   1.0000   1.0000
     1.0000   1.0000   1.0000   1.0000   1.0000   1.0000   1.0000   1.0000
     1.0000   1.0000   1.0000   1.0000   1.0000   1.0000   1.0000   1.0000
     1.0000   1.0000   1.0000   1.0000   1.0000   1.0000   1.0000   1.0000
     1.0000   1.0000   1.0000   1.0000   1.0000   1.0000   1.0000   1.0000
     1.0000   1.0000   1.0000   1.0000   1.0000   1.0000   1.0000   1.0000
     1.0000   1.0000   1.0000   1.0000   1.0000   1.0000   1.0000   1.0000
     1.0000   1.0000   1.0000   1.0000   1.0000   1.0000   1.0000   1.0000
     0.0000   0.0000   0.0000   0.0000   0.0000   0.0000   0.0000   0.0000
     0.0000   0.0000   0.0000   0.0000   0.0000   0.0000

          k = 0.7074-0.3533-0.3531 (  8043 PWs)   bands (ev):

   -17.2983 -17.2927 -17.2908 -17.2631 -17.2621 -17.0727 -17.0687 -17.0574
   -17.0563 -17.0521 -17.0449 -17.0397 -17.0377 -17.0272 -17.0248 -17.0019
   -17.0009 -16.9966 -16.9901 -16.9851 -16.9788 -16.9758 -16.9737 -16.9734
   -16.9714 -16.9705 -16.9685 -16.9623 -16.9554 -16.9537 -16.9534 -16.9507
   -16.9496 -16.9452 -16.9387 -16.9348 -16.9337 -16.9326 -16.9183 -16.9171
    -4.6197  -3.7353  -3.5452  -2.7025  -2.6475  -2.4581  -2.3119  -1.6042
    -0.3317   0.1022   0.2554   0.8596   0.9928   1.5434   1.7189   2.8945
     3.5487   3.6754   3.8420   3.8724   4.2153   4.3634   4.4947   4.8036
     5.0265   5.0852   5.3075   5.3864   5.5831   5.7704   5.8389   7.1591
     8.4418   9.0611   9.1669   9.2571   9.3930   9.7358   9.8507   9.8715
    10.0173  10.0710  10.4185  10.5018  10.6319  10.6923

     occupation numbers 
     1.0000   1.0000   1.0000   1.0000   1.0000   1.0000   1.0000   1.0000
     1.0000   1.0000   1.0000   1.0000   1.0000   1.0000   1.0000   1.0000
     1.0000   1.0000   1.0000   1.0000   1.0000   1.0000   1.0000   1.0000
     1.0000   1.0000   1.0000   1.0000   1.0000   1.0000   1.0000   1.0000
     1.0000   1.0000   1.0000   1.0000   1.0000   1.0000   1.0000   1.0000
     1.0000   1.0000   1.0000   1.0000   1.0000   1.0000   1.0000   1.0000
     1.0000   1.0000   1.0000   1.0000   1.0000   1.0000   1.0000   1.0000
     1.0000   1.0000   1.0000   1.0000   1.0000   1.0000   1.0000   1.0000
     1.0000   1.0000   1.0000   1.0000   1.0000   1.0000   1.0000   0.9985
     0.0000   0.0000   0.0000   0.0000   0.0000   0.0000   0.0000   0.0000
     0.0000   0.0000   0.0000   0.0000   0.0000   0.0000

          k = 0.1766-0.8840 0.1768 (  8024 PWs)   bands (ev):

   -17.2983 -17.2926 -17.2908 -17.2631 -17.2620 -17.0726 -17.0687 -17.0572
   -17.0562 -17.0519 -17.0449 -17.0396 -17.0377 -17.0269 -17.0247 -17.0019
   -17.0008 -16.9967 -16.9902 -16.9852 -16.9786 -16.9755 -16.9738 -16.9734
   -16.9717 -16.9706 -16.9682 -16.9622 -16.9550 -16.9539 -16.9531 -16.9509
   -16.9495 -16.9453 -16.9387 -16.9349 -16.9336 -16.9326 -16.9184 -16.9170
    -4.4423  -3.9471  -3.4139  -3.0411  -2.8903  -2.3981  -1.9110  -1.7440
    -0.1484  -0.0280   0.4022   0.8585   1.0363   1.9574   2.3387   3.0801
     3.2136   3.3016   3.6358   3.8155   3.9113   4.2043   4.2850   4.5842
     4.8720   4.9471   5.2393   5.3827   5.5506   5.8684   6.1539   6.4063
     8.4953   8.8877   9.2998   9.4656   9.5173   9.6585   9.9134  10.0490
    10.2032  10.5027  10.8298  10.9414  11.1095  11.1492

     occupation numbers 
     1.0000   1.0000   1.0000   1.0000   1.0000   1.0000   1.0000   1.0000
     1.0000   1.0000   1.0000   1.0000   1.0000   1.0000   1.0000   1.0000
     1.0000   1.0000   1.0000   1.0000   1.0000   1.0000   1.0000   1.0000
     1.0000   1.0000   1.0000   1.0000   1.0000   1.0000   1.0000   1.0000
     1.0000   1.0000   1.0000   1.0000   1.0000   1.0000   1.0000   1.0000
     1.0000   1.0000   1.0000   1.0000   1.0000   1.0000   1.0000   1.0000
     1.0000   1.0000   1.0000   1.0000   1.0000   1.0000   1.0000   1.0000
     1.0000   1.0000   1.0000   1.0000   1.0000   1.0000   1.0000   1.0000
     1.0000   1.0000   1.0000   1.0000   1.0000   1.0000   1.0000   1.0000
     0.0000   0.0000   0.0000   0.0000   0.0000   0.0000   0.0000   0.0000
     0.0000   0.0000   0.0000   0.0000   0.0000   0.0000

          k = 0.3536-0.7071 0.0002 (  8004 PWs)   bands (ev):

   -17.2983 -17.2927 -17.2907 -17.2631 -17.2619 -17.0727 -17.0686 -17.0573
   -17.0561 -17.0521 -17.0446 -17.0395 -17.0376 -17.0270 -17.0246 -17.0020
   -17.0008 -16.9967 -16.9902 -16.9848 -16.9788 -16.9750 -16.9739 -16.9734
   -16.9718 -16.9706 -16.9686 -16.9623 -16.9546 -16.9540 -16.9523 -16.9518
   -16.9499 -16.9453 -16.9386 -16.9349 -16.9336 -16.9326 -16.9184 -16.9169
    -4.0922  -3.8895  -3.7556  -3.6537  -2.3056  -2.2484  -2.1470  -1.9439
     0.1402   0.2715   0.3099   0.4265   2.3499   2.4367   2.5217   2.6934
     2.9583   3.0460   3.0926   3.1495   4.2768   4.3493   4.5047   4.5699
     4.6496   4.6973   4.7673   4.8468   5.6846   5.8166   5.8843   6.0050
     9.5060   9.5745   9.6516   9.7772   9.9833  10.0362  10.0645  10.2117
    10.6046  10.6943  10.7486  10.7847  11.5309  11.5820

     occupation numbers 
     1.0000   1.0000   1.0000   1.0000   1.0000   1.0000   1.0000   1.0000
     1.0000   1.0000   1.0000   1.0000   1.0000   1.0000   1.0000   1.0000
     1.0000   1.0000   1.0000   1.0000   1.0000   1.0000   1.0000   1.0000
     1.0000   1.0000   1.0000   1.0000   1.0000   1.0000   1.0000   1.0000
     1.0000   1.0000   1.0000   1.0000   1.0000   1.0000   1.0000   1.0000
     1.0000   1.0000   1.0000   1.0000   1.0000   1.0000   1.0000   1.0000
     1.0000   1.0000   1.0000   1.0000   1.0000   1.0000   1.0000   1.0000
     1.0000   1.0000   1.0000   1.0000   1.0000   1.0000   1.0000   1.0000
     1.0000   1.0000   1.0000   1.0000   1.0000   1.0000   1.0000   1.0000
     0.0000   0.0000   0.0000   0.0000   0.0000   0.0000   0.0000   0.0000
     0.0000   0.0000   0.0000   0.0000   0.0000   0.0000

          k =-0.0001 0.0001-0.7071 (  8000 PWs)   bands (ev):

   -17.2981 -17.2927 -17.2904 -17.2630 -17.2618 -17.0725 -17.0682 -17.0571
   -17.0559 -17.0523 -17.0443 -17.0395 -17.0375 -17.0271 -17.0244 -17.0018
   -17.0007 -16.9963 -16.9901 -16.9843 -16.9788 -16.9748 -16.9734 -16.9729
   -16.9723 -16.9705 -16.9690 -16.9619 -16.9542 -16.9539 -16.9521 -16.9515
   -16.9501 -16.9451 -16.9384 -16.9347 -16.9335 -16.9324 -16.9182 -16.9169
    -4.2440  -3.9523  -3.3758  -3.1634  -3.0607  -3.0162  -1.5041  -1.2746
    -0.4922  -0.3623   1.2731   1.3286   1.4187   1.4289   3.0534   3.1839
     3.2993   3.3242   3.4409   3.4555   3.4952   3.5662   3.5900   3.6411
     5.0901   5.2656   5.4600   5.5646   5.8694   5.8860   5.9492   6.1829
     8.2448   8.3843   9.3542   9.5120   9.5453   9.6752  10.2380  10.3528
    11.5088  11.5815  11.6408  11.7259  11.7729  11.7968

     occupation numbers 
     1.0000   1.0000   1.0000   1.0000   1.0000   1.0000   1.0000   1.0000
     1.0000   1.0000   1.0000   1.0000   1.0000   1.0000   1.0000   1.0000
     1.0000   1.0000   1.0000   1.0000   1.0000   1.0000   1.0000   1.0000
     1.0000   1.0000   1.0000   1.0000   1.0000   1.0000   1.0000   1.0000
     1.0000   1.0000   1.0000   1.0000   1.0000   1.0000   1.0000   1.0000
     1.0000   1.0000   1.0000   1.0000   1.0000   1.0000   1.0000   1.0000
     1.0000   1.0000   1.0000   1.0000   1.0000   1.0000   1.0000   1.0000
     1.0000   1.0000   1.0000   1.0000   1.0000   1.0000   1.0000   1.0000
     1.0000   1.0000   1.0000   1.0000   1.0000   1.0000   1.0000   1.0000
     0.0000   0.0000   0.0000   0.0000   0.0000   0.0000   0.0000   0.0000
     0.0000   0.0000   0.0000   0.0000   0.0000   0.0000

          k = 0.1768 0.1770-0.8837 (  8026 PWs)   bands (ev):

   -17.2982 -17.2928 -17.2907 -17.2631 -17.2620 -17.0726 -17.0685 -17.0572
   -17.0561 -17.0523 -17.0447 -17.0396 -17.0377 -17.0272 -17.0247 -17.0020
   -17.0009 -16.9964 -16.9903 -16.9849 -16.9788 -16.9754 -16.9735 -16.9730
   -16.9724 -16.9709 -16.9685 -16.9619 -16.9549 -16.9539 -16.9529 -16.9508
   -16.9497 -16.9453 -16.9386 -16.9349 -16.9336 -16.9325 -16.9184 -16.9170
    -4.4505  -3.9356  -3.3741  -3.0519  -2.9696  -2.3173  -1.9458  -1.7455
    -0.1565   0.0213   0.2454   0.9504   1.1954   1.8387   2.3044   3.0414
     3.1940   3.2696   3.7048   3.8666   3.9585   4.1755   4.3434   4.5954
     4.8509   4.9178   5.2802   5.3317   5.4101   5.8748   6.0314   6.6370
     8.5131   8.9792   9.2992   9.5105   9.5502   9.5849   9.9257  10.1184
    10.1745  10.5150  10.7053  10.7573  10.9485  11.2104

     occupation numbers 
     1.0000   1.0000   1.0000   1.0000   1.0000   1.0000   1.0000   1.0000
     1.0000   1.0000   1.0000   1.0000   1.0000   1.0000   1.0000   1.0000
     1.0000   1.0000   1.0000   1.0000   1.0000   1.0000   1.0000   1.0000
     1.0000   1.0000   1.0000   1.0000   1.0000   1.0000   1.0000   1.0000
     1.0000   1.0000   1.0000   1.0000   1.0000   1.0000   1.0000   1.0000
     1.0000   1.0000   1.0000   1.0000   1.0000   1.0000   1.0000   1.0000
     1.0000   1.0000   1.0000   1.0000   1.0000   1.0000   1.0000   1.0000
     1.0000   1.0000   1.0000   1.0000   1.0000   1.0000   1.0000   1.0000
     1.0000   1.0000   1.0000   1.0000   1.0000   1.0000   1.0000   1.0000
     0.0000   0.0000   0.0000   0.0000   0.0000   0.0000   0.0000   0.0000
     0.0000   0.0000   0.0000   0.0000   0.0000   0.0000

          k =-0.3540-0.3537-0.3538 (  8030 PWs)   bands (ev):

   -17.2983 -17.2927 -17.2908 -17.2632 -17.2620 -17.0726 -17.0687 -17.0571
   -17.0563 -17.0522 -17.0449 -17.0397 -17.0378 -17.0272 -17.0248 -17.0019
   -17.0009 -16.9964 -16.9903 -16.9854 -16.9787 -16.9758 -16.9735 -16.9731
   -16.9723 -16.9710 -16.9681 -16.9618 -16.9553 -16.9537 -16.9534 -16.9504
   -16.9493 -16.9454 -16.9387 -16.9351 -16.9336 -16.9326 -16.9185 -16.9171
    -4.4698  -4.2664  -2.7359  -2.6706  -2.5988  -2.5237  -2.3685  -2.2368
     0.2103   0.3048   0.4109   0.4821   0.6204   0.9340   2.9505   3.0490
     3.5182   3.6405   3.6433   3.6830   3.8044   3.9162   4.8335   4.8838
     4.9037   4.9899   5.1539   5.2358   6.2695   6.4037   6.5431   6.9447
     8.4453   8.5381   8.5796   8.6507   8.6990   8.8527   8.8795   8.9454
    10.5410  10.7280  10.9068  11.2617  11.5152  11.5970

     occupation numbers 
     1.0000   1.0000   1.0000   1.0000   1.0000   1.0000   1.0000   1.0000
     1.0000   1.0000   1.0000   1.0000   1.0000   1.0000   1.0000   1.0000
     1.0000   1.0000   1.0000   1.0000   1.0000   1.0000   1.0000   1.0000
     1.0000   1.0000   1.0000   1.0000   1.0000   1.0000   1.0000   1.0000
     1.0000   1.0000   1.0000   1.0000   1.0000   1.0000   1.0000   1.0000
     1.0000   1.0000   1.0000   1.0000   1.0000   1.0000   1.0000   1.0000
     1.0000   1.0000   1.0000   1.0000   1.0000   1.0000   1.0000   1.0000
     1.0000   1.0000   1.0000   1.0000   1.0000   1.0000   1.0000   1.0000
     1.0000   1.0000   1.0000   1.0000   1.0000   1.0000   1.0000   1.0000
     0.0000   0.0000   0.0000   0.0000   0.0000   0.0000   0.0000   0.0000
     0.0000   0.0000   0.0000   0.0000   0.0000   0.0000

     the Fermi energy is     7.5871 ev

!    total energy              =   -1781.90681885 Ry
     Harris-Foulkes estimate   =   -1781.90681884 Ry
     estimated scf accuracy    <          5.0E-11 Ry

     The total energy is the sum of the following terms:

     one-electron contribution =   -1183.03603966 Ry
     hartree contribution      =     707.03990390 Ry
     xc contribution           =    -495.17226121 Ry
     ewald contribution        =    -810.73773663 Ry
     smearing contrib. (-TS)   =      -0.00068525 Ry

     convergence has been achieved in  13 iterations

     Forces acting on atoms (Ry/au):

     atom    1 type  1   force =   0.25743647E-02  0.34732591E-01 -0.23229437E-01
     atom    2 type  2   force =   0.39178457E-03 -0.13085201E-01 -0.39771989E-01
     atom    3 type  1   force =  -0.20496702E-01 -0.31352826E-01 -0.36111692E-01
     atom    4 type  2   force =   0.24972411E-01 -0.77163283E-02  0.35155227E-01
     atom    5 type  1   force =  -0.15071543E-01  0.18812380E-01  0.18415420E-01
     atom    6 type  2   force =   0.34837234E-01 -0.42584042E-01  0.22452469E-01
     atom    7 type  1   force =  -0.24328284E-01  0.71757590E-01  0.24728521E-01
     atom    8 type  2   force =  -0.14563697E-01 -0.27709551E-01  0.69180428E-02
     atom    9 type  1   force =   0.56729074E-02 -0.29010353E-01  0.39678342E-01
     atom   10 type  2   force =   0.16502111E-01 -0.62768414E-02  0.29320218E-01
     atom   11 type  1   force =  -0.37056196E-03  0.41947290E-01 -0.76493477E-02
     atom   12 type  2   force =  -0.32044599E-01  0.99308786E-02 -0.80833291E-02
     atom   13 type  1   force =  -0.57509706E-01  0.69866230E-02 -0.42390413E-02
     atom   14 type  2   force =  -0.93921610E-03  0.47241218E-02 -0.24900841E-01
     atom   15 type  1   force =   0.31627651E-01  0.15811789E-01 -0.56664853E-02
     atom   16 type  2   force =   0.48745844E-01 -0.46968121E-01 -0.27016077E-01
     The non-local contrib.  to forces
     atom    1 type  1   force =   0.10896937E-01  0.31461936E-01 -0.18349858E-01
     atom    2 type  2   force =  -0.97788891E-02 -0.11212440E-01 -0.51020760E-03
     atom    3 type  1   force =  -0.28888049E-01 -0.39838767E-01 -0.34926381E-01
     atom    4 type  2   force =   0.12586063E-01  0.15466713E-01  0.22559566E-01
     atom    5 type  1   force =   0.22341719E-02  0.31634222E-02 -0.63528559E-03
     atom    6 type  2   force =  -0.11332058E-01 -0.35350665E-02  0.18056048E-01
     atom    7 type  1   force =  -0.21782433E-01  0.62718182E-01  0.33623272E-01
     atom    8 type  2   force =  -0.13062316E-01  0.16598702E-01 -0.12899229E-01
     atom    9 type  1   force =  -0.79593538E-02 -0.20406432E-01  0.20390816E-01
     atom   10 type  2   force =  -0.65174998E-03 -0.12008494E-01  0.93000272E-02
     atom   11 type  1   force =   0.59395867E-02  0.35624975E-01 -0.96806447E-02
     atom   12 type  2   force =  -0.13562632E-02  0.16980034E-01 -0.11491786E-01
     atom   13 type  1   force =  -0.35520275E-01  0.39585814E-02  0.62515434E-02
     atom   14 type  2   force =  -0.10407646E-01  0.57545675E-02  0.44967232E-02
     atom   15 type  1   force =   0.23238402E-01 -0.64681968E-02  0.45045756E-02
     atom   16 type  2   force =   0.16795044E-01  0.17681349E-01 -0.26335332E-01
     The ionic contribution  to forces
     atom    1 type  1   force =   0.15199883E+00  0.76455627E+00 -0.20147740E+00
     atom    2 type  2   force =  -0.54322842E+00 -0.56337997E+00 -0.18314555E+01
     atom    3 type  1   force =  -0.36576493E+00 -0.51578381E+00 -0.57186622E+00
     atom    4 type  2   force =   0.58504189E+00  0.88333018E+00  0.37732160E+00
     atom    5 type  1   force =  -0.13747447E+00 -0.12776365E+00 -0.99252541E-02
     atom    6 type  2   force =   0.10597871E+01 -0.26576654E+00  0.12930544E+01
     atom    7 type  1   force =   0.16110788E+00  0.59645685E+00  0.40673426E+00
     atom    8 type  2   force =  -0.49990009E+00 -0.96234560E+00  0.21684356E+00
     atom    9 type  1   force =  -0.25763784E+00 -0.18264990E+00  0.19390485E-01
     atom   10 type  2   force =   0.34051924E+00  0.95637174E+00  0.11480851E+01
     atom   11 type  1   force =   0.64732546E-01  0.48782674E+00  0.13387167E+00
     atom   12 type  2   force =  -0.13065068E+01 -0.20366744E+00 -0.33684031E+00
     atom   13 type  1   force =  -0.22618823E+00  0.89416373E-01  0.18549116E+00
     atom   14 type  2   force =  -0.44558439E+00 -0.24970145E+00 -0.73106215E+00
     atom   15 type  1   force =   0.10369442E+00 -0.32472321E+00 -0.23478769E-01
     atom   16 type  2   force =   0.13154033E+01 -0.38217657E+00 -0.74686579E-01
     The local contribution  to forces
     atom    1 type  1   force =  -0.15936907E+00 -0.75788725E+00  0.19484811E+00
     atom    2 type  2   force =   0.55336056E+00  0.56046780E+00  0.17896951E+01
     atom    3 type  1   force =   0.37154213E+00  0.52049222E+00  0.56734345E+00
     atom    4 type  2   force =  -0.56924613E+00 -0.90614196E+00 -0.36037192E+00
     atom    5 type  1   force =   0.12025734E+00  0.14363749E+00  0.28933263E-01
     atom    6 type  2   force =  -0.10121374E+01  0.22394863E+00 -0.12872224E+01
     atom    7 type  1   force =  -0.16542479E+00 -0.58156522E+00 -0.41261716E+00
     atom    8 type  2   force =   0.49642120E+00  0.91653171E+00 -0.19715275E+00
     atom    9 type  1   force =   0.27039886E+00  0.17227340E+00  0.16499680E-02
     atom   10 type  2   force =  -0.32316461E+00 -0.95237829E+00 -0.11243477E+01
     atom   11 type  1   force =  -0.70507247E-01 -0.47823027E+00 -0.13257450E+00
     atom   12 type  2   force =   0.12740421E+01  0.19857696E+00  0.33858929E+00
     atom   13 type  1   force =   0.20092422E+00 -0.85927070E-01 -0.19532278E+00
     atom   14 type  2   force =   0.45348833E+00  0.24959816E+00  0.70099801E+00
     atom   15 type  1   force =  -0.93280261E-01  0.34611656E+00  0.13788692E-01
     atom   16 type  2   force =  -0.12781102E+01  0.31393945E+00  0.69550098E-01
     The core correction contribution to forces
     atom    1 type  1   force =  -0.95207913E-03 -0.33976382E-02  0.17496810E-02
     atom    2 type  2   force =   0.37200545E-04  0.10385831E-02  0.24972885E-02
     atom    3 type  1   force =   0.26138049E-02  0.37776600E-02  0.33369557E-02
     atom    4 type  2   force =  -0.34112408E-02 -0.37220695E-03 -0.43578039E-02
     atom    5 type  1   force =  -0.89826205E-04 -0.22371738E-03  0.42575104E-04
     atom    6 type  2   force =  -0.14762958E-02  0.27668326E-02 -0.14336531E-02
     atom    7 type  1   force =   0.17709829E-02 -0.58511110E-02 -0.30120536E-02
     atom    8 type  2   force =   0.19803082E-02  0.15049305E-02  0.12875163E-03
     atom    9 type  1   force =   0.87130504E-03  0.17726021E-02 -0.17520229E-02
     atom   10 type  2   force =  -0.20091631E-03  0.17384664E-02 -0.37178668E-02
     atom   11 type  1   force =  -0.53582053E-03 -0.32728726E-02  0.73462907E-03
     atom   12 type  2   force =   0.17751585E-02 -0.19601510E-02  0.16611995E-02
     atom   13 type  1   force =   0.32730926E-02 -0.46038580E-03 -0.65935214E-03
     atom   14 type  2   force =   0.15662455E-02 -0.92826700E-03  0.66708812E-03
     atom   15 type  1   force =  -0.20251604E-02  0.88825906E-03 -0.48181911E-03
     atom   16 type  2   force =  -0.53428218E-02  0.35862436E-02  0.44578889E-02
     The Hubbard contrib.    to forces
     atom    1 type  1   force =   0.00000000E+00  0.00000000E+00  0.00000000E+00
     atom    2 type  2   force =   0.00000000E+00  0.00000000E+00  0.00000000E+00
     atom    3 type  1   force =   0.00000000E+00  0.00000000E+00  0.00000000E+00
     atom    4 type  2   force =   0.00000000E+00  0.00000000E+00  0.00000000E+00
     atom    5 type  1   force =   0.00000000E+00  0.00000000E+00  0.00000000E+00
     atom    6 type  2   force =   0.00000000E+00  0.00000000E+00  0.00000000E+00
     atom    7 type  1   force =   0.00000000E+00  0.00000000E+00  0.00000000E+00
     atom    8 type  2   force =   0.00000000E+00  0.00000000E+00  0.00000000E+00
     atom    9 type  1   force =   0.00000000E+00  0.00000000E+00  0.00000000E+00
     atom   10 type  2   force =   0.00000000E+00  0.00000000E+00  0.00000000E+00
     atom   11 type  1   force =   0.00000000E+00  0.00000000E+00  0.00000000E+00
     atom   12 type  2   force =   0.00000000E+00  0.00000000E+00  0.00000000E+00
     atom   13 type  1   force =   0.00000000E+00  0.00000000E+00  0.00000000E+00
     atom   14 type  2   force =   0.00000000E+00  0.00000000E+00  0.00000000E+00
     atom   15 type  1   force =   0.00000000E+00  0.00000000E+00  0.00000000E+00
     atom   16 type  2   force =   0.00000000E+00  0.00000000E+00  0.00000000E+00
     The SCF correction term to forces
     atom    1 type  1   force =  -0.67561800E-06  0.73584746E-07 -0.41939436E-07
     atom    2 type  2   force =   0.92185884E-06  0.16245297E-05  0.12438219E-05
     atom    3 type  1   force =  -0.64917195E-07  0.66967771E-06  0.43274718E-06
     atom    4 type  2   force =   0.14118323E-05  0.17478831E-05  0.37110291E-05
     atom    5 type  1   force =   0.82701440E-06 -0.36906990E-06  0.51593666E-07
     atom    6 type  2   force =  -0.44654021E-05  0.29017512E-05 -0.20091816E-05
     atom    7 type  1   force =  -0.34137106E-06 -0.31221327E-06  0.12576269E-06
     atom    8 type  2   force =  -0.32142350E-05  0.15056725E-05 -0.23558624E-05
     atom    9 type  1   force =  -0.47854156E-06  0.77330553E-06 -0.97396226E-06
     atom   10 type  2   force =  -0.27416996E-06  0.54506908E-06  0.67044351E-06
     atom   11 type  1   force =  -0.40345726E-07 -0.47684291E-06 -0.57968853E-06
     atom   12 type  2   force =   0.71924457E-06  0.22722476E-05 -0.17950742E-05
     atom   13 type  1   force =   0.10812739E-05 -0.75063162E-07  0.31983908E-06
     atom   14 type  2   force =  -0.21620572E-05  0.19160381E-05 -0.58534766E-06
     atom   15 type  1   force =  -0.15936364E-06 -0.82637737E-06  0.76586426E-06
     atom   16 type  2   force =   0.14830749E-06  0.22102609E-05 -0.22225912E-05

     Total force =     0.192884     Total SCF correction =     0.000010


     entering subroutine stress ...

          total   stress  (Ry/bohr**3)                   (kbar)     P=    3.37
   0.0000277854  -0.0000016022  -0.0000745924          4.09     -0.24    -10.97
  -0.0000016022   0.0000172232   0.0000539489         -0.24      2.53      7.94
  -0.0000745924   0.0000539489   0.0000237429        -10.97      7.94      3.49

     kinetic stress (kbar)   6407.23     -0.15     12.58
                               -0.15   6406.93     -6.47
                               12.58     -6.47   6406.23

     local   stress (kbar)  -1046.74    -16.61    495.38
                              -16.61   -998.47   -258.89
                              495.38   -258.89  -1019.78

     nonloc. stress (kbar)   2496.71      0.75    -10.58
                                0.75   2496.25      6.53
                              -10.58      6.53   2496.88

     hartree stress (kbar)  15123.46      2.23   -133.59
                                2.23  15105.20     62.70
                             -133.59     62.70  15108.45

     exc-cor stress (kbar)  10927.63      0.02     -0.35
                                0.02  10927.63      0.21
                               -0.35      0.21  10927.64

     corecor stress (kbar) -16589.57     -0.05      0.95
                               -0.05 -16589.52     -0.59
                                0.95     -0.59 -16589.59

     ewald   stress (kbar) -17314.64     13.58   -375.36
                               13.58 -17345.49    204.45
                             -375.36    204.45 -17326.34

     hubbard stress (kbar)      0.00      0.00      0.00
                                0.00      0.00      0.00
                                0.00      0.00      0.00

     london  stress (kbar)      0.00      0.00      0.00
                                0.00      0.00      0.00
                                0.00      0.00      0.00

     XDM     stress (kbar)      0.00      0.00      0.00
                                0.00      0.00      0.00
                                0.00      0.00      0.00

     dft-nl  stress (kbar)      0.00      0.00      0.00
                                0.00      0.00      0.00
                                0.00      0.00      0.00



     Writing output data file SiGe_zns.scf.in.super.222.a.055.save

     init_run     :     60.59s CPU     59.61s WALL (       1 calls)
     electrons    :   2168.82s CPU   2163.87s WALL (       1 calls)
     forces       :     26.27s CPU     22.52s WALL (       1 calls)
     stress       :     89.96s CPU     90.22s WALL (       1 calls)

     Called by init_run:
     wfcinit      :     52.52s CPU     51.33s WALL (       1 calls)
     potinit      :      1.92s CPU      1.97s WALL (       1 calls)

     Called by electrons:
     c_bands      :   1842.34s CPU   1821.95s WALL (      14 calls)
     sum_band     :    299.63s CPU    312.56s WALL (      14 calls)
     v_of_rho     :      2.65s CPU      2.94s WALL (      14 calls)
     v_h          :      0.12s CPU      0.18s WALL (      14 calls)
     v_xc         :      2.83s CPU      3.10s WALL (      16 calls)
     newd         :     22.25s CPU     23.99s WALL (      14 calls)
     mix_rho      :      3.25s CPU      3.74s WALL (      14 calls)

     Called by c_bands:
     init_us_2    :     11.94s CPU     12.74s WALL (    1116 calls)
     cegterg      :   1790.64s CPU   1768.71s WALL (     504 calls)

     Called by sum_band:
     sum_band:bec :      0.95s CPU      0.96s WALL (     504 calls)
     addusdens    :     20.79s CPU     21.13s WALL (      14 calls)

     Called by *egterg:
     h_psi        :   1181.47s CPU   1237.04s WALL (    1920 calls)
     s_psi        :    145.77s CPU     97.92s WALL (    1920 calls)
     g_psi        :      1.88s CPU      1.81s WALL (    1380 calls)
     cdiaghg      :    166.50s CPU    187.32s WALL (    1848 calls)
     cegterg:over :    146.26s CPU    118.48s WALL (    1380 calls)
     cegterg:upda :     73.85s CPU     54.78s WALL (    1380 calls)
     cegterg:last :     39.72s CPU     26.94s WALL (     504 calls)

     Called by h_psi:
     h_psi:vloc   :    864.89s CPU   1009.10s WALL (    1920 calls)
     h_psi:vnl    :    313.64s CPU    224.92s WALL (    1920 calls)
     add_vuspsi   :    147.30s CPU    100.02s WALL (    1920 calls)

     General routines
     calbec       :    262.83s CPU    202.84s WALL (    2496 calls)
     fft          :      4.16s CPU      4.53s WALL (     249 calls)
     ffts         :      1.76s CPU      2.11s WALL (     386 calls)
     fftw         :    903.76s CPU   1056.96s WALL (  256566 calls)
     interpolate  :      0.32s CPU      0.46s WALL (      28 calls)

     Parallel routines
     fft_scatter  :    392.22s CPU    483.62s WALL (  257201 calls)

     PWSCF        : 39m 8.58s CPU    39m 0.15s WALL


   This run was terminated on:  14:14:58   5Oct2017            

=------------------------------------------------------------------------------=
   JOB DONE.
=------------------------------------------------------------------------------=
