
     Program PWSCF v.5.1 starts on 27Sep2017 at 17:26:22 

     This program is part of the open-source Quantum ESPRESSO suite
     for quantum simulation of materials; please cite
         "P. Giannozzi et al., J. Phys.:Condens. Matter 21 395502 (2009);
          URL http://www.quantum-espresso.org", 
     in publications or presentations arising from this work. More details at
     http://www.quantum-espresso.org/quote

     Parallel version (MPI), running on     8 processors
     R & G space division:  proc/nbgrp/npool/nimage =       8
     Reading input from /tmp/SiGe_zns.scf.in.super.222.largedist.a.04.20021/SiGe_zns.scf.in.super.222.largedist.a.04.t
Warning: card &IONS ignored
Warning: card   ION_DYNAMICS='BFGS', ignored
Warning: card / ignored
Warning: card &CELL ignored
Warning: card  CELL_DYNAMICS = 'BFGS' ignored
Warning: card / ignored
     Message from routine read_cards :
     DEPRECATED: no units specified in CELL_PARAMETERS card

     Current dimensions of program PWSCF are:
     Max number of different atomic species (ntypx) = 10
     Max number of k-points (npk) =  40000
     Max angular momentum in pseudopotentials (lmaxx) =  3
 kfg - two_fermi_energies  F

     Subspace diagonalization in iterative solution of the eigenvalue problem:
     a serial algorithm will be used


     Parallelization info
     --------------------
     sticks:   dense  smooth     PW     G-vecs:    dense   smooth      PW
     Min         379     263     72                13730     8005    1173
     Max         380     264     73                13731     8014    1177
     Sum        3037    2107    583               109843    64071    9409



     bravais-lattice index     =            0
     lattice parameter (alat)  =    14.799446477  a.u.
     unit-cell volume          =    2292.0359 (a.u.)^3
     number of atoms/cell      =           16
     number of atomic types    =            2
     number of electrons       =       144.00
     number of Kohn-Sham states=           86
     kinetic-energy cutoff     =      35.0000  Ry
     charge density cutoff     =     200.0000  Ry
     convergence threshold     =      1.0E-09
     mixing beta               =       0.3000
     number of iterations used =            8  local-TF  mixing
     Exchange-correlation      = SLA  PW   PSX  PSC ( 1  4 10  8 0)
     A smooth kinetic-energy cutoff is imposed at      34.5000 Ry
     height of the smooth step-function =             800.0000 Ry
     width of the smooth step-function  =               1.0000 Ry


     celldm(1)=  14.799446  celldm(2)=   0.000000  celldm(3)=   0.000000
     celldm(4)=   0.000000  celldm(5)=   0.000000  celldm(6)=   0.000000

     crystal axes: (cart. coord. in units of alat)
               a(1) = (   0.000000000000   0.707106781187   0.707106781187 )  
               a(2) = (   0.707106781187  -0.000000000000   0.707106781187 )  
               a(3) = (   0.707106781187   0.707106781187   0.000000000000 )  

     reciprocal axes: (cart. coord. in units 2 pi/alat)
               b(1) = ( -0.707107  0.707107  0.707107 )  
               b(2) = (  0.707107 -0.707107  0.707107 )  
               b(3) = (  0.707107  0.707107 -0.707107 )  


     PseudoPot. # 1 for Si read from file:
     /users/kfg/psuedo/gbrv_1.5/si.pbesol.UPF
     MD5 check sum: ef58ba74faed4df802eb8a9742fc00a8
     Pseudo is Ultrasoft + core correction, Zval =  4.0
     Generated by new atomic code, or converted to UPF format
     Using radial grid of  899 points,  6 beta functions with: 
                l(1) =   0
                l(2) =   0
                l(3) =   1
                l(4) =   1
                l(5) =   2
                l(6) =   2
     Q(r) pseudized with  8 coefficients,  rinner =    0.900   0.900   0.900
                                                       0.900   0.900

     PseudoPot. # 2 for Ge read from file:
     /users/kfg/psuedo/gbrv_1.5/ge.pbesol.UPF
     MD5 check sum: 7bed0412183f5e553a4d27ec7023354d
     Pseudo is Ultrasoft + core correction, Zval = 14.0
     Generated by new atomic code, or converted to UPF format
     Using radial grid of  873 points,  6 beta functions with: 
                l(1) =   0
                l(2) =   0
                l(3) =   1
                l(4) =   1
                l(5) =   2
                l(6) =   2
     Q(r) pseudized with  8 coefficients,  rinner =    1.400   1.400   1.400
                                                       1.400   1.400

     atomic species   valence    mass     pseudopotential
        Si             4.00    28.08550     Si( 1.00)
        Ge            14.00    72.64000     Ge( 1.00)

     No symmetry found


                                    s                        frac. trans.

      isym =  1     identity                                     

 cryst.   s( 1) = (     1          0          0      )
                  (     0          1          0      )
                  (     0          0          1      )

 cart.    s( 1) = (  1.0000000  0.0000000  0.0000000 )
                  (  0.0000000  1.0000000  0.0000000 )
                  (  0.0000000  0.0000000  1.0000000 )


     point group C_1 (1)    
     there are  1 classes
     the character table:

       E    
A      1.00

     the symmetry operations in each class:
     E        1

   Cartesian axes

     site n.     atom                  positions (alat units)
         1           Si  tau(   1) = (   -0.02011248614    0.01023092624   -0.02763412726  )
         2           Ge  tau(   2) = (    0.17621324441    0.17304042798    0.14319645227  )
         3           Si  tau(   3) = (    0.37929007297    0.33110340972    0.01496990779  )
         4           Ge  tau(   4) = (    0.53411566856    0.51472524568    0.18688011114  )
         5           Si  tau(   5) = (    0.35752860190   -0.00342275951    0.32287677260  )
         6           Ge  tau(   6) = (    0.54890711853    0.19686887258    0.49714519767  )
         7           Si  tau(   7) = (    0.73567807763    0.35206989956    0.37846734420  )
         8           Ge  tau(   8) = (    0.87023714632    0.50379828968    0.51649629755  )
         9           Si  tau(   9) = (   -0.01877932166    0.36604434990    0.34067862901  )
        10           Ge  tau(  10) = (    0.18103541202    0.54887195910    0.50268128251  )
        11           Si  tau(  11) = (    0.37697072215    0.70068347135    0.38229497254  )
        12           Ge  tau(  12) = (    0.53554302974    0.89356322613    0.53896603543  )
        13           Si  tau(  13) = (    0.35701141722    0.36488679530    0.68102481619  )
        14           Ge  tau(  14) = (    0.55149239571    0.52843342305    0.88983344943  )
        15           Si  tau(  15) = (    0.72475603950    0.72948432932    0.68437696236  )
        16           Ge  tau(  16) = (    0.85183630392    0.87884136115    0.89841854628  )

   Crystallographic axes

     site n.     atom                  positions (cryst. coord.)
         1           Si  tau(   1) = (    0.00191575389   -0.04099631144    0.01255296076  )
         2           Ge  tau(   2) = (    0.09901166242    0.10349870246    0.14570445766  )
         3           Si  tau(   3) = (   -0.02348779303    0.04465843966    0.49173872561  )
         4           Ge  tau(   4) = (    0.11843309435    0.14585529336    0.60949832899  )
         5           Si  tau(   5) = (   -0.02692279994    0.48353951073    0.02208228702  )
         6           Ge  tau(   6) = (    0.10260610956    0.60046337146    0.17580852005  )
         7           Si  tau(   7) = (   -0.00363511849    0.53886876956    0.50153714536  )
         8           Ge  tau(   8) = (    0.10610663404    0.62432943488    0.60637173992  )
         9           Si  tau(   9) = (    0.51300759650   -0.03121525894    0.00465728756  )
        10           Ge  tau(  10) = (    0.61554906044    0.09534962683    0.16067310812  )
        11           Si  tau(  11) = (    0.49922284761    0.04142388738    0.49169322050  )
        12           Ge  tau(  12) = (    0.63426504715    0.12794802981    0.62942418608  )
        13           Si  tau(  13) = (    0.48712599893    0.47598853244    0.02890185571  )
        14           Ge  tau(  14) = (    0.61290211029    0.64551242215    0.13441560341  )
        15           Si  tau(  15) = (    0.48727099677    0.48058418518    0.54437563530  )
        16           Ge  tau(  16) = (    0.65437330551    0.61618238732    0.58849606661  )

     number of k points=    36  gaussian smearing, width (Ry)=  0.0150
                       cart. coord. in units 2pi/alat
        k(    1) = (   0.0000000   0.0000000   0.0000000), wk =   0.0312500
        k(    2) = (   0.1767767   0.1767767  -0.1767767), wk =   0.0625000
        k(    3) = (  -0.3535534  -0.3535534   0.3535534), wk =   0.0312500
        k(    4) = (   0.3535534   0.0000000   0.0000000), wk =   0.0625000
        k(    5) = (  -0.1767767  -0.5303301   0.5303301), wk =   0.0625000
        k(    6) = (   0.0000000  -0.3535534   0.3535534), wk =   0.0625000
        k(    7) = (  -0.7071068   0.0000000   0.0000000), wk =   0.0312500
        k(    8) = (  -0.7071068   0.3535534   0.0000000), wk =   0.0625000
        k(    9) = (  -0.1767767  -0.1767767  -0.1767767), wk =   0.0625000
        k(   10) = (  -0.1767767   0.1767767   0.1767767), wk =   0.0625000
        k(   11) = (   0.1767767  -0.1767767   0.1767767), wk =   0.0625000
        k(   12) = (   0.3535534   0.3535534   0.3535534), wk =   0.0312500
        k(   13) = (   0.3535534  -0.3535534  -0.3535534), wk =   0.0312500
        k(   14) = (  -0.3535534   0.3535534  -0.3535534), wk =   0.0312500
        k(   15) = (   0.0000000   0.3535534   0.0000000), wk =   0.0625000
        k(   16) = (   0.0000000   0.0000000   0.3535534), wk =   0.0625000
        k(   17) = (   0.1767767   0.5303301   0.5303301), wk =   0.0625000
        k(   18) = (   0.1767767  -0.5303301  -0.5303301), wk =   0.0625000
        k(   19) = (  -0.1767767   0.5303301  -0.5303301), wk =   0.0625000
        k(   20) = (  -0.5303301  -0.1767767  -0.5303301), wk =   0.0625000
        k(   21) = (   0.5303301   0.1767767  -0.5303301), wk =   0.0625000
        k(   22) = (  -0.5303301   0.1767767   0.5303301), wk =   0.0625000
        k(   23) = (   0.5303301  -0.1767767   0.5303301), wk =   0.0625000
        k(   24) = (   0.5303301   0.5303301  -0.1767767), wk =   0.0625000
        k(   25) = (  -0.5303301   0.5303301   0.1767767), wk =   0.0625000
        k(   26) = (   0.5303301  -0.5303301   0.1767767), wk =   0.0625000
        k(   27) = (  -0.5303301  -0.5303301  -0.1767767), wk =   0.0625000
        k(   28) = (   0.0000000   0.3535534   0.3535534), wk =   0.0625000
        k(   29) = (  -0.3535534   0.0000000  -0.3535534), wk =   0.0625000
        k(   30) = (   0.3535534   0.0000000  -0.3535534), wk =   0.0625000
        k(   31) = (   0.3535534   0.3535534   0.0000000), wk =   0.0625000
        k(   32) = (  -0.3535534   0.3535534   0.0000000), wk =   0.0625000
        k(   33) = (   0.0000000  -0.7071068   0.0000000), wk =   0.0312500
        k(   34) = (   0.0000000   0.0000000  -0.7071068), wk =   0.0312500
        k(   35) = (   0.3535534  -0.7071068   0.0000000), wk =   0.0625000
        k(   36) = (   0.7071068  -0.0000000   0.3535534), wk =   0.0625000

                       cryst. coord.
        k(    1) = (   0.0000000   0.0000000   0.0000000), wk =   0.0312500
        k(    2) = (   0.0000000   0.0000000   0.2500000), wk =   0.0625000
        k(    3) = (   0.0000000   0.0000000  -0.5000000), wk =   0.0312500
        k(    4) = (   0.0000000   0.2500000   0.2500000), wk =   0.0625000
        k(    5) = (   0.0000000   0.2500000  -0.5000000), wk =   0.0625000
        k(    6) = (   0.0000000   0.2500000  -0.2500000), wk =   0.0625000
        k(    7) = (   0.0000000  -0.5000000  -0.5000000), wk =   0.0312500
        k(    8) = (   0.2500000  -0.5000000  -0.2500000), wk =   0.0625000
        k(    9) = (  -0.2500000  -0.2500000  -0.2500000), wk =   0.0625000
        k(   10) = (   0.2500000   0.0000000   0.0000000), wk =   0.0625000
        k(   11) = (   0.0000000   0.2500000   0.0000000), wk =   0.0625000
        k(   12) = (   0.5000000   0.5000000   0.5000000), wk =   0.0312500
        k(   13) = (  -0.5000000   0.0000000   0.0000000), wk =   0.0312500
        k(   14) = (   0.0000000  -0.5000000   0.0000000), wk =   0.0312500
        k(   15) = (   0.2500000   0.0000000   0.2500000), wk =   0.0625000
        k(   16) = (   0.2500000   0.2500000   0.0000000), wk =   0.0625000
        k(   17) = (   0.7500000   0.5000000   0.5000000), wk =   0.0625000
        k(   18) = (  -0.7500000  -0.2500000  -0.2500000), wk =   0.0625000
        k(   19) = (   0.0000000  -0.5000000   0.2500000), wk =   0.0625000
        k(   20) = (  -0.5000000  -0.7500000  -0.5000000), wk =   0.0625000
        k(   21) = (  -0.2500000   0.0000000   0.5000000), wk =   0.0625000
        k(   22) = (   0.5000000   0.0000000  -0.2500000), wk =   0.0625000
        k(   23) = (   0.2500000   0.7500000   0.2500000), wk =   0.0625000
        k(   24) = (   0.2500000   0.2500000   0.7500000), wk =   0.0625000
        k(   25) = (   0.5000000  -0.2500000   0.0000000), wk =   0.0625000
        k(   26) = (  -0.2500000   0.5000000   0.0000000), wk =   0.0625000
        k(   27) = (  -0.5000000  -0.5000000  -0.7500000), wk =   0.0625000
        k(   28) = (   0.5000000   0.2500000   0.2500000), wk =   0.0625000
        k(   29) = (  -0.2500000  -0.5000000  -0.2500000), wk =   0.0625000
        k(   30) = (  -0.2500000   0.0000000   0.2500000), wk =   0.0625000
        k(   31) = (   0.2500000   0.2500000   0.5000000), wk =   0.0625000
        k(   32) = (   0.2500000  -0.2500000   0.0000000), wk =   0.0625000
        k(   33) = (  -0.5000000   0.0000000  -0.5000000), wk =   0.0312500
        k(   34) = (  -0.5000000  -0.5000000   0.0000000), wk =   0.0312500
        k(   35) = (  -0.5000000   0.2500000  -0.2500000), wk =   0.0625000
        k(   36) = (   0.2500000   0.7500000   0.5000000), wk =   0.0625000

     Dense  grid:   109843 G-vectors     FFT dimensions: (  72,  72,  72)

     Smooth grid:    64071 G-vectors     FFT dimensions: (  60,  60,  60)

     Largest allocated arrays     est. size (Mb)     dimensions
        Kohn-Sham Wavefunctions         1.34 Mb     (    1022,   86)
        NL pseudopotentials             4.49 Mb     (    1022,  288)
        Each V/rho on FFT grid          0.71 Mb     (   46656)
        Each G-vector array             0.10 Mb     (   13731)
        G-vector shells                 0.01 Mb     (     737)
     Largest temporary arrays     est. size (Mb)     dimensions
        Auxiliary wavefunctions         5.36 Mb     (    1022,  344)
        Each subspace H/S matrix        1.81 Mb     (     344,  344)
        Each <psi_i|beta_j> matrix      0.38 Mb     (     288,   86)
        Arrays for rho mixing           5.70 Mb     (   46656,    8)

     Check: negative/imaginary core charge=   -0.000001    0.000000

     Initial potential from superposition of free atoms

     starting charge  143.98835, renormalised to  144.00000
     Starting wfc are  104 randomized atomic wfcs

     total cpu time spent up to now is       22.6 secs

     per-process dynamical memory:    70.5 Mb

     Self-consistent Calculation

     iteration #  1     ecut=    35.00 Ry     beta=0.30
     Davidson diagonalization with overlap
     ethr =  1.00E-02,  avg # of iterations =  3.0

     Threshold (ethr) on eigenvalues was too large:
     Diagonalizing with lowered threshold

     Davidson diagonalization with overlap
     ethr =  2.78E-04,  avg # of iterations =  5.0

     total cpu time spent up to now is      207.6 secs

     total energy              =   -1781.53219701 Ry
     Harris-Foulkes estimate   =   -1781.57811931 Ry
     estimated scf accuracy    <       0.40106283 Ry

     iteration #  2     ecut=    35.00 Ry     beta=0.30
     Davidson diagonalization with overlap
     ethr =  2.79E-04,  avg # of iterations =  1.0

     total cpu time spent up to now is      276.6 secs

     total energy              =   -1781.44368047 Ry
     Harris-Foulkes estimate   =   -1781.53472790 Ry
     estimated scf accuracy    <       0.24543995 Ry

     iteration #  3     ecut=    35.00 Ry     beta=0.30
     Davidson diagonalization with overlap
     ethr =  1.70E-04,  avg # of iterations =  2.1

     total cpu time spent up to now is      359.6 secs

     total energy              =   -1781.46657589 Ry
     Harris-Foulkes estimate   =   -1781.46716709 Ry
     estimated scf accuracy    <       0.00511745 Ry

     iteration #  4     ecut=    35.00 Ry     beta=0.30
     Davidson diagonalization with overlap
     ethr =  3.55E-06,  avg # of iterations =  8.7

     total cpu time spent up to now is      518.7 secs

     total energy              =   -1781.46678997 Ry
     Harris-Foulkes estimate   =   -1781.46714991 Ry
     estimated scf accuracy    <       0.00250311 Ry

     iteration #  5     ecut=    35.00 Ry     beta=0.30
     Davidson diagonalization with overlap
     ethr =  1.74E-06,  avg # of iterations =  2.1

     total cpu time spent up to now is      602.6 secs

     total energy              =   -1781.46704118 Ry
     Harris-Foulkes estimate   =   -1781.46704483 Ry
     estimated scf accuracy    <       0.00011131 Ry

     iteration #  6     ecut=    35.00 Ry     beta=0.30
     Davidson diagonalization with overlap
     ethr =  7.73E-08,  avg # of iterations =  2.1

     total cpu time spent up to now is      694.3 secs

     total energy              =   -1781.46702219 Ry
     Harris-Foulkes estimate   =   -1781.46705391 Ry
     estimated scf accuracy    <       0.00009273 Ry

     iteration #  7     ecut=    35.00 Ry     beta=0.30
     Davidson diagonalization with overlap
     ethr =  6.44E-08,  avg # of iterations =  2.0

     total cpu time spent up to now is      762.2 secs

     total energy              =   -1781.46703322 Ry
     Harris-Foulkes estimate   =   -1781.46703327 Ry
     estimated scf accuracy    <       0.00000253 Ry

     iteration #  8     ecut=    35.00 Ry     beta=0.30
     Davidson diagonalization with overlap
     ethr =  1.76E-09,  avg # of iterations =  3.0

     total cpu time spent up to now is      830.1 secs

     total energy              =   -1781.46703335 Ry
     Harris-Foulkes estimate   =   -1781.46703354 Ry
     estimated scf accuracy    <       0.00000130 Ry

     iteration #  9     ecut=    35.00 Ry     beta=0.30
     Davidson diagonalization with overlap
     ethr =  9.03E-10,  avg # of iterations =  2.0

     total cpu time spent up to now is      895.3 secs

     total energy              =   -1781.46703361 Ry
     Harris-Foulkes estimate   =   -1781.46703355 Ry
     estimated scf accuracy    <       0.00000010 Ry

     iteration # 10     ecut=    35.00 Ry     beta=0.30
     Davidson diagonalization with overlap
     ethr =  7.25E-11,  avg # of iterations =  2.2

     total cpu time spent up to now is      950.2 secs

     total energy              =   -1781.46703364 Ry
     Harris-Foulkes estimate   =   -1781.46703362 Ry
     estimated scf accuracy    <       0.00000005 Ry

     iteration # 11     ecut=    35.00 Ry     beta=0.30
     Davidson diagonalization with overlap
     ethr =  3.36E-11,  avg # of iterations =  2.1

     total cpu time spent up to now is     1010.6 secs

     total energy              =   -1781.46703367 Ry
     Harris-Foulkes estimate   =   -1781.46703365 Ry
     estimated scf accuracy    <          2.4E-09 Ry

     iteration # 12     ecut=    35.00 Ry     beta=0.30
     Davidson diagonalization with overlap
     ethr =  1.65E-12,  avg # of iterations =  2.9

     total cpu time spent up to now is     1071.9 secs

     total energy              =   -1781.46703368 Ry
     Harris-Foulkes estimate   =   -1781.46703367 Ry
     estimated scf accuracy    <          1.1E-09 Ry

     iteration # 13     ecut=    35.00 Ry     beta=0.30
     Davidson diagonalization with overlap
     ethr =  7.33E-13,  avg # of iterations =  2.2

     total cpu time spent up to now is     1125.2 secs

     End of self-consistent calculation

          k = 0.0000 0.0000 0.0000 (  7991 PWs)   bands (ev):

   -17.5950 -17.5170 -17.5031 -17.4826 -17.4612 -17.4591 -17.4570 -17.4462
   -17.3518 -17.3483 -17.2225 -17.2066 -17.2004 -17.1885 -17.1861 -17.1690
   -17.1332 -17.1191 -17.1153 -17.0990 -17.0873 -17.0802 -17.0763 -17.0753
   -17.0739 -17.0707 -17.0441 -17.0347 -17.0170 -17.0145 -17.0097 -17.0008
   -16.9952 -16.9947 -16.9869 -16.9818 -16.9643 -16.9621 -16.9598 -16.9576
    -5.4623  -3.9283  -3.2541  -2.9966  -2.8558  -2.0417  -1.7435  -1.5897
    -0.9457  -0.6169  -0.3975  -0.0317   0.2189   0.3313   0.7411   3.9206
     4.0029   4.0485   4.2023   4.4642   4.5358   5.2770   5.5486   5.7703
     5.8498   6.0783   6.1162   6.2346   6.7068   6.9815   7.2725   7.4378
     7.5917   7.7218   7.7692   7.8741   7.9047   8.0875   8.2341   8.3328
     8.4748   8.7995   9.0400   9.4099   9.7221   9.7677

     occupation numbers 
     1.0000   1.0000   1.0000   1.0000   1.0000   1.0000   1.0000   1.0000
     1.0000   1.0000   1.0000   1.0000   1.0000   1.0000   1.0000   1.0000
     1.0000   1.0000   1.0000   1.0000   1.0000   1.0000   1.0000   1.0000
     1.0000   1.0000   1.0000   1.0000   1.0000   1.0000   1.0000   1.0000
     1.0000   1.0000   1.0000   1.0000   1.0000   1.0000   1.0000   1.0000
     1.0000   1.0000   1.0000   1.0000   1.0000   1.0000   1.0000   1.0000
     1.0000   1.0000   1.0000   1.0000   1.0000   1.0000   1.0000   1.0000
     1.0000   1.0000   1.0000   1.0000   1.0000   1.0000   1.0000   1.0000
     1.0000   1.0000   1.0000   1.0000   1.0000   0.9998   0.9406   0.6609
     0.2574   0.0602   0.0300   0.0045   0.0024   0.0000   0.0000   0.0000
     0.0000   0.0000   0.0000   0.0000   0.0000   0.0000

          k = 0.1768 0.1768-0.1768 (  8000 PWs)   bands (ev):

   -17.5948 -17.5168 -17.5029 -17.4824 -17.4612 -17.4590 -17.4569 -17.4461
   -17.3516 -17.3481 -17.2222 -17.2064 -17.2001 -17.1884 -17.1861 -17.1687
   -17.1331 -17.1187 -17.1153 -17.0988 -17.0874 -17.0800 -17.0764 -17.0753
   -17.0738 -17.0706 -17.0439 -17.0346 -17.0170 -17.0144 -17.0095 -17.0007
   -16.9952 -16.9948 -16.9867 -16.9816 -16.9642 -16.9621 -16.9599 -16.9576
    -5.3171  -3.9715  -3.6106  -2.9257  -2.8539  -2.3338  -2.0644  -1.7909
    -0.6093  -0.3389  -0.0617   0.3214   0.5621   0.7672   1.2829   3.4300
     3.6143   3.8111   4.1101   4.1488   4.5965   4.7162   4.9146   5.0965
     5.4237   5.6093   5.7326   5.9725   6.1273   6.2122   7.2108   7.2996
     7.6287   7.6833   8.0177   8.2477   8.5815   8.7678   8.9398   9.0955
     9.1954   9.3676   9.6241   9.8806  10.1488  10.3922

     occupation numbers 
     1.0000   1.0000   1.0000   1.0000   1.0000   1.0000   1.0000   1.0000
     1.0000   1.0000   1.0000   1.0000   1.0000   1.0000   1.0000   1.0000
     1.0000   1.0000   1.0000   1.0000   1.0000   1.0000   1.0000   1.0000
     1.0000   1.0000   1.0000   1.0000   1.0000   1.0000   1.0000   1.0000
     1.0000   1.0000   1.0000   1.0000   1.0000   1.0000   1.0000   1.0000
     1.0000   1.0000   1.0000   1.0000   1.0000   1.0000   1.0000   1.0000
     1.0000   1.0000   1.0000   1.0000   1.0000   1.0000   1.0000   1.0000
     1.0000   1.0000   1.0000   1.0000   1.0000   1.0000   1.0000   1.0000
     1.0000   1.0000   1.0000   1.0000   1.0000   1.0000   0.9766   0.9150
     0.1820   0.0992   0.0002   0.0000   0.0000   0.0000   0.0000   0.0000
     0.0000   0.0000   0.0000   0.0000   0.0000   0.0000

          k =-0.3536-0.3536 0.3536 (  8026 PWs)   bands (ev):

   -17.5945 -17.5166 -17.5027 -17.4823 -17.4612 -17.4590 -17.4569 -17.4461
   -17.3516 -17.3478 -17.2219 -17.2062 -17.2000 -17.1882 -17.1861 -17.1687
   -17.1330 -17.1181 -17.1153 -17.0986 -17.0876 -17.0797 -17.0765 -17.0754
   -17.0737 -17.0707 -17.0439 -17.0346 -17.0169 -17.0142 -17.0093 -17.0007
   -16.9953 -16.9948 -16.9865 -16.9814 -16.9640 -16.9621 -16.9599 -16.9577
    -5.0920  -4.2439  -3.7459  -2.8514  -2.8209  -2.5628  -2.3152  -1.9766
    -0.2969  -0.1223   0.2434   0.7089   0.9477   1.0884   2.5301   2.8842
     3.2474   3.4071   3.7001   3.8754   4.0411   4.1776   4.6121   4.7871
     4.9352   5.1863   5.3858   5.5953   5.7002   6.2388   7.1026   7.2072
     7.6607   7.9615   8.2122   8.4347   8.5864   8.8737   9.1242   9.1891
     9.9472  10.3692  10.8569  11.0758  11.2331  11.2995

     occupation numbers 
     1.0000   1.0000   1.0000   1.0000   1.0000   1.0000   1.0000   1.0000
     1.0000   1.0000   1.0000   1.0000   1.0000   1.0000   1.0000   1.0000
     1.0000   1.0000   1.0000   1.0000   1.0000   1.0000   1.0000   1.0000
     1.0000   1.0000   1.0000   1.0000   1.0000   1.0000   1.0000   1.0000
     1.0000   1.0000   1.0000   1.0000   1.0000   1.0000   1.0000   1.0000
     1.0000   1.0000   1.0000   1.0000   1.0000   1.0000   1.0000   1.0000
     1.0000   1.0000   1.0000   1.0000   1.0000   1.0000   1.0000   1.0000
     1.0000   1.0000   1.0000   1.0000   1.0000   1.0000   1.0000   1.0000
     1.0000   1.0000   1.0000   1.0000   1.0000   1.0000   0.9969   0.9779
     0.1293   0.0007   0.0000   0.0000   0.0000   0.0000   0.0000   0.0000
     0.0000   0.0000   0.0000   0.0000   0.0000   0.0000

          k = 0.3536 0.0000 0.0000 (  8044 PWs)   bands (ev):

   -17.5947 -17.5168 -17.5028 -17.4824 -17.4610 -17.4591 -17.4569 -17.4460
   -17.3517 -17.3481 -17.2222 -17.2064 -17.2001 -17.1885 -17.1859 -17.1686
   -17.1332 -17.1186 -17.1152 -17.0988 -17.0873 -17.0800 -17.0764 -17.0752
   -17.0736 -17.0704 -17.0438 -17.0345 -17.0166 -17.0147 -17.0095 -17.0006
   -16.9953 -16.9947 -16.9867 -16.9817 -16.9641 -16.9618 -16.9602 -16.9575
    -5.2454  -4.0858  -3.5007  -3.0560  -2.9808  -2.5690  -1.8541  -1.6706
    -0.7501  -0.2951   0.2228   0.3196   0.7460   0.9567   1.4923   3.4447
     3.5486   3.7181   3.8758   4.1426   4.3254   4.5306   4.7216   4.8152
     5.0775   5.3387   5.5710   5.9213   6.1123   6.6134   6.8585   6.9927
     7.4715   8.0467   8.4654   8.5900   8.7445   8.8680   9.1305   9.3210
     9.4977   9.5807   9.7402  10.5072  10.5809  10.6386

     occupation numbers 
     1.0000   1.0000   1.0000   1.0000   1.0000   1.0000   1.0000   1.0000
     1.0000   1.0000   1.0000   1.0000   1.0000   1.0000   1.0000   1.0000
     1.0000   1.0000   1.0000   1.0000   1.0000   1.0000   1.0000   1.0000
     1.0000   1.0000   1.0000   1.0000   1.0000   1.0000   1.0000   1.0000
     1.0000   1.0000   1.0000   1.0000   1.0000   1.0000   1.0000   1.0000
     1.0000   1.0000   1.0000   1.0000   1.0000   1.0000   1.0000   1.0000
     1.0000   1.0000   1.0000   1.0000   1.0000   1.0000   1.0000   1.0000
     1.0000   1.0000   1.0000   1.0000   1.0000   1.0000   1.0000   1.0000
     1.0000   1.0000   1.0000   1.0000   1.0000   1.0000   1.0000   0.9998
     0.5720   0.0001   0.0000   0.0000   0.0000   0.0000   0.0000   0.0000
     0.0000   0.0000   0.0000   0.0000   0.0000   0.0000

          k =-0.1768-0.5303 0.5303 (  8019 PWs)   bands (ev):

   -17.5945 -17.5166 -17.5027 -17.4822 -17.4610 -17.4590 -17.4568 -17.4459
   -17.3516 -17.3479 -17.2220 -17.2062 -17.1999 -17.1883 -17.1859 -17.1685
   -17.1331 -17.1182 -17.1152 -17.0985 -17.0875 -17.0797 -17.0764 -17.0752
   -17.0736 -17.0705 -17.0437 -17.0345 -17.0165 -17.0146 -17.0093 -17.0006
   -16.9953 -16.9947 -16.9865 -16.9816 -16.9640 -16.9618 -16.9601 -16.9576
    -5.0008  -4.1555  -3.9274  -3.2061  -2.9734  -2.4280  -2.0984  -1.8405
    -0.4276  -0.0971   0.3017   0.7098   1.2540   1.9175   2.2361   2.8400
     3.0485   3.2049   3.6573   3.8763   4.0446   4.1956   4.4841   4.5707
     4.7687   4.9325   5.0732   5.3707   5.6142   6.0173   6.2961   6.8810
     7.7901   8.7080   8.9497   9.0613   9.2852   9.6180   9.6960   9.9283
    10.1279  10.2837  10.4371  10.5517  10.8244  11.0517

     occupation numbers 
     1.0000   1.0000   1.0000   1.0000   1.0000   1.0000   1.0000   1.0000
     1.0000   1.0000   1.0000   1.0000   1.0000   1.0000   1.0000   1.0000
     1.0000   1.0000   1.0000   1.0000   1.0000   1.0000   1.0000   1.0000
     1.0000   1.0000   1.0000   1.0000   1.0000   1.0000   1.0000   1.0000
     1.0000   1.0000   1.0000   1.0000   1.0000   1.0000   1.0000   1.0000
     1.0000   1.0000   1.0000   1.0000   1.0000   1.0000   1.0000   1.0000
     1.0000   1.0000   1.0000   1.0000   1.0000   1.0000   1.0000   1.0000
     1.0000   1.0000   1.0000   1.0000   1.0000   1.0000   1.0000   1.0000
     1.0000   1.0000   1.0000   1.0000   1.0000   1.0000   1.0000   1.0000
     0.0213   0.0000   0.0000   0.0000   0.0000   0.0000   0.0000   0.0000
     0.0000   0.0000   0.0000   0.0000   0.0000   0.0000

          k = 0.0000-0.3536 0.3536 (  8024 PWs)   bands (ev):

   -17.5946 -17.5167 -17.5028 -17.4822 -17.4612 -17.4588 -17.4569 -17.4461
   -17.3515 -17.3479 -17.2221 -17.2062 -17.2000 -17.1881 -17.1861 -17.1687
   -17.1330 -17.1186 -17.1153 -17.0988 -17.0875 -17.0798 -17.0763 -17.0751
   -17.0736 -17.0704 -17.0437 -17.0345 -17.0165 -17.0145 -17.0095 -17.0005
   -16.9954 -16.9947 -16.9867 -16.9815 -16.9643 -16.9619 -16.9600 -16.9577
    -5.0746  -4.2495  -3.7416  -3.0575  -2.7946  -2.6507  -2.1164  -1.7511
    -0.3482  -0.2507  -0.0001   0.6346   1.1757   1.5655   1.9305   2.8040
     3.4258   3.4891   3.8026   3.9978   4.2013   4.3344   4.5806   4.6865
     4.9479   5.1170   5.3462   5.4676   5.6678   5.8486   6.1171   7.1649
     7.7278   8.5545   8.8424   8.9954   9.2213   9.3714   9.6536   9.8041
     9.8821  10.1263  10.2532  10.3414  10.4233  10.5243

     occupation numbers 
     1.0000   1.0000   1.0000   1.0000   1.0000   1.0000   1.0000   1.0000
     1.0000   1.0000   1.0000   1.0000   1.0000   1.0000   1.0000   1.0000
     1.0000   1.0000   1.0000   1.0000   1.0000   1.0000   1.0000   1.0000
     1.0000   1.0000   1.0000   1.0000   1.0000   1.0000   1.0000   1.0000
     1.0000   1.0000   1.0000   1.0000   1.0000   1.0000   1.0000   1.0000
     1.0000   1.0000   1.0000   1.0000   1.0000   1.0000   1.0000   1.0000
     1.0000   1.0000   1.0000   1.0000   1.0000   1.0000   1.0000   1.0000
     1.0000   1.0000   1.0000   1.0000   1.0000   1.0000   1.0000   1.0000
     1.0000   1.0000   1.0000   1.0000   1.0000   1.0000   1.0000   0.9894
     0.0553   0.0000   0.0000   0.0000   0.0000   0.0000   0.0000   0.0000
     0.0000   0.0000   0.0000   0.0000   0.0000   0.0000

          k =-0.7071 0.0000 0.0000 (  7992 PWs)   bands (ev):

   -17.5944 -17.5165 -17.5025 -17.4821 -17.4608 -17.4588 -17.4567 -17.4456
   -17.3515 -17.3478 -17.2220 -17.2062 -17.1997 -17.1884 -17.1856 -17.1682
   -17.1331 -17.1181 -17.1151 -17.0983 -17.0873 -17.0796 -17.0762 -17.0749
   -17.0735 -17.0701 -17.0434 -17.0343 -17.0159 -17.0150 -17.0091 -17.0003
   -16.9953 -16.9946 -16.9865 -16.9815 -16.9639 -16.9615 -16.9603 -16.9574
    -4.8272  -4.4104  -3.7590  -3.3139  -3.0701  -2.8245  -1.7970  -1.6046
    -0.6427  -0.1735   0.8080   1.0354   1.4443   1.6866   2.8700   3.1098
     3.1543   3.2587   3.3187   3.4387   3.5569   3.6021   3.7835   4.0987
     4.7137   5.0539   5.1961   5.6069   5.9903   6.0746   6.3280   6.7622
     7.7631   8.1152   8.8353   9.0612   9.2468   9.5264  10.1179  10.3347
    10.6446  11.1026  11.2650  11.4706  11.6200  11.6819

     occupation numbers 
     1.0000   1.0000   1.0000   1.0000   1.0000   1.0000   1.0000   1.0000
     1.0000   1.0000   1.0000   1.0000   1.0000   1.0000   1.0000   1.0000
     1.0000   1.0000   1.0000   1.0000   1.0000   1.0000   1.0000   1.0000
     1.0000   1.0000   1.0000   1.0000   1.0000   1.0000   1.0000   1.0000
     1.0000   1.0000   1.0000   1.0000   1.0000   1.0000   1.0000   1.0000
     1.0000   1.0000   1.0000   1.0000   1.0000   1.0000   1.0000   1.0000
     1.0000   1.0000   1.0000   1.0000   1.0000   1.0000   1.0000   1.0000
     1.0000   1.0000   1.0000   1.0000   1.0000   1.0000   1.0000   1.0000
     1.0000   1.0000   1.0000   1.0000   1.0000   1.0000   1.0000   1.0000
     0.0329   0.0000   0.0000   0.0000   0.0000   0.0000   0.0000   0.0000
     0.0000   0.0000   0.0000   0.0000   0.0000   0.0000

          k =-0.7071 0.3536 0.0000 (  8004 PWs)   bands (ev):

   -17.5946 -17.5165 -17.5028 -17.4822 -17.4610 -17.4589 -17.4567 -17.4459
   -17.3516 -17.3479 -17.2221 -17.2063 -17.1999 -17.1883 -17.1859 -17.1685
   -17.1331 -17.1182 -17.1152 -17.0986 -17.0875 -17.0797 -17.0762 -17.0751
   -17.0735 -17.0704 -17.0437 -17.0344 -17.0167 -17.0145 -17.0093 -17.0004
   -16.9952 -16.9945 -16.9867 -16.9816 -16.9641 -16.9617 -16.9603 -16.9576
    -4.7768  -4.4222  -3.9280  -3.4584  -2.7248  -2.4595  -2.1752  -1.9173
    -0.1002   0.1119   0.2649   0.5207   1.8475   2.2479   2.5919   2.6816
     2.9395   3.0876   3.1707   3.4790   3.9174   4.1284   4.3176   4.4505
     4.6831   4.7663   4.9066   5.0376   5.5817   5.9483   6.1858   6.5133
     8.8185   9.0950   9.2478   9.4253   9.5516   9.7301   9.9516  10.1966
    10.2820  10.5845  10.6928  10.8491  11.0289  11.3574

     occupation numbers 
     1.0000   1.0000   1.0000   1.0000   1.0000   1.0000   1.0000   1.0000
     1.0000   1.0000   1.0000   1.0000   1.0000   1.0000   1.0000   1.0000
     1.0000   1.0000   1.0000   1.0000   1.0000   1.0000   1.0000   1.0000
     1.0000   1.0000   1.0000   1.0000   1.0000   1.0000   1.0000   1.0000
     1.0000   1.0000   1.0000   1.0000   1.0000   1.0000   1.0000   1.0000
     1.0000   1.0000   1.0000   1.0000   1.0000   1.0000   1.0000   1.0000
     1.0000   1.0000   1.0000   1.0000   1.0000   1.0000   1.0000   1.0000
     1.0000   1.0000   1.0000   1.0000   1.0000   1.0000   1.0000   1.0000
     1.0000   1.0000   1.0000   1.0000   1.0000   1.0000   1.0000   1.0000
     0.0000   0.0000   0.0000   0.0000   0.0000   0.0000   0.0000   0.0000
     0.0000   0.0000   0.0000   0.0000   0.0000   0.0000

          k =-0.1768-0.1768-0.1768 (  8000 PWs)   bands (ev):

   -17.5947 -17.5168 -17.5028 -17.4824 -17.4611 -17.4591 -17.4567 -17.4460
   -17.3517 -17.3482 -17.2223 -17.2064 -17.2002 -17.1885 -17.1861 -17.1688
   -17.1331 -17.1190 -17.1152 -17.0989 -17.0873 -17.0798 -17.0762 -17.0754
   -17.0737 -17.0705 -17.0440 -17.0345 -17.0171 -17.0143 -17.0096 -17.0007
   -16.9951 -16.9946 -16.9868 -16.9818 -16.9643 -16.9619 -16.9600 -16.9577
    -5.2857  -4.1190  -3.4218  -3.0496  -2.8695  -2.3387  -2.0957  -1.7731
    -0.5069  -0.2025   0.0441   0.2983   0.5396   0.7699   1.2149   3.2901
     3.4829   3.6246   4.1070   4.3033   4.4712   4.5936   4.8376   4.9805
     5.3709   5.5546   5.7090   6.1193   6.2466   6.5732   7.1942   7.4236
     7.6910   7.8414   8.0995   8.1831   8.5972   8.8610   8.9890   9.1037
     9.3242   9.4315   9.4588  10.0965  10.2783  10.5168

     occupation numbers 
     1.0000   1.0000   1.0000   1.0000   1.0000   1.0000   1.0000   1.0000
     1.0000   1.0000   1.0000   1.0000   1.0000   1.0000   1.0000   1.0000
     1.0000   1.0000   1.0000   1.0000   1.0000   1.0000   1.0000   1.0000
     1.0000   1.0000   1.0000   1.0000   1.0000   1.0000   1.0000   1.0000
     1.0000   1.0000   1.0000   1.0000   1.0000   1.0000   1.0000   1.0000
     1.0000   1.0000   1.0000   1.0000   1.0000   1.0000   1.0000   1.0000
     1.0000   1.0000   1.0000   1.0000   1.0000   1.0000   1.0000   1.0000
     1.0000   1.0000   1.0000   1.0000   1.0000   1.0000   1.0000   1.0000
     1.0000   1.0000   1.0000   1.0000   1.0000   1.0000   0.9822   0.6962
     0.0901   0.0086   0.0000   0.0000   0.0000   0.0000   0.0000   0.0000
     0.0000   0.0000   0.0000   0.0000   0.0000   0.0000

          k =-0.1768 0.1768 0.1768 (  8000 PWs)   bands (ev):

   -17.5947 -17.5167 -17.5028 -17.4824 -17.4612 -17.4590 -17.4568 -17.4462
   -17.3517 -17.3481 -17.2223 -17.2064 -17.2003 -17.1885 -17.1860 -17.1687
   -17.1331 -17.1186 -17.1152 -17.0989 -17.0875 -17.0800 -17.0762 -17.0754
   -17.0738 -17.0705 -17.0438 -17.0346 -17.0166 -17.0147 -17.0094 -17.0008
   -16.9953 -16.9946 -16.9869 -16.9817 -16.9642 -16.9622 -16.9597 -16.9576
    -5.2957  -4.1331  -3.3068  -3.0392  -2.9360  -2.3593  -2.0179  -1.8580
    -0.4641  -0.3619   0.0584   0.4263   0.5126   0.5992   1.2726   3.3359
     3.6030   3.8193   4.1436   4.3293   4.5005   4.6261   4.9072   4.9785
     5.2858   5.4007   5.6642   5.9908   6.1267   6.6906   7.1547   7.5425
     7.6847   7.7944   8.0083   8.0626   8.5743   8.7669   8.9542   9.1145
     9.2663   9.3318   9.5091  10.0028  10.2729  10.5718

     occupation numbers 
     1.0000   1.0000   1.0000   1.0000   1.0000   1.0000   1.0000   1.0000
     1.0000   1.0000   1.0000   1.0000   1.0000   1.0000   1.0000   1.0000
     1.0000   1.0000   1.0000   1.0000   1.0000   1.0000   1.0000   1.0000
     1.0000   1.0000   1.0000   1.0000   1.0000   1.0000   1.0000   1.0000
     1.0000   1.0000   1.0000   1.0000   1.0000   1.0000   1.0000   1.0000
     1.0000   1.0000   1.0000   1.0000   1.0000   1.0000   1.0000   1.0000
     1.0000   1.0000   1.0000   1.0000   1.0000   1.0000   1.0000   1.0000
     1.0000   1.0000   1.0000   1.0000   1.0000   1.0000   1.0000   1.0000
     1.0000   1.0000   1.0000   1.0000   1.0000   1.0000   0.9913   0.3780
     0.0975   0.0199   0.0002   0.0000   0.0000   0.0000   0.0000   0.0000
     0.0000   0.0000   0.0000   0.0000   0.0000   0.0000

          k = 0.1768-0.1768 0.1768 (  8000 PWs)   bands (ev):

   -17.5948 -17.5168 -17.5029 -17.4824 -17.4612 -17.4590 -17.4570 -17.4461
   -17.3516 -17.3481 -17.2223 -17.2064 -17.2002 -17.1884 -17.1860 -17.1688
   -17.1331 -17.1190 -17.1153 -17.0990 -17.0873 -17.0801 -17.0763 -17.0751
   -17.0736 -17.0703 -17.0439 -17.0346 -17.0166 -17.0146 -17.0096 -17.0006
   -16.9953 -16.9947 -16.9868 -16.9817 -16.9643 -16.9619 -16.9601 -16.9576
    -5.2894  -4.1729  -3.2952  -3.0741  -2.8333  -2.3642  -2.0325  -1.8140
    -0.5411  -0.2876  -0.1553   0.1869   0.6044   0.8117   1.3629   3.4702
     3.6333   3.8100   4.0900   4.3416   4.4292   4.5782   4.8291   5.0775
     5.2440   5.5380   5.8179   5.9938   6.1684   6.3225   7.1577   7.2967
     7.6694   7.7701   8.0586   8.1887   8.5954   8.6852   8.9614   9.0684
     9.2498   9.5165   9.7323  10.0467  10.1819  10.4833

     occupation numbers 
     1.0000   1.0000   1.0000   1.0000   1.0000   1.0000   1.0000   1.0000
     1.0000   1.0000   1.0000   1.0000   1.0000   1.0000   1.0000   1.0000
     1.0000   1.0000   1.0000   1.0000   1.0000   1.0000   1.0000   1.0000
     1.0000   1.0000   1.0000   1.0000   1.0000   1.0000   1.0000   1.0000
     1.0000   1.0000   1.0000   1.0000   1.0000   1.0000   1.0000   1.0000
     1.0000   1.0000   1.0000   1.0000   1.0000   1.0000   1.0000   1.0000
     1.0000   1.0000   1.0000   1.0000   1.0000   1.0000   1.0000   1.0000
     1.0000   1.0000   1.0000   1.0000   1.0000   1.0000   1.0000   1.0000
     1.0000   1.0000   1.0000   1.0000   1.0000   1.0000   0.9908   0.9181
     0.1170   0.0295   0.0001   0.0000   0.0000   0.0000   0.0000   0.0000
     0.0000   0.0000   0.0000   0.0000   0.0000   0.0000

          k = 0.3536 0.3536 0.3536 (  8026 PWs)   bands (ev):

   -17.5946 -17.5165 -17.5027 -17.4823 -17.4610 -17.4591 -17.4565 -17.4458
   -17.3517 -17.3482 -17.2222 -17.2062 -17.1999 -17.1886 -17.1862 -17.1685
   -17.1329 -17.1189 -17.1152 -17.0988 -17.0873 -17.0794 -17.0761 -17.0755
   -17.0735 -17.0705 -17.0438 -17.0342 -17.0172 -17.0142 -17.0094 -17.0005
   -16.9951 -16.9944 -16.9869 -16.9818 -16.9643 -16.9617 -16.9602 -16.9578
    -4.8960  -4.6222  -3.5016  -2.9897  -2.8128  -2.5352  -2.4262  -1.9831
    -0.0484   0.1600   0.4948   0.6588   0.8275   1.1478   2.3316   2.7630
     3.0602   3.1414   3.4979   3.6530   3.7131   4.2024   4.6522   4.8755
     5.0676   5.0971   5.2576   5.4940   6.4229   6.5769   6.8955   7.0933
     8.0701   8.1019   8.4882   8.5310   8.7440   8.7653   9.0640   9.3720
    10.3806  10.6875  10.8983  11.0088  11.1515  11.3101

     occupation numbers 
     1.0000   1.0000   1.0000   1.0000   1.0000   1.0000   1.0000   1.0000
     1.0000   1.0000   1.0000   1.0000   1.0000   1.0000   1.0000   1.0000
     1.0000   1.0000   1.0000   1.0000   1.0000   1.0000   1.0000   1.0000
     1.0000   1.0000   1.0000   1.0000   1.0000   1.0000   1.0000   1.0000
     1.0000   1.0000   1.0000   1.0000   1.0000   1.0000   1.0000   1.0000
     1.0000   1.0000   1.0000   1.0000   1.0000   1.0000   1.0000   1.0000
     1.0000   1.0000   1.0000   1.0000   1.0000   1.0000   1.0000   1.0000
     1.0000   1.0000   1.0000   1.0000   1.0000   1.0000   1.0000   1.0000
     1.0000   1.0000   1.0000   1.0000   1.0000   1.0000   1.0000   0.9975
     0.0000   0.0000   0.0000   0.0000   0.0000   0.0000   0.0000   0.0000
     0.0000   0.0000   0.0000   0.0000   0.0000   0.0000

          k = 0.3536-0.3536-0.3536 (  8026 PWs)   bands (ev):

   -17.5945 -17.5166 -17.5026 -17.4821 -17.4613 -17.4590 -17.4568 -17.4463
   -17.3516 -17.3479 -17.2221 -17.2064 -17.2001 -17.1885 -17.1859 -17.1684
   -17.1330 -17.1182 -17.1151 -17.0987 -17.0877 -17.0797 -17.0760 -17.0755
   -17.0738 -17.0704 -17.0434 -17.0345 -17.0160 -17.0151 -17.0092 -17.0008
   -16.9954 -16.9945 -16.9869 -16.9817 -16.9642 -16.9621 -16.9597 -16.9576
    -4.9716  -4.5568  -3.3908  -2.8923  -2.8807  -2.7270  -2.2362  -2.0762
    -0.1390   0.0630   0.4937   0.6886   0.8323   0.8646   2.4998   2.8726
     3.2613   3.4537   3.5699   3.7948   3.9379   4.0898   4.6137   4.7882
     4.9446   5.0506   5.1528   5.3134   6.1176   6.7455   6.9549   7.2654
     8.0101   8.1136   8.2609   8.3328   8.5740   8.7925   8.9219   9.0971
    10.4365  10.5746  10.8127  11.0666  11.1627  11.2427

     occupation numbers 
     1.0000   1.0000   1.0000   1.0000   1.0000   1.0000   1.0000   1.0000
     1.0000   1.0000   1.0000   1.0000   1.0000   1.0000   1.0000   1.0000
     1.0000   1.0000   1.0000   1.0000   1.0000   1.0000   1.0000   1.0000
     1.0000   1.0000   1.0000   1.0000   1.0000   1.0000   1.0000   1.0000
     1.0000   1.0000   1.0000   1.0000   1.0000   1.0000   1.0000   1.0000
     1.0000   1.0000   1.0000   1.0000   1.0000   1.0000   1.0000   1.0000
     1.0000   1.0000   1.0000   1.0000   1.0000   1.0000   1.0000   1.0000
     1.0000   1.0000   1.0000   1.0000   1.0000   1.0000   1.0000   1.0000
     1.0000   1.0000   1.0000   1.0000   1.0000   1.0000   0.9999   0.9463
     0.0002   0.0000   0.0000   0.0000   0.0000   0.0000   0.0000   0.0000
     0.0000   0.0000   0.0000   0.0000   0.0000   0.0000

          k =-0.3536 0.3536-0.3536 (  8026 PWs)   bands (ev):

   -17.5946 -17.5167 -17.5027 -17.4822 -17.4612 -17.4589 -17.4570 -17.4461
   -17.3514 -17.3481 -17.2221 -17.2062 -17.2000 -17.1882 -17.1859 -17.1688
   -17.1330 -17.1189 -17.1152 -17.0989 -17.0874 -17.0800 -17.0762 -17.0751
   -17.0733 -17.0700 -17.0437 -17.0345 -17.0159 -17.0148 -17.0095 -17.0003
   -16.9955 -16.9948 -16.9867 -16.9817 -16.9644 -16.9617 -16.9605 -16.9576
    -4.8921  -4.6877  -3.3303  -2.9918  -2.7943  -2.6694  -2.2097  -2.0439
    -0.2672  -0.0413   0.2542   0.4181   0.9482   1.3090   2.7886   2.8214
     3.2863   3.5848   3.6125   3.7181   4.0033   4.1529   4.5158   4.6115
     4.7842   4.8654   5.2014   5.6553   6.2217   6.4304   6.8032   7.1895
     7.9586   8.2213   8.2825   8.4045   8.4783   8.6036   8.9982   9.2861
    10.4188  10.4940  10.7420  10.8735  11.3933  11.4227

     occupation numbers 
     1.0000   1.0000   1.0000   1.0000   1.0000   1.0000   1.0000   1.0000
     1.0000   1.0000   1.0000   1.0000   1.0000   1.0000   1.0000   1.0000
     1.0000   1.0000   1.0000   1.0000   1.0000   1.0000   1.0000   1.0000
     1.0000   1.0000   1.0000   1.0000   1.0000   1.0000   1.0000   1.0000
     1.0000   1.0000   1.0000   1.0000   1.0000   1.0000   1.0000   1.0000
     1.0000   1.0000   1.0000   1.0000   1.0000   1.0000   1.0000   1.0000
     1.0000   1.0000   1.0000   1.0000   1.0000   1.0000   1.0000   1.0000
     1.0000   1.0000   1.0000   1.0000   1.0000   1.0000   1.0000   1.0000
     1.0000   1.0000   1.0000   1.0000   1.0000   1.0000   1.0000   0.9836
     0.0007   0.0000   0.0000   0.0000   0.0000   0.0000   0.0000   0.0000
     0.0000   0.0000   0.0000   0.0000   0.0000   0.0000

          k = 0.0000 0.3536 0.0000 (  8044 PWs)   bands (ev):

   -17.5947 -17.5168 -17.5027 -17.4824 -17.4611 -17.4590 -17.4568 -17.4461
   -17.3515 -17.3482 -17.2222 -17.2063 -17.2002 -17.1883 -17.1860 -17.1688
   -17.1330 -17.1190 -17.1152 -17.0989 -17.0872 -17.0798 -17.0762 -17.0753
   -17.0737 -17.0704 -17.0438 -17.0346 -17.0165 -17.0146 -17.0095 -17.0007
   -16.9952 -16.9946 -16.9868 -16.9817 -16.9642 -16.9622 -16.9597 -16.9576
    -5.2382  -4.0701  -3.4758  -3.1412  -2.9815  -2.7163  -1.6933  -1.5593
    -0.6476  -0.4498   0.1735   0.5857   0.6828   0.8630   1.4116   3.3212
     3.5336   3.6177   3.7346   4.2187   4.2982   4.5610   4.7107   4.7648
     5.1202   5.3757   5.9305   6.0139   6.2950   6.4132   6.7905   6.9262
     7.5595   8.1810   8.4284   8.6923   8.8616   8.9491   9.0410   9.1469
     9.4010   9.5943   9.8036  10.2491  10.4366  10.4941

     occupation numbers 
     1.0000   1.0000   1.0000   1.0000   1.0000   1.0000   1.0000   1.0000
     1.0000   1.0000   1.0000   1.0000   1.0000   1.0000   1.0000   1.0000
     1.0000   1.0000   1.0000   1.0000   1.0000   1.0000   1.0000   1.0000
     1.0000   1.0000   1.0000   1.0000   1.0000   1.0000   1.0000   1.0000
     1.0000   1.0000   1.0000   1.0000   1.0000   1.0000   1.0000   1.0000
     1.0000   1.0000   1.0000   1.0000   1.0000   1.0000   1.0000   1.0000
     1.0000   1.0000   1.0000   1.0000   1.0000   1.0000   1.0000   1.0000
     1.0000   1.0000   1.0000   1.0000   1.0000   1.0000   1.0000   1.0000
     1.0000   1.0000   1.0000   1.0000   1.0000   1.0000   1.0000   1.0000
     0.3342   0.0000   0.0000   0.0000   0.0000   0.0000   0.0000   0.0000
     0.0000   0.0000   0.0000   0.0000   0.0000   0.0000

          k = 0.0000 0.0000 0.3536 (  8044 PWs)   bands (ev):

   -17.5947 -17.5167 -17.5029 -17.4823 -17.4612 -17.4589 -17.4568 -17.4461
   -17.3516 -17.3480 -17.2222 -17.2064 -17.2002 -17.1883 -17.1861 -17.1687
   -17.1330 -17.1186 -17.1152 -17.0988 -17.0875 -17.0799 -17.0762 -17.0752
   -17.0736 -17.0705 -17.0439 -17.0346 -17.0171 -17.0142 -17.0095 -17.0005
   -16.9951 -16.9945 -16.9868 -16.9816 -16.9642 -16.9619 -16.9599 -16.9577
    -5.2432  -4.0624  -3.4565  -3.1583  -3.0637  -2.5387  -1.8814  -1.4490
    -0.7389  -0.3990   0.0787   0.4535   0.7791   1.0603   1.3679   3.3369
     3.5654   3.6540   3.8130   4.1174   4.3623   4.5038   4.7115   4.8992
     5.1723   5.4625   5.6616   5.9172   6.0878   6.2668   6.8685   7.0730
     7.6150   8.2559   8.3334   8.7105   8.8214   8.8548   9.1339   9.2649
     9.4303   9.5269   9.8249  10.3340  10.4781  10.6086

     occupation numbers 
     1.0000   1.0000   1.0000   1.0000   1.0000   1.0000   1.0000   1.0000
     1.0000   1.0000   1.0000   1.0000   1.0000   1.0000   1.0000   1.0000
     1.0000   1.0000   1.0000   1.0000   1.0000   1.0000   1.0000   1.0000
     1.0000   1.0000   1.0000   1.0000   1.0000   1.0000   1.0000   1.0000
     1.0000   1.0000   1.0000   1.0000   1.0000   1.0000   1.0000   1.0000
     1.0000   1.0000   1.0000   1.0000   1.0000   1.0000   1.0000   1.0000
     1.0000   1.0000   1.0000   1.0000   1.0000   1.0000   1.0000   1.0000
     1.0000   1.0000   1.0000   1.0000   1.0000   1.0000   1.0000   1.0000
     1.0000   1.0000   1.0000   1.0000   1.0000   1.0000   1.0000   0.9984
     0.2081   0.0000   0.0000   0.0000   0.0000   0.0000   0.0000   0.0000
     0.0000   0.0000   0.0000   0.0000   0.0000   0.0000

          k = 0.1768 0.5303 0.5303 (  8019 PWs)   bands (ev):

   -17.5945 -17.5166 -17.5027 -17.4822 -17.4610 -17.4590 -17.4567 -17.4457
   -17.3516 -17.3480 -17.2222 -17.2063 -17.1998 -17.1885 -17.1860 -17.1684
   -17.1331 -17.1185 -17.1152 -17.0987 -17.0874 -17.0796 -17.0761 -17.0752
   -17.0735 -17.0703 -17.0436 -17.0343 -17.0167 -17.0145 -17.0094 -17.0004
   -16.9953 -16.9945 -16.9867 -16.9817 -16.9641 -16.9617 -16.9603 -16.9576
    -4.8983  -4.4306  -3.7705  -3.2015  -2.9302  -2.4723  -2.1663  -1.8694
    -0.2601   0.1319   0.2141   0.7734   1.2828   1.7441   2.2896   2.8281
     3.0505   3.2956   3.3949   3.6184   3.8783   4.0099   4.3029   4.5240
     4.7584   5.1514   5.3648   5.4603   5.5502   6.1631   6.3687   6.9633
     8.2115   8.5134   8.8850   9.0995   9.3236   9.6197   9.7035  10.0017
    10.1402  10.3701  10.7499  10.8362  10.9947  11.1762

     occupation numbers 
     1.0000   1.0000   1.0000   1.0000   1.0000   1.0000   1.0000   1.0000
     1.0000   1.0000   1.0000   1.0000   1.0000   1.0000   1.0000   1.0000
     1.0000   1.0000   1.0000   1.0000   1.0000   1.0000   1.0000   1.0000
     1.0000   1.0000   1.0000   1.0000   1.0000   1.0000   1.0000   1.0000
     1.0000   1.0000   1.0000   1.0000   1.0000   1.0000   1.0000   1.0000
     1.0000   1.0000   1.0000   1.0000   1.0000   1.0000   1.0000   1.0000
     1.0000   1.0000   1.0000   1.0000   1.0000   1.0000   1.0000   1.0000
     1.0000   1.0000   1.0000   1.0000   1.0000   1.0000   1.0000   1.0000
     1.0000   1.0000   1.0000   1.0000   1.0000   1.0000   1.0000   0.9999
     0.0000   0.0000   0.0000   0.0000   0.0000   0.0000   0.0000   0.0000
     0.0000   0.0000   0.0000   0.0000   0.0000   0.0000

          k = 0.1768-0.5303-0.5303 (  8019 PWs)   bands (ev):

   -17.5945 -17.5166 -17.5026 -17.4821 -17.4611 -17.4589 -17.4568 -17.4461
   -17.3515 -17.3479 -17.2221 -17.2063 -17.2000 -17.1884 -17.1858 -17.1683
   -17.1332 -17.1182 -17.1151 -17.0986 -17.0876 -17.0797 -17.0763 -17.0752
   -17.0736 -17.0703 -17.0434 -17.0344 -17.0160 -17.0151 -17.0092 -17.0006
   -16.9954 -16.9946 -16.9867 -16.9816 -16.9641 -16.9620 -16.9600 -16.9576
    -4.9336  -4.3946  -3.7357  -3.2405  -2.8943  -2.4572  -2.1181  -1.9518
    -0.3107   0.0488   0.2436   0.7698   1.2731   1.6747   2.2399   2.8759
     3.2459   3.3490   3.4805   3.8710   3.9564   4.0942   4.2285   4.4933
     4.7435   4.8708   5.1829   5.4379   5.5004   6.2031   6.4102   7.0358
     8.2157   8.5115   8.7134   9.0881   9.2810   9.4695   9.6764   9.8855
    10.1254  10.2799  10.5927  10.7446  10.9731  11.1739

     occupation numbers 
     1.0000   1.0000   1.0000   1.0000   1.0000   1.0000   1.0000   1.0000
     1.0000   1.0000   1.0000   1.0000   1.0000   1.0000   1.0000   1.0000
     1.0000   1.0000   1.0000   1.0000   1.0000   1.0000   1.0000   1.0000
     1.0000   1.0000   1.0000   1.0000   1.0000   1.0000   1.0000   1.0000
     1.0000   1.0000   1.0000   1.0000   1.0000   1.0000   1.0000   1.0000
     1.0000   1.0000   1.0000   1.0000   1.0000   1.0000   1.0000   1.0000
     1.0000   1.0000   1.0000   1.0000   1.0000   1.0000   1.0000   1.0000
     1.0000   1.0000   1.0000   1.0000   1.0000   1.0000   1.0000   1.0000
     1.0000   1.0000   1.0000   1.0000   1.0000   1.0000   1.0000   0.9993
     0.0000   0.0000   0.0000   0.0000   0.0000   0.0000   0.0000   0.0000
     0.0000   0.0000   0.0000   0.0000   0.0000   0.0000

          k =-0.1768 0.5303-0.5303 (  8019 PWs)   bands (ev):

   -17.5945 -17.5166 -17.5026 -17.4822 -17.4610 -17.4589 -17.4568 -17.4459
   -17.3515 -17.3480 -17.2221 -17.2063 -17.1999 -17.1883 -17.1858 -17.1685
   -17.1331 -17.1186 -17.1152 -17.0987 -17.0874 -17.0798 -17.0762 -17.0751
   -17.0734 -17.0701 -17.0436 -17.0344 -17.0159 -17.0150 -17.0094 -17.0004
   -16.9954 -16.9947 -16.9867 -16.9817 -16.9642 -16.9615 -16.9604 -16.9575
    -4.8931  -4.5031  -3.6362  -3.1636  -2.9848  -2.5796  -2.0730  -1.7934
    -0.3941  -0.1162   0.3281   0.6544   1.1986   1.8574   2.4036   3.0137
     3.2354   3.3848   3.4749   3.6290   3.9666   4.1022   4.2959   4.5797
     4.7300   4.8670   4.9289   5.3606   5.9491   6.1381   6.4102   6.6862
     7.9804   8.4554   8.9116   9.1573   9.3071   9.4607   9.6351   9.9622
    10.0820  10.4099  10.7238  10.8927  10.9871  11.3049

     occupation numbers 
     1.0000   1.0000   1.0000   1.0000   1.0000   1.0000   1.0000   1.0000
     1.0000   1.0000   1.0000   1.0000   1.0000   1.0000   1.0000   1.0000
     1.0000   1.0000   1.0000   1.0000   1.0000   1.0000   1.0000   1.0000
     1.0000   1.0000   1.0000   1.0000   1.0000   1.0000   1.0000   1.0000
     1.0000   1.0000   1.0000   1.0000   1.0000   1.0000   1.0000   1.0000
     1.0000   1.0000   1.0000   1.0000   1.0000   1.0000   1.0000   1.0000
     1.0000   1.0000   1.0000   1.0000   1.0000   1.0000   1.0000   1.0000
     1.0000   1.0000   1.0000   1.0000   1.0000   1.0000   1.0000   1.0000
     1.0000   1.0000   1.0000   1.0000   1.0000   1.0000   1.0000   1.0000
     0.0004   0.0000   0.0000   0.0000   0.0000   0.0000   0.0000   0.0000
     0.0000   0.0000   0.0000   0.0000   0.0000   0.0000

          k =-0.5303-0.1768-0.5303 (  8019 PWs)   bands (ev):

   -17.5945 -17.5166 -17.5026 -17.4822 -17.4610 -17.4589 -17.4565 -17.4459
   -17.3516 -17.3481 -17.2221 -17.2061 -17.2000 -17.1883 -17.1860 -17.1686
   -17.1328 -17.1189 -17.1152 -17.0988 -17.0872 -17.0793 -17.0762 -17.0755
   -17.0735 -17.0703 -17.0436 -17.0344 -17.0167 -17.0144 -17.0093 -17.0006
   -16.9952 -16.9944 -16.9868 -16.9817 -16.9642 -16.9620 -16.9598 -16.9577
    -4.8906  -4.3932  -3.8337  -3.1832  -2.9679  -2.6618  -1.9787  -1.7726
    -0.2491   0.0446   0.4015   0.7997   1.1318   1.8964   2.1038   2.6751
     2.9987   3.1855   3.2992   3.6771   3.9968   4.1208   4.2102   4.5083
     4.8689   5.0743   5.3538   5.6231   5.7187   6.1701   6.4110   6.7560
     8.3279   8.6241   9.0180   9.1490   9.3213   9.6517   9.7448   9.9034
    10.1134  10.3446  10.5887  10.7544  10.8663  11.0906

     occupation numbers 
     1.0000   1.0000   1.0000   1.0000   1.0000   1.0000   1.0000   1.0000
     1.0000   1.0000   1.0000   1.0000   1.0000   1.0000   1.0000   1.0000
     1.0000   1.0000   1.0000   1.0000   1.0000   1.0000   1.0000   1.0000
     1.0000   1.0000   1.0000   1.0000   1.0000   1.0000   1.0000   1.0000
     1.0000   1.0000   1.0000   1.0000   1.0000   1.0000   1.0000   1.0000
     1.0000   1.0000   1.0000   1.0000   1.0000   1.0000   1.0000   1.0000
     1.0000   1.0000   1.0000   1.0000   1.0000   1.0000   1.0000   1.0000
     1.0000   1.0000   1.0000   1.0000   1.0000   1.0000   1.0000   1.0000
     1.0000   1.0000   1.0000   1.0000   1.0000   1.0000   1.0000   1.0000
     0.0000   0.0000   0.0000   0.0000   0.0000   0.0000   0.0000   0.0000
     0.0000   0.0000   0.0000   0.0000   0.0000   0.0000

          k = 0.5303 0.1768-0.5303 (  8019 PWs)   bands (ev):

   -17.5945 -17.5167 -17.5026 -17.4822 -17.4610 -17.4589 -17.4567 -17.4460
   -17.3515 -17.3480 -17.2219 -17.2061 -17.1999 -17.1882 -17.1860 -17.1687
   -17.1329 -17.1186 -17.1152 -17.0987 -17.0873 -17.0794 -17.0764 -17.0754
   -17.0736 -17.0704 -17.0437 -17.0345 -17.0165 -17.0144 -17.0094 -17.0006
   -16.9953 -16.9946 -16.9866 -16.9816 -16.9641 -16.9622 -16.9597 -16.9576
    -4.9916  -4.1175  -3.9347  -3.2711  -3.0842  -2.4767  -1.9063  -1.7827
    -0.3695  -0.0996   0.1422   1.0238   1.1596   1.6624   2.3127   2.8169
     3.0842   3.2544   3.4638   3.6940   3.9429   4.1602   4.4178   4.5288
     4.8112   4.9924   5.5009   5.5874   5.7269   5.9275   6.2267   6.8398
     7.9759   8.6160   8.8115   8.9539   9.2894   9.4896   9.8668  10.0987
    10.2051  10.2632  10.5265  10.6062  10.8720  11.0930

     occupation numbers 
     1.0000   1.0000   1.0000   1.0000   1.0000   1.0000   1.0000   1.0000
     1.0000   1.0000   1.0000   1.0000   1.0000   1.0000   1.0000   1.0000
     1.0000   1.0000   1.0000   1.0000   1.0000   1.0000   1.0000   1.0000
     1.0000   1.0000   1.0000   1.0000   1.0000   1.0000   1.0000   1.0000
     1.0000   1.0000   1.0000   1.0000   1.0000   1.0000   1.0000   1.0000
     1.0000   1.0000   1.0000   1.0000   1.0000   1.0000   1.0000   1.0000
     1.0000   1.0000   1.0000   1.0000   1.0000   1.0000   1.0000   1.0000
     1.0000   1.0000   1.0000   1.0000   1.0000   1.0000   1.0000   1.0000
     1.0000   1.0000   1.0000   1.0000   1.0000   1.0000   1.0000   1.0000
     0.0005   0.0000   0.0000   0.0000   0.0000   0.0000   0.0000   0.0000
     0.0000   0.0000   0.0000   0.0000   0.0000   0.0000

          k =-0.5303 0.1768 0.5303 (  8019 PWs)   bands (ev):

   -17.5945 -17.5166 -17.5025 -17.4822 -17.4611 -17.4589 -17.4567 -17.4461
   -17.3515 -17.3481 -17.2220 -17.2062 -17.2000 -17.1883 -17.1859 -17.1686
   -17.1329 -17.1186 -17.1152 -17.0988 -17.0874 -17.0795 -17.0761 -17.0754
   -17.0737 -17.0702 -17.0435 -17.0346 -17.0159 -17.0150 -17.0092 -17.0006
   -16.9953 -16.9944 -16.9868 -16.9817 -16.9642 -16.9622 -16.9596 -16.9576
    -4.9158  -4.4132  -3.6394  -3.3058  -3.0709  -2.5579  -1.9230  -1.8240
    -0.3008  -0.0517   0.4263   0.8756   1.0463   1.6082   2.3355   2.8233
     3.0425   3.1847   3.5439   3.8349   3.9407   4.0767   4.2683   4.3800
     4.7720   5.1439   5.3278   5.4213   5.7447   6.1747   6.4851   6.7520
     8.1624   8.5521   8.9070   8.9782   9.2589   9.3653   9.8237   9.9657
    10.1269  10.3346  10.7120  10.8568  11.0394  11.2174

     occupation numbers 
     1.0000   1.0000   1.0000   1.0000   1.0000   1.0000   1.0000   1.0000
     1.0000   1.0000   1.0000   1.0000   1.0000   1.0000   1.0000   1.0000
     1.0000   1.0000   1.0000   1.0000   1.0000   1.0000   1.0000   1.0000
     1.0000   1.0000   1.0000   1.0000   1.0000   1.0000   1.0000   1.0000
     1.0000   1.0000   1.0000   1.0000   1.0000   1.0000   1.0000   1.0000
     1.0000   1.0000   1.0000   1.0000   1.0000   1.0000   1.0000   1.0000
     1.0000   1.0000   1.0000   1.0000   1.0000   1.0000   1.0000   1.0000
     1.0000   1.0000   1.0000   1.0000   1.0000   1.0000   1.0000   1.0000
     1.0000   1.0000   1.0000   1.0000   1.0000   1.0000   1.0000   1.0000
     0.0000   0.0000   0.0000   0.0000   0.0000   0.0000   0.0000   0.0000
     0.0000   0.0000   0.0000   0.0000   0.0000   0.0000

          k = 0.5303-0.1768 0.5303 (  8019 PWs)   bands (ev):

   -17.5945 -17.5167 -17.5026 -17.4822 -17.4611 -17.4589 -17.4568 -17.4460
   -17.3514 -17.3481 -17.2220 -17.2062 -17.2000 -17.1882 -17.1859 -17.1687
   -17.1329 -17.1189 -17.1152 -17.0988 -17.0872 -17.0796 -17.0762 -17.0753
   -17.0735 -17.0701 -17.0436 -17.0345 -17.0159 -17.0149 -17.0093 -17.0004
   -16.9954 -16.9946 -16.9867 -16.9816 -16.9642 -16.9620 -16.9600 -16.9576
    -4.8974  -4.4314  -3.7769  -3.1862  -2.9517  -2.5944  -1.9353  -1.8491
    -0.3342  -0.0704   0.3317   0.7174   1.1293   1.8857   2.2916   2.8586
     3.0315   3.2147   3.6595   3.7995   3.8635   4.0379   4.2051   4.7190
     4.8592   4.9008   5.0938   5.4976   5.7705   6.0580   6.2620   6.9252
     8.3627   8.6693   8.8296   9.1088   9.2818   9.3940   9.6387   9.8440
    10.0220  10.2529  10.5320  10.7494  10.8252  11.1518

     occupation numbers 
     1.0000   1.0000   1.0000   1.0000   1.0000   1.0000   1.0000   1.0000
     1.0000   1.0000   1.0000   1.0000   1.0000   1.0000   1.0000   1.0000
     1.0000   1.0000   1.0000   1.0000   1.0000   1.0000   1.0000   1.0000
     1.0000   1.0000   1.0000   1.0000   1.0000   1.0000   1.0000   1.0000
     1.0000   1.0000   1.0000   1.0000   1.0000   1.0000   1.0000   1.0000
     1.0000   1.0000   1.0000   1.0000   1.0000   1.0000   1.0000   1.0000
     1.0000   1.0000   1.0000   1.0000   1.0000   1.0000   1.0000   1.0000
     1.0000   1.0000   1.0000   1.0000   1.0000   1.0000   1.0000   1.0000
     1.0000   1.0000   1.0000   1.0000   1.0000   1.0000   1.0000   1.0000
     0.0000   0.0000   0.0000   0.0000   0.0000   0.0000   0.0000   0.0000
     0.0000   0.0000   0.0000   0.0000   0.0000   0.0000

          k = 0.5303 0.5303-0.1768 (  8019 PWs)   bands (ev):

   -17.5946 -17.5165 -17.5028 -17.4822 -17.4611 -17.4589 -17.4568 -17.4460
   -17.3515 -17.3477 -17.2220 -17.2062 -17.2000 -17.1881 -17.1860 -17.1686
   -17.1330 -17.1181 -17.1153 -17.0987 -17.0875 -17.0797 -17.0763 -17.0753
   -17.0735 -17.0705 -17.0438 -17.0345 -17.0170 -17.0141 -17.0093 -17.0005
   -16.9951 -16.9946 -16.9867 -16.9814 -16.9641 -16.9619 -16.9600 -16.9576
    -4.9989  -4.1221  -3.9159  -3.3248  -2.9959  -2.3968  -2.1277  -1.6880
    -0.3458  -0.0956   0.0255   0.9375   1.2820   1.8024   2.1941   2.7998
     3.0698   3.4407   3.5168   3.7439   4.0050   4.2125   4.4081   4.4570
     4.8204   4.9544   5.1532   5.4926   5.6946   5.9879   6.2023   6.9124
     8.2507   8.5437   8.8490   9.0239   9.2795   9.4980   9.6630   9.9298
    10.1084  10.3388  10.5264  10.6482  10.8394  11.1989

     occupation numbers 
     1.0000   1.0000   1.0000   1.0000   1.0000   1.0000   1.0000   1.0000
     1.0000   1.0000   1.0000   1.0000   1.0000   1.0000   1.0000   1.0000
     1.0000   1.0000   1.0000   1.0000   1.0000   1.0000   1.0000   1.0000
     1.0000   1.0000   1.0000   1.0000   1.0000   1.0000   1.0000   1.0000
     1.0000   1.0000   1.0000   1.0000   1.0000   1.0000   1.0000   1.0000
     1.0000   1.0000   1.0000   1.0000   1.0000   1.0000   1.0000   1.0000
     1.0000   1.0000   1.0000   1.0000   1.0000   1.0000   1.0000   1.0000
     1.0000   1.0000   1.0000   1.0000   1.0000   1.0000   1.0000   1.0000
     1.0000   1.0000   1.0000   1.0000   1.0000   1.0000   1.0000   1.0000
     0.0000   0.0000   0.0000   0.0000   0.0000   0.0000   0.0000   0.0000
     0.0000   0.0000   0.0000   0.0000   0.0000   0.0000

          k =-0.5303 0.5303 0.1768 (  8019 PWs)   bands (ev):

   -17.5945 -17.5165 -17.5027 -17.4821 -17.4611 -17.4589 -17.4567 -17.4461
   -17.3516 -17.3479 -17.2220 -17.2062 -17.2001 -17.1883 -17.1859 -17.1685
   -17.1330 -17.1182 -17.1151 -17.0987 -17.0876 -17.0797 -17.0761 -17.0754
   -17.0736 -17.0704 -17.0436 -17.0345 -17.0167 -17.0144 -17.0092 -17.0006
   -16.9952 -16.9944 -16.9868 -16.9816 -16.9641 -16.9619 -16.9598 -16.9577
    -4.9322  -4.3693  -3.7659  -3.2260  -2.9411  -2.5549  -2.1428  -1.7409
    -0.3046  -0.0394   0.3956   0.7703   1.0639   1.9062   2.1759   2.7468
     3.1681   3.2555   3.4290   3.7850   3.9984   4.1211   4.3309   4.5916
     4.8959   4.9816   5.1573   5.4427   5.5901   5.9589   6.3435   6.9715
     8.1986   8.5442   8.8591   9.1195   9.3169   9.5674   9.7495   9.9591
    10.0321  10.4694  10.5616  10.8500  11.0198  11.2527

     occupation numbers 
     1.0000   1.0000   1.0000   1.0000   1.0000   1.0000   1.0000   1.0000
     1.0000   1.0000   1.0000   1.0000   1.0000   1.0000   1.0000   1.0000
     1.0000   1.0000   1.0000   1.0000   1.0000   1.0000   1.0000   1.0000
     1.0000   1.0000   1.0000   1.0000   1.0000   1.0000   1.0000   1.0000
     1.0000   1.0000   1.0000   1.0000   1.0000   1.0000   1.0000   1.0000
     1.0000   1.0000   1.0000   1.0000   1.0000   1.0000   1.0000   1.0000
     1.0000   1.0000   1.0000   1.0000   1.0000   1.0000   1.0000   1.0000
     1.0000   1.0000   1.0000   1.0000   1.0000   1.0000   1.0000   1.0000
     1.0000   1.0000   1.0000   1.0000   1.0000   1.0000   1.0000   0.9999
     0.0000   0.0000   0.0000   0.0000   0.0000   0.0000   0.0000   0.0000
     0.0000   0.0000   0.0000   0.0000   0.0000   0.0000

          k = 0.5303-0.5303 0.1768 (  8019 PWs)   bands (ev):

   -17.5946 -17.5165 -17.5028 -17.4822 -17.4611 -17.4588 -17.4568 -17.4460
   -17.3515 -17.3479 -17.2220 -17.2062 -17.2000 -17.1882 -17.1860 -17.1687
   -17.1329 -17.1186 -17.1151 -17.0988 -17.0874 -17.0798 -17.0761 -17.0752
   -17.0733 -17.0703 -17.0438 -17.0345 -17.0167 -17.0143 -17.0094 -17.0003
   -16.9953 -16.9945 -16.9867 -16.9816 -16.9642 -16.9617 -16.9603 -16.9576
    -4.9028  -4.4469  -3.7213  -3.2374  -2.9219  -2.5088  -2.1264  -1.7718
    -0.3309  -0.0273   0.2863   0.5761   1.2003   1.9606   2.3561   2.8576
     3.0847   3.2650   3.6021   3.7754   3.8882   4.0034   4.2112   4.6944
     4.7900   5.0354   5.2867   5.4644   5.5646   5.9630   6.1534   6.9624
     8.2508   8.5899   8.7793   9.1655   9.2943   9.4088   9.7330   9.9166
    10.2018  10.3748  10.6506  10.7776  10.8542  11.2537

     occupation numbers 
     1.0000   1.0000   1.0000   1.0000   1.0000   1.0000   1.0000   1.0000
     1.0000   1.0000   1.0000   1.0000   1.0000   1.0000   1.0000   1.0000
     1.0000   1.0000   1.0000   1.0000   1.0000   1.0000   1.0000   1.0000
     1.0000   1.0000   1.0000   1.0000   1.0000   1.0000   1.0000   1.0000
     1.0000   1.0000   1.0000   1.0000   1.0000   1.0000   1.0000   1.0000
     1.0000   1.0000   1.0000   1.0000   1.0000   1.0000   1.0000   1.0000
     1.0000   1.0000   1.0000   1.0000   1.0000   1.0000   1.0000   1.0000
     1.0000   1.0000   1.0000   1.0000   1.0000   1.0000   1.0000   1.0000
     1.0000   1.0000   1.0000   1.0000   1.0000   1.0000   1.0000   0.9999
     0.0000   0.0000   0.0000   0.0000   0.0000   0.0000   0.0000   0.0000
     0.0000   0.0000   0.0000   0.0000   0.0000   0.0000

          k =-0.5303-0.5303-0.1768 (  8019 PWs)   bands (ev):

   -17.5946 -17.5165 -17.5028 -17.4822 -17.4611 -17.4589 -17.4565 -17.4459
   -17.3516 -17.3480 -17.2221 -17.2062 -17.2000 -17.1884 -17.1860 -17.1686
   -17.1329 -17.1186 -17.1152 -17.0988 -17.0874 -17.0795 -17.0761 -17.0754
   -17.0734 -17.0704 -17.0439 -17.0344 -17.0171 -17.0141 -17.0094 -17.0004
   -16.9950 -16.9943 -16.9868 -16.9817 -16.9642 -16.9616 -16.9602 -16.9577
    -4.8908  -4.4399  -3.6603  -3.3635  -2.9915  -2.4587  -2.1689  -1.6899
    -0.2880  -0.0784   0.4088   0.9411   1.1695   1.6956   2.2684   2.7758
     2.8775   3.0749   3.5881   3.7438   3.8894   4.1985   4.3182   4.5393
     4.7140   5.0839   5.2547   5.3683   5.7185   6.1527   6.4107   6.8466
     8.3559   8.7766   8.9369   9.1010   9.2480   9.4652   9.7662  10.0345
    10.1477  10.3264  10.6668  10.8178  10.9610  11.1866

     occupation numbers 
     1.0000   1.0000   1.0000   1.0000   1.0000   1.0000   1.0000   1.0000
     1.0000   1.0000   1.0000   1.0000   1.0000   1.0000   1.0000   1.0000
     1.0000   1.0000   1.0000   1.0000   1.0000   1.0000   1.0000   1.0000
     1.0000   1.0000   1.0000   1.0000   1.0000   1.0000   1.0000   1.0000
     1.0000   1.0000   1.0000   1.0000   1.0000   1.0000   1.0000   1.0000
     1.0000   1.0000   1.0000   1.0000   1.0000   1.0000   1.0000   1.0000
     1.0000   1.0000   1.0000   1.0000   1.0000   1.0000   1.0000   1.0000
     1.0000   1.0000   1.0000   1.0000   1.0000   1.0000   1.0000   1.0000
     1.0000   1.0000   1.0000   1.0000   1.0000   1.0000   1.0000   1.0000
     0.0000   0.0000   0.0000   0.0000   0.0000   0.0000   0.0000   0.0000
     0.0000   0.0000   0.0000   0.0000   0.0000   0.0000

          k = 0.0000 0.3536 0.3536 (  8024 PWs)   bands (ev):

   -17.5945 -17.5166 -17.5026 -17.4823 -17.4612 -17.4589 -17.4566 -17.4461
   -17.3517 -17.3481 -17.2221 -17.2063 -17.2002 -17.1884 -17.1861 -17.1686
   -17.1329 -17.1185 -17.1151 -17.0988 -17.0875 -17.0796 -17.0762 -17.0753
   -17.0737 -17.0704 -17.0437 -17.0345 -17.0167 -17.0145 -17.0093 -17.0006
   -16.9953 -16.9944 -16.9868 -16.9817 -16.9643 -16.9620 -16.9598 -16.9577
    -5.0194  -4.3607  -3.6887  -3.0523  -2.8411  -2.5777  -2.3161  -1.7188
    -0.4052   0.1398   0.3629   0.6246   0.9669   1.4311   1.8932   2.6844
     3.0968   3.5448   3.6965   3.8961   4.0749   4.3254   4.4889   4.7419
     4.9693   5.1612   5.2970   5.4586   5.6065   6.0964   6.3837   7.4640
     8.0553   8.4178   8.7991   8.9939   9.2947   9.5240   9.6541   9.7486
     9.8092  10.1968  10.2700  10.4827  10.6504  10.8007

     occupation numbers 
     1.0000   1.0000   1.0000   1.0000   1.0000   1.0000   1.0000   1.0000
     1.0000   1.0000   1.0000   1.0000   1.0000   1.0000   1.0000   1.0000
     1.0000   1.0000   1.0000   1.0000   1.0000   1.0000   1.0000   1.0000
     1.0000   1.0000   1.0000   1.0000   1.0000   1.0000   1.0000   1.0000
     1.0000   1.0000   1.0000   1.0000   1.0000   1.0000   1.0000   1.0000
     1.0000   1.0000   1.0000   1.0000   1.0000   1.0000   1.0000   1.0000
     1.0000   1.0000   1.0000   1.0000   1.0000   1.0000   1.0000   1.0000
     1.0000   1.0000   1.0000   1.0000   1.0000   1.0000   1.0000   1.0000
     1.0000   1.0000   1.0000   1.0000   1.0000   1.0000   1.0000   0.5923
     0.0001   0.0000   0.0000   0.0000   0.0000   0.0000   0.0000   0.0000
     0.0000   0.0000   0.0000   0.0000   0.0000   0.0000

          k =-0.3536 0.0000-0.3536 (  8024 PWs)   bands (ev):

   -17.5946 -17.5166 -17.5027 -17.4823 -17.4611 -17.4589 -17.4568 -17.4459
   -17.3517 -17.3481 -17.2221 -17.2063 -17.2000 -17.1884 -17.1860 -17.1687
   -17.1330 -17.1189 -17.1152 -17.0988 -17.0872 -17.0797 -17.0761 -17.0753
   -17.0734 -17.0702 -17.0438 -17.0344 -17.0167 -17.0144 -17.0095 -17.0004
   -16.9953 -16.9945 -16.9868 -16.9817 -16.9643 -16.9617 -16.9604 -16.9576
    -5.0104  -4.3683  -3.7529  -3.0299  -2.7509  -2.5800  -2.2873  -1.7435
    -0.4094   0.1228   0.1770   0.4917   0.9884   1.6444   1.9603   2.8572
     3.2719   3.5187   3.7054   3.8048   3.9474   4.1873   4.4310   4.6351
     4.9803   5.0953   5.4526   5.6203   5.7498   6.0353   6.2195   7.3047
     8.2017   8.4772   8.8660   8.9651   9.2709   9.4096   9.6058   9.6711
     9.8834   9.9914  10.2709  10.4743  10.6435  10.7998

     occupation numbers 
     1.0000   1.0000   1.0000   1.0000   1.0000   1.0000   1.0000   1.0000
     1.0000   1.0000   1.0000   1.0000   1.0000   1.0000   1.0000   1.0000
     1.0000   1.0000   1.0000   1.0000   1.0000   1.0000   1.0000   1.0000
     1.0000   1.0000   1.0000   1.0000   1.0000   1.0000   1.0000   1.0000
     1.0000   1.0000   1.0000   1.0000   1.0000   1.0000   1.0000   1.0000
     1.0000   1.0000   1.0000   1.0000   1.0000   1.0000   1.0000   1.0000
     1.0000   1.0000   1.0000   1.0000   1.0000   1.0000   1.0000   1.0000
     1.0000   1.0000   1.0000   1.0000   1.0000   1.0000   1.0000   1.0000
     1.0000   1.0000   1.0000   1.0000   1.0000   1.0000   1.0000   0.9094
     0.0000   0.0000   0.0000   0.0000   0.0000   0.0000   0.0000   0.0000
     0.0000   0.0000   0.0000   0.0000   0.0000   0.0000

          k = 0.3536 0.0000-0.3536 (  8024 PWs)   bands (ev):

   -17.5946 -17.5166 -17.5028 -17.4822 -17.4612 -17.4590 -17.4568 -17.4461
   -17.3516 -17.3479 -17.2221 -17.2062 -17.2000 -17.1884 -17.1859 -17.1685
   -17.1331 -17.1182 -17.1153 -17.0986 -17.0876 -17.0797 -17.0764 -17.0754
   -17.0737 -17.0705 -17.0436 -17.0345 -17.0165 -17.0147 -17.0092 -17.0007
   -16.9954 -16.9946 -16.9867 -16.9816 -16.9641 -16.9622 -16.9598 -16.9576
    -5.0914  -4.1602  -3.7445  -3.2625  -2.8606  -2.3645  -2.1660  -1.8242
    -0.3534  -0.2567   0.1132   0.8916   0.9906   1.4941   1.8068   2.8851
     3.4035   3.4894   3.7880   3.8510   4.1872   4.4543   4.5467   4.6643
     4.8852   5.0279   5.1677   5.5275   5.8077   6.0496   6.3186   7.1470
     7.9128   8.5809   8.6970   8.9216   9.1289   9.2012   9.5641   9.8145
     9.9504  10.0858  10.2174  10.3363  10.6336  10.7451

     occupation numbers 
     1.0000   1.0000   1.0000   1.0000   1.0000   1.0000   1.0000   1.0000
     1.0000   1.0000   1.0000   1.0000   1.0000   1.0000   1.0000   1.0000
     1.0000   1.0000   1.0000   1.0000   1.0000   1.0000   1.0000   1.0000
     1.0000   1.0000   1.0000   1.0000   1.0000   1.0000   1.0000   1.0000
     1.0000   1.0000   1.0000   1.0000   1.0000   1.0000   1.0000   1.0000
     1.0000   1.0000   1.0000   1.0000   1.0000   1.0000   1.0000   1.0000
     1.0000   1.0000   1.0000   1.0000   1.0000   1.0000   1.0000   1.0000
     1.0000   1.0000   1.0000   1.0000   1.0000   1.0000   1.0000   1.0000
     1.0000   1.0000   1.0000   1.0000   1.0000   1.0000   1.0000   0.9925
     0.0020   0.0000   0.0000   0.0000   0.0000   0.0000   0.0000   0.0000
     0.0000   0.0000   0.0000   0.0000   0.0000   0.0000

          k = 0.3536 0.3536 0.0000 (  8024 PWs)   bands (ev):

   -17.5945 -17.5167 -17.5027 -17.4822 -17.4610 -17.4591 -17.4567 -17.4459
   -17.3516 -17.3481 -17.2221 -17.2063 -17.2000 -17.1884 -17.1860 -17.1686
   -17.1330 -17.1186 -17.1152 -17.0987 -17.0873 -17.0796 -17.0763 -17.0755
   -17.0736 -17.0705 -17.0438 -17.0344 -17.0170 -17.0142 -17.0094 -17.0007
   -16.9951 -16.9947 -16.9866 -16.9817 -16.9641 -16.9619 -16.9600 -16.9576
    -5.0697  -4.2087  -3.7184  -3.2876  -2.8099  -2.5198  -2.1206  -1.7427
    -0.4126  -0.0634   0.0650   0.8602   1.0624   1.5322   1.8292   2.7646
     3.1825   3.4106   3.6404   3.9575   4.1106   4.3767   4.5441   4.7951
     4.9508   5.1158   5.3013   5.5922   5.7521   5.9908   6.1798   7.2761
     8.1402   8.5764   8.7481   8.9997   9.1778   9.3146   9.5726   9.7759
     9.9491  10.0587  10.2726  10.3360  10.4898  10.7356

     occupation numbers 
     1.0000   1.0000   1.0000   1.0000   1.0000   1.0000   1.0000   1.0000
     1.0000   1.0000   1.0000   1.0000   1.0000   1.0000   1.0000   1.0000
     1.0000   1.0000   1.0000   1.0000   1.0000   1.0000   1.0000   1.0000
     1.0000   1.0000   1.0000   1.0000   1.0000   1.0000   1.0000   1.0000
     1.0000   1.0000   1.0000   1.0000   1.0000   1.0000   1.0000   1.0000
     1.0000   1.0000   1.0000   1.0000   1.0000   1.0000   1.0000   1.0000
     1.0000   1.0000   1.0000   1.0000   1.0000   1.0000   1.0000   1.0000
     1.0000   1.0000   1.0000   1.0000   1.0000   1.0000   1.0000   1.0000
     1.0000   1.0000   1.0000   1.0000   1.0000   1.0000   1.0000   0.9376
     0.0000   0.0000   0.0000   0.0000   0.0000   0.0000   0.0000   0.0000
     0.0000   0.0000   0.0000   0.0000   0.0000   0.0000

          k =-0.3536 0.3536 0.0000 (  8024 PWs)   bands (ev):

   -17.5946 -17.5166 -17.5027 -17.4822 -17.4611 -17.4590 -17.4569 -17.4461
   -17.3515 -17.3480 -17.2222 -17.2063 -17.2001 -17.1884 -17.1858 -17.1686
   -17.1330 -17.1186 -17.1152 -17.0988 -17.0874 -17.0798 -17.0762 -17.0753
   -17.0736 -17.0702 -17.0436 -17.0346 -17.0159 -17.0150 -17.0093 -17.0006
   -16.9953 -16.9947 -16.9868 -16.9817 -16.9642 -16.9620 -16.9600 -16.9575
    -5.0277  -4.3796  -3.6820  -2.9891  -2.7951  -2.5775  -2.2602  -1.8413
    -0.3281  -0.0281   0.2059   0.5009   0.9657   1.5505   1.9889   2.8373
     3.4162   3.5908   3.7979   3.9154   4.0904   4.2289   4.4493   4.6221
     4.9819   5.0698   5.3403   5.4465   5.7581   5.9754   6.1164   7.3253
     8.0992   8.5106   8.7399   8.8639   9.1899   9.2944   9.6068   9.8372
     9.8802  10.0573  10.1552  10.4158  10.6654  10.7912

     occupation numbers 
     1.0000   1.0000   1.0000   1.0000   1.0000   1.0000   1.0000   1.0000
     1.0000   1.0000   1.0000   1.0000   1.0000   1.0000   1.0000   1.0000
     1.0000   1.0000   1.0000   1.0000   1.0000   1.0000   1.0000   1.0000
     1.0000   1.0000   1.0000   1.0000   1.0000   1.0000   1.0000   1.0000
     1.0000   1.0000   1.0000   1.0000   1.0000   1.0000   1.0000   1.0000
     1.0000   1.0000   1.0000   1.0000   1.0000   1.0000   1.0000   1.0000
     1.0000   1.0000   1.0000   1.0000   1.0000   1.0000   1.0000   1.0000
     1.0000   1.0000   1.0000   1.0000   1.0000   1.0000   1.0000   1.0000
     1.0000   1.0000   1.0000   1.0000   1.0000   1.0000   1.0000   0.8839
     0.0000   0.0000   0.0000   0.0000   0.0000   0.0000   0.0000   0.0000
     0.0000   0.0000   0.0000   0.0000   0.0000   0.0000

          k = 0.0000-0.7071 0.0000 (  7992 PWs)   bands (ev):

   -17.5943 -17.5165 -17.5023 -17.4821 -17.4609 -17.4587 -17.4565 -17.4459
   -17.3513 -17.3480 -17.2218 -17.2060 -17.1998 -17.1880 -17.1857 -17.1686
   -17.1327 -17.1188 -17.1151 -17.0987 -17.0870 -17.0790 -17.0762 -17.0753
   -17.0735 -17.0700 -17.0434 -17.0344 -17.0158 -17.0147 -17.0091 -17.0005
   -16.9952 -16.9943 -16.9866 -16.9815 -16.9641 -16.9621 -16.9594 -16.9575
    -4.8123  -4.2864  -3.9639  -3.2603  -3.1275  -2.9451  -1.6160  -1.5094
    -0.4787  -0.2698   0.9566   1.2010   1.2587   1.5214   2.6960   2.8788
     3.0568   3.1308   3.1809   3.4452   3.5725   3.6788   3.7436   3.9886
     5.2208   5.2330   5.4639   5.5910   5.9274   6.1760   6.2967   6.5770
     7.9571   8.1999   8.9685   9.1954   9.3016   9.5630   9.7816  10.1045
    10.8515  10.9372  11.1617  11.4631  11.5495  11.6412

     occupation numbers 
     1.0000   1.0000   1.0000   1.0000   1.0000   1.0000   1.0000   1.0000
     1.0000   1.0000   1.0000   1.0000   1.0000   1.0000   1.0000   1.0000
     1.0000   1.0000   1.0000   1.0000   1.0000   1.0000   1.0000   1.0000
     1.0000   1.0000   1.0000   1.0000   1.0000   1.0000   1.0000   1.0000
     1.0000   1.0000   1.0000   1.0000   1.0000   1.0000   1.0000   1.0000
     1.0000   1.0000   1.0000   1.0000   1.0000   1.0000   1.0000   1.0000
     1.0000   1.0000   1.0000   1.0000   1.0000   1.0000   1.0000   1.0000
     1.0000   1.0000   1.0000   1.0000   1.0000   1.0000   1.0000   1.0000
     1.0000   1.0000   1.0000   1.0000   1.0000   1.0000   1.0000   1.0000
     0.0007   0.0000   0.0000   0.0000   0.0000   0.0000   0.0000   0.0000
     0.0000   0.0000   0.0000   0.0000   0.0000   0.0000

          k = 0.0000 0.0000-0.7071 (  7992 PWs)   bands (ev):

   -17.5944 -17.5163 -17.5027 -17.4820 -17.4610 -17.4586 -17.4565 -17.4459
   -17.3514 -17.3477 -17.2219 -17.2060 -17.1999 -17.1880 -17.1859 -17.1685
   -17.1328 -17.1180 -17.1150 -17.0986 -17.0875 -17.0796 -17.0759 -17.0751
   -17.0733 -17.0704 -17.0437 -17.0343 -17.0170 -17.0139 -17.0092 -17.0002
   -16.9949 -16.9941 -16.9867 -16.9814 -16.9641 -16.9615 -16.9600 -16.9576
    -4.8334  -4.3093  -3.8791  -3.2902  -3.1926  -2.7988  -1.8264  -1.3741
    -0.6159  -0.2489   0.9661   1.0774   1.3129   1.6315   2.7740   2.8894
     2.9611   3.2127   3.3463   3.4034   3.6568   3.7540   3.8241   4.0954
     4.9512   5.1423   5.4085   5.5305   5.5891   5.9849   6.4691   6.7087
     7.9892   8.2304   8.9203   9.2156   9.3539   9.4876   9.9537  10.2157
    10.6882  11.1962  11.2975  11.3902  11.5050  11.6433

     occupation numbers 
     1.0000   1.0000   1.0000   1.0000   1.0000   1.0000   1.0000   1.0000
     1.0000   1.0000   1.0000   1.0000   1.0000   1.0000   1.0000   1.0000
     1.0000   1.0000   1.0000   1.0000   1.0000   1.0000   1.0000   1.0000
     1.0000   1.0000   1.0000   1.0000   1.0000   1.0000   1.0000   1.0000
     1.0000   1.0000   1.0000   1.0000   1.0000   1.0000   1.0000   1.0000
     1.0000   1.0000   1.0000   1.0000   1.0000   1.0000   1.0000   1.0000
     1.0000   1.0000   1.0000   1.0000   1.0000   1.0000   1.0000   1.0000
     1.0000   1.0000   1.0000   1.0000   1.0000   1.0000   1.0000   1.0000
     1.0000   1.0000   1.0000   1.0000   1.0000   1.0000   1.0000   1.0000
     0.0003   0.0000   0.0000   0.0000   0.0000   0.0000   0.0000   0.0000
     0.0000   0.0000   0.0000   0.0000   0.0000   0.0000

          k = 0.3536-0.7071 0.0000 (  8004 PWs)   bands (ev):

   -17.5945 -17.5166 -17.5027 -17.4822 -17.4610 -17.4589 -17.4566 -17.4460
   -17.3515 -17.3480 -17.2220 -17.2061 -17.2001 -17.1882 -17.1859 -17.1687
   -17.1328 -17.1186 -17.1152 -17.0988 -17.0873 -17.0795 -17.0762 -17.0754
   -17.0735 -17.0703 -17.0437 -17.0346 -17.0166 -17.0143 -17.0093 -17.0005
   -16.9952 -16.9944 -16.9868 -16.9816 -16.9642 -16.9620 -16.9599 -16.9576
    -4.7850  -4.3205  -3.9961  -3.5501  -2.8328  -2.3994  -2.1102  -1.8051
    -0.1968   0.1216   0.3929   0.5971   1.7024   2.3250   2.4449   2.6856
     2.7704   3.0675   3.1720   3.3533   3.9515   4.0566   4.2434   4.5746
     4.6654   4.9199   5.1361   5.2761   5.5997   5.7462   6.1528   6.4733
     8.8372   9.1029   9.3933   9.5923   9.6831   9.7446   9.9489  10.1467
    10.2995  10.4708  10.5491  10.8226  11.1691  11.3090

     occupation numbers 
     1.0000   1.0000   1.0000   1.0000   1.0000   1.0000   1.0000   1.0000
     1.0000   1.0000   1.0000   1.0000   1.0000   1.0000   1.0000   1.0000
     1.0000   1.0000   1.0000   1.0000   1.0000   1.0000   1.0000   1.0000
     1.0000   1.0000   1.0000   1.0000   1.0000   1.0000   1.0000   1.0000
     1.0000   1.0000   1.0000   1.0000   1.0000   1.0000   1.0000   1.0000
     1.0000   1.0000   1.0000   1.0000   1.0000   1.0000   1.0000   1.0000
     1.0000   1.0000   1.0000   1.0000   1.0000   1.0000   1.0000   1.0000
     1.0000   1.0000   1.0000   1.0000   1.0000   1.0000   1.0000   1.0000
     1.0000   1.0000   1.0000   1.0000   1.0000   1.0000   1.0000   1.0000
     0.0000   0.0000   0.0000   0.0000   0.0000   0.0000   0.0000   0.0000
     0.0000   0.0000   0.0000   0.0000   0.0000   0.0000

          k = 0.7071-0.0000 0.3536 (  8004 PWs)   bands (ev):

   -17.5945 -17.5167 -17.5025 -17.4822 -17.4610 -17.4588 -17.4567 -17.4459
   -17.3515 -17.3480 -17.2221 -17.2062 -17.1999 -17.1883 -17.1859 -17.1685
   -17.1331 -17.1186 -17.1152 -17.0987 -17.0873 -17.0795 -17.0763 -17.0752
   -17.0736 -17.0702 -17.0435 -17.0345 -17.0159 -17.0150 -17.0093 -17.0005
   -16.9954 -16.9945 -16.9867 -16.9817 -16.9641 -16.9620 -16.9599 -16.9576
    -4.7791  -4.3803  -3.9586  -3.5173  -2.7316  -2.4362  -2.0731  -1.9737
    -0.1593   0.1405   0.3251   0.5971   1.7291   2.2709   2.5038   2.7187
     2.8615   2.9891   3.1678   3.5783   3.9837   4.0830   4.2854   4.4515
     4.5359   4.7921   5.0002   5.1747   5.5618   6.1295   6.2847   6.3768
     8.6920   9.1094   9.2205   9.3981   9.5508   9.7958   9.8912  10.2412
    10.3668  10.5578  10.6689  10.7832  11.0909  11.3774

     occupation numbers 
     1.0000   1.0000   1.0000   1.0000   1.0000   1.0000   1.0000   1.0000
     1.0000   1.0000   1.0000   1.0000   1.0000   1.0000   1.0000   1.0000
     1.0000   1.0000   1.0000   1.0000   1.0000   1.0000   1.0000   1.0000
     1.0000   1.0000   1.0000   1.0000   1.0000   1.0000   1.0000   1.0000
     1.0000   1.0000   1.0000   1.0000   1.0000   1.0000   1.0000   1.0000
     1.0000   1.0000   1.0000   1.0000   1.0000   1.0000   1.0000   1.0000
     1.0000   1.0000   1.0000   1.0000   1.0000   1.0000   1.0000   1.0000
     1.0000   1.0000   1.0000   1.0000   1.0000   1.0000   1.0000   1.0000
     1.0000   1.0000   1.0000   1.0000   1.0000   1.0000   1.0000   1.0000
     0.0000   0.0000   0.0000   0.0000   0.0000   0.0000   0.0000   0.0000
     0.0000   0.0000   0.0000   0.0000   0.0000   0.0000

     the Fermi energy is     7.4977 ev

!    total energy              =   -1781.46703369 Ry
     Harris-Foulkes estimate   =   -1781.46703368 Ry
     estimated scf accuracy    <          1.8E-10 Ry

     The total energy is the sum of the following terms:

     one-electron contribution =   -1204.25744862 Ry
     hartree contribution      =     717.15655808 Ry
     xc contribution           =    -495.29972797 Ry
     ewald contribution        =    -799.06296487 Ry
     smearing contrib. (-TS)   =      -0.00345032 Ry

     convergence has been achieved in  13 iterations

     Forces acting on atoms (Ry/au):

     atom    1 type  1   force =   0.32546552E-01 -0.50224878E-01  0.35175351E-01
     atom    2 type  2   force =  -0.57593430E-01 -0.23136942E-01  0.63170481E-01
     atom    3 type  1   force =  -0.72028767E-01  0.84504570E-01 -0.13146825E-01
     atom    4 type  2   force =   0.43462952E-01  0.53148928E-01  0.78867516E-02
     atom    5 type  1   force =  -0.22991367E-01  0.98938696E-02  0.43420525E-01
     atom    6 type  2   force =  -0.16317323E+00 -0.83671594E-01  0.62164341E-01
     atom    7 type  1   force =  -0.16025928E+00 -0.96391736E-01 -0.26255367E+00
     atom    8 type  2   force =   0.26809668E+00  0.26554016E+00  0.22100103E+00
     atom    9 type  1   force =   0.14976680E+00 -0.11448270E+00  0.78170355E-01
     atom   10 type  2   force =  -0.91207772E-01 -0.72811216E-01  0.77387275E-01
     atom   11 type  1   force =   0.82626553E-02  0.51635727E-01 -0.12092687E+00
     atom   12 type  2   force =   0.33743981E-01 -0.15010656E-02 -0.64936305E-01
     atom   13 type  1   force =  -0.75278338E-02 -0.14823616E-01  0.49505774E-01
     atom   14 type  2   force =  -0.10379700E+00  0.10186993E+00 -0.17480270E+00
     atom   15 type  1   force =  -0.75672612E-03 -0.97125414E-01  0.34163677E-01
     atom   16 type  2   force =   0.14345579E+00 -0.12424027E-01 -0.35679195E-01
     The non-local contrib.  to forces
     atom    1 type  1   force =   0.81115531E-02 -0.61655883E-01  0.60508245E-01
     atom    2 type  2   force =   0.31995003E-02  0.33815363E-01  0.67723842E-01
     atom    3 type  1   force =  -0.44263271E-01  0.10349841E+00 -0.32307987E-01
     atom    4 type  2   force =  -0.48641157E-01  0.49557787E-01 -0.62416333E-01
     atom    5 type  1   force =  -0.27667263E-01  0.15004630E-01  0.86632724E-01
     atom    6 type  2   force =  -0.57996423E-01 -0.66469996E-01  0.15102486E-01
     atom    7 type  1   force =  -0.11106876E+00 -0.66124682E-01 -0.22985829E+00
     atom    8 type  2   force =   0.33036528E-01  0.87173128E-01  0.72717833E-01
     atom    9 type  1   force =   0.12772577E+00 -0.13836117E+00  0.98529624E-01
     atom   10 type  2   force =  -0.52317098E-01 -0.49055302E-01  0.14490188E-02
     atom   11 type  1   force =   0.48392387E-01  0.77493306E-01 -0.11273225E+00
     atom   12 type  2   force =   0.15417492E-01 -0.41297631E-02 -0.84342509E-01
     atom   13 type  1   force =   0.83476962E-02 -0.24509988E-01  0.47605296E-01
     atom   14 type  2   force =  -0.18699102E-01  0.10577737E-01 -0.47755352E-01
     atom   15 type  1   force =   0.29986928E-01 -0.10260115E+00  0.91174434E-02
     atom   16 type  2   force =   0.50555148E-01  0.27869884E-03 -0.32709497E-01
     The ionic contribution  to forces
     atom    1 type  1   force =  -0.15534740E+01 -0.13493887E+01  0.13185928E+01
     atom    2 type  2   force =  -0.25421863E+01 -0.16622212E+01  0.39809627E+01
     atom    3 type  1   force =  -0.29574560E+00  0.17934323E+01 -0.70959738E-01
     atom    4 type  2   force =  -0.20707725E+00  0.50226885E+01 -0.30318892E+01
     atom    5 type  1   force =  -0.13720850E+01 -0.68766481E-01  0.14346306E+01
     atom    6 type  2   force =  -0.78253281E+01 -0.33173446E+01  0.44249399E+01
     atom    7 type  1   force =  -0.69963436E-01  0.61642972E+00 -0.18735030E+01
     atom    8 type  2   force =   0.55612755E+01  0.69874472E+01  0.25164292E+01
     atom    9 type  1   force =   0.11126639E+01 -0.21921448E+01  0.92295602E+00
     atom   10 type  2   force =  -0.88392346E+00 -0.39660539E+01  0.27396663E+01
     atom   11 type  1   force =   0.12531042E+01  0.10116441E+01 -0.17727844E+01
     atom   12 type  2   force =   0.24136291E+01  0.53297350E+00 -0.31758634E+01
     atom   13 type  1   force =  -0.86920910E+00 -0.11643879E+01  0.12093820E+01
     atom   14 type  2   force =  -0.31112935E+01 -0.14596533E+01 -0.21861483E+01
     atom   15 type  1   force =   0.14395745E+01 -0.68635962E+00 -0.10791941E+01
     atom   16 type  2   force =   0.69500385E+01 -0.98294907E-01 -0.53572174E+01
     The local contribution  to forces
     atom    1 type  1   force =   0.15774018E+01  0.13545630E+01 -0.13383858E+01
     atom    2 type  2   force =   0.24734230E+01  0.16050398E+01 -0.39788192E+01
     atom    3 type  1   force =   0.26392611E+00 -0.18025468E+01  0.87558909E-01
     atom    4 type  2   force =   0.30286214E+00 -0.50140002E+01  0.31019537E+01
     atom    5 type  1   force =   0.13735608E+01  0.65075448E-01 -0.14697347E+01
     atom    6 type  2   force =   0.77038278E+01  0.32925353E+01 -0.43767688E+01
     atom    7 type  1   force =   0.11318814E-01 -0.65179847E+00  0.18202788E+01
     atom    8 type  2   force =  -0.53034286E+01 -0.67875500E+01 -0.23471521E+01
     atom    9 type  1   force =  -0.10787271E+01  0.22025520E+01 -0.93409925E+00
     atom   10 type  2   force =   0.83387289E+00  0.39350555E+01 -0.26596230E+01
     atom   11 type  1   force =  -0.12880840E+01 -0.10300178E+01  0.17540612E+01
     atom   12 type  2   force =  -0.23921694E+01 -0.52807390E+00  0.31865956E+01
     atom   13 type  1   force =   0.85343481E+00  0.11715160E+01 -0.12025983E+01
     atom   14 type  2   force =   0.30208641E+01  0.15599633E+01  0.20416261E+01
     atom   15 type  1   force =  -0.14672776E+01  0.68226691E+00  0.11040736E+01
     atom   16 type  2   force =  -0.68448743E+01  0.83127781E-01  0.53524319E+01
     The core correction contribution to forces
     atom    1 type  1   force =   0.50561827E-03  0.62565620E-02 -0.55407702E-02
     atom    2 type  2   force =   0.79698949E-02  0.22125266E-03 -0.66836239E-02
     atom    3 type  1   force =   0.40542341E-02 -0.98775572E-02  0.25633136E-02
     atom    4 type  2   force =  -0.36734246E-02 -0.50970286E-02  0.23231901E-03
     atom    5 type  1   force =   0.32000448E-02 -0.14182769E-02 -0.81066503E-02
     atom    6 type  2   force =   0.16304381E-01  0.75992504E-02 -0.11068416E-02
     atom    7 type  1   force =   0.94524051E-02  0.51020386E-02  0.20526933E-01
     atom    8 type  2   force =  -0.22777694E-01 -0.21510051E-01 -0.20992874E-01
     atom    9 type  1   force =  -0.11893916E-01  0.13471918E-01 -0.92169365E-02
     atom   10 type  2   force =   0.11154160E-01  0.72292577E-02 -0.40979538E-02
     atom   11 type  1   force =  -0.51501596E-02 -0.74856238E-02  0.10526280E-01
     atom   12 type  2   force =  -0.31188374E-02 -0.22680013E-02  0.86769580E-02
     atom   13 type  1   force =  -0.10174085E-03  0.25564812E-02 -0.48844977E-02
     atom   14 type  2   force =   0.53209985E-02 -0.90141562E-02  0.17477827E-01
     atom   15 type  1   force =  -0.30371483E-02  0.95689241E-02  0.16614709E-03
     atom   16 type  2   force =  -0.12263141E-01  0.24643909E-02  0.17997272E-02
     The Hubbard contrib.    to forces
     atom    1 type  1   force =   0.00000000E+00  0.00000000E+00  0.00000000E+00
     atom    2 type  2   force =   0.00000000E+00  0.00000000E+00  0.00000000E+00
     atom    3 type  1   force =   0.00000000E+00  0.00000000E+00  0.00000000E+00
     atom    4 type  2   force =   0.00000000E+00  0.00000000E+00  0.00000000E+00
     atom    5 type  1   force =   0.00000000E+00  0.00000000E+00  0.00000000E+00
     atom    6 type  2   force =   0.00000000E+00  0.00000000E+00  0.00000000E+00
     atom    7 type  1   force =   0.00000000E+00  0.00000000E+00  0.00000000E+00
     atom    8 type  2   force =   0.00000000E+00  0.00000000E+00  0.00000000E+00
     atom    9 type  1   force =   0.00000000E+00  0.00000000E+00  0.00000000E+00
     atom   10 type  2   force =   0.00000000E+00  0.00000000E+00  0.00000000E+00
     atom   11 type  1   force =   0.00000000E+00  0.00000000E+00  0.00000000E+00
     atom   12 type  2   force =   0.00000000E+00  0.00000000E+00  0.00000000E+00
     atom   13 type  1   force =   0.00000000E+00  0.00000000E+00  0.00000000E+00
     atom   14 type  2   force =   0.00000000E+00  0.00000000E+00  0.00000000E+00
     atom   15 type  1   force =   0.00000000E+00  0.00000000E+00  0.00000000E+00
     atom   16 type  2   force =   0.00000000E+00  0.00000000E+00  0.00000000E+00
     The SCF correction term to forces
     atom    1 type  1   force =   0.19056356E-05  0.36919544E-06  0.11141945E-06
     atom    2 type  2   force =   0.76839343E-06  0.80934474E-05 -0.13978720E-04
     atom    3 type  1   force =   0.32180356E-07 -0.15378391E-05 -0.20933629E-05
     atom    4 type  2   force =  -0.70798183E-05  0.66127672E-07  0.54981281E-05
     atom    5 type  1   force =   0.32828643E-06 -0.11657405E-05 -0.22082701E-05
     atom    6 type  2   force =   0.19326603E-04  0.87626079E-05 -0.32280128E-05
     atom    7 type  1   force =   0.19716550E-05 -0.51779898E-07  0.11397411E-05
     atom    8 type  2   force =  -0.88099006E-05 -0.19872911E-04 -0.18293241E-05
     atom    9 type  1   force =  -0.15934541E-05 -0.40081812E-06  0.11764209E-06
     atom   10 type  2   force =   0.60230655E-05  0.13606031E-04 -0.78447201E-05
     atom   11 type  1   force =   0.50502026E-06  0.20046962E-05  0.15157670E-05
     atom   12 type  2   force =  -0.14062833E-04 -0.26170007E-05 -0.37287581E-05
     atom   13 type  1   force =   0.78070657E-06  0.21562467E-05  0.51848981E-06
     atom   14 type  2   force =   0.10814254E-04 -0.32851437E-05 -0.37293754E-05
     atom   15 type  1   force =  -0.30676342E-05 -0.19289734E-06 -0.22059787E-06
     atom   16 type  2   force =  -0.16953655E-06  0.29465227E-06  0.15298188E-04

     Total force =     0.732185     Total SCF correction =     0.000047


     entering subroutine stress ...

          total   stress  (Ry/bohr**3)                   (kbar)     P=   53.06
   0.0003516723   0.0001924567   0.0001095079         51.73     28.31     16.11
   0.0001924567   0.0004129808   0.0001325050         28.31     60.75     19.49
   0.0001095079   0.0001325050   0.0003173654         16.11     19.49     46.69

     kinetic stress (kbar)   6432.94     -7.57     -8.61
                               -7.57   6431.00    -13.86
                               -8.61    -13.86   6434.33

     local   stress (kbar)  -1267.39     93.84  -1175.06
                               93.84  -1743.59  -1035.76
                            -1175.06  -1035.76  -1452.04

     nonloc. stress (kbar)   2533.48      9.44      8.96
                                9.44   2533.97     16.53
                                8.96     16.53   2526.43

     hartree stress (kbar)  15239.26   -130.23    469.90
                             -130.23  15435.31    346.66
                              469.90    346.66  15353.23

     exc-cor stress (kbar)  10936.47      0.29      0.33
                                0.29  10936.59      0.51
                                0.33      0.51  10936.39

     corecor stress (kbar) -16607.68     -1.01     -0.82
                               -1.01 -16607.80     -1.46
                               -0.82     -1.46 -16607.10

     ewald   stress (kbar) -17215.34     63.57    721.41
                               63.57 -16924.73    706.89
                              721.41    706.89 -17144.55

     hubbard stress (kbar)      0.00      0.00      0.00
                                0.00      0.00      0.00
                                0.00      0.00      0.00

     london  stress (kbar)      0.00      0.00      0.00
                                0.00      0.00      0.00
                                0.00      0.00      0.00

     XDM     stress (kbar)      0.00      0.00      0.00
                                0.00      0.00      0.00
                                0.00      0.00      0.00

     dft-nl  stress (kbar)      0.00      0.00      0.00
                                0.00      0.00      0.00
                                0.00      0.00      0.00



     Writing output data file SiGe_zns.scf.in.super.222.largedist.a.044.save

     init_run     :     23.79s CPU     22.37s WALL (       1 calls)
     electrons    :   1105.20s CPU   1102.61s WALL (       1 calls)
     forces       :     11.12s CPU      7.85s WALL (       1 calls)
     stress       :     22.36s CPU     21.68s WALL (       1 calls)

     Called by init_run:
     wfcinit      :     22.19s CPU     20.68s WALL (       1 calls)
     potinit      :      0.20s CPU      0.21s WALL (       1 calls)

     Called by electrons:
     c_bands      :    944.12s CPU    944.91s WALL (      14 calls)
     sum_band     :    147.19s CPU    143.63s WALL (      14 calls)
     v_of_rho     :      1.60s CPU      1.62s WALL (      14 calls)
     v_h          :      0.12s CPU      0.12s WALL (      14 calls)
     v_xc         :      1.62s CPU      1.65s WALL (      16 calls)
     newd         :     10.54s CPU     10.67s WALL (      14 calls)
     mix_rho      :      2.46s CPU      2.49s WALL (      14 calls)

     Called by c_bands:
     init_us_2    :      6.46s CPU      6.74s WALL (    1116 calls)
     cegterg      :    914.64s CPU    914.20s WALL (     504 calls)

     Called by sum_band:
     sum_band:bec :      1.15s CPU      1.24s WALL (     504 calls)
     addusdens    :     10.79s CPU     10.85s WALL (      14 calls)

     Called by *egterg:
     h_psi        :    533.09s CPU    518.85s WALL (    1995 calls)
     s_psi        :     54.48s CPU     40.88s WALL (    1995 calls)
     g_psi        :      1.72s CPU      1.60s WALL (    1455 calls)
     cdiaghg      :    154.30s CPU    189.71s WALL (    1923 calls)
     cegterg:over :     82.36s CPU     76.98s WALL (    1455 calls)
     cegterg:upda :     32.22s CPU     27.34s WALL (    1455 calls)
     cegterg:last :     16.41s CPU     11.83s WALL (     504 calls)

     Called by h_psi:
     h_psi:vloc   :    396.60s CPU    406.26s WALL (    1995 calls)
     h_psi:vnl    :    135.05s CPU    111.09s WALL (    1995 calls)
     add_vuspsi   :     56.39s CPU     43.29s WALL (    1995 calls)

     General routines
     calbec       :    112.90s CPU     94.97s WALL (    2571 calls)
     fft          :      2.26s CPU      2.28s WALL (     249 calls)
     ffts         :      1.28s CPU      1.29s WALL (     424 calls)
     fftw         :    436.55s CPU    445.92s WALL (  253194 calls)
     interpolate  :      0.32s CPU      0.31s WALL (      28 calls)

     Parallel routines
     fft_scatter  :    228.55s CPU    233.75s WALL (  253867 calls)

     PWSCF        : 19m25.20s CPU    19m18.06s WALL


   This run was terminated on:  17:45:40  27Sep2017            

=------------------------------------------------------------------------------=
   JOB DONE.
=------------------------------------------------------------------------------=
