
     Program PWSCF v.5.1 starts on 27Sep2017 at 10:47: 7 

     This program is part of the open-source Quantum ESPRESSO suite
     for quantum simulation of materials; please cite
         "P. Giannozzi et al., J. Phys.:Condens. Matter 21 395502 (2009);
          URL http://www.quantum-espresso.org", 
     in publications or presentations arising from this work. More details at
     http://www.quantum-espresso.org/quote

     Parallel version (MPI), running on     8 processors
     R & G space division:  proc/nbgrp/npool/nimage =       8
     Reading input from /tmp/SiGe_zns.scf.in.super.222.largedist.02.19957/SiGe_zns.scf.in.super.222.largedist.02.t
Warning: card &IONS ignored
Warning: card   ION_DYNAMICS='BFGS', ignored
Warning: card / ignored
Warning: card &CELL ignored
Warning: card  CELL_DYNAMICS = 'BFGS' ignored
Warning: card / ignored
     Message from routine read_cards :
     DEPRECATED: no units specified in CELL_PARAMETERS card

     Current dimensions of program PWSCF are:
     Max number of different atomic species (ntypx) = 10
     Max number of k-points (npk) =  40000
     Max angular momentum in pseudopotentials (lmaxx) =  3
 kfg - two_fermi_energies  F

     Subspace diagonalization in iterative solution of the eigenvalue problem:
     a serial algorithm will be used


     Parallelization info
     --------------------
     sticks:   dense  smooth     PW     G-vecs:    dense   smooth      PW
     Min         376     262     74                13613     7962    1206
     Max         377     263     75                13616     7978    1208
     Sum        3013    2097    595               108919    63769    9655



     bravais-lattice index     =            0
     lattice parameter (alat)  =    14.710912228  a.u.
     unit-cell volume          =    2280.0694 (a.u.)^3
     number of atoms/cell      =           16
     number of atomic types    =            2
     number of electrons       =       144.00
     number of Kohn-Sham states=           86
     kinetic-energy cutoff     =      35.0000  Ry
     charge density cutoff     =     200.0000  Ry
     convergence threshold     =      1.0E-09
     mixing beta               =       0.3000
     number of iterations used =            8  local-TF  mixing
     Exchange-correlation      = SLA  PW   PSX  PSC ( 1  4 10  8 0)
     A smooth kinetic-energy cutoff is imposed at      34.5000 Ry
     height of the smooth step-function =             800.0000 Ry
     width of the smooth step-function  =               1.0000 Ry


     celldm(1)=  14.710912  celldm(2)=   0.000000  celldm(3)=   0.000000
     celldm(4)=   0.000000  celldm(5)=   0.000000  celldm(6)=   0.000000

     crystal axes: (cart. coord. in units of alat)
               a(1) = (  -0.003172307838   0.705465881889   0.708736781855 )  
               a(2) = (   0.711228625680  -0.004090342849   0.711199857532 )  
               a(3) = (   0.707182653317   0.715413514499   0.005793086009 )  

     reciprocal axes: (cart. coord. in units 2 pi/alat)
               b(1) = ( -0.710460  0.696501  0.714495 )  
               b(2) = (  0.702260 -0.699847  0.699761 )  
               b(3) = (  0.704597  0.706976 -0.700559 )  


     PseudoPot. # 1 for Si read from file:
     /users/kfg/psuedo/gbrv_1.5/si.pbesol.UPF
     MD5 check sum: ef58ba74faed4df802eb8a9742fc00a8
     Pseudo is Ultrasoft + core correction, Zval =  4.0
     Generated by new atomic code, or converted to UPF format
     Using radial grid of  899 points,  6 beta functions with: 
                l(1) =   0
                l(2) =   0
                l(3) =   1
                l(4) =   1
                l(5) =   2
                l(6) =   2
     Q(r) pseudized with  8 coefficients,  rinner =    0.900   0.900   0.900
                                                       0.900   0.900

     PseudoPot. # 2 for Ge read from file:
     /users/kfg/psuedo/gbrv_1.5/ge.pbesol.UPF
     MD5 check sum: 7bed0412183f5e553a4d27ec7023354d
     Pseudo is Ultrasoft + core correction, Zval = 14.0
     Generated by new atomic code, or converted to UPF format
     Using radial grid of  873 points,  6 beta functions with: 
                l(1) =   0
                l(2) =   0
                l(3) =   1
                l(4) =   1
                l(5) =   2
                l(6) =   2
     Q(r) pseudized with  8 coefficients,  rinner =    1.400   1.400   1.400
                                                       1.400   1.400

     atomic species   valence    mass     pseudopotential
        Si             4.00    28.08550     Si( 1.00)
        Ge            14.00    72.64000     Ge( 1.00)

     No symmetry found


                                    s                        frac. trans.

      isym =  1     identity                                     

 cryst.   s( 1) = (     1          0          0      )
                  (     0          1          0      )
                  (     0          0          1      )

 cart.    s( 1) = (  1.0000000  0.0000000 -0.0000000 )
                  ( -0.0000000  1.0000000 -0.0000000 )
                  (  0.0000000 -0.0000000  1.0000000 )


     point group C_1 (1)    
     there are  1 classes
     the character table:

       E    
A      1.00

     the symmetry operations in each class:
     E        1

   Cartesian axes

     site n.     atom                  positions (alat units)
         1           Si  tau(   1) = (    0.00635602887    0.00938384455    0.01033850267  )
         2           Ge  tau(   2) = (    0.19673523075    0.15882316631    0.17967688581  )
         3           Si  tau(   3) = (    0.35514422985    0.36337335964   -0.01099071253  )
         4           Ge  tau(   4) = (    0.54993714377    0.52157507558    0.18517469380  )
         5           Si  tau(   5) = (    0.35574809335    0.00090253257    0.37273930010  )
         6           Ge  tau(   6) = (    0.52731301758    0.15584665664    0.54769387624  )
         7           Si  tau(   7) = (    0.72789860488    0.37586438930    0.35775066964  )
         8           Ge  tau(   8) = (    0.90630548735    0.55133939055    0.55002284968  )
         9           Si  tau(   9) = (   -0.00286889878    0.33391585400    0.37445596862  )
        10           Ge  tau(  10) = (    0.19233584365    0.51857036149    0.53984101636  )
        11           Si  tau(  11) = (    0.34351098297    0.71275586231    0.34512738891  )
        12           Ge  tau(  12) = (    0.53006756086    0.88477664276    0.53666603879  )
        13           Si  tau(  13) = (    0.36546576907    0.33627045108    0.70042719820  )
        14           Ge  tau(  14) = (    0.55051571718    0.53907619955    0.88082447494  )
        15           Si  tau(  15) = (    0.72653726184    0.71594364606    0.70341652934  )
        16           Ge  tau(  16) = (    0.89788142060    0.87287542889    0.88911023417  )

   Crystallographic axes

     site n.     atom                  positions (cryst. coord.)
         1           Si  tau(   1) = (    0.00940695465    0.00513080742    0.00386985386  )
         2           Ge  tau(   2) = (    0.09922608518    0.15273822924    0.12502880995  )
         3           Si  tau(   3) = (   -0.00707885476   -0.01259296851    0.51482916263  )
         4           Ge  tau(   4) = (    0.10487529021    0.15075418678    0.62649889010  )
         5           Si  tau(   5) = (    0.01420402324    0.51002446408   -0.00982892571  )
         6           Ge  tau(   6) = (    0.12523678880    0.64449683395    0.09803084031  )
         7           Si  tau(   7) = (    0.00025778676    0.49846657086    0.52797636759  )
         8           Ge  tau(   8) = (    0.13310272082    0.63549347786    0.64303977924  )
         9           Si  tau(   9) = (    0.50215769400    0.02632476145   -0.02827957360  )
        10           Ge  tau(  10) = (    0.61025123406    0.14990933126    0.12394526416  )
        11           Si  tau(  11) = (    0.49897578153   -0.01607947066    0.50415556136  )
        12           Ge  tau(  12) = (    0.62310071050    0.12857477603    0.62303305208  )
        13           Si  tau(  13) = (    0.47501527920    0.51144559943    0.00455032791  )
        14           Ge  tau(  14) = (    0.61369190779    0.62570073108    0.15193566368  )
        15           Si  tau(  15) = (    0.48506685466    0.50139040325    0.52528555961  )
        16           Ge  tau(  16) = (    0.60531392224    0.64183150058    0.62687160742  )

     number of k points=    36  gaussian smearing, width (Ry)=  0.0150
                       cart. coord. in units 2pi/alat
        k(    1) = (   0.0000000   0.0000000   0.0000000), wk =   0.0312500
        k(    2) = (   0.1761492   0.1767439  -0.1751398), wk =   0.0625000
        k(    3) = (  -0.3522983  -0.3534878   0.3502795), wk =   0.0312500
        k(    4) = (   0.1755651  -0.1749618   0.1749402), wk =   0.0625000
        k(    5) = (   0.3517143   0.0017821  -0.0001996), wk =   0.0625000
        k(    6) = (  -0.1767332  -0.5284496   0.5252197), wk =   0.0625000
        k(    7) = (  -0.0005840  -0.3517057   0.3500799), wk =   0.0625000
        k(    8) = (  -0.3511302   0.3499236  -0.3498803), wk =   0.0312500
        k(    9) = (  -0.1749811   0.5266675  -0.5250201), wk =   0.0625000
        k(   10) = (  -0.7034285  -0.0035642   0.0003992), wk =   0.0312500
        k(   11) = (  -0.1776151   0.1741252   0.1786237), wk =   0.0625000
        k(   12) = (  -0.0014659   0.3508691   0.0034839), wk =   0.0625000
        k(   13) = (  -0.5299134  -0.1793626   0.5289032), wk =   0.0625000
        k(   14) = (  -0.3537642  -0.0026187   0.3537635), wk =   0.0625000
        k(   15) = (  -0.0020500  -0.0008366   0.3535639), wk =   0.0625000
        k(   16) = (   0.1740992   0.1759073   0.1784241), wk =   0.0625000
        k(   17) = (  -0.3543483  -0.3543244   0.7038434), wk =   0.0625000
        k(   18) = (  -0.1781991  -0.1775805   0.5287036), wk =   0.0625000
        k(   19) = (  -0.5287453   0.5240488  -0.1712566), wk =   0.0625000
        k(   20) = (  -0.3525961   0.7007927  -0.3463964), wk =   0.0625000
        k(   21) = (  -0.8810436   0.1705610   0.1790229), wk =   0.0625000
        k(   22) = (  -0.7048944   0.3473049   0.0038831), wk =   0.0625000
        k(   23) = (  -0.3531802   0.3490870   0.0036835), wk =   0.0625000
        k(   24) = (  -0.1770310   0.5258309  -0.1714562), wk =   0.0625000
        k(   25) = (  -0.7054785  -0.0044008   0.3539631), wk =   0.0625000
        k(   26) = (  -0.5293293   0.1723431   0.1788233), wk =   0.0625000
        k(   27) = (   0.3552301  -0.3482504  -0.3572474), wk =   0.0312500
        k(   28) = (   0.5313793  -0.1715064  -0.5323871), wk =   0.0625000
        k(   29) = (   0.0029318  -0.7017382  -0.0069679), wk =   0.0312500
        k(   30) = (   0.5307952  -0.5232122  -0.1823072), wk =   0.0625000
        k(   31) = (   0.7069444  -0.3464683  -0.3574470), wk =   0.0625000
        k(   32) = (   0.1784969  -0.8767000   0.1679723), wk =   0.0625000
        k(   33) = (   0.3546461  -0.6999561  -0.0071675), wk =   0.0625000
        k(   34) = (   0.0040999   0.0016733  -0.7071277), wk =   0.0312500
        k(   35) = (   0.1802491   0.1784172  -0.8822675), wk =   0.0625000
        k(   36) = (  -0.3481984  -0.3518145  -0.3568482), wk =   0.0312500

                       cryst. coord.
        k(    1) = (   0.0000000   0.0000000   0.0000000), wk =   0.0312500
        k(    2) = (  -0.0000000  -0.0000000   0.2500000), wk =   0.0625000
        k(    3) = (   0.0000000   0.0000000  -0.5000000), wk =   0.0312500
        k(    4) = (   0.0000000   0.2500000   0.0000000), wk =   0.0625000
        k(    5) = (  -0.0000000   0.2500000   0.2500000), wk =   0.0625000
        k(    6) = (   0.0000000   0.2500000  -0.5000000), wk =   0.0625000
        k(    7) = (   0.0000000   0.2500000  -0.2500000), wk =   0.0625000
        k(    8) = (   0.0000000  -0.5000000  -0.0000000), wk =   0.0312500
        k(    9) = (  -0.0000000  -0.5000000   0.2500000), wk =   0.0625000
        k(   10) = (   0.0000000  -0.5000000  -0.5000000), wk =   0.0312500
        k(   11) = (   0.2500000   0.0000000  -0.0000000), wk =   0.0625000
        k(   12) = (   0.2500000  -0.0000000   0.2500000), wk =   0.0625000
        k(   13) = (   0.2500000   0.0000000  -0.5000000), wk =   0.0625000
        k(   14) = (   0.2500000   0.0000000  -0.2500000), wk =   0.0625000
        k(   15) = (   0.2500000   0.2500000   0.0000000), wk =   0.0625000
        k(   16) = (   0.2500000   0.2500000   0.2500000), wk =   0.0625000
        k(   17) = (   0.2500000   0.2500000  -0.5000000), wk =   0.0625000
        k(   18) = (   0.2500000   0.2500000  -0.2500000), wk =   0.0625000
        k(   19) = (   0.2500000  -0.5000000  -0.0000000), wk =   0.0625000
        k(   20) = (   0.2500000  -0.5000000   0.2500000), wk =   0.0625000
        k(   21) = (   0.2500000  -0.5000000  -0.5000000), wk =   0.0625000
        k(   22) = (   0.2500000  -0.5000000  -0.2500000), wk =   0.0625000
        k(   23) = (   0.2500000  -0.2500000  -0.0000000), wk =   0.0625000
        k(   24) = (   0.2500000  -0.2500000   0.2500000), wk =   0.0625000
        k(   25) = (   0.2500000  -0.2500000  -0.5000000), wk =   0.0625000
        k(   26) = (   0.2500000  -0.2500000  -0.2500000), wk =   0.0625000
        k(   27) = (  -0.5000000   0.0000000   0.0000000), wk =   0.0312500
        k(   28) = (  -0.5000000   0.0000000   0.2500000), wk =   0.0625000
        k(   29) = (  -0.5000000   0.0000000  -0.5000000), wk =   0.0312500
        k(   30) = (  -0.5000000   0.2500000   0.0000000), wk =   0.0625000
        k(   31) = (  -0.5000000   0.2500000   0.2500000), wk =   0.0625000
        k(   32) = (  -0.5000000   0.2500000  -0.5000000), wk =   0.0625000
        k(   33) = (  -0.5000000   0.2500000  -0.2500000), wk =   0.0625000
        k(   34) = (  -0.5000000  -0.5000000  -0.0000000), wk =   0.0312500
        k(   35) = (  -0.5000000  -0.5000000   0.2500000), wk =   0.0625000
        k(   36) = (  -0.5000000  -0.5000000  -0.5000000), wk =   0.0312500

     Dense  grid:   108919 G-vectors     FFT dimensions: (  72,  72,  72)

     Smooth grid:    63769 G-vectors     FFT dimensions: (  60,  60,  60)

     Largest allocated arrays     est. size (Mb)     dimensions
        Kohn-Sham Wavefunctions         1.33 Mb     (    1014,   86)
        NL pseudopotentials             4.46 Mb     (    1014,  288)
        Each V/rho on FFT grid          0.71 Mb     (   46656)
        Each G-vector array             0.10 Mb     (   13614)
        G-vector shells                 0.10 Mb     (   13230)
     Largest temporary arrays     est. size (Mb)     dimensions
        Auxiliary wavefunctions         5.32 Mb     (    1014,  344)
        Each subspace H/S matrix        1.81 Mb     (     344,  344)
        Each <psi_i|beta_j> matrix      0.38 Mb     (     288,   86)
        Arrays for rho mixing           5.70 Mb     (   46656,    8)

     Check: negative/imaginary core charge=   -0.000001    0.000000

     Initial potential from superposition of free atoms

     starting charge  143.98835, renormalised to  144.00000
     Starting wfc are  104 randomized atomic wfcs

     total cpu time spent up to now is       31.1 secs

     per-process dynamical memory:    71.1 Mb

     Self-consistent Calculation

     iteration #  1     ecut=    35.00 Ry     beta=0.30
     Davidson diagonalization with overlap
     ethr =  1.00E-02,  avg # of iterations =  3.1

     Threshold (ethr) on eigenvalues was too large:
     Diagonalizing with lowered threshold

     Davidson diagonalization with overlap
     ethr =  2.55E-04,  avg # of iterations =  5.4

     total cpu time spent up to now is      219.0 secs

     total energy              =   -1781.81612188 Ry
     Harris-Foulkes estimate   =   -1781.85566134 Ry
     estimated scf accuracy    <       0.36417580 Ry

     iteration #  2     ecut=    35.00 Ry     beta=0.30
     Davidson diagonalization with overlap
     ethr =  2.53E-04,  avg # of iterations =  1.0

     total cpu time spent up to now is      285.9 secs

     total energy              =   -1781.74138833 Ry
     Harris-Foulkes estimate   =   -1781.81816520 Ry
     estimated scf accuracy    <       0.22349302 Ry

     iteration #  3     ecut=    35.00 Ry     beta=0.30
     Davidson diagonalization with overlap
     ethr =  1.55E-04,  avg # of iterations =  2.0

     total cpu time spent up to now is      361.1 secs

     total energy              =   -1781.75729081 Ry
     Harris-Foulkes estimate   =   -1781.75747699 Ry
     estimated scf accuracy    <       0.00371722 Ry

     iteration #  4     ecut=    35.00 Ry     beta=0.30
     Davidson diagonalization with overlap
     ethr =  2.58E-06,  avg # of iterations =  8.3

     total cpu time spent up to now is      514.1 secs

     total energy              =   -1781.75770680 Ry
     Harris-Foulkes estimate   =   -1781.75795350 Ry
     estimated scf accuracy    <       0.00177750 Ry

     iteration #  5     ecut=    35.00 Ry     beta=0.30
     Davidson diagonalization with overlap
     ethr =  1.23E-06,  avg # of iterations =  2.0

     total cpu time spent up to now is      596.3 secs

     total energy              =   -1781.75787193 Ry
     Harris-Foulkes estimate   =   -1781.75787945 Ry
     estimated scf accuracy    <       0.00007335 Ry

     iteration #  6     ecut=    35.00 Ry     beta=0.30
     Davidson diagonalization with overlap
     ethr =  5.09E-08,  avg # of iterations =  2.0

     total cpu time spent up to now is      666.8 secs

     total energy              =   -1781.75785990 Ry
     Harris-Foulkes estimate   =   -1781.75787595 Ry
     estimated scf accuracy    <       0.00004421 Ry

     iteration #  7     ecut=    35.00 Ry     beta=0.30
     Davidson diagonalization with overlap
     ethr =  3.07E-08,  avg # of iterations =  2.1

     total cpu time spent up to now is      745.5 secs

     total energy              =   -1781.75786419 Ry
     Harris-Foulkes estimate   =   -1781.75786440 Ry
     estimated scf accuracy    <       0.00000392 Ry

     iteration #  8     ecut=    35.00 Ry     beta=0.30
     Davidson diagonalization with overlap
     ethr =  2.72E-09,  avg # of iterations =  2.0

     total cpu time spent up to now is      828.0 secs

     total energy              =   -1781.75786460 Ry
     Harris-Foulkes estimate   =   -1781.75786470 Ry
     estimated scf accuracy    <       0.00000105 Ry

     iteration #  9     ecut=    35.00 Ry     beta=0.30
     Davidson diagonalization with overlap
     ethr =  7.32E-10,  avg # of iterations =  2.1

     total cpu time spent up to now is      916.5 secs

     total energy              =   -1781.75786482 Ry
     Harris-Foulkes estimate   =   -1781.75786476 Ry
     estimated scf accuracy    <       0.00000014 Ry

     iteration # 10     ecut=    35.00 Ry     beta=0.30
     Davidson diagonalization with overlap
     ethr =  9.77E-11,  avg # of iterations =  1.5

     total cpu time spent up to now is      986.6 secs

     total energy              =   -1781.75786483 Ry
     Harris-Foulkes estimate   =   -1781.75786483 Ry
     estimated scf accuracy    <       0.00000007 Ry

     iteration # 11     ecut=    35.00 Ry     beta=0.30
     Davidson diagonalization with overlap
     ethr =  4.63E-11,  avg # of iterations =  2.3

     total cpu time spent up to now is     1081.0 secs

     total energy              =   -1781.75786487 Ry
     Harris-Foulkes estimate   =   -1781.75786485 Ry
     estimated scf accuracy    <          4.2E-09 Ry

     iteration # 12     ecut=    35.00 Ry     beta=0.30
     Davidson diagonalization with overlap
     ethr =  2.90E-12,  avg # of iterations =  2.0

     total cpu time spent up to now is     1160.9 secs

     total energy              =   -1781.75786488 Ry
     Harris-Foulkes estimate   =   -1781.75786487 Ry
     estimated scf accuracy    <          2.1E-09 Ry

     iteration # 13     ecut=    35.00 Ry     beta=0.30
     Davidson diagonalization with overlap
     ethr =  1.43E-12,  avg # of iterations =  2.1

     total cpu time spent up to now is     1248.2 secs

     End of self-consistent calculation

          k = 0.0000 0.0000 0.0000 (  7899 PWs)   bands (ev):

   -17.4181 -17.4059 -17.3887 -17.3655 -17.3604 -17.1368 -17.1138 -17.1087
   -17.0931 -17.0880 -17.0852 -17.0754 -17.0744 -17.0704 -17.0686 -17.0612
   -17.0598 -17.0489 -17.0344 -17.0329 -17.0166 -17.0082 -16.9868 -16.9762
   -16.9737 -16.9616 -16.9328 -16.9318 -16.9118 -16.9092 -16.8099 -16.8007
   -16.7924 -16.7862 -16.7803 -16.7781 -16.7746 -16.7732 -16.7639 -16.7606
    -5.2570  -3.2795  -3.2398  -2.9686  -2.6530  -1.6850  -1.5185  -1.3412
    -0.7538  -0.6687  -0.5236  -0.0434   0.1464   0.3855   0.5313   4.1545
     4.1775   4.2128   4.2981   4.4802   4.6167   5.4472   5.5568   5.9820
     6.1138   6.1681   6.2272   6.3470   6.5827   7.2254   7.4251   7.5365
     7.6086   7.7727   7.8952   7.9932   8.0461   8.2322   8.3601   8.4184
     8.5752   8.6223   9.0954   9.7049   9.7334  10.0009

     occupation numbers 
     1.0000   1.0000   1.0000   1.0000   1.0000   1.0000   1.0000   1.0000
     1.0000   1.0000   1.0000   1.0000   1.0000   1.0000   1.0000   1.0000
     1.0000   1.0000   1.0000   1.0000   1.0000   1.0000   1.0000   1.0000
     1.0000   1.0000   1.0000   1.0000   1.0000   1.0000   1.0000   1.0000
     1.0000   1.0000   1.0000   1.0000   1.0000   1.0000   1.0000   1.0000
     1.0000   1.0000   1.0000   1.0000   1.0000   1.0000   1.0000   1.0000
     1.0000   1.0000   1.0000   1.0000   1.0000   1.0000   1.0000   1.0000
     1.0000   1.0000   1.0000   1.0000   1.0000   1.0000   1.0000   1.0000
     1.0000   1.0000   1.0000   1.0000   1.0000   0.9946   0.8779   0.6528
     0.4576   0.1068   0.0182   0.0028   0.0008   0.0000   0.0000   0.0000
     0.0000   0.0000   0.0000   0.0000   0.0000   0.0000

          k = 0.1761 0.1767-0.1751 (  7964 PWs)   bands (ev):

   -17.4179 -17.4057 -17.3885 -17.3655 -17.3605 -17.1366 -17.1135 -17.1086
   -17.0929 -17.0877 -17.0851 -17.0755 -17.0741 -17.0703 -17.0685 -17.0613
   -17.0598 -17.0488 -17.0345 -17.0330 -17.0164 -17.0081 -16.9865 -16.9762
   -16.9737 -16.9615 -16.9327 -16.9318 -16.9119 -16.9091 -16.8099 -16.8006
   -16.7923 -16.7860 -16.7804 -16.7780 -16.7747 -16.7731 -16.7640 -16.7607
    -5.0873  -3.6628  -3.1884  -2.8987  -2.6917  -2.1508  -1.9445  -1.7156
    -0.4418  -0.0842   0.0716   0.2324   0.4960   0.6855   1.2361   3.6404
     3.7901   3.9671   4.3130   4.3605   4.6326   4.7264   4.9045   5.1549
     5.4135   5.5362   5.6834   5.9273   6.0820   6.5775   7.0915   7.4697
     7.6987   8.0819   8.1231   8.3441   8.8210   9.0249   9.1273   9.2235
     9.4292   9.5579   9.6834  10.1099  10.4572  10.5081

     occupation numbers 
     1.0000   1.0000   1.0000   1.0000   1.0000   1.0000   1.0000   1.0000
     1.0000   1.0000   1.0000   1.0000   1.0000   1.0000   1.0000   1.0000
     1.0000   1.0000   1.0000   1.0000   1.0000   1.0000   1.0000   1.0000
     1.0000   1.0000   1.0000   1.0000   1.0000   1.0000   1.0000   1.0000
     1.0000   1.0000   1.0000   1.0000   1.0000   1.0000   1.0000   1.0000
     1.0000   1.0000   1.0000   1.0000   1.0000   1.0000   1.0000   1.0000
     1.0000   1.0000   1.0000   1.0000   1.0000   1.0000   1.0000   1.0000
     1.0000   1.0000   1.0000   1.0000   1.0000   1.0000   1.0000   1.0000
     1.0000   1.0000   1.0000   1.0000   1.0000   1.0000   0.9997   0.8040
     0.2325   0.0004   0.0001   0.0000   0.0000   0.0000   0.0000   0.0000
     0.0000   0.0000   0.0000   0.0000   0.0000   0.0000

          k =-0.3523-0.3535 0.3503 (  7972 PWs)   bands (ev):

   -17.4178 -17.4055 -17.3883 -17.3655 -17.3605 -17.1364 -17.1134 -17.1085
   -17.0926 -17.0875 -17.0851 -17.0754 -17.0739 -17.0702 -17.0683 -17.0613
   -17.0599 -17.0488 -17.0344 -17.0330 -17.0160 -17.0082 -16.9863 -16.9762
   -16.9737 -16.9615 -16.9326 -16.9318 -16.9119 -16.9090 -16.8097 -16.8005
   -16.7923 -16.7859 -16.7804 -16.7778 -16.7748 -16.7729 -16.7640 -16.7607
    -4.7783  -4.1801  -3.0920  -2.7889  -2.6601  -2.4450  -2.2540  -2.0455
    -0.1649   0.3451   0.4923   0.6447   0.6796   1.0650   2.6990   3.3179
     3.4928   3.5604   3.7199   3.7761   3.9449   4.2356   4.6351   4.6901
     4.8872   5.0564   5.2208   5.4997   5.9990   6.7502   6.8315   7.1046
     8.0909   8.3115   8.4401   8.5566   8.8476   8.9622   9.0393   9.3136
    10.3881  10.8492  10.9982  11.2013  11.3631  11.6593

     occupation numbers 
     1.0000   1.0000   1.0000   1.0000   1.0000   1.0000   1.0000   1.0000
     1.0000   1.0000   1.0000   1.0000   1.0000   1.0000   1.0000   1.0000
     1.0000   1.0000   1.0000   1.0000   1.0000   1.0000   1.0000   1.0000
     1.0000   1.0000   1.0000   1.0000   1.0000   1.0000   1.0000   1.0000
     1.0000   1.0000   1.0000   1.0000   1.0000   1.0000   1.0000   1.0000
     1.0000   1.0000   1.0000   1.0000   1.0000   1.0000   1.0000   1.0000
     1.0000   1.0000   1.0000   1.0000   1.0000   1.0000   1.0000   1.0000
     1.0000   1.0000   1.0000   1.0000   1.0000   1.0000   1.0000   1.0000
     1.0000   1.0000   1.0000   1.0000   1.0000   1.0000   1.0000   0.9996
     0.0003   0.0000   0.0000   0.0000   0.0000   0.0000   0.0000   0.0000
     0.0000   0.0000   0.0000   0.0000   0.0000   0.0000

          k = 0.1756-0.1750 0.1749 (  7972 PWs)   bands (ev):

   -17.4179 -17.4056 -17.3884 -17.3654 -17.3605 -17.1364 -17.1129 -17.1089
   -17.0928 -17.0880 -17.0849 -17.0754 -17.0742 -17.0704 -17.0683 -17.0614
   -17.0599 -17.0485 -17.0344 -17.0329 -17.0164 -17.0083 -16.9866 -16.9762
   -16.9737 -16.9614 -16.9327 -16.9317 -16.9119 -16.9092 -16.8097 -16.8004
   -16.7921 -16.7861 -16.7803 -16.7780 -16.7748 -16.7730 -16.7640 -16.7607
    -5.0746  -3.6218  -3.1866  -3.1108  -2.6166  -2.1945  -1.9537  -1.6373
    -0.1933  -0.1427   0.1151   0.3397   0.4969   0.7991   0.9780   3.5254
     3.5634   3.6635   4.3393   4.4237   4.5235   4.6926   4.8153   4.8329
     5.4714   5.7755   5.9689   6.0898   6.3007   6.4229   7.2535   7.4794
     7.8655   8.2625   8.3916   8.5408   8.8413   9.0607   9.1461   9.2294
     9.3327   9.3993   9.5670  10.2368  10.2847  10.6911

     occupation numbers 
     1.0000   1.0000   1.0000   1.0000   1.0000   1.0000   1.0000   1.0000
     1.0000   1.0000   1.0000   1.0000   1.0000   1.0000   1.0000   1.0000
     1.0000   1.0000   1.0000   1.0000   1.0000   1.0000   1.0000   1.0000
     1.0000   1.0000   1.0000   1.0000   1.0000   1.0000   1.0000   1.0000
     1.0000   1.0000   1.0000   1.0000   1.0000   1.0000   1.0000   1.0000
     1.0000   1.0000   1.0000   1.0000   1.0000   1.0000   1.0000   1.0000
     1.0000   1.0000   1.0000   1.0000   1.0000   1.0000   1.0000   1.0000
     1.0000   1.0000   1.0000   1.0000   1.0000   1.0000   1.0000   1.0000
     1.0000   1.0000   1.0000   1.0000   1.0000   1.0000   0.9907   0.7847
     0.0296   0.0000   0.0000   0.0000   0.0000   0.0000   0.0000   0.0000
     0.0000   0.0000   0.0000   0.0000   0.0000   0.0000

          k = 0.3517 0.0018-0.0002 (  7968 PWs)   bands (ev):

   -17.4179 -17.4057 -17.3884 -17.3654 -17.3604 -17.1365 -17.1128 -17.1088
   -17.0928 -17.0880 -17.0849 -17.0754 -17.0741 -17.0702 -17.0685 -17.0612
   -17.0599 -17.0486 -17.0345 -17.0328 -17.0164 -17.0083 -16.9865 -16.9762
   -16.9736 -16.9615 -16.9327 -16.9317 -16.9118 -16.9090 -16.8097 -16.8005
   -16.7921 -16.7860 -16.7802 -16.7779 -16.7748 -16.7731 -16.7641 -16.7606
    -5.0186  -3.4905  -3.3281  -3.1591  -2.7918  -2.6083  -1.5226  -1.2638
    -0.6004  -0.4987   0.2783   0.5706   0.7308   0.9712   1.2716   3.5879
     3.6484   3.8317   3.8594   4.2358   4.5653   4.6776   4.7727   4.8604
     4.9738   5.5760   5.6947   6.1911   6.2766   6.3711   6.6335   6.9526
     7.7460   8.4443   8.7996   8.9519   9.0686   9.1851   9.2262   9.3621
     9.4914   9.5886   9.7538  10.4385  10.6605  10.7924

     occupation numbers 
     1.0000   1.0000   1.0000   1.0000   1.0000   1.0000   1.0000   1.0000
     1.0000   1.0000   1.0000   1.0000   1.0000   1.0000   1.0000   1.0000
     1.0000   1.0000   1.0000   1.0000   1.0000   1.0000   1.0000   1.0000
     1.0000   1.0000   1.0000   1.0000   1.0000   1.0000   1.0000   1.0000
     1.0000   1.0000   1.0000   1.0000   1.0000   1.0000   1.0000   1.0000
     1.0000   1.0000   1.0000   1.0000   1.0000   1.0000   1.0000   1.0000
     1.0000   1.0000   1.0000   1.0000   1.0000   1.0000   1.0000   1.0000
     1.0000   1.0000   1.0000   1.0000   1.0000   1.0000   1.0000   1.0000
     1.0000   1.0000   1.0000   1.0000   1.0000   1.0000   1.0000   1.0000
     0.1449   0.0000   0.0000   0.0000   0.0000   0.0000   0.0000   0.0000
     0.0000   0.0000   0.0000   0.0000   0.0000   0.0000

          k =-0.1767-0.5284 0.5252 (  7981 PWs)   bands (ev):

   -17.4177 -17.4056 -17.3883 -17.3653 -17.3604 -17.1364 -17.1126 -17.1087
   -17.0926 -17.0878 -17.0848 -17.0753 -17.0739 -17.0701 -17.0684 -17.0613
   -17.0598 -17.0485 -17.0344 -17.0329 -17.0162 -17.0083 -16.9863 -16.9761
   -16.9737 -16.9615 -16.9327 -16.9318 -16.9119 -16.9089 -16.8097 -16.8004
   -16.7920 -16.7860 -16.7802 -16.7778 -16.7748 -16.7731 -16.7640 -16.7607
    -4.6997  -3.9456  -3.4833  -3.2350  -2.9130  -2.3296  -1.9481  -1.5614
    -0.2848  -0.0163   0.2775   1.0491   1.2927   1.7774   2.2198   3.0963
     3.2230   3.4528   3.6596   3.8535   4.0828   4.1754   4.3518   4.6028
     4.7601   4.9375   5.0938   5.4495   5.7063   6.1001   6.2614   6.9312
     8.5787   8.9195   9.2144   9.3711   9.5143   9.5934   9.7928  10.0849
    10.2152  10.3762  10.4388  10.7610  10.9171  11.3168

     occupation numbers 
     1.0000   1.0000   1.0000   1.0000   1.0000   1.0000   1.0000   1.0000
     1.0000   1.0000   1.0000   1.0000   1.0000   1.0000   1.0000   1.0000
     1.0000   1.0000   1.0000   1.0000   1.0000   1.0000   1.0000   1.0000
     1.0000   1.0000   1.0000   1.0000   1.0000   1.0000   1.0000   1.0000
     1.0000   1.0000   1.0000   1.0000   1.0000   1.0000   1.0000   1.0000
     1.0000   1.0000   1.0000   1.0000   1.0000   1.0000   1.0000   1.0000
     1.0000   1.0000   1.0000   1.0000   1.0000   1.0000   1.0000   1.0000
     1.0000   1.0000   1.0000   1.0000   1.0000   1.0000   1.0000   1.0000
     1.0000   1.0000   1.0000   1.0000   1.0000   1.0000   1.0000   1.0000
     0.0000   0.0000   0.0000   0.0000   0.0000   0.0000   0.0000   0.0000
     0.0000   0.0000   0.0000   0.0000   0.0000   0.0000

          k =-0.0006-0.3517 0.3501 (  7971 PWs)   bands (ev):

   -17.4177 -17.4055 -17.3883 -17.3654 -17.3604 -17.1363 -17.1127 -17.1088
   -17.0926 -17.0878 -17.0848 -17.0753 -17.0740 -17.0704 -17.0682 -17.0614
   -17.0599 -17.0484 -17.0343 -17.0329 -17.0162 -17.0083 -16.9864 -16.9761
   -16.9738 -16.9614 -16.9326 -16.9317 -16.9119 -16.9091 -16.8096 -16.8003
   -16.7921 -16.7859 -16.7803 -16.7779 -16.7748 -16.7729 -16.7639 -16.7608
    -4.8165  -3.8292  -3.5666  -3.0317  -2.7043  -2.3742  -2.1918  -1.4624
    -0.4693   0.1544   0.3824   0.8544   1.0821   1.5075   1.8327   2.8876
     3.3771   3.5304   3.8617   3.9790   4.1494   4.2671   4.4956   4.7358
     4.8859   5.2196   5.5243   5.5681   5.8213   5.9990   6.1191   7.4097
     8.4588   8.8735   9.1978   9.2635   9.5104   9.6390   9.7795   9.9711
    10.0044  10.2208  10.3842  10.5166  10.6862  10.7666

     occupation numbers 
     1.0000   1.0000   1.0000   1.0000   1.0000   1.0000   1.0000   1.0000
     1.0000   1.0000   1.0000   1.0000   1.0000   1.0000   1.0000   1.0000
     1.0000   1.0000   1.0000   1.0000   1.0000   1.0000   1.0000   1.0000
     1.0000   1.0000   1.0000   1.0000   1.0000   1.0000   1.0000   1.0000
     1.0000   1.0000   1.0000   1.0000   1.0000   1.0000   1.0000   1.0000
     1.0000   1.0000   1.0000   1.0000   1.0000   1.0000   1.0000   1.0000
     1.0000   1.0000   1.0000   1.0000   1.0000   1.0000   1.0000   1.0000
     1.0000   1.0000   1.0000   1.0000   1.0000   1.0000   1.0000   1.0000
     1.0000   1.0000   1.0000   1.0000   1.0000   1.0000   1.0000   0.8982
     0.0000   0.0000   0.0000   0.0000   0.0000   0.0000   0.0000   0.0000
     0.0000   0.0000   0.0000   0.0000   0.0000   0.0000

          k =-0.3511 0.3499-0.3499 (  8004 PWs)   bands (ev):

   -17.4177 -17.4056 -17.3882 -17.3655 -17.3606 -17.1363 -17.1119 -17.1092
   -17.0925 -17.0881 -17.0846 -17.0755 -17.0741 -17.0705 -17.0682 -17.0615
   -17.0601 -17.0482 -17.0344 -17.0329 -17.0163 -17.0085 -16.9864 -16.9763
   -16.9738 -16.9615 -16.9325 -16.9316 -16.9120 -16.9093 -16.8096 -16.8001
   -16.7918 -16.7860 -16.7803 -16.7779 -16.7750 -16.7731 -16.7642 -16.7608
    -4.6995  -4.2569  -3.0791  -2.9509  -2.7245  -2.4677  -2.2523  -1.9069
     0.2486   0.4456   0.5680   0.6098   0.7672   1.2067   2.5100   2.8231
     3.1749   3.2468   3.3465   3.4144   3.6739   4.2342   4.7137   5.0920
     5.1604   5.2875   5.3516   5.5539   6.5370   6.6222   6.7879   7.1255
     8.1921   8.6293   8.8410   8.9426   9.0126   9.1082   9.1796   9.2692
    10.8024  10.8441  11.0462  11.1067  11.1877  11.4096

     occupation numbers 
     1.0000   1.0000   1.0000   1.0000   1.0000   1.0000   1.0000   1.0000
     1.0000   1.0000   1.0000   1.0000   1.0000   1.0000   1.0000   1.0000
     1.0000   1.0000   1.0000   1.0000   1.0000   1.0000   1.0000   1.0000
     1.0000   1.0000   1.0000   1.0000   1.0000   1.0000   1.0000   1.0000
     1.0000   1.0000   1.0000   1.0000   1.0000   1.0000   1.0000   1.0000
     1.0000   1.0000   1.0000   1.0000   1.0000   1.0000   1.0000   1.0000
     1.0000   1.0000   1.0000   1.0000   1.0000   1.0000   1.0000   1.0000
     1.0000   1.0000   1.0000   1.0000   1.0000   1.0000   1.0000   1.0000
     1.0000   1.0000   1.0000   1.0000   1.0000   1.0000   1.0000   0.9994
     0.0000   0.0000   0.0000   0.0000   0.0000   0.0000   0.0000   0.0000
     0.0000   0.0000   0.0000   0.0000   0.0000   0.0000

          k =-0.1750 0.5267-0.5250 (  7974 PWs)   bands (ev):

   -17.4177 -17.4056 -17.3882 -17.3653 -17.3604 -17.1363 -17.1119 -17.1091
   -17.0925 -17.0881 -17.0845 -17.0753 -17.0740 -17.0703 -17.0683 -17.0613
   -17.0599 -17.0483 -17.0344 -17.0328 -17.0163 -17.0085 -16.9864 -16.9761
   -16.9736 -16.9614 -16.9326 -16.9316 -16.9119 -16.9091 -16.8096 -16.8003
   -16.7918 -16.7860 -16.7801 -16.7778 -16.7749 -16.7731 -16.7641 -16.7607
    -4.6548  -4.0223  -3.4402  -3.2519  -2.9646  -2.3601  -1.9455  -1.5422
    -0.1041  -0.0257   0.4447   1.0970   1.2467   1.9114   2.1993   2.8630
     2.9669   3.1159   3.3777   3.8206   3.9217   4.2400   4.3029   4.7172
     5.0434   5.1183   5.2284   5.5886   5.6481   6.1819   6.3214   6.8877
     8.5389   9.0759   9.2892   9.4754   9.6651   9.8139  10.0257  10.1074
    10.2853  10.5238  10.7570  10.9160  11.0501  11.2247

     occupation numbers 
     1.0000   1.0000   1.0000   1.0000   1.0000   1.0000   1.0000   1.0000
     1.0000   1.0000   1.0000   1.0000   1.0000   1.0000   1.0000   1.0000
     1.0000   1.0000   1.0000   1.0000   1.0000   1.0000   1.0000   1.0000
     1.0000   1.0000   1.0000   1.0000   1.0000   1.0000   1.0000   1.0000
     1.0000   1.0000   1.0000   1.0000   1.0000   1.0000   1.0000   1.0000
     1.0000   1.0000   1.0000   1.0000   1.0000   1.0000   1.0000   1.0000
     1.0000   1.0000   1.0000   1.0000   1.0000   1.0000   1.0000   1.0000
     1.0000   1.0000   1.0000   1.0000   1.0000   1.0000   1.0000   1.0000
     1.0000   1.0000   1.0000   1.0000   1.0000   1.0000   1.0000   1.0000
     0.0000   0.0000   0.0000   0.0000   0.0000   0.0000   0.0000   0.0000
     0.0000   0.0000   0.0000   0.0000   0.0000   0.0000

          k =-0.7034-0.0036 0.0004 (  7984 PWs)   bands (ev):

   -17.4176 -17.4055 -17.3881 -17.3652 -17.3603 -17.1362 -17.1117 -17.1090
   -17.0924 -17.0880 -17.0845 -17.0752 -17.0739 -17.0700 -17.0683 -17.0611
   -17.0598 -17.0482 -17.0343 -17.0326 -17.0161 -17.0084 -16.9862 -16.9760
   -16.9734 -16.9613 -16.9326 -16.9315 -16.9118 -16.9088 -16.8095 -16.8002
   -16.7917 -16.7859 -16.7799 -16.7777 -16.7747 -16.7730 -16.7640 -16.7605
    -4.5329  -3.9967  -3.4142  -3.3458  -3.2154  -2.7450  -1.4795  -1.1811
    -0.5071  -0.3392   1.1323   1.2867   1.4075   1.6005   2.9076   2.9727
     3.2395   3.2766   3.3060   3.5717   3.6404   3.6675   3.8352   3.8744
     5.0727   5.2819   5.5466   5.6825   5.7598   6.1657   6.2730   6.4744
     8.1941   8.3503   9.1602   9.4269   9.6146   9.7387  10.1744  10.3849
    11.2016  11.4281  11.5156  11.5597  11.7467  11.8226

     occupation numbers 
     1.0000   1.0000   1.0000   1.0000   1.0000   1.0000   1.0000   1.0000
     1.0000   1.0000   1.0000   1.0000   1.0000   1.0000   1.0000   1.0000
     1.0000   1.0000   1.0000   1.0000   1.0000   1.0000   1.0000   1.0000
     1.0000   1.0000   1.0000   1.0000   1.0000   1.0000   1.0000   1.0000
     1.0000   1.0000   1.0000   1.0000   1.0000   1.0000   1.0000   1.0000
     1.0000   1.0000   1.0000   1.0000   1.0000   1.0000   1.0000   1.0000
     1.0000   1.0000   1.0000   1.0000   1.0000   1.0000   1.0000   1.0000
     1.0000   1.0000   1.0000   1.0000   1.0000   1.0000   1.0000   1.0000
     1.0000   1.0000   1.0000   1.0000   1.0000   1.0000   1.0000   1.0000
     0.0000   0.0000   0.0000   0.0000   0.0000   0.0000   0.0000   0.0000
     0.0000   0.0000   0.0000   0.0000   0.0000   0.0000

          k =-0.1776 0.1741 0.1786 (  7951 PWs)   bands (ev):

   -17.4179 -17.4058 -17.3885 -17.3655 -17.3605 -17.1367 -17.1137 -17.1085
   -17.0928 -17.0878 -17.0851 -17.0755 -17.0742 -17.0704 -17.0684 -17.0614
   -17.0598 -17.0488 -17.0345 -17.0330 -17.0164 -17.0082 -16.9866 -16.9762
   -16.9737 -16.9615 -16.9328 -16.9318 -16.9119 -16.9091 -16.8099 -16.8006
   -16.7924 -16.7860 -16.7804 -16.7780 -16.7747 -16.7731 -16.7640 -16.7607
    -5.0773  -3.7108  -3.1865  -2.8694  -2.7086  -2.1085  -1.9040  -1.7476
    -0.3895  -0.0856   0.0037   0.2097   0.4273   0.6711   1.3052   3.6559
     3.7623   3.9670   4.3415   4.3802   4.5533   4.7924   5.0485   5.1931
     5.3391   5.6349   5.7485   5.9066   6.1940   6.3805   7.0669   7.3249
     7.7253   8.0382   8.1001   8.2216   8.8984   9.0485   9.1247   9.1932
     9.3672   9.4590   9.6405  10.0594  10.3548  10.5912

     occupation numbers 
     1.0000   1.0000   1.0000   1.0000   1.0000   1.0000   1.0000   1.0000
     1.0000   1.0000   1.0000   1.0000   1.0000   1.0000   1.0000   1.0000
     1.0000   1.0000   1.0000   1.0000   1.0000   1.0000   1.0000   1.0000
     1.0000   1.0000   1.0000   1.0000   1.0000   1.0000   1.0000   1.0000
     1.0000   1.0000   1.0000   1.0000   1.0000   1.0000   1.0000   1.0000
     1.0000   1.0000   1.0000   1.0000   1.0000   1.0000   1.0000   1.0000
     1.0000   1.0000   1.0000   1.0000   1.0000   1.0000   1.0000   1.0000
     1.0000   1.0000   1.0000   1.0000   1.0000   1.0000   1.0000   1.0000
     1.0000   1.0000   1.0000   1.0000   1.0000   1.0000   0.9999   0.9685
     0.1800   0.0010   0.0002   0.0000   0.0000   0.0000   0.0000   0.0000
     0.0000   0.0000   0.0000   0.0000   0.0000   0.0000

          k =-0.0015 0.3509 0.0035 (  7977 PWs)   bands (ev):

   -17.4178 -17.4057 -17.3884 -17.3655 -17.3603 -17.1365 -17.1135 -17.1086
   -17.0928 -17.0878 -17.0850 -17.0753 -17.0741 -17.0704 -17.0682 -17.0611
   -17.0598 -17.0486 -17.0342 -17.0329 -17.0162 -17.0081 -16.9864 -16.9759
   -16.9737 -16.9616 -16.9327 -16.9318 -16.9117 -16.9092 -16.8098 -16.8006
   -16.7923 -16.7859 -16.7802 -16.7780 -16.7747 -16.7730 -16.7639 -16.7606
    -5.0218  -3.5479  -3.3107  -3.0675  -2.8454  -2.5398  -1.5628  -1.3115
    -0.6915  -0.4434   0.2873   0.6103   0.7873   0.9170   1.2715   3.5851
     3.6903   3.8338   3.9367   4.3371   4.4490   4.6231   4.8086   4.8671
     5.0295   5.5019   5.6238   6.0355   6.1787   6.4245   6.7744   6.9572
     7.7471   8.4720   8.8397   8.9242   9.0738   9.0987   9.1658   9.3729
     9.5725   9.7061   9.7904  10.5256  10.6370  10.7103

     occupation numbers 
     1.0000   1.0000   1.0000   1.0000   1.0000   1.0000   1.0000   1.0000
     1.0000   1.0000   1.0000   1.0000   1.0000   1.0000   1.0000   1.0000
     1.0000   1.0000   1.0000   1.0000   1.0000   1.0000   1.0000   1.0000
     1.0000   1.0000   1.0000   1.0000   1.0000   1.0000   1.0000   1.0000
     1.0000   1.0000   1.0000   1.0000   1.0000   1.0000   1.0000   1.0000
     1.0000   1.0000   1.0000   1.0000   1.0000   1.0000   1.0000   1.0000
     1.0000   1.0000   1.0000   1.0000   1.0000   1.0000   1.0000   1.0000
     1.0000   1.0000   1.0000   1.0000   1.0000   1.0000   1.0000   1.0000
     1.0000   1.0000   1.0000   1.0000   1.0000   1.0000   1.0000   1.0000
     0.1431   0.0000   0.0000   0.0000   0.0000   0.0000   0.0000   0.0000
     0.0000   0.0000   0.0000   0.0000   0.0000   0.0000

          k =-0.5299-0.1794 0.5289 (  7979 PWs)   bands (ev):

   -17.4177 -17.4055 -17.3883 -17.3654 -17.3603 -17.1363 -17.1134 -17.1085
   -17.0926 -17.0876 -17.0849 -17.0753 -17.0739 -17.0702 -17.0681 -17.0612
   -17.0598 -17.0486 -17.0343 -17.0329 -17.0159 -17.0081 -16.9862 -16.9760
   -16.9736 -16.9615 -16.9326 -16.9317 -16.9118 -16.9091 -16.8097 -16.8005
   -16.7922 -16.7859 -16.7803 -16.7779 -16.7747 -16.7728 -16.7639 -16.7606
    -4.7038  -3.9640  -3.5206  -3.0600  -2.9852  -2.3380  -1.8823  -1.7028
    -0.3285   0.0252   0.4803   0.8799   1.0928   1.9268   2.3568   3.0763
     3.3244   3.3546   3.6772   3.8497   3.9392   4.1562   4.3512   4.7025
     4.8030   4.8844   5.1643   5.6244   5.7247   5.9029   6.3673   6.6765
     8.3359   8.7340   9.0629   9.3703   9.6022   9.7254  10.0217  10.1190
    10.4785  10.6108  10.7462  10.8644  11.2054  11.3154

     occupation numbers 
     1.0000   1.0000   1.0000   1.0000   1.0000   1.0000   1.0000   1.0000
     1.0000   1.0000   1.0000   1.0000   1.0000   1.0000   1.0000   1.0000
     1.0000   1.0000   1.0000   1.0000   1.0000   1.0000   1.0000   1.0000
     1.0000   1.0000   1.0000   1.0000   1.0000   1.0000   1.0000   1.0000
     1.0000   1.0000   1.0000   1.0000   1.0000   1.0000   1.0000   1.0000
     1.0000   1.0000   1.0000   1.0000   1.0000   1.0000   1.0000   1.0000
     1.0000   1.0000   1.0000   1.0000   1.0000   1.0000   1.0000   1.0000
     1.0000   1.0000   1.0000   1.0000   1.0000   1.0000   1.0000   1.0000
     1.0000   1.0000   1.0000   1.0000   1.0000   1.0000   1.0000   1.0000
     0.0000   0.0000   0.0000   0.0000   0.0000   0.0000   0.0000   0.0000
     0.0000   0.0000   0.0000   0.0000   0.0000   0.0000

          k =-0.3538-0.0026 0.3538 (  7970 PWs)   bands (ev):

   -17.4178 -17.4056 -17.3883 -17.3654 -17.3605 -17.1365 -17.1134 -17.1084
   -17.0927 -17.0875 -17.0849 -17.0754 -17.0740 -17.0702 -17.0683 -17.0613
   -17.0597 -17.0487 -17.0345 -17.0329 -17.0163 -17.0081 -16.9864 -16.9762
   -16.9736 -16.9615 -16.9327 -16.9318 -16.9120 -16.9089 -16.8098 -16.8006
   -16.7923 -16.7859 -16.7804 -16.7778 -16.7747 -16.7730 -16.7640 -16.7607
    -4.8190  -3.8954  -3.5531  -2.8263  -2.7677  -2.3277  -2.1583  -1.6467
    -0.2892  -0.0679   0.2285   0.7182   0.9943   1.6375   1.8755   3.0284
     3.5424   3.8273   3.9624   4.0340   4.2627   4.5686   4.6434   4.6994
     4.9289   5.1502   5.3244   5.4561   5.5444   5.9184   6.0038   7.0753
     8.1425   8.8784   9.0374   9.0628   9.2876   9.6535   9.8019   9.9850
    10.0932  10.2588  10.3519  10.4489  10.5739  10.6440

     occupation numbers 
     1.0000   1.0000   1.0000   1.0000   1.0000   1.0000   1.0000   1.0000
     1.0000   1.0000   1.0000   1.0000   1.0000   1.0000   1.0000   1.0000
     1.0000   1.0000   1.0000   1.0000   1.0000   1.0000   1.0000   1.0000
     1.0000   1.0000   1.0000   1.0000   1.0000   1.0000   1.0000   1.0000
     1.0000   1.0000   1.0000   1.0000   1.0000   1.0000   1.0000   1.0000
     1.0000   1.0000   1.0000   1.0000   1.0000   1.0000   1.0000   1.0000
     1.0000   1.0000   1.0000   1.0000   1.0000   1.0000   1.0000   1.0000
     1.0000   1.0000   1.0000   1.0000   1.0000   1.0000   1.0000   1.0000
     1.0000   1.0000   1.0000   1.0000   1.0000   1.0000   1.0000   0.9998
     0.0001   0.0000   0.0000   0.0000   0.0000   0.0000   0.0000   0.0000
     0.0000   0.0000   0.0000   0.0000   0.0000   0.0000

          k =-0.0020-0.0008 0.3536 (  7971 PWs)   bands (ev):

   -17.4180 -17.4056 -17.3884 -17.3653 -17.3605 -17.1365 -17.1129 -17.1089
   -17.0928 -17.0879 -17.0849 -17.0754 -17.0742 -17.0704 -17.0683 -17.0614
   -17.0597 -17.0486 -17.0344 -17.0329 -17.0164 -17.0084 -16.9866 -16.9761
   -16.9737 -16.9614 -16.9327 -16.9318 -16.9119 -16.9090 -16.8097 -16.8004
   -16.7922 -16.7861 -16.7803 -16.7780 -16.7747 -16.7731 -16.7639 -16.7608
    -5.0179  -3.5293  -3.3361  -3.0145  -2.8814  -2.5990  -1.5239  -1.3290
    -0.6827  -0.3596   0.1674   0.6494   0.7829   0.9081   1.3280   3.5667
     3.6375   3.8869   3.9648   4.2656   4.4543   4.5536   4.8498   4.8986
     5.0860   5.5263   5.6634   6.0685   6.2540   6.3301   6.7290   6.8468
     7.7385   8.4386   8.8530   8.9383   9.0112   9.0516   9.2355   9.4146
     9.5142   9.6435   9.8146  10.5845  10.6544  10.7729

     occupation numbers 
     1.0000   1.0000   1.0000   1.0000   1.0000   1.0000   1.0000   1.0000
     1.0000   1.0000   1.0000   1.0000   1.0000   1.0000   1.0000   1.0000
     1.0000   1.0000   1.0000   1.0000   1.0000   1.0000   1.0000   1.0000
     1.0000   1.0000   1.0000   1.0000   1.0000   1.0000   1.0000   1.0000
     1.0000   1.0000   1.0000   1.0000   1.0000   1.0000   1.0000   1.0000
     1.0000   1.0000   1.0000   1.0000   1.0000   1.0000   1.0000   1.0000
     1.0000   1.0000   1.0000   1.0000   1.0000   1.0000   1.0000   1.0000
     1.0000   1.0000   1.0000   1.0000   1.0000   1.0000   1.0000   1.0000
     1.0000   1.0000   1.0000   1.0000   1.0000   1.0000   1.0000   1.0000
     0.1571   0.0000   0.0000   0.0000   0.0000   0.0000   0.0000   0.0000
     0.0000   0.0000   0.0000   0.0000   0.0000   0.0000

          k = 0.1741 0.1759 0.1784 (  7959 PWs)   bands (ev):

   -17.4180 -17.4058 -17.3885 -17.3654 -17.3605 -17.1366 -17.1129 -17.1090
   -17.0930 -17.0881 -17.0849 -17.0754 -17.0742 -17.0705 -17.0684 -17.0614
   -17.0599 -17.0486 -17.0345 -17.0329 -17.0164 -17.0083 -16.9865 -16.9761
   -16.9737 -16.9615 -16.9327 -16.9318 -16.9119 -16.9092 -16.8098 -16.8005
   -16.7922 -16.7861 -16.7803 -16.7780 -16.7748 -16.7731 -16.7640 -16.7608
    -5.0770  -3.7078  -3.1649  -2.9365  -2.6633  -2.2139  -1.8427  -1.6622
    -0.4771  -0.2662   0.0744   0.3596   0.5475   0.7105   1.1966   3.5962
     3.7310   3.9490   4.3709   4.4057   4.5603   4.6644   4.9649   5.0905
     5.4047   5.6341   5.7334   5.8700   6.2680   6.4407   7.0916   7.5487
     7.7308   8.0410   8.1324   8.3470   8.9516   9.0170   9.0783   9.2334
     9.3200   9.4291   9.6468  10.1714  10.3099  10.5989

     occupation numbers 
     1.0000   1.0000   1.0000   1.0000   1.0000   1.0000   1.0000   1.0000
     1.0000   1.0000   1.0000   1.0000   1.0000   1.0000   1.0000   1.0000
     1.0000   1.0000   1.0000   1.0000   1.0000   1.0000   1.0000   1.0000
     1.0000   1.0000   1.0000   1.0000   1.0000   1.0000   1.0000   1.0000
     1.0000   1.0000   1.0000   1.0000   1.0000   1.0000   1.0000   1.0000
     1.0000   1.0000   1.0000   1.0000   1.0000   1.0000   1.0000   1.0000
     1.0000   1.0000   1.0000   1.0000   1.0000   1.0000   1.0000   1.0000
     1.0000   1.0000   1.0000   1.0000   1.0000   1.0000   1.0000   1.0000
     1.0000   1.0000   1.0000   1.0000   1.0000   1.0000   0.9997   0.6210
     0.1702   0.0010   0.0001   0.0000   0.0000   0.0000   0.0000   0.0000
     0.0000   0.0000   0.0000   0.0000   0.0000   0.0000

          k =-0.3543-0.3543 0.7038 (  7978 PWs)   bands (ev):

   -17.4178 -17.4056 -17.3883 -17.3654 -17.3603 -17.1364 -17.1127 -17.1088
   -17.0928 -17.0879 -17.0849 -17.0753 -17.0740 -17.0703 -17.0683 -17.0612
   -17.0599 -17.0485 -17.0344 -17.0329 -17.0162 -17.0083 -16.9863 -16.9760
   -16.9737 -16.9615 -16.9327 -16.9318 -16.9118 -16.9091 -16.8097 -16.8004
   -16.7921 -16.7860 -16.7801 -16.7778 -16.7749 -16.7730 -16.7641 -16.7606
    -4.8218  -3.8737  -3.5539  -2.9429  -2.6904  -2.2940  -2.2061  -1.5893
    -0.3508  -0.1283   0.3477   0.7372   1.0651   1.5965   1.8777   3.0156
     3.5954   3.7204   3.9231   4.0157   4.2960   4.4410   4.5705   4.6254
     4.8397   5.1552   5.3450   5.5269   5.5928   5.9180   6.1861   7.1807
     8.1574   8.8814   8.9828   9.1035   9.3661   9.7037   9.8651   9.9783
    10.0291  10.2344  10.4376  10.5356  10.5875  10.6570

     occupation numbers 
     1.0000   1.0000   1.0000   1.0000   1.0000   1.0000   1.0000   1.0000
     1.0000   1.0000   1.0000   1.0000   1.0000   1.0000   1.0000   1.0000
     1.0000   1.0000   1.0000   1.0000   1.0000   1.0000   1.0000   1.0000
     1.0000   1.0000   1.0000   1.0000   1.0000   1.0000   1.0000   1.0000
     1.0000   1.0000   1.0000   1.0000   1.0000   1.0000   1.0000   1.0000
     1.0000   1.0000   1.0000   1.0000   1.0000   1.0000   1.0000   1.0000
     1.0000   1.0000   1.0000   1.0000   1.0000   1.0000   1.0000   1.0000
     1.0000   1.0000   1.0000   1.0000   1.0000   1.0000   1.0000   1.0000
     1.0000   1.0000   1.0000   1.0000   1.0000   1.0000   1.0000   0.9979
     0.0000   0.0000   0.0000   0.0000   0.0000   0.0000   0.0000   0.0000
     0.0000   0.0000   0.0000   0.0000   0.0000   0.0000

          k =-0.1782-0.1776 0.5287 (  7967 PWs)   bands (ev):

   -17.4178 -17.4054 -17.3883 -17.3653 -17.3604 -17.1363 -17.1127 -17.1087
   -17.0926 -17.0876 -17.0849 -17.0753 -17.0740 -17.0702 -17.0681 -17.0613
   -17.0598 -17.0485 -17.0343 -17.0329 -17.0162 -17.0084 -16.9864 -16.9761
   -16.9737 -16.9614 -16.9326 -16.9318 -16.9119 -16.9089 -16.8096 -16.8003
   -16.7921 -16.7860 -16.7803 -16.7778 -16.7748 -16.7729 -16.7640 -16.7607
    -4.7005  -3.9389  -3.5372  -3.1308  -2.9287  -2.3650  -1.9211  -1.6469
    -0.3466   0.1282   0.4264   0.7736   1.2363   1.9112   2.3616   2.9931
     3.2461   3.3656   3.7203   3.9257   4.0082   4.1026   4.4049   4.6840
     4.8014   4.9027   5.3277   5.4695   5.5882   5.9325   6.2648   6.7750
     8.2903   8.8829   9.0916   9.3160   9.5913   9.7716   9.8592  10.1201
    10.3583  10.5138  10.7645  10.7941  11.0963  11.3355

     occupation numbers 
     1.0000   1.0000   1.0000   1.0000   1.0000   1.0000   1.0000   1.0000
     1.0000   1.0000   1.0000   1.0000   1.0000   1.0000   1.0000   1.0000
     1.0000   1.0000   1.0000   1.0000   1.0000   1.0000   1.0000   1.0000
     1.0000   1.0000   1.0000   1.0000   1.0000   1.0000   1.0000   1.0000
     1.0000   1.0000   1.0000   1.0000   1.0000   1.0000   1.0000   1.0000
     1.0000   1.0000   1.0000   1.0000   1.0000   1.0000   1.0000   1.0000
     1.0000   1.0000   1.0000   1.0000   1.0000   1.0000   1.0000   1.0000
     1.0000   1.0000   1.0000   1.0000   1.0000   1.0000   1.0000   1.0000
     1.0000   1.0000   1.0000   1.0000   1.0000   1.0000   1.0000   1.0000
     0.0000   0.0000   0.0000   0.0000   0.0000   0.0000   0.0000   0.0000
     0.0000   0.0000   0.0000   0.0000   0.0000   0.0000

          k =-0.5287 0.5240-0.1713 (  7973 PWs)   bands (ev):

   -17.4178 -17.4055 -17.3882 -17.3653 -17.3604 -17.1363 -17.1119 -17.1091
   -17.0926 -17.0880 -17.0846 -17.0753 -17.0740 -17.0704 -17.0681 -17.0614
   -17.0598 -17.0482 -17.0343 -17.0328 -17.0163 -17.0085 -16.9865 -16.9761
   -16.9737 -16.9614 -16.9325 -16.9317 -16.9119 -16.9090 -16.8096 -16.8001
   -16.7919 -16.7860 -16.7802 -16.7779 -16.7748 -16.7730 -16.7640 -16.7607
    -4.6592  -3.9902  -3.5391  -3.2142  -2.8494  -2.4322  -1.9365  -1.6117
    -0.1259   0.0964   0.4137   1.0253   1.2238   2.0349   2.1464   2.8628
     3.0093   3.1701   3.4675   3.8045   3.9660   4.1441   4.3043   4.5822
     4.9660   5.1499   5.2895   5.5318   5.8042   6.1590   6.3763   6.6741
     8.5223   8.9692   9.2338   9.5333   9.6518   9.8372   9.9887  10.1408
    10.2197  10.5715  10.7436  11.0314  11.2079  11.3113

     occupation numbers 
     1.0000   1.0000   1.0000   1.0000   1.0000   1.0000   1.0000   1.0000
     1.0000   1.0000   1.0000   1.0000   1.0000   1.0000   1.0000   1.0000
     1.0000   1.0000   1.0000   1.0000   1.0000   1.0000   1.0000   1.0000
     1.0000   1.0000   1.0000   1.0000   1.0000   1.0000   1.0000   1.0000
     1.0000   1.0000   1.0000   1.0000   1.0000   1.0000   1.0000   1.0000
     1.0000   1.0000   1.0000   1.0000   1.0000   1.0000   1.0000   1.0000
     1.0000   1.0000   1.0000   1.0000   1.0000   1.0000   1.0000   1.0000
     1.0000   1.0000   1.0000   1.0000   1.0000   1.0000   1.0000   1.0000
     1.0000   1.0000   1.0000   1.0000   1.0000   1.0000   1.0000   1.0000
     0.0000   0.0000   0.0000   0.0000   0.0000   0.0000   0.0000   0.0000
     0.0000   0.0000   0.0000   0.0000   0.0000   0.0000

          k =-0.3526 0.7008-0.3464 (  7975 PWs)   bands (ev):

   -17.4178 -17.4056 -17.3882 -17.3653 -17.3605 -17.1363 -17.1119 -17.1092
   -17.0928 -17.0881 -17.0846 -17.0754 -17.0740 -17.0704 -17.0681 -17.0614
   -17.0599 -17.0482 -17.0345 -17.0328 -17.0162 -17.0084 -16.9864 -16.9762
   -16.9736 -16.9614 -16.9326 -16.9317 -16.9120 -16.9092 -16.8095 -16.8002
   -16.7919 -16.7861 -16.7802 -16.7779 -16.7749 -16.7731 -16.7641 -16.7608
    -4.7919  -3.9035  -3.5861  -2.9738  -2.6236  -2.3989  -2.2394  -1.4582
    -0.4219   0.0863   0.3889   0.8089   1.1856   1.5324   1.8291   2.8120
     3.3413   3.5407   3.6464   3.9439   4.1612   4.3802   4.5819   4.8640
     4.9826   5.2575   5.4187   5.5269   5.7292   5.9080   6.2606   7.4536
     8.4556   8.9017   9.1417   9.2575   9.4864   9.7000   9.7722   9.8912
    10.0162  10.1118  10.4433  10.5544  10.7156  10.8736

     occupation numbers 
     1.0000   1.0000   1.0000   1.0000   1.0000   1.0000   1.0000   1.0000
     1.0000   1.0000   1.0000   1.0000   1.0000   1.0000   1.0000   1.0000
     1.0000   1.0000   1.0000   1.0000   1.0000   1.0000   1.0000   1.0000
     1.0000   1.0000   1.0000   1.0000   1.0000   1.0000   1.0000   1.0000
     1.0000   1.0000   1.0000   1.0000   1.0000   1.0000   1.0000   1.0000
     1.0000   1.0000   1.0000   1.0000   1.0000   1.0000   1.0000   1.0000
     1.0000   1.0000   1.0000   1.0000   1.0000   1.0000   1.0000   1.0000
     1.0000   1.0000   1.0000   1.0000   1.0000   1.0000   1.0000   1.0000
     1.0000   1.0000   1.0000   1.0000   1.0000   1.0000   1.0000   0.8332
     0.0000   0.0000   0.0000   0.0000   0.0000   0.0000   0.0000   0.0000
     0.0000   0.0000   0.0000   0.0000   0.0000   0.0000

          k =-0.8810 0.1706 0.1790 (  7968 PWs)   bands (ev):

   -17.4177 -17.4056 -17.3882 -17.3653 -17.3604 -17.1363 -17.1118 -17.1092
   -17.0927 -17.0881 -17.0846 -17.0752 -17.0740 -17.0703 -17.0683 -17.0613
   -17.0599 -17.0483 -17.0344 -17.0328 -17.0162 -17.0084 -16.9863 -16.9760
   -16.9736 -16.9614 -16.9327 -16.9317 -16.9118 -16.9091 -16.8095 -16.8003
   -16.7918 -16.7860 -16.7801 -16.7778 -16.7749 -16.7731 -16.7641 -16.7607
    -4.6629  -4.0303  -3.5357  -3.1066  -2.8972  -2.4322  -1.8644  -1.5719
    -0.3059  -0.0651   0.5263   0.8600   1.1461   1.9355   2.3641   3.0268
     3.1526   3.2884   3.5955   3.8566   4.0065   4.1585   4.3856   4.6346
     4.8768   5.0170   5.3251   5.5323   5.6414   6.1249   6.2317   6.7166
     8.3435   8.7488   9.1216   9.3635   9.5201   9.6853   9.8366  10.1898
    10.3833  10.6108  10.8164  10.9730  11.2155  11.2952

     occupation numbers 
     1.0000   1.0000   1.0000   1.0000   1.0000   1.0000   1.0000   1.0000
     1.0000   1.0000   1.0000   1.0000   1.0000   1.0000   1.0000   1.0000
     1.0000   1.0000   1.0000   1.0000   1.0000   1.0000   1.0000   1.0000
     1.0000   1.0000   1.0000   1.0000   1.0000   1.0000   1.0000   1.0000
     1.0000   1.0000   1.0000   1.0000   1.0000   1.0000   1.0000   1.0000
     1.0000   1.0000   1.0000   1.0000   1.0000   1.0000   1.0000   1.0000
     1.0000   1.0000   1.0000   1.0000   1.0000   1.0000   1.0000   1.0000
     1.0000   1.0000   1.0000   1.0000   1.0000   1.0000   1.0000   1.0000
     1.0000   1.0000   1.0000   1.0000   1.0000   1.0000   1.0000   1.0000
     0.0000   0.0000   0.0000   0.0000   0.0000   0.0000   0.0000   0.0000
     0.0000   0.0000   0.0000   0.0000   0.0000   0.0000

          k =-0.7049 0.3473 0.0039 (  7986 PWs)   bands (ev):

   -17.4179 -17.4055 -17.3882 -17.3653 -17.3603 -17.1363 -17.1119 -17.1091
   -17.0926 -17.0879 -17.0847 -17.0752 -17.0741 -17.0703 -17.0683 -17.0613
   -17.0598 -17.0484 -17.0343 -17.0328 -17.0163 -17.0085 -16.9865 -16.9760
   -16.9737 -16.9614 -16.9326 -16.9317 -16.9118 -16.9090 -16.8096 -16.8003
   -16.7919 -16.7861 -16.7801 -16.7778 -16.7749 -16.7731 -16.7640 -16.7607
    -4.4927  -3.8417  -3.8109  -3.6253  -2.5643  -2.3263  -2.0551  -1.6457
    -0.0826   0.2297   0.4350   0.6174   2.1617   2.2655   2.5498   2.7700
     2.9341   3.0161   3.2891   3.4430   4.1342   4.1709   4.4517   4.5673
     4.6369   4.7313   5.0581   5.1971   5.6839   5.9270   6.0816   6.3155
     9.2445   9.4186   9.5120   9.6879   9.8737   9.9305  10.1772  10.4162
    10.5021  10.6338  10.8038  11.0019  11.3792  11.5348

     occupation numbers 
     1.0000   1.0000   1.0000   1.0000   1.0000   1.0000   1.0000   1.0000
     1.0000   1.0000   1.0000   1.0000   1.0000   1.0000   1.0000   1.0000
     1.0000   1.0000   1.0000   1.0000   1.0000   1.0000   1.0000   1.0000
     1.0000   1.0000   1.0000   1.0000   1.0000   1.0000   1.0000   1.0000
     1.0000   1.0000   1.0000   1.0000   1.0000   1.0000   1.0000   1.0000
     1.0000   1.0000   1.0000   1.0000   1.0000   1.0000   1.0000   1.0000
     1.0000   1.0000   1.0000   1.0000   1.0000   1.0000   1.0000   1.0000
     1.0000   1.0000   1.0000   1.0000   1.0000   1.0000   1.0000   1.0000
     1.0000   1.0000   1.0000   1.0000   1.0000   1.0000   1.0000   1.0000
     0.0000   0.0000   0.0000   0.0000   0.0000   0.0000   0.0000   0.0000
     0.0000   0.0000   0.0000   0.0000   0.0000   0.0000

          k =-0.3532 0.3491 0.0037 (  7973 PWs)   bands (ev):

   -17.4177 -17.4056 -17.3883 -17.3655 -17.3604 -17.1363 -17.1128 -17.1087
   -17.0925 -17.0879 -17.0848 -17.0754 -17.0741 -17.0704 -17.0682 -17.0613
   -17.0599 -17.0485 -17.0344 -17.0329 -17.0163 -17.0083 -16.9865 -16.9761
   -16.9737 -16.9614 -16.9327 -16.9316 -16.9119 -16.9091 -16.8096 -16.8004
   -16.7921 -16.7860 -16.7802 -16.7779 -16.7749 -16.7730 -16.7641 -16.7606
    -4.7954  -3.9020  -3.5597  -3.0115  -2.5522  -2.5173  -2.1516  -1.5097
    -0.3696   0.1910   0.3015   0.8132   0.9895   1.4944   1.9224   2.8153
     3.3953   3.5849   3.7339   3.9765   4.1893   4.4560   4.6261   4.8303
     4.9099   5.2111   5.4562   5.5966   5.7102   5.9037   6.1619   7.2537
     8.3939   8.9023   9.0890   9.1848   9.4408   9.6846   9.7596  10.0258
    10.0893  10.1664  10.3760  10.4813  10.7079  10.9043

     occupation numbers 
     1.0000   1.0000   1.0000   1.0000   1.0000   1.0000   1.0000   1.0000
     1.0000   1.0000   1.0000   1.0000   1.0000   1.0000   1.0000   1.0000
     1.0000   1.0000   1.0000   1.0000   1.0000   1.0000   1.0000   1.0000
     1.0000   1.0000   1.0000   1.0000   1.0000   1.0000   1.0000   1.0000
     1.0000   1.0000   1.0000   1.0000   1.0000   1.0000   1.0000   1.0000
     1.0000   1.0000   1.0000   1.0000   1.0000   1.0000   1.0000   1.0000
     1.0000   1.0000   1.0000   1.0000   1.0000   1.0000   1.0000   1.0000
     1.0000   1.0000   1.0000   1.0000   1.0000   1.0000   1.0000   1.0000
     1.0000   1.0000   1.0000   1.0000   1.0000   1.0000   1.0000   0.9907
     0.0000   0.0000   0.0000   0.0000   0.0000   0.0000   0.0000   0.0000
     0.0000   0.0000   0.0000   0.0000   0.0000   0.0000

          k =-0.1770 0.5258-0.1715 (  7988 PWs)   bands (ev):

   -17.4176 -17.4056 -17.3883 -17.3654 -17.3604 -17.1363 -17.1128 -17.1088
   -17.0925 -17.0879 -17.0848 -17.0753 -17.0740 -17.0704 -17.0681 -17.0613
   -17.0598 -17.0483 -17.0342 -17.0328 -17.0161 -17.0083 -16.9862 -16.9760
   -16.9736 -16.9615 -16.9326 -16.9316 -16.9119 -16.9092 -16.8096 -16.8003
   -16.7920 -16.7859 -16.7802 -16.7779 -16.7748 -16.7730 -16.7640 -16.7606
    -4.6645  -3.9942  -3.5409  -3.2535  -2.7396  -2.4274  -2.0108  -1.5751
    -0.1281   0.0171   0.3727   1.0590   1.3910   2.0034   2.0238   2.8105
     3.0179   3.2768   3.4916   3.7685   3.9232   4.1820   4.3602   4.5787
     4.9316   5.0541   5.2245   5.6285   5.6923   6.2185   6.3344   6.8756
     8.5399   9.0416   9.3160   9.5993   9.6957   9.7940  10.0065  10.0428
    10.2939  10.5279  10.6278  10.9909  11.1208  11.3084

     occupation numbers 
     1.0000   1.0000   1.0000   1.0000   1.0000   1.0000   1.0000   1.0000
     1.0000   1.0000   1.0000   1.0000   1.0000   1.0000   1.0000   1.0000
     1.0000   1.0000   1.0000   1.0000   1.0000   1.0000   1.0000   1.0000
     1.0000   1.0000   1.0000   1.0000   1.0000   1.0000   1.0000   1.0000
     1.0000   1.0000   1.0000   1.0000   1.0000   1.0000   1.0000   1.0000
     1.0000   1.0000   1.0000   1.0000   1.0000   1.0000   1.0000   1.0000
     1.0000   1.0000   1.0000   1.0000   1.0000   1.0000   1.0000   1.0000
     1.0000   1.0000   1.0000   1.0000   1.0000   1.0000   1.0000   1.0000
     1.0000   1.0000   1.0000   1.0000   1.0000   1.0000   1.0000   1.0000
     0.0000   0.0000   0.0000   0.0000   0.0000   0.0000   0.0000   0.0000
     0.0000   0.0000   0.0000   0.0000   0.0000   0.0000

          k =-0.7055-0.0044 0.3540 (  7966 PWs)   bands (ev):

   -17.4176 -17.4056 -17.3883 -17.3653 -17.3603 -17.1363 -17.1127 -17.1088
   -17.0925 -17.0879 -17.0847 -17.0752 -17.0739 -17.0702 -17.0682 -17.0612
   -17.0598 -17.0484 -17.0343 -17.0328 -17.0161 -17.0083 -16.9861 -16.9760
   -16.9736 -16.9615 -16.9327 -16.9317 -16.9119 -16.9090 -16.8096 -16.8005
   -16.7920 -16.7859 -16.7802 -16.7778 -16.7747 -16.7730 -16.7639 -16.7606
    -4.4924  -3.9186  -3.7684  -3.6046  -2.4952  -2.2813  -2.1147  -1.6726
    -0.0997   0.1652   0.3979   0.7267   2.1205   2.2645   2.5148   2.7529
     3.0533   3.1014   3.1407   3.4188   4.1634   4.3321   4.4066   4.5060
     4.6004   4.7977   5.0219   5.1202   5.6137   5.9098   6.1873   6.3767
     9.2956   9.3980   9.5534   9.7567   9.8179   9.9466  10.1046  10.4544
    10.5899  10.7287  10.8109  11.0261  11.3041  11.4564

     occupation numbers 
     1.0000   1.0000   1.0000   1.0000   1.0000   1.0000   1.0000   1.0000
     1.0000   1.0000   1.0000   1.0000   1.0000   1.0000   1.0000   1.0000
     1.0000   1.0000   1.0000   1.0000   1.0000   1.0000   1.0000   1.0000
     1.0000   1.0000   1.0000   1.0000   1.0000   1.0000   1.0000   1.0000
     1.0000   1.0000   1.0000   1.0000   1.0000   1.0000   1.0000   1.0000
     1.0000   1.0000   1.0000   1.0000   1.0000   1.0000   1.0000   1.0000
     1.0000   1.0000   1.0000   1.0000   1.0000   1.0000   1.0000   1.0000
     1.0000   1.0000   1.0000   1.0000   1.0000   1.0000   1.0000   1.0000
     1.0000   1.0000   1.0000   1.0000   1.0000   1.0000   1.0000   1.0000
     0.0000   0.0000   0.0000   0.0000   0.0000   0.0000   0.0000   0.0000
     0.0000   0.0000   0.0000   0.0000   0.0000   0.0000

          k =-0.5293 0.1723 0.1788 (  7967 PWs)   bands (ev):

   -17.4177 -17.4055 -17.3882 -17.3654 -17.3604 -17.1363 -17.1127 -17.1086
   -17.0925 -17.0878 -17.0847 -17.0753 -17.0740 -17.0702 -17.0683 -17.0613
   -17.0598 -17.0485 -17.0344 -17.0329 -17.0162 -17.0083 -16.9864 -16.9761
   -16.9736 -16.9613 -16.9327 -16.9316 -16.9119 -16.9089 -16.8096 -16.8005
   -16.7920 -16.7860 -16.7802 -16.7778 -16.7748 -16.7730 -16.7640 -16.7606
    -4.6635  -4.0318  -3.5394  -3.1043  -2.8642  -2.4514  -1.8543  -1.6141
    -0.2584   0.0275   0.3887   0.8641   1.0737   1.8742   2.3609   2.9399
     3.2585   3.5177   3.6999   3.9216   3.9907   4.1997   4.3401   4.6274
     4.8043   5.0002   5.3409   5.5190   5.6758   6.0959   6.1436   6.6313
     8.3500   8.7357   9.1054   9.3811   9.3909   9.6508   9.8745  10.1248
    10.2837  10.4870  10.8102  10.9374  11.1410  11.3267

     occupation numbers 
     1.0000   1.0000   1.0000   1.0000   1.0000   1.0000   1.0000   1.0000
     1.0000   1.0000   1.0000   1.0000   1.0000   1.0000   1.0000   1.0000
     1.0000   1.0000   1.0000   1.0000   1.0000   1.0000   1.0000   1.0000
     1.0000   1.0000   1.0000   1.0000   1.0000   1.0000   1.0000   1.0000
     1.0000   1.0000   1.0000   1.0000   1.0000   1.0000   1.0000   1.0000
     1.0000   1.0000   1.0000   1.0000   1.0000   1.0000   1.0000   1.0000
     1.0000   1.0000   1.0000   1.0000   1.0000   1.0000   1.0000   1.0000
     1.0000   1.0000   1.0000   1.0000   1.0000   1.0000   1.0000   1.0000
     1.0000   1.0000   1.0000   1.0000   1.0000   1.0000   1.0000   1.0000
     0.0000   0.0000   0.0000   0.0000   0.0000   0.0000   0.0000   0.0000
     0.0000   0.0000   0.0000   0.0000   0.0000   0.0000

          k = 0.3552-0.3483-0.3572 (  7948 PWs)   bands (ev):

   -17.4177 -17.4055 -17.3883 -17.3654 -17.3605 -17.1364 -17.1135 -17.1084
   -17.0926 -17.0876 -17.0849 -17.0754 -17.0740 -17.0703 -17.0682 -17.0613
   -17.0597 -17.0487 -17.0345 -17.0330 -17.0163 -17.0082 -16.9865 -16.9761
   -16.9737 -16.9613 -16.9327 -16.9317 -16.9119 -16.9089 -16.8097 -16.8006
   -16.7923 -16.7859 -16.7804 -16.7778 -16.7747 -16.7730 -16.7640 -16.7607
    -4.7075  -4.2981  -3.0810  -2.7905  -2.6724  -2.3801  -2.2250  -2.0534
    -0.0720   0.3140   0.4313   0.5390   0.7676   0.8959   2.6945   3.2099
     3.4811   3.6371   3.8542   3.9779   4.0726   4.2481   4.6991   4.7305
     4.9826   5.0580   5.2103   5.2744   6.0885   6.5300   6.8488   6.9879
     8.1401   8.4179   8.4434   8.4810   8.6614   8.8796   8.9404   9.0221
    10.3436  10.6865  11.1335  11.1997  11.5737  11.5953

     occupation numbers 
     1.0000   1.0000   1.0000   1.0000   1.0000   1.0000   1.0000   1.0000
     1.0000   1.0000   1.0000   1.0000   1.0000   1.0000   1.0000   1.0000
     1.0000   1.0000   1.0000   1.0000   1.0000   1.0000   1.0000   1.0000
     1.0000   1.0000   1.0000   1.0000   1.0000   1.0000   1.0000   1.0000
     1.0000   1.0000   1.0000   1.0000   1.0000   1.0000   1.0000   1.0000
     1.0000   1.0000   1.0000   1.0000   1.0000   1.0000   1.0000   1.0000
     1.0000   1.0000   1.0000   1.0000   1.0000   1.0000   1.0000   1.0000
     1.0000   1.0000   1.0000   1.0000   1.0000   1.0000   1.0000   1.0000
     1.0000   1.0000   1.0000   1.0000   1.0000   1.0000   1.0000   1.0000
     0.0001   0.0000   0.0000   0.0000   0.0000   0.0000   0.0000   0.0000
     0.0000   0.0000   0.0000   0.0000   0.0000   0.0000

          k = 0.5314-0.1715-0.5324 (  7977 PWs)   bands (ev):

   -17.4176 -17.4056 -17.3883 -17.3654 -17.3604 -17.1363 -17.1134 -17.1084
   -17.0925 -17.0877 -17.0849 -17.0753 -17.0739 -17.0703 -17.0681 -17.0612
   -17.0597 -17.0486 -17.0343 -17.0329 -17.0161 -17.0081 -16.9862 -16.9759
   -16.9736 -16.9614 -16.9327 -16.9317 -16.9119 -16.9091 -16.8097 -16.8005
   -16.7922 -16.7858 -16.7803 -16.7779 -16.7747 -16.7729 -16.7639 -16.7606
    -4.6649  -4.0758  -3.4422  -3.0811  -2.9748  -2.3374  -1.8467  -1.7112
    -0.3223   0.0228   0.4270   0.8570   1.1437   1.8056   2.4380   2.9669
     3.2228   3.4411   3.7314   3.9131   4.0573   4.2385   4.4255   4.6454
     4.7996   5.0588   5.2154   5.4484   5.6254   5.8574   6.2490   6.7273
     8.3141   8.8009   9.0875   9.2834   9.5003   9.6630   9.9921  10.1808
    10.2363  10.4723  10.8612  10.9618  11.0789  11.3081

     occupation numbers 
     1.0000   1.0000   1.0000   1.0000   1.0000   1.0000   1.0000   1.0000
     1.0000   1.0000   1.0000   1.0000   1.0000   1.0000   1.0000   1.0000
     1.0000   1.0000   1.0000   1.0000   1.0000   1.0000   1.0000   1.0000
     1.0000   1.0000   1.0000   1.0000   1.0000   1.0000   1.0000   1.0000
     1.0000   1.0000   1.0000   1.0000   1.0000   1.0000   1.0000   1.0000
     1.0000   1.0000   1.0000   1.0000   1.0000   1.0000   1.0000   1.0000
     1.0000   1.0000   1.0000   1.0000   1.0000   1.0000   1.0000   1.0000
     1.0000   1.0000   1.0000   1.0000   1.0000   1.0000   1.0000   1.0000
     1.0000   1.0000   1.0000   1.0000   1.0000   1.0000   1.0000   1.0000
     0.0000   0.0000   0.0000   0.0000   0.0000   0.0000   0.0000   0.0000
     0.0000   0.0000   0.0000   0.0000   0.0000   0.0000

          k = 0.0029-0.7017-0.0070 (  7986 PWs)   bands (ev):

   -17.4175 -17.4055 -17.3882 -17.3653 -17.3601 -17.1362 -17.1133 -17.1084
   -17.0924 -17.0876 -17.0848 -17.0751 -17.0738 -17.0702 -17.0679 -17.0610
   -17.0596 -17.0484 -17.0340 -17.0328 -17.0158 -17.0080 -16.9860 -16.9757
   -16.9735 -16.9615 -16.9326 -16.9316 -16.9117 -16.9091 -16.8096 -16.8004
   -16.7921 -16.7857 -16.7801 -16.7778 -16.7746 -16.7728 -16.7637 -16.7604
    -4.5463  -4.0286  -3.4270  -3.3012  -3.1280  -2.7448  -1.5179  -1.2460
    -0.6182  -0.2742   1.0770   1.3263   1.4009   1.6945   2.8861   3.0459
     3.2760   3.3414   3.4238   3.5734   3.6176   3.6736   3.7404   3.8954
     4.9323   5.2628   5.3956   5.5121   5.8493   6.2781   6.3593   6.4283
     8.1517   8.3659   9.1397   9.5099   9.6096   9.7518  10.2651  10.5165
    11.1178  11.4671  11.5277  11.6260  11.7266  11.8549

     occupation numbers 
     1.0000   1.0000   1.0000   1.0000   1.0000   1.0000   1.0000   1.0000
     1.0000   1.0000   1.0000   1.0000   1.0000   1.0000   1.0000   1.0000
     1.0000   1.0000   1.0000   1.0000   1.0000   1.0000   1.0000   1.0000
     1.0000   1.0000   1.0000   1.0000   1.0000   1.0000   1.0000   1.0000
     1.0000   1.0000   1.0000   1.0000   1.0000   1.0000   1.0000   1.0000
     1.0000   1.0000   1.0000   1.0000   1.0000   1.0000   1.0000   1.0000
     1.0000   1.0000   1.0000   1.0000   1.0000   1.0000   1.0000   1.0000
     1.0000   1.0000   1.0000   1.0000   1.0000   1.0000   1.0000   1.0000
     1.0000   1.0000   1.0000   1.0000   1.0000   1.0000   1.0000   1.0000
     0.0001   0.0000   0.0000   0.0000   0.0000   0.0000   0.0000   0.0000
     0.0000   0.0000   0.0000   0.0000   0.0000   0.0000

          k = 0.5308-0.5232-0.1823 (  7989 PWs)   bands (ev):

   -17.4179 -17.4055 -17.3883 -17.3653 -17.3604 -17.1364 -17.1128 -17.1087
   -17.0926 -17.0877 -17.0848 -17.0753 -17.0740 -17.0703 -17.0681 -17.0613
   -17.0598 -17.0486 -17.0344 -17.0329 -17.0163 -17.0084 -16.9865 -16.9761
   -16.9737 -16.9613 -16.9327 -16.9318 -16.9118 -16.9089 -16.8097 -16.8004
   -16.7921 -16.7860 -16.7803 -16.7778 -16.7748 -16.7730 -16.7640 -16.7607
    -4.6652  -4.0315  -3.5076  -3.1781  -2.8060  -2.4182  -1.9115  -1.6277
    -0.2147  -0.0227   0.2368   1.0312   1.2120   1.8028   2.2490   3.0469
     3.2742   3.5516   3.6980   3.8304   4.1412   4.2339   4.3434   4.6680
     4.8243   5.0294   5.1493   5.3610   5.5290   6.0579   6.1908   6.7687
     8.5414   8.8766   9.1648   9.3118   9.4170   9.5485   9.8613   9.9166
    10.1247  10.4198  10.5883  10.7918  10.9814  11.2786

     occupation numbers 
     1.0000   1.0000   1.0000   1.0000   1.0000   1.0000   1.0000   1.0000
     1.0000   1.0000   1.0000   1.0000   1.0000   1.0000   1.0000   1.0000
     1.0000   1.0000   1.0000   1.0000   1.0000   1.0000   1.0000   1.0000
     1.0000   1.0000   1.0000   1.0000   1.0000   1.0000   1.0000   1.0000
     1.0000   1.0000   1.0000   1.0000   1.0000   1.0000   1.0000   1.0000
     1.0000   1.0000   1.0000   1.0000   1.0000   1.0000   1.0000   1.0000
     1.0000   1.0000   1.0000   1.0000   1.0000   1.0000   1.0000   1.0000
     1.0000   1.0000   1.0000   1.0000   1.0000   1.0000   1.0000   1.0000
     1.0000   1.0000   1.0000   1.0000   1.0000   1.0000   1.0000   1.0000
     0.0000   0.0000   0.0000   0.0000   0.0000   0.0000   0.0000   0.0000
     0.0000   0.0000   0.0000   0.0000   0.0000   0.0000

          k = 0.7069-0.3465-0.3574 (  7977 PWs)   bands (ev):

   -17.4178 -17.4056 -17.3883 -17.3654 -17.3604 -17.1365 -17.1129 -17.1088
   -17.0928 -17.0879 -17.0848 -17.0752 -17.0740 -17.0704 -17.0682 -17.0614
   -17.0598 -17.0485 -17.0344 -17.0330 -17.0162 -17.0084 -16.9864 -16.9760
   -16.9737 -16.9615 -16.9327 -16.9318 -16.9119 -16.9091 -16.8097 -16.8004
   -16.7921 -16.7860 -16.7803 -16.7779 -16.7748 -16.7731 -16.7640 -16.7608
    -4.7985  -3.9294  -3.5932  -2.8501  -2.6426  -2.4069  -2.1256  -1.6106
    -0.3661  -0.0084   0.1705   0.8120   0.9421   1.6889   1.8686   2.9739
     3.6567   3.7297   3.8768   3.9291   4.3645   4.4885   4.6573   4.7594
     4.8860   5.2043   5.2911   5.4493   5.6715   5.7559   6.2329   7.0678
     8.1212   8.8297   8.9744   9.0973   9.3698   9.6446   9.8427   9.9277
    10.0259  10.1997  10.2811  10.4272  10.5724  10.7310

     occupation numbers 
     1.0000   1.0000   1.0000   1.0000   1.0000   1.0000   1.0000   1.0000
     1.0000   1.0000   1.0000   1.0000   1.0000   1.0000   1.0000   1.0000
     1.0000   1.0000   1.0000   1.0000   1.0000   1.0000   1.0000   1.0000
     1.0000   1.0000   1.0000   1.0000   1.0000   1.0000   1.0000   1.0000
     1.0000   1.0000   1.0000   1.0000   1.0000   1.0000   1.0000   1.0000
     1.0000   1.0000   1.0000   1.0000   1.0000   1.0000   1.0000   1.0000
     1.0000   1.0000   1.0000   1.0000   1.0000   1.0000   1.0000   1.0000
     1.0000   1.0000   1.0000   1.0000   1.0000   1.0000   1.0000   1.0000
     1.0000   1.0000   1.0000   1.0000   1.0000   1.0000   1.0000   0.9999
     0.0001   0.0000   0.0000   0.0000   0.0000   0.0000   0.0000   0.0000
     0.0000   0.0000   0.0000   0.0000   0.0000   0.0000

          k = 0.1785-0.8767 0.1680 (  7989 PWs)   bands (ev):

   -17.4177 -17.4056 -17.3883 -17.3654 -17.3603 -17.1364 -17.1127 -17.1089
   -17.0927 -17.0880 -17.0848 -17.0752 -17.0739 -17.0704 -17.0681 -17.0612
   -17.0598 -17.0484 -17.0343 -17.0328 -17.0160 -17.0083 -16.9862 -16.9759
   -16.9736 -16.9616 -16.9327 -16.9318 -16.9118 -16.9092 -16.8096 -16.8004
   -16.7921 -16.7859 -16.7802 -16.7779 -16.7748 -16.7730 -16.7640 -16.7607
    -4.6703  -4.0281  -3.5153  -3.2402  -2.6876  -2.3764  -2.0128  -1.5978
    -0.2037  -0.1473   0.2829   1.0769   1.3304   1.8433   2.2016   3.0716
     3.1163   3.5289   3.6555   3.8782   4.0165   4.2458   4.3501   4.5639
     4.8329   4.8841   5.1330   5.3377   5.7295   6.0435   6.3072   6.9847
     8.5444   8.9865   9.2011   9.3255   9.5433   9.6753   9.8216   9.9861
    10.1200  10.3121  10.5953  10.8015  10.9452  11.3913

     occupation numbers 
     1.0000   1.0000   1.0000   1.0000   1.0000   1.0000   1.0000   1.0000
     1.0000   1.0000   1.0000   1.0000   1.0000   1.0000   1.0000   1.0000
     1.0000   1.0000   1.0000   1.0000   1.0000   1.0000   1.0000   1.0000
     1.0000   1.0000   1.0000   1.0000   1.0000   1.0000   1.0000   1.0000
     1.0000   1.0000   1.0000   1.0000   1.0000   1.0000   1.0000   1.0000
     1.0000   1.0000   1.0000   1.0000   1.0000   1.0000   1.0000   1.0000
     1.0000   1.0000   1.0000   1.0000   1.0000   1.0000   1.0000   1.0000
     1.0000   1.0000   1.0000   1.0000   1.0000   1.0000   1.0000   1.0000
     1.0000   1.0000   1.0000   1.0000   1.0000   1.0000   1.0000   1.0000
     0.0000   0.0000   0.0000   0.0000   0.0000   0.0000   0.0000   0.0000
     0.0000   0.0000   0.0000   0.0000   0.0000   0.0000

          k = 0.3546-0.7000-0.0072 (  7983 PWs)   bands (ev):

   -17.4178 -17.4055 -17.3883 -17.3653 -17.3604 -17.1363 -17.1128 -17.1088
   -17.0926 -17.0877 -17.0849 -17.0753 -17.0740 -17.0703 -17.0680 -17.0612
   -17.0598 -17.0484 -17.0343 -17.0328 -17.0161 -17.0084 -16.9863 -16.9760
   -16.9736 -16.9615 -16.9326 -16.9318 -16.9119 -16.9090 -16.8097 -16.8003
   -16.7921 -16.7860 -16.7802 -16.7779 -16.7748 -16.7729 -16.7640 -16.7606
    -4.4979  -3.9077  -3.7750  -3.5912  -2.4432  -2.3581  -2.0216  -1.8092
    -0.0657   0.2725   0.4720   0.5186   2.1441   2.3072   2.5405   2.8349
     2.9689   3.0967   3.2124   3.4156   4.1605   4.3048   4.4118   4.5753
     4.6459   4.7282   4.8669   5.1122   5.6497   5.9913   6.1792   6.2433
     9.2539   9.4330   9.5210   9.7041   9.8717   9.9987  10.1155  10.3642
    10.5478  10.6672  10.7892  10.9783  11.2971  11.5198

     occupation numbers 
     1.0000   1.0000   1.0000   1.0000   1.0000   1.0000   1.0000   1.0000
     1.0000   1.0000   1.0000   1.0000   1.0000   1.0000   1.0000   1.0000
     1.0000   1.0000   1.0000   1.0000   1.0000   1.0000   1.0000   1.0000
     1.0000   1.0000   1.0000   1.0000   1.0000   1.0000   1.0000   1.0000
     1.0000   1.0000   1.0000   1.0000   1.0000   1.0000   1.0000   1.0000
     1.0000   1.0000   1.0000   1.0000   1.0000   1.0000   1.0000   1.0000
     1.0000   1.0000   1.0000   1.0000   1.0000   1.0000   1.0000   1.0000
     1.0000   1.0000   1.0000   1.0000   1.0000   1.0000   1.0000   1.0000
     1.0000   1.0000   1.0000   1.0000   1.0000   1.0000   1.0000   1.0000
     0.0000   0.0000   0.0000   0.0000   0.0000   0.0000   0.0000   0.0000
     0.0000   0.0000   0.0000   0.0000   0.0000   0.0000

          k = 0.0041 0.0017-0.7071 (  7992 PWs)   bands (ev):

   -17.4178 -17.4053 -17.3881 -17.3651 -17.3603 -17.1362 -17.1118 -17.1090
   -17.0925 -17.0877 -17.0846 -17.0752 -17.0739 -17.0702 -17.0679 -17.0613
   -17.0596 -17.0482 -17.0342 -17.0327 -17.0162 -17.0084 -16.9864 -16.9760
   -16.9736 -16.9612 -16.9324 -16.9317 -16.9117 -16.9088 -16.8095 -16.8001
   -16.7918 -16.7859 -16.7801 -16.7777 -16.7747 -16.7729 -16.7638 -16.7607
    -4.5404  -3.9719  -3.4739  -3.3639  -3.0670  -2.8156  -1.4898  -1.2605
    -0.5887  -0.2219   1.0476   1.3372   1.5257   1.5655   2.9266   3.0832
     3.1284   3.2520   3.4204   3.5763   3.6424   3.7806   3.8227   3.9224
     4.8843   5.3183   5.5736   5.6456   5.7004   6.0709   6.2148   6.4245
     8.1504   8.3412   9.1797   9.4405   9.5540   9.6260  10.1699  10.4126
    11.2061  11.3834  11.5793  11.8170  11.8573  11.8650

     occupation numbers 
     1.0000   1.0000   1.0000   1.0000   1.0000   1.0000   1.0000   1.0000
     1.0000   1.0000   1.0000   1.0000   1.0000   1.0000   1.0000   1.0000
     1.0000   1.0000   1.0000   1.0000   1.0000   1.0000   1.0000   1.0000
     1.0000   1.0000   1.0000   1.0000   1.0000   1.0000   1.0000   1.0000
     1.0000   1.0000   1.0000   1.0000   1.0000   1.0000   1.0000   1.0000
     1.0000   1.0000   1.0000   1.0000   1.0000   1.0000   1.0000   1.0000
     1.0000   1.0000   1.0000   1.0000   1.0000   1.0000   1.0000   1.0000
     1.0000   1.0000   1.0000   1.0000   1.0000   1.0000   1.0000   1.0000
     1.0000   1.0000   1.0000   1.0000   1.0000   1.0000   1.0000   1.0000
     0.0001   0.0000   0.0000   0.0000   0.0000   0.0000   0.0000   0.0000
     0.0000   0.0000   0.0000   0.0000   0.0000   0.0000

          k = 0.1802 0.1784-0.8823 (  7976 PWs)   bands (ev):

   -17.4179 -17.4055 -17.3882 -17.3653 -17.3604 -17.1363 -17.1119 -17.1092
   -17.0928 -17.0880 -17.0847 -17.0752 -17.0740 -17.0704 -17.0681 -17.0613
   -17.0598 -17.0483 -17.0344 -17.0328 -17.0163 -17.0084 -16.9865 -16.9760
   -16.9737 -16.9613 -16.9326 -16.9318 -16.9119 -16.9091 -16.8096 -16.8002
   -16.7919 -16.7860 -16.7801 -16.7779 -16.7749 -16.7730 -16.7640 -16.7608
    -4.6598  -4.0644  -3.4261  -3.1576  -2.9330  -2.4234  -1.8406  -1.6157
    -0.3883   0.1319   0.3293   0.8654   1.2635   1.9321   2.3919   2.9824
     3.1494   3.3532   3.5373   3.9569   4.0265   4.2322   4.4135   4.6434
     4.7820   5.0035   5.2396   5.4849   5.5839   5.9798   6.3681   6.7243
     8.3767   8.7138   9.1960   9.3233   9.4607   9.7422   9.8966  10.1772
    10.2985  10.6293  10.8241  10.9038  10.9809  11.2786

     occupation numbers 
     1.0000   1.0000   1.0000   1.0000   1.0000   1.0000   1.0000   1.0000
     1.0000   1.0000   1.0000   1.0000   1.0000   1.0000   1.0000   1.0000
     1.0000   1.0000   1.0000   1.0000   1.0000   1.0000   1.0000   1.0000
     1.0000   1.0000   1.0000   1.0000   1.0000   1.0000   1.0000   1.0000
     1.0000   1.0000   1.0000   1.0000   1.0000   1.0000   1.0000   1.0000
     1.0000   1.0000   1.0000   1.0000   1.0000   1.0000   1.0000   1.0000
     1.0000   1.0000   1.0000   1.0000   1.0000   1.0000   1.0000   1.0000
     1.0000   1.0000   1.0000   1.0000   1.0000   1.0000   1.0000   1.0000
     1.0000   1.0000   1.0000   1.0000   1.0000   1.0000   1.0000   1.0000
     0.0000   0.0000   0.0000   0.0000   0.0000   0.0000   0.0000   0.0000
     0.0000   0.0000   0.0000   0.0000   0.0000   0.0000

          k =-0.3482-0.3518-0.3568 (  7984 PWs)   bands (ev):

   -17.4178 -17.4056 -17.3883 -17.3653 -17.3604 -17.1363 -17.1119 -17.1093
   -17.0930 -17.0882 -17.0847 -17.0752 -17.0740 -17.0705 -17.0681 -17.0614
   -17.0599 -17.0482 -17.0345 -17.0329 -17.0162 -17.0084 -16.9863 -16.9760
   -16.9738 -16.9614 -16.9327 -16.9318 -16.9119 -16.9093 -16.8095 -16.8003
   -16.7919 -16.7860 -16.7801 -16.7779 -16.7750 -16.7731 -16.7641 -16.7608
    -4.7064  -4.2962  -3.0282  -2.9087  -2.6287  -2.4938  -2.1653  -1.9431
    -0.1962   0.0955   0.4622   0.7890   0.9132   1.0006   2.7748   3.1366
     3.4176   3.5095   3.5833   3.8184   3.9582   4.2267   4.7006   4.7784
     4.9461   5.1119   5.1650   5.4485   6.2740   6.4256   6.8937   7.2456
     8.1307   8.4173   8.5043   8.6096   8.7808   8.8666   8.9242   9.2229
    10.4826  10.5827  11.1051  11.2795  11.5022  11.5439

     occupation numbers 
     1.0000   1.0000   1.0000   1.0000   1.0000   1.0000   1.0000   1.0000
     1.0000   1.0000   1.0000   1.0000   1.0000   1.0000   1.0000   1.0000
     1.0000   1.0000   1.0000   1.0000   1.0000   1.0000   1.0000   1.0000
     1.0000   1.0000   1.0000   1.0000   1.0000   1.0000   1.0000   1.0000
     1.0000   1.0000   1.0000   1.0000   1.0000   1.0000   1.0000   1.0000
     1.0000   1.0000   1.0000   1.0000   1.0000   1.0000   1.0000   1.0000
     1.0000   1.0000   1.0000   1.0000   1.0000   1.0000   1.0000   1.0000
     1.0000   1.0000   1.0000   1.0000   1.0000   1.0000   1.0000   1.0000
     1.0000   1.0000   1.0000   1.0000   1.0000   1.0000   1.0000   0.9920
     0.0001   0.0000   0.0000   0.0000   0.0000   0.0000   0.0000   0.0000
     0.0000   0.0000   0.0000   0.0000   0.0000   0.0000

     the Fermi energy is     7.5932 ev

!    total energy              =   -1781.75786489 Ry
     Harris-Foulkes estimate   =   -1781.75786488 Ry
     estimated scf accuracy    <          9.8E-11 Ry

     The total energy is the sum of the following terms:

     one-electron contribution =   -1185.00580745 Ry
     hartree contribution      =     708.17291755 Ry
     xc contribution           =    -495.26705797 Ry
     ewald contribution        =    -809.65544602 Ry
     smearing contrib. (-TS)   =      -0.00247099 Ry

     convergence has been achieved in  13 iterations

     Forces acting on atoms (Ry/au):

     atom    1 type  1   force =   0.14527578E-01 -0.72393956E-01 -0.17052691E-01
     atom    2 type  2   force =  -0.29845733E-01  0.82537312E-01  0.11902146E-01
     atom    3 type  1   force =   0.36044797E-01 -0.38915803E-01  0.80396210E-01
     atom    4 type  2   force =  -0.65077814E-01  0.56595766E-01 -0.41796415E-01
     atom    5 type  1   force =   0.66402541E-01 -0.21428182E-01 -0.92452488E-01
     atom    6 type  2   force =   0.88192188E-01  0.49479743E-01 -0.45844215E-01
     atom    7 type  1   force =   0.17255686E-01 -0.87807257E-01  0.52660664E-01
     atom    8 type  2   force =  -0.45739110E-01 -0.62749988E-01 -0.37154045E-01
     atom    9 type  1   force =   0.62993405E-01  0.71172071E-01 -0.86913449E-01
     atom   10 type  2   force =  -0.51561488E-01  0.26779184E-01 -0.19652396E-01
     atom   11 type  1   force =   0.81948967E-01 -0.79780283E-01  0.66106647E-01
     atom   12 type  2   force =  -0.42412721E-01 -0.42860048E-01 -0.98163991E-04
     atom   13 type  1   force =   0.86453409E-03  0.58715833E-01  0.75489202E-01
     atom   14 type  2   force =  -0.25471819E-01 -0.53919078E-01  0.38600124E-01
     atom   15 type  1   force =  -0.63834359E-01  0.15355500E-01  0.35791130E-01
     atom   16 type  2   force =  -0.44286654E-01  0.99219185E-01 -0.19982260E-01
     The non-local contrib.  to forces
     atom    1 type  1   force =   0.35972953E-02 -0.30518303E-01 -0.35465918E-01
     atom    2 type  2   force =   0.55714287E-01  0.26377472E-01 -0.17143095E-01
     atom    3 type  1   force =  -0.10351974E-02 -0.17210892E-01  0.60881850E-01
     atom    4 type  2   force =  -0.46183719E-01 -0.21561813E-01  0.24863430E-02
     atom    5 type  1   force =   0.44008639E-01 -0.14883092E-01 -0.83196988E-01
     atom    6 type  2   force =   0.92778114E-01 -0.16221253E-01 -0.38556293E-01
     atom    7 type  1   force =   0.30281390E-01 -0.75008388E-01  0.58164184E-01
     atom    8 type  2   force =  -0.18755132E-01 -0.84512829E-01  0.15779969E-01
     atom    9 type  1   force =   0.46614858E-01  0.60607202E-01 -0.85713937E-01
     atom   10 type  2   force =   0.26721736E-01  0.28632416E-01 -0.86539407E-02
     atom   11 type  1   force =   0.67510474E-01 -0.49805955E-01  0.59434080E-01
     atom   12 type  2   force =  -0.47325504E-02 -0.71084773E-01  0.78482762E-01
     atom   13 type  1   force =  -0.11694286E-01  0.56201267E-01  0.78260509E-01
     atom   14 type  2   force =  -0.99503451E-02  0.17107809E-01 -0.36806032E-02
     atom   15 type  1   force =  -0.59834695E-01  0.22184203E-01  0.99573308E-04
     atom   16 type  2   force =  -0.39769986E-01  0.95803119E-02  0.31805407E-01
     The ionic contribution  to forces
     atom    1 type  1   force =   0.24666174E+00  0.16094661E-01 -0.44108382E+00
     atom    2 type  2   force =  -0.59483650E+00  0.22216370E+01 -0.10369533E+01
     atom    3 type  1   force =  -0.37216670E+00 -0.42222923E+00  0.51405544E+00
     atom    4 type  2   force =  -0.45782712E+00 -0.73442688E+00  0.86362253E+00
     atom    5 type  1   force =   0.70063834E+00 -0.47075606E+00 -0.13146056E+01
     atom    6 type  2   force =   0.43374235E+01  0.19350615E+01 -0.14081426E+01
     atom    7 type  1   force =   0.40665961E+00 -0.10549855E+01  0.11702999E+01
     atom    8 type  2   force =  -0.14855362E+01 -0.38764353E+01 -0.86152831E+00
     atom    9 type  1   force =   0.24058995E+00  0.74842308E+00 -0.11663723E+01
     atom   10 type  2   force =  -0.59410512E+00  0.10539778E+01 -0.88658302E+00
     atom   11 type  1   force =   0.43753360E+00 -0.61708720E+00  0.61948749E+00
     atom   12 type  2   force =  -0.13386071E+01 -0.41390161E+00 -0.66534317E+00
     atom   13 type  1   force =   0.37883741E+00  0.10322584E+01  0.10337108E+01
     atom   14 type  2   force =   0.18348403E+00 -0.18388196E+01  0.81446842E+00
     atom   15 type  1   force =  -0.10519703E+01  0.20696642E+00  0.22177760E-01
     atom   16 type  2   force =  -0.10367791E+01  0.22142225E+01  0.27427897E+01
     The local contribution  to forces
     atom    1 type  1   force =  -0.23538333E+00 -0.60755127E-01  0.45623793E+00
     atom    2 type  2   force =   0.51192088E+00 -0.21579060E+01  0.10655051E+01
     atom    3 type  1   force =   0.40894157E+00  0.39886733E+00 -0.48898624E+00
     atom    4 type  2   force =   0.43168676E+00  0.81406386E+00 -0.91112268E+00
     atom    5 type  1   force =  -0.67410676E+00  0.46252547E+00  0.12973799E+01
     atom    6 type  2   force =  -0.43300451E+01 -0.18669613E+01  0.13940372E+01
     atom    7 type  1   force =  -0.41651417E+00  0.10349961E+01 -0.11697052E+01
     atom    8 type  2   force =   0.14548591E+01  0.38907766E+01  0.80805836E+00
     atom    9 type  1   force =  -0.21991746E+00 -0.73229265E+00  0.11571214E+01
     atom   10 type  2   force =   0.51339678E+00 -0.10517154E+01  0.87462809E+00
     atom   11 type  1   force =  -0.41688690E+00  0.58219741E+00 -0.60748769E+00
     atom   12 type  2   force =   0.12952550E+01  0.43333624E+00  0.59080472E+00
     atom   13 type  1   force =  -0.36712417E+00 -0.10243725E+01 -0.10289759E+01
     atom   14 type  2   force =  -0.20072808E+00  0.17654668E+01 -0.76958397E+00
     atom   15 type  1   force =   0.10422269E+01 -0.21133100E+00  0.13245309E-01
     atom   16 type  2   force =   0.10263128E+01 -0.21158752E+01 -0.27943631E+01
     The core correction contribution to forces
     atom    1 type  1   force =  -0.34747372E-03  0.27840311E-02  0.32590035E-02
     atom    2 type  2   force =  -0.26478461E-02 -0.75701314E-02  0.49577018E-03
     atom    3 type  1   force =   0.30549648E-03  0.16547620E-02 -0.55540810E-02
     atom    4 type  2   force =   0.72487359E-02 -0.14792169E-02  0.32214196E-02
     atom    5 type  1   force =  -0.41358019E-02  0.16841790E-02  0.79686453E-02
     atom    6 type  2   force =  -0.11966057E-01 -0.23935328E-02  0.68151699E-02
     atom    7 type  1   force =  -0.31716282E-02  0.71882739E-02 -0.60977022E-02
     atom    8 type  2   force =   0.36918974E-02  0.74274593E-02  0.53303643E-03
     atom    9 type  1   force =  -0.42947388E-02 -0.55653515E-02  0.80506157E-02
     atom   10 type  2   force =   0.24238183E-02 -0.41186920E-02  0.95315075E-03
     atom   11 type  1   force =  -0.62083859E-02  0.49146878E-02 -0.53260504E-02
     atom   12 type  2   force =   0.56743824E-02  0.87939049E-02 -0.40463777E-02
     atom   13 type  1   force =   0.84679303E-03 -0.53707933E-02 -0.75048520E-02
     atom   14 type  2   force =   0.17237458E-02  0.23231716E-02 -0.26026956E-02
     atom   15 type  1   force =   0.57416230E-02 -0.24654911E-02  0.27035672E-03
     atom   16 type  2   force =   0.59504529E-02 -0.87106649E-02 -0.21261774E-03
     The Hubbard contrib.    to forces
     atom    1 type  1   force =   0.00000000E+00  0.00000000E+00  0.00000000E+00
     atom    2 type  2   force =   0.00000000E+00  0.00000000E+00  0.00000000E+00
     atom    3 type  1   force =   0.00000000E+00  0.00000000E+00  0.00000000E+00
     atom    4 type  2   force =   0.00000000E+00  0.00000000E+00  0.00000000E+00
     atom    5 type  1   force =   0.00000000E+00  0.00000000E+00  0.00000000E+00
     atom    6 type  2   force =   0.00000000E+00  0.00000000E+00  0.00000000E+00
     atom    7 type  1   force =   0.00000000E+00  0.00000000E+00  0.00000000E+00
     atom    8 type  2   force =   0.00000000E+00  0.00000000E+00  0.00000000E+00
     atom    9 type  1   force =   0.00000000E+00  0.00000000E+00  0.00000000E+00
     atom   10 type  2   force =   0.00000000E+00  0.00000000E+00  0.00000000E+00
     atom   11 type  1   force =   0.00000000E+00  0.00000000E+00  0.00000000E+00
     atom   12 type  2   force =   0.00000000E+00  0.00000000E+00  0.00000000E+00
     atom   13 type  1   force =   0.00000000E+00  0.00000000E+00  0.00000000E+00
     atom   14 type  2   force =   0.00000000E+00  0.00000000E+00  0.00000000E+00
     atom   15 type  1   force =   0.00000000E+00  0.00000000E+00  0.00000000E+00
     atom   16 type  2   force =   0.00000000E+00  0.00000000E+00  0.00000000E+00
     The SCF correction term to forces
     atom    1 type  1   force =  -0.60863329E-06 -0.10888492E-06  0.45661139E-06
     atom    2 type  2   force =   0.34884092E-05 -0.19320412E-05 -0.20304396E-05
     atom    3 type  1   force =  -0.32598476E-06  0.13366010E-05 -0.40913281E-06
     atom    4 type  2   force =  -0.24231719E-05 -0.10701273E-05 -0.36868919E-05
     atom    5 type  1   force =  -0.18297669E-05  0.42228044E-06  0.18872588E-05
     atom    6 type  2   force =   0.18340004E-05 -0.65046015E-05  0.26345349E-05
     atom    7 type  1   force =   0.53041595E-06  0.13457477E-05 -0.13052356E-06
     atom    8 type  2   force =   0.12696219E-05 -0.68356590E-05  0.32461036E-05
     atom    9 type  1   force =   0.84679748E-06 -0.10974696E-05  0.10589160E-05
     atom   10 type  2   force =   0.13384333E-05  0.21803124E-05  0.36664166E-05
     atom   11 type  1   force =   0.22497561E-06 -0.11510006E-06 -0.83551459E-06
     atom   12 type  2   force =  -0.24482306E-05 -0.47013219E-05  0.42442389E-05
     atom   13 type  1   force =  -0.11706934E-05 -0.14688620E-05 -0.10107200E-05
     atom   14 type  2   force =  -0.11247660E-05  0.18976231E-05 -0.67839499E-06
     atom   15 type  1   force =   0.21462081E-05  0.47709621E-06 -0.15230097E-05
     atom   16 type  2   force =  -0.72047077E-06  0.13592534E-05 -0.13118304E-05

     Total force =     0.386536     Total SCF correction =     0.000016


     entering subroutine stress ...

          total   stress  (Ry/bohr**3)                   (kbar)     P=   24.23
   0.0001767126  -0.0000739206   0.0000735127         26.00    -10.87     10.81
  -0.0000739206   0.0001332899  -0.0001005850        -10.87     19.61    -14.80
   0.0000735127  -0.0001005850   0.0001841905         10.81    -14.80     27.10

     kinetic stress (kbar)   6455.96     10.49    -21.38
                               10.49   6455.85     18.90
                              -21.38     18.90   6461.76

     local   stress (kbar)  -1241.53    286.72   -563.30
                              286.72   -964.06    485.36
                             -563.30    485.36  -1024.30

     nonloc. stress (kbar)   2526.89     -8.26     15.26
                               -8.26   2524.31    -14.17
                               15.26    -14.17   2523.12

     hartree stress (kbar)  15288.14    -58.29    119.40
                              -58.29  15180.72    -99.41
                              119.40    -99.41  15220.90

     exc-cor stress (kbar)  10993.79     -0.28      0.53
                               -0.28  10993.72     -0.49
                                0.53     -0.49  10993.67

     corecor stress (kbar) -16693.22      0.77     -1.35
                                0.77 -16692.95      1.27
                               -1.35      1.27 -16692.87

     ewald   stress (kbar) -17304.03   -242.03    461.65
                             -242.03 -17477.98   -406.25
                              461.65   -406.25 -17455.17

     hubbard stress (kbar)      0.00      0.00      0.00
                                0.00      0.00      0.00
                                0.00      0.00      0.00

     london  stress (kbar)      0.00      0.00      0.00
                                0.00      0.00      0.00
                                0.00      0.00      0.00

     XDM     stress (kbar)      0.00      0.00      0.00
                                0.00      0.00      0.00
                                0.00      0.00      0.00

     dft-nl  stress (kbar)      0.00      0.00      0.00
                                0.00      0.00      0.00
                                0.00      0.00      0.00



     Writing output data file SiGe_zns.scf.in.super.222.largedist.022.save

     init_run     :     29.61s CPU     30.76s WALL (       1 calls)
     electrons    :   1123.03s CPU   1217.21s WALL (       1 calls)
     forces       :     12.46s CPU     11.83s WALL (       1 calls)
     stress       :     71.46s CPU     72.04s WALL (       1 calls)

     Called by init_run:
     wfcinit      :     25.54s CPU     26.67s WALL (       1 calls)
     potinit      :      0.95s CPU      0.96s WALL (       1 calls)

     Called by electrons:
     c_bands      :    949.61s CPU   1039.97s WALL (      14 calls)
     sum_band     :    157.55s CPU    160.87s WALL (      14 calls)
     v_of_rho     :      1.66s CPU      1.75s WALL (      14 calls)
     v_h          :      0.10s CPU      0.10s WALL (      14 calls)
     v_xc         :      1.79s CPU      1.90s WALL (      16 calls)
     newd         :     12.46s CPU     12.68s WALL (      14 calls)
     mix_rho      :      2.43s CPU      2.56s WALL (      14 calls)

     Called by c_bands:
     init_us_2    :      5.79s CPU      6.20s WALL (    1116 calls)
     cegterg      :    919.27s CPU   1007.49s WALL (     504 calls)

     Called by sum_band:
     sum_band:bec :      0.91s CPU      0.98s WALL (     504 calls)
     addusdens    :     12.50s CPU     13.03s WALL (      14 calls)

     Called by *egterg:
     h_psi        :    568.52s CPU    582.31s WALL (    1901 calls)
     s_psi        :     49.26s CPU     43.25s WALL (    1901 calls)
     g_psi        :      1.25s CPU      1.26s WALL (    1361 calls)
     cdiaghg      :    132.56s CPU    202.44s WALL (    1829 calls)
     cegterg:over :     85.99s CPU     89.44s WALL (    1361 calls)
     cegterg:upda :     25.26s CPU     26.75s WALL (    1361 calls)
     cegterg:last :     13.60s CPU     11.85s WALL (     504 calls)

     Called by h_psi:
     h_psi:vloc   :    438.64s CPU    456.24s WALL (    1901 calls)
     h_psi:vnl    :    128.19s CPU    124.29s WALL (    1901 calls)
     add_vuspsi   :     49.13s CPU     45.67s WALL (    1901 calls)

     General routines
     calbec       :    129.88s CPU    127.67s WALL (    2477 calls)
     fft          :      2.60s CPU      2.62s WALL (     249 calls)
     ffts         :      1.16s CPU      1.24s WALL (     402 calls)
     fftw         :    480.85s CPU    500.12s WALL (  254496 calls)
     interpolate  :      0.31s CPU      0.32s WALL (      28 calls)

     Parallel routines
     fft_scatter  :    272.61s CPU    284.10s WALL (  255147 calls)

     PWSCF        : 20m39.57s CPU    22m16.77s WALL


   This run was terminated on:  11: 9:24  27Sep2017            

=------------------------------------------------------------------------------=
   JOB DONE.
=------------------------------------------------------------------------------=
