
     Program PWSCF v.5.1 starts on 27Sep2017 at 17:26: 9 

     This program is part of the open-source Quantum ESPRESSO suite
     for quantum simulation of materials; please cite
         "P. Giannozzi et al., J. Phys.:Condens. Matter 21 395502 (2009);
          URL http://www.quantum-espresso.org", 
     in publications or presentations arising from this work. More details at
     http://www.quantum-espresso.org/quote

     Parallel version (MPI), running on     8 processors
     R & G space division:  proc/nbgrp/npool/nimage =       8
     Reading input from /tmp/SiGe_zns.scf.in.super.222.largedist.a.03.20417/SiGe_zns.scf.in.super.222.largedist.a.03.t
Warning: card &IONS ignored
Warning: card   ION_DYNAMICS='BFGS', ignored
Warning: card / ignored
Warning: card &CELL ignored
Warning: card  CELL_DYNAMICS = 'BFGS' ignored
Warning: card / ignored
     Message from routine read_cards :
     DEPRECATED: no units specified in CELL_PARAMETERS card

     Current dimensions of program PWSCF are:
     Max number of different atomic species (ntypx) = 10
     Max number of k-points (npk) =  40000
     Max angular momentum in pseudopotentials (lmaxx) =  3
 kfg - two_fermi_energies  F

     Subspace diagonalization in iterative solution of the eigenvalue problem:
     a serial algorithm will be used


     Parallelization info
     --------------------
     sticks:   dense  smooth     PW     G-vecs:    dense   smooth      PW
     Min         379     263     72                13730     8005    1173
     Max         380     264     73                13731     8014    1177
     Sum        3037    2107    583               109843    64071    9409



     bravais-lattice index     =            0
     lattice parameter (alat)  =    14.799446477  a.u.
     unit-cell volume          =    2292.0359 (a.u.)^3
     number of atoms/cell      =           16
     number of atomic types    =            2
     number of electrons       =       144.00
     number of Kohn-Sham states=           86
     kinetic-energy cutoff     =      35.0000  Ry
     charge density cutoff     =     200.0000  Ry
     convergence threshold     =      1.0E-09
     mixing beta               =       0.3000
     number of iterations used =            8  local-TF  mixing
     Exchange-correlation      = SLA  PW   PSX  PSC ( 1  4 10  8 0)
     A smooth kinetic-energy cutoff is imposed at      34.5000 Ry
     height of the smooth step-function =             800.0000 Ry
     width of the smooth step-function  =               1.0000 Ry


     celldm(1)=  14.799446  celldm(2)=   0.000000  celldm(3)=   0.000000
     celldm(4)=   0.000000  celldm(5)=   0.000000  celldm(6)=   0.000000

     crystal axes: (cart. coord. in units of alat)
               a(1) = (  -0.000000000000   0.707106781187   0.707106781187 )  
               a(2) = (   0.707106781187   0.000000000000   0.707106781187 )  
               a(3) = (   0.707106781187   0.707106781187  -0.000000000000 )  

     reciprocal axes: (cart. coord. in units 2 pi/alat)
               b(1) = ( -0.707107  0.707107  0.707107 )  
               b(2) = (  0.707107 -0.707107  0.707107 )  
               b(3) = (  0.707107  0.707107 -0.707107 )  


     PseudoPot. # 1 for Si read from file:
     /users/kfg/psuedo/gbrv_1.5/si.pbesol.UPF
     MD5 check sum: ef58ba74faed4df802eb8a9742fc00a8
     Pseudo is Ultrasoft + core correction, Zval =  4.0
     Generated by new atomic code, or converted to UPF format
     Using radial grid of  899 points,  6 beta functions with: 
                l(1) =   0
                l(2) =   0
                l(3) =   1
                l(4) =   1
                l(5) =   2
                l(6) =   2
     Q(r) pseudized with  8 coefficients,  rinner =    0.900   0.900   0.900
                                                       0.900   0.900

     PseudoPot. # 2 for Ge read from file:
     /users/kfg/psuedo/gbrv_1.5/ge.pbesol.UPF
     MD5 check sum: 7bed0412183f5e553a4d27ec7023354d
     Pseudo is Ultrasoft + core correction, Zval = 14.0
     Generated by new atomic code, or converted to UPF format
     Using radial grid of  873 points,  6 beta functions with: 
                l(1) =   0
                l(2) =   0
                l(3) =   1
                l(4) =   1
                l(5) =   2
                l(6) =   2
     Q(r) pseudized with  8 coefficients,  rinner =    1.400   1.400   1.400
                                                       1.400   1.400

     atomic species   valence    mass     pseudopotential
        Si             4.00    28.08550     Si( 1.00)
        Ge            14.00    72.64000     Ge( 1.00)

     No symmetry found


                                    s                        frac. trans.

      isym =  1     identity                                     

 cryst.   s( 1) = (     1          0          0      )
                  (     0          1          0      )
                  (     0          0          1      )

 cart.    s( 1) = (  1.0000000  0.0000000  0.0000000 )
                  (  0.0000000  1.0000000  0.0000000 )
                  (  0.0000000  0.0000000  1.0000000 )


     point group C_1 (1)    
     there are  1 classes
     the character table:

       E    
A      1.00

     the symmetry operations in each class:
     E        1

   Cartesian axes

     site n.     atom                  positions (alat units)
         1           Si  tau(   1) = (    0.02611473141    0.01183573087    0.01642454041  )
         2           Ge  tau(   2) = (    0.18654569535    0.18900773878    0.19249220785  )
         3           Si  tau(   3) = (    0.36107436436    0.38429850913   -0.01536532070  )
         4           Ge  tau(   4) = (    0.53857411577    0.50769279584    0.14439037534  )
         5           Si  tau(   5) = (    0.32309754051    0.02670674031    0.33151233211  )
         6           Ge  tau(   6) = (    0.55058417696    0.17100158200    0.52271733512  )
         7           Si  tau(   7) = (    0.71804653255    0.36404454339    0.35476967812  )
         8           Ge  tau(   8) = (    0.86056683925    0.52336644161    0.50669237444  )
         9           Si  tau(   9) = (    0.02802455339    0.36351170431    0.37712880580  )
        10           Ge  tau(  10) = (    0.16228351431    0.55201902189    0.55658029365  )
        11           Si  tau(  11) = (    0.37277594811    0.71151626961    0.32387481793  )
        12           Ge  tau(  12) = (    0.50136845730    0.86794476167    0.50301506478  )
        13           Si  tau(  13) = (    0.37644835158    0.35484628659    0.71768951545  )
        14           Ge  tau(  14) = (    0.55646223346    0.55732167265    0.88714258083  )
        15           Si  tau(  15) = (    0.73730049409    0.71057617630    0.69355305882  )
        16           Ge  tau(  16) = (    0.91402355970    0.90544465493    0.89549126642  )

   Crystallographic axes

     site n.     atom                  positions (cryst. coord.)
         1           Si  tau(   1) = (    0.00151712579    0.02171068201    0.01522112533  )
         2           Ge  tau(   2) = (    0.13785347311    0.13437161789    0.12944383448  )
         3           Si  tau(   3) = (    0.00555702780   -0.02728687272    0.53792313582  )
         4           Ge  tau(   4) = (    0.08026302281    0.12393580428    0.63772301459  )
         5           Si  tau(   5) = (    0.02483467338    0.44399456279    0.01293436097  )
         6           Ge  tau(   6) = (    0.10121154539    0.63802239922    0.14062121106  )
         7           Si  tau(   7) = (    0.00054283807    0.50117725225    0.51429389249  )
         8           Ge  tau(   8) = (    0.11984892615    0.59672230173    0.62030299366  )
         9           Si  tau(   9) = (    0.50389557538    0.02944509655    0.01018760694  )
        10           Ge  tau(  10) = (    0.66914632019    0.11797707964    0.11152646725  )
        11           Si  tau(  11) = (    0.46853965841   -0.01051149838    0.53769629992  )
        12           Ge  tau(  12) = (    0.61489395398    0.09647677271    0.61256529936  )
        13           Si  tau(  13) = (    0.49220815652    0.52275808980    0.00962027454  )
        14           Ge  tau(  14) = (    0.62791225007    0.62669681950    0.16025961800  )
        15           Si  tau(  15) = (    0.47151912467    0.50931301734    0.53338734094  )
        16           Ge  tau(  16) = (    0.62714174524    0.63927414871    0.65335036574  )

     number of k points=    36  gaussian smearing, width (Ry)=  0.0150
                       cart. coord. in units 2pi/alat
        k(    1) = (   0.0000000   0.0000000   0.0000000), wk =   0.0312500
        k(    2) = (   0.1767767   0.1767767  -0.1767767), wk =   0.0625000
        k(    3) = (  -0.3535534  -0.3535534   0.3535534), wk =   0.0312500
        k(    4) = (   0.3535534   0.0000000   0.0000000), wk =   0.0625000
        k(    5) = (  -0.1767767  -0.5303301   0.5303301), wk =   0.0625000
        k(    6) = (   0.0000000  -0.3535534   0.3535534), wk =   0.0625000
        k(    7) = (  -0.7071068   0.0000000   0.0000000), wk =   0.0312500
        k(    8) = (  -0.7071068   0.3535534   0.0000000), wk =   0.0625000
        k(    9) = (  -0.1767767  -0.1767767  -0.1767767), wk =   0.0625000
        k(   10) = (  -0.1767767   0.1767767   0.1767767), wk =   0.0625000
        k(   11) = (   0.1767767  -0.1767767   0.1767767), wk =   0.0625000
        k(   12) = (   0.3535534   0.3535534   0.3535534), wk =   0.0312500
        k(   13) = (   0.3535534  -0.3535534  -0.3535534), wk =   0.0312500
        k(   14) = (  -0.3535534   0.3535534  -0.3535534), wk =   0.0312500
        k(   15) = (   0.0000000   0.3535534   0.0000000), wk =   0.0625000
        k(   16) = (   0.0000000   0.0000000   0.3535534), wk =   0.0625000
        k(   17) = (   0.1767767   0.5303301   0.5303301), wk =   0.0625000
        k(   18) = (   0.1767767  -0.5303301  -0.5303301), wk =   0.0625000
        k(   19) = (  -0.1767767   0.5303301  -0.5303301), wk =   0.0625000
        k(   20) = (  -0.5303301  -0.1767767  -0.5303301), wk =   0.0625000
        k(   21) = (   0.5303301   0.1767767  -0.5303301), wk =   0.0625000
        k(   22) = (  -0.5303301   0.1767767   0.5303301), wk =   0.0625000
        k(   23) = (   0.5303301  -0.1767767   0.5303301), wk =   0.0625000
        k(   24) = (   0.5303301   0.5303301  -0.1767767), wk =   0.0625000
        k(   25) = (  -0.5303301   0.5303301   0.1767767), wk =   0.0625000
        k(   26) = (   0.5303301  -0.5303301   0.1767767), wk =   0.0625000
        k(   27) = (  -0.5303301  -0.5303301  -0.1767767), wk =   0.0625000
        k(   28) = (   0.0000000   0.3535534   0.3535534), wk =   0.0625000
        k(   29) = (  -0.3535534   0.0000000  -0.3535534), wk =   0.0625000
        k(   30) = (   0.3535534   0.0000000  -0.3535534), wk =   0.0625000
        k(   31) = (   0.3535534   0.3535534   0.0000000), wk =   0.0625000
        k(   32) = (  -0.3535534   0.3535534   0.0000000), wk =   0.0625000
        k(   33) = (   0.0000000  -0.7071068   0.0000000), wk =   0.0312500
        k(   34) = (   0.0000000   0.0000000  -0.7071068), wk =   0.0312500
        k(   35) = (   0.3535534  -0.7071068   0.0000000), wk =   0.0625000
        k(   36) = (   0.7071068  -0.0000000   0.3535534), wk =   0.0625000

                       cryst. coord.
        k(    1) = (   0.0000000   0.0000000   0.0000000), wk =   0.0312500
        k(    2) = (   0.0000000   0.0000000   0.2500000), wk =   0.0625000
        k(    3) = (   0.0000000   0.0000000  -0.5000000), wk =   0.0312500
        k(    4) = (   0.0000000   0.2500000   0.2500000), wk =   0.0625000
        k(    5) = (   0.0000000   0.2500000  -0.5000000), wk =   0.0625000
        k(    6) = (   0.0000000   0.2500000  -0.2500000), wk =   0.0625000
        k(    7) = (   0.0000000  -0.5000000  -0.5000000), wk =   0.0312500
        k(    8) = (   0.2500000  -0.5000000  -0.2500000), wk =   0.0625000
        k(    9) = (  -0.2500000  -0.2500000  -0.2500000), wk =   0.0625000
        k(   10) = (   0.2500000   0.0000000   0.0000000), wk =   0.0625000
        k(   11) = (   0.0000000   0.2500000   0.0000000), wk =   0.0625000
        k(   12) = (   0.5000000   0.5000000   0.5000000), wk =   0.0312500
        k(   13) = (  -0.5000000   0.0000000   0.0000000), wk =   0.0312500
        k(   14) = (   0.0000000  -0.5000000   0.0000000), wk =   0.0312500
        k(   15) = (   0.2500000   0.0000000   0.2500000), wk =   0.0625000
        k(   16) = (   0.2500000   0.2500000   0.0000000), wk =   0.0625000
        k(   17) = (   0.7500000   0.5000000   0.5000000), wk =   0.0625000
        k(   18) = (  -0.7500000  -0.2500000  -0.2500000), wk =   0.0625000
        k(   19) = (   0.0000000  -0.5000000   0.2500000), wk =   0.0625000
        k(   20) = (  -0.5000000  -0.7500000  -0.5000000), wk =   0.0625000
        k(   21) = (  -0.2500000   0.0000000   0.5000000), wk =   0.0625000
        k(   22) = (   0.5000000   0.0000000  -0.2500000), wk =   0.0625000
        k(   23) = (   0.2500000   0.7500000   0.2500000), wk =   0.0625000
        k(   24) = (   0.2500000   0.2500000   0.7500000), wk =   0.0625000
        k(   25) = (   0.5000000  -0.2500000   0.0000000), wk =   0.0625000
        k(   26) = (  -0.2500000   0.5000000   0.0000000), wk =   0.0625000
        k(   27) = (  -0.5000000  -0.5000000  -0.7500000), wk =   0.0625000
        k(   28) = (   0.5000000   0.2500000   0.2500000), wk =   0.0625000
        k(   29) = (  -0.2500000  -0.5000000  -0.2500000), wk =   0.0625000
        k(   30) = (  -0.2500000   0.0000000   0.2500000), wk =   0.0625000
        k(   31) = (   0.2500000   0.2500000   0.5000000), wk =   0.0625000
        k(   32) = (   0.2500000  -0.2500000   0.0000000), wk =   0.0625000
        k(   33) = (  -0.5000000   0.0000000  -0.5000000), wk =   0.0312500
        k(   34) = (  -0.5000000  -0.5000000   0.0000000), wk =   0.0312500
        k(   35) = (  -0.5000000   0.2500000  -0.2500000), wk =   0.0625000
        k(   36) = (   0.2500000   0.7500000   0.5000000), wk =   0.0625000

     Dense  grid:   109843 G-vectors     FFT dimensions: (  72,  72,  72)

     Smooth grid:    64071 G-vectors     FFT dimensions: (  60,  60,  60)

     Largest allocated arrays     est. size (Mb)     dimensions
        Kohn-Sham Wavefunctions         1.34 Mb     (    1022,   86)
        NL pseudopotentials             4.49 Mb     (    1022,  288)
        Each V/rho on FFT grid          0.71 Mb     (   46656)
        Each G-vector array             0.10 Mb     (   13731)
        G-vector shells                 0.01 Mb     (     737)
     Largest temporary arrays     est. size (Mb)     dimensions
        Auxiliary wavefunctions         5.36 Mb     (    1022,  344)
        Each subspace H/S matrix        1.81 Mb     (     344,  344)
        Each <psi_i|beta_j> matrix      0.38 Mb     (     288,   86)
        Arrays for rho mixing           5.70 Mb     (   46656,    8)

     Check: negative/imaginary core charge=   -0.000001    0.000000

     Initial potential from superposition of free atoms

     starting charge  143.98835, renormalised to  144.00000
     Starting wfc are  104 randomized atomic wfcs

     total cpu time spent up to now is       26.3 secs

     per-process dynamical memory:    70.5 Mb

     Self-consistent Calculation

     iteration #  1     ecut=    35.00 Ry     beta=0.30
     Davidson diagonalization with overlap
     ethr =  1.00E-02,  avg # of iterations =  3.0

     Threshold (ethr) on eigenvalues was too large:
     Diagonalizing with lowered threshold

     Davidson diagonalization with overlap
     ethr =  2.62E-04,  avg # of iterations =  5.3

     total cpu time spent up to now is      208.9 secs

     total energy              =   -1781.57306486 Ry
     Harris-Foulkes estimate   =   -1781.61628120 Ry
     estimated scf accuracy    <       0.37563238 Ry

     iteration #  2     ecut=    35.00 Ry     beta=0.30
     Davidson diagonalization with overlap
     ethr =  2.61E-04,  avg # of iterations =  1.0

     total cpu time spent up to now is      277.6 secs

     total energy              =   -1781.49075103 Ry
     Harris-Foulkes estimate   =   -1781.57540864 Ry
     estimated scf accuracy    <       0.22971758 Ry

     iteration #  3     ecut=    35.00 Ry     beta=0.30
     Davidson diagonalization with overlap
     ethr =  1.60E-04,  avg # of iterations =  2.1

     total cpu time spent up to now is      363.6 secs

     total energy              =   -1781.51042412 Ry
     Harris-Foulkes estimate   =   -1781.51085809 Ry
     estimated scf accuracy    <       0.00422061 Ry

     iteration #  4     ecut=    35.00 Ry     beta=0.30
     Davidson diagonalization with overlap
     ethr =  2.93E-06,  avg # of iterations =  8.3

     total cpu time spent up to now is      532.3 secs

     total energy              =   -1781.51070389 Ry
     Harris-Foulkes estimate   =   -1781.51102404 Ry
     estimated scf accuracy    <       0.00200898 Ry

     iteration #  5     ecut=    35.00 Ry     beta=0.30
     Davidson diagonalization with overlap
     ethr =  1.40E-06,  avg # of iterations =  2.1

     total cpu time spent up to now is      618.6 secs

     total energy              =   -1781.51089735 Ry
     Harris-Foulkes estimate   =   -1781.51090242 Ry
     estimated scf accuracy    <       0.00008024 Ry

     iteration #  6     ecut=    35.00 Ry     beta=0.30
     Davidson diagonalization with overlap
     ethr =  5.57E-08,  avg # of iterations =  2.1

     total cpu time spent up to now is      703.7 secs

     total energy              =   -1781.51088536 Ry
     Harris-Foulkes estimate   =   -1781.51090358 Ry
     estimated scf accuracy    <       0.00005355 Ry

     iteration #  7     ecut=    35.00 Ry     beta=0.30
     Davidson diagonalization with overlap
     ethr =  3.72E-08,  avg # of iterations =  2.0

     total cpu time spent up to now is      773.8 secs

     total energy              =   -1781.51088975 Ry
     Harris-Foulkes estimate   =   -1781.51089026 Ry
     estimated scf accuracy    <       0.00000331 Ry

     iteration #  8     ecut=    35.00 Ry     beta=0.30
     Davidson diagonalization with overlap
     ethr =  2.30E-09,  avg # of iterations =  3.0

     total cpu time spent up to now is      847.4 secs

     total energy              =   -1781.51089031 Ry
     Harris-Foulkes estimate   =   -1781.51089031 Ry
     estimated scf accuracy    <       0.00000065 Ry

     iteration #  9     ecut=    35.00 Ry     beta=0.30
     Davidson diagonalization with overlap
     ethr =  4.51E-10,  avg # of iterations =  2.0

     total cpu time spent up to now is      916.9 secs

     total energy              =   -1781.51089050 Ry
     Harris-Foulkes estimate   =   -1781.51089042 Ry
     estimated scf accuracy    <       0.00000005 Ry

     iteration # 10     ecut=    35.00 Ry     beta=0.30
     Davidson diagonalization with overlap
     ethr =  3.82E-11,  avg # of iterations =  2.0

     total cpu time spent up to now is      968.5 secs

     total energy              =   -1781.51089053 Ry
     Harris-Foulkes estimate   =   -1781.51089050 Ry
     estimated scf accuracy    <       0.00000003 Ry

     iteration # 11     ecut=    35.00 Ry     beta=0.30
     Davidson diagonalization with overlap
     ethr =  2.05E-11,  avg # of iterations =  2.2

     total cpu time spent up to now is     1029.6 secs

     total energy              =   -1781.51089055 Ry
     Harris-Foulkes estimate   =   -1781.51089053 Ry
     estimated scf accuracy    <          2.3E-09 Ry

     iteration # 12     ecut=    35.00 Ry     beta=0.30
     Davidson diagonalization with overlap
     ethr =  1.60E-12,  avg # of iterations =  2.0

     total cpu time spent up to now is     1081.3 secs

     End of self-consistent calculation

          k = 0.0000 0.0000 0.0000 (  7991 PWs)   bands (ev):

   -17.5831 -17.5781 -17.5267 -17.5210 -17.5188 -17.4879 -17.4806 -17.4764
   -17.4633 -17.4614 -17.4435 -17.4195 -17.4132 -17.4002 -17.3984 -17.1543
   -17.1333 -17.1228 -17.1129 -17.1100 -17.0901 -17.0894 -17.0867 -17.0799
   -17.0742 -17.0698 -17.0248 -17.0190 -17.0032 -16.9954 -16.9930 -16.9927
   -16.9840 -16.9785 -16.9706 -16.6827 -16.6741 -16.6710 -16.6625 -16.6552
    -5.3905  -3.7439  -3.3871  -3.0458  -2.7646  -2.1198  -1.7075  -1.3767
    -0.8064  -0.6447  -0.2125  -0.0720   0.2290   0.3230   0.6669   3.9246
     4.0744   4.2003   4.2365   4.3003   4.5472   5.1979   5.5044   5.6166
     6.0816   6.1770   6.2740   6.4398   6.6209   7.2140   7.2356   7.5998
     7.6383   7.7159   7.7558   7.9094   7.9771   8.1279   8.1479   8.2826
     8.3232   8.4345   8.9256   9.3553   9.7353  10.0584

     occupation numbers 
     1.0000   1.0000   1.0000   1.0000   1.0000   1.0000   1.0000   1.0000
     1.0000   1.0000   1.0000   1.0000   1.0000   1.0000   1.0000   1.0000
     1.0000   1.0000   1.0000   1.0000   1.0000   1.0000   1.0000   1.0000
     1.0000   1.0000   1.0000   1.0000   1.0000   1.0000   1.0000   1.0000
     1.0000   1.0000   1.0000   1.0000   1.0000   1.0000   1.0000   1.0000
     1.0000   1.0000   1.0000   1.0000   1.0000   1.0000   1.0000   1.0000
     1.0000   1.0000   1.0000   1.0000   1.0000   1.0000   1.0000   1.0000
     1.0000   1.0000   1.0000   1.0000   1.0000   1.0000   1.0000   1.0000
     1.0000   1.0000   1.0000   1.0000   1.0000   0.9875   0.9817   0.3326
     0.2421   0.1080   0.0650   0.0050   0.0012   0.0000   0.0000   0.0000
     0.0000   0.0000   0.0000   0.0000   0.0000   0.0000

          k = 0.1768 0.1768-0.1768 (  8000 PWs)   bands (ev):

   -17.5828 -17.5780 -17.5265 -17.5209 -17.5187 -17.4877 -17.4805 -17.4764
   -17.4630 -17.4615 -17.4433 -17.4193 -17.4131 -17.4001 -17.3983 -17.1541
   -17.1331 -17.1226 -17.1128 -17.1099 -17.0901 -17.0893 -17.0865 -17.0798
   -17.0741 -17.0699 -17.0247 -17.0190 -17.0030 -16.9953 -16.9929 -16.9925
   -16.9839 -16.9785 -16.9706 -16.6825 -16.6739 -16.6709 -16.6625 -16.6552
    -5.2176  -4.0501  -3.4199  -3.0748  -2.7548  -2.2713  -1.8619  -1.7215
    -0.9233  -0.2161   0.1319   0.3002   0.4282   0.7723   1.4061   3.5039
     3.8237   4.0164   4.1168   4.2222   4.5224   4.7945   4.9740   5.1407
     5.1978   5.4419   5.6957   5.9261   6.1598   6.6141   7.1002   7.3403
     7.5513   7.7216   7.9839   8.0829   8.4305   8.7410   8.8417   8.9792
     9.1228   9.4034   9.5418  10.1191  10.3129  10.6009

     occupation numbers 
     1.0000   1.0000   1.0000   1.0000   1.0000   1.0000   1.0000   1.0000
     1.0000   1.0000   1.0000   1.0000   1.0000   1.0000   1.0000   1.0000
     1.0000   1.0000   1.0000   1.0000   1.0000   1.0000   1.0000   1.0000
     1.0000   1.0000   1.0000   1.0000   1.0000   1.0000   1.0000   1.0000
     1.0000   1.0000   1.0000   1.0000   1.0000   1.0000   1.0000   1.0000
     1.0000   1.0000   1.0000   1.0000   1.0000   1.0000   1.0000   1.0000
     1.0000   1.0000   1.0000   1.0000   1.0000   1.0000   1.0000   1.0000
     1.0000   1.0000   1.0000   1.0000   1.0000   1.0000   1.0000   1.0000
     1.0000   1.0000   1.0000   1.0000   1.0000   1.0000   0.9988   0.9139
     0.4616   0.1008   0.0010   0.0001   0.0000   0.0000   0.0000   0.0000
     0.0000   0.0000   0.0000   0.0000   0.0000   0.0000

          k =-0.3536-0.3536 0.3536 (  8026 PWs)   bands (ev):

   -17.5826 -17.5778 -17.5263 -17.5209 -17.5186 -17.4875 -17.4804 -17.4764
   -17.4626 -17.4618 -17.4432 -17.4191 -17.4131 -17.4002 -17.3981 -17.1538
   -17.1329 -17.1225 -17.1127 -17.1097 -17.0902 -17.0891 -17.0863 -17.0796
   -17.0740 -17.0699 -17.0246 -17.0190 -17.0030 -16.9953 -16.9927 -16.9923
   -16.9836 -16.9786 -16.9707 -16.6824 -16.6738 -16.6707 -16.6625 -16.6552
    -4.8315  -4.5836  -3.4308  -3.1335  -2.6325  -2.2979  -2.1006  -2.0550
    -0.8178   0.0678   0.4353   0.6121   0.7457   1.1454   2.9723   3.1925
     3.2805   3.6058   3.8681   3.9698   4.1844   4.3564   4.5102   4.6414
     4.8001   4.8283   5.0083   5.3647   6.0797   6.7739   6.9571   7.0005
     7.7767   8.0243   8.1320   8.2069   8.3950   8.6184   8.7488   9.0290
    10.2027  10.6776  10.8104  11.0524  11.2015  11.3961

     occupation numbers 
     1.0000   1.0000   1.0000   1.0000   1.0000   1.0000   1.0000   1.0000
     1.0000   1.0000   1.0000   1.0000   1.0000   1.0000   1.0000   1.0000
     1.0000   1.0000   1.0000   1.0000   1.0000   1.0000   1.0000   1.0000
     1.0000   1.0000   1.0000   1.0000   1.0000   1.0000   1.0000   1.0000
     1.0000   1.0000   1.0000   1.0000   1.0000   1.0000   1.0000   1.0000
     1.0000   1.0000   1.0000   1.0000   1.0000   1.0000   1.0000   1.0000
     1.0000   1.0000   1.0000   1.0000   1.0000   1.0000   1.0000   1.0000
     1.0000   1.0000   1.0000   1.0000   1.0000   1.0000   1.0000   1.0000
     1.0000   1.0000   1.0000   1.0000   1.0000   1.0000   1.0000   0.9999
     0.0486   0.0004   0.0000   0.0000   0.0000   0.0000   0.0000   0.0000
     0.0000   0.0000   0.0000   0.0000   0.0000   0.0000

          k = 0.3536 0.0000 0.0000 (  8044 PWs)   bands (ev):

   -17.5827 -17.5780 -17.5259 -17.5209 -17.5191 -17.4877 -17.4804 -17.4762
   -17.4631 -17.4614 -17.4433 -17.4193 -17.4132 -17.4000 -17.3982 -17.1541
   -17.1330 -17.1227 -17.1127 -17.1097 -17.0899 -17.0894 -17.0863 -17.0798
   -17.0741 -17.0697 -17.0247 -17.0189 -17.0031 -16.9952 -16.9929 -16.9926
   -16.9838 -16.9784 -16.9706 -16.6825 -16.6738 -16.6708 -16.6624 -16.6553
    -5.1636  -3.8471  -3.5943  -3.3762  -2.8135  -2.4471  -1.8491  -1.4534
    -0.7250  -0.4445   0.2511   0.5702   0.7433   1.0568   1.3912   3.3347
     3.6178   3.7551   3.9520   4.1847   4.3485   4.5175   4.7200   4.8626
     5.0865   5.3481   5.6712   5.9681   6.1229   6.3369   6.8716   7.0477
     7.5822   8.2807   8.5339   8.6339   8.7465   8.8105   9.0927   9.2982
     9.3677   9.5239   9.8161  10.4210  10.5247  10.6830

     occupation numbers 
     1.0000   1.0000   1.0000   1.0000   1.0000   1.0000   1.0000   1.0000
     1.0000   1.0000   1.0000   1.0000   1.0000   1.0000   1.0000   1.0000
     1.0000   1.0000   1.0000   1.0000   1.0000   1.0000   1.0000   1.0000
     1.0000   1.0000   1.0000   1.0000   1.0000   1.0000   1.0000   1.0000
     1.0000   1.0000   1.0000   1.0000   1.0000   1.0000   1.0000   1.0000
     1.0000   1.0000   1.0000   1.0000   1.0000   1.0000   1.0000   1.0000
     1.0000   1.0000   1.0000   1.0000   1.0000   1.0000   1.0000   1.0000
     1.0000   1.0000   1.0000   1.0000   1.0000   1.0000   1.0000   1.0000
     1.0000   1.0000   1.0000   1.0000   1.0000   1.0000   1.0000   0.9997
     0.3779   0.0000   0.0000   0.0000   0.0000   0.0000   0.0000   0.0000
     0.0000   0.0000   0.0000   0.0000   0.0000   0.0000

          k =-0.1768-0.5303 0.5303 (  8019 PWs)   bands (ev):

   -17.5824 -17.5779 -17.5257 -17.5208 -17.5190 -17.4876 -17.4803 -17.4762
   -17.4629 -17.4615 -17.4432 -17.4191 -17.4131 -17.4000 -17.3981 -17.1539
   -17.1328 -17.1225 -17.1127 -17.1096 -17.0900 -17.0892 -17.0862 -17.0797
   -17.0740 -17.0698 -17.0246 -17.0189 -17.0030 -16.9952 -16.9928 -16.9925
   -16.9837 -16.9785 -16.9706 -16.6824 -16.6737 -16.6707 -16.6624 -16.6552
    -4.8122  -4.3384  -3.7595  -3.4007  -2.5816  -2.5205  -2.0769  -1.6771
    -0.7147  -0.0360   0.4730   0.7786   1.0573   1.9580   2.4639   2.9246
     3.2966   3.3893   3.6429   3.9026   4.0336   4.1414   4.3688   4.6262
     4.7187   4.9193   5.0891   5.2557   5.6738   5.9432   6.4172   6.7537
     7.9912   8.4403   8.7691   8.9891   9.2038   9.4716   9.6679  10.0085
    10.1357  10.3310  10.5627  10.9372  11.0553  11.1690

     occupation numbers 
     1.0000   1.0000   1.0000   1.0000   1.0000   1.0000   1.0000   1.0000
     1.0000   1.0000   1.0000   1.0000   1.0000   1.0000   1.0000   1.0000
     1.0000   1.0000   1.0000   1.0000   1.0000   1.0000   1.0000   1.0000
     1.0000   1.0000   1.0000   1.0000   1.0000   1.0000   1.0000   1.0000
     1.0000   1.0000   1.0000   1.0000   1.0000   1.0000   1.0000   1.0000
     1.0000   1.0000   1.0000   1.0000   1.0000   1.0000   1.0000   1.0000
     1.0000   1.0000   1.0000   1.0000   1.0000   1.0000   1.0000   1.0000
     1.0000   1.0000   1.0000   1.0000   1.0000   1.0000   1.0000   1.0000
     1.0000   1.0000   1.0000   1.0000   1.0000   1.0000   1.0000   1.0000
     0.0008   0.0000   0.0000   0.0000   0.0000   0.0000   0.0000   0.0000
     0.0000   0.0000   0.0000   0.0000   0.0000   0.0000

          k = 0.0000-0.3536 0.3536 (  8024 PWs)   bands (ev):

   -17.5826 -17.5778 -17.5259 -17.5209 -17.5191 -17.4874 -17.4805 -17.4762
   -17.4625 -17.4618 -17.4433 -17.4194 -17.4131 -17.4000 -17.3983 -17.1539
   -17.1329 -17.1225 -17.1126 -17.1097 -17.0901 -17.0890 -17.0865 -17.0799
   -17.0740 -17.0697 -17.0247 -17.0190 -17.0029 -16.9952 -16.9928 -16.9924
   -16.9838 -16.9786 -16.9706 -16.6824 -16.6738 -16.6707 -16.6626 -16.6551
    -4.9296  -4.2929  -3.7352  -3.1545  -2.7372  -2.3152  -2.1004  -1.7717
    -0.6333  -0.0270   0.1706   0.6765   0.8885   1.7084   2.0117   2.8287
     3.5051   3.6152   3.8402   3.9639   4.3291   4.4479   4.5638   4.8239
     4.9597   5.0488   5.1445   5.5483   5.7433   5.9005   6.0515   7.0706
     7.9107   8.5657   8.7340   8.8141   8.9417   9.4498   9.5849   9.7585
     9.8940  10.0880  10.2174  10.3492  10.4078  10.6951

     occupation numbers 
     1.0000   1.0000   1.0000   1.0000   1.0000   1.0000   1.0000   1.0000
     1.0000   1.0000   1.0000   1.0000   1.0000   1.0000   1.0000   1.0000
     1.0000   1.0000   1.0000   1.0000   1.0000   1.0000   1.0000   1.0000
     1.0000   1.0000   1.0000   1.0000   1.0000   1.0000   1.0000   1.0000
     1.0000   1.0000   1.0000   1.0000   1.0000   1.0000   1.0000   1.0000
     1.0000   1.0000   1.0000   1.0000   1.0000   1.0000   1.0000   1.0000
     1.0000   1.0000   1.0000   1.0000   1.0000   1.0000   1.0000   1.0000
     1.0000   1.0000   1.0000   1.0000   1.0000   1.0000   1.0000   1.0000
     1.0000   1.0000   1.0000   1.0000   1.0000   1.0000   1.0000   0.9994
     0.0048   0.0000   0.0000   0.0000   0.0000   0.0000   0.0000   0.0000
     0.0000   0.0000   0.0000   0.0000   0.0000   0.0000

          k =-0.7071 0.0000 0.0000 (  7992 PWs)   bands (ev):

   -17.5822 -17.5778 -17.5250 -17.5207 -17.5194 -17.4875 -17.4801 -17.4759
   -17.4629 -17.4613 -17.4431 -17.4190 -17.4130 -17.3998 -17.3980 -17.1538
   -17.1326 -17.1224 -17.1125 -17.1093 -17.0895 -17.0893 -17.0859 -17.0796
   -17.0738 -17.0695 -17.0245 -17.0188 -17.0029 -16.9950 -16.9927 -16.9924
   -16.9836 -16.9782 -16.9705 -16.6823 -16.6735 -16.6706 -16.6622 -16.6551
    -4.7018  -4.2194  -3.9060  -3.5315  -2.9344  -2.6963  -1.8431  -1.3419
    -0.6453  -0.3107   0.8900   1.2952   1.3817   1.8826   2.7103   2.9598
     3.1188   3.2129   3.3842   3.4579   3.6674   3.7823   3.9374   4.0056
     4.7847   5.0999   5.2322   5.5161   5.5760   6.0963   6.5332   6.7103
     7.9028   8.0997   8.8559   9.0333   9.4235   9.6805  10.2399  10.5625
    10.7835  10.9296  11.1429  11.3288  11.3908  11.5499

     occupation numbers 
     1.0000   1.0000   1.0000   1.0000   1.0000   1.0000   1.0000   1.0000
     1.0000   1.0000   1.0000   1.0000   1.0000   1.0000   1.0000   1.0000
     1.0000   1.0000   1.0000   1.0000   1.0000   1.0000   1.0000   1.0000
     1.0000   1.0000   1.0000   1.0000   1.0000   1.0000   1.0000   1.0000
     1.0000   1.0000   1.0000   1.0000   1.0000   1.0000   1.0000   1.0000
     1.0000   1.0000   1.0000   1.0000   1.0000   1.0000   1.0000   1.0000
     1.0000   1.0000   1.0000   1.0000   1.0000   1.0000   1.0000   1.0000
     1.0000   1.0000   1.0000   1.0000   1.0000   1.0000   1.0000   1.0000
     1.0000   1.0000   1.0000   1.0000   1.0000   1.0000   1.0000   1.0000
     0.0057   0.0000   0.0000   0.0000   0.0000   0.0000   0.0000   0.0000
     0.0000   0.0000   0.0000   0.0000   0.0000   0.0000

          k =-0.7071 0.3536 0.0000 (  8004 PWs)   bands (ev):

   -17.5824 -17.5778 -17.5252 -17.5208 -17.5195 -17.4876 -17.4804 -17.4760
   -17.4628 -17.4615 -17.4433 -17.4192 -17.4130 -17.4000 -17.3981 -17.1539
   -17.1328 -17.1225 -17.1125 -17.1095 -17.0899 -17.0891 -17.0862 -17.0799
   -17.0740 -17.0696 -17.0246 -17.0189 -17.0030 -16.9952 -16.9927 -16.9925
   -16.9838 -16.9784 -16.9705 -16.6823 -16.6738 -16.6707 -16.6624 -16.6551
    -4.6128  -4.2846  -3.9889  -3.6492  -2.7847  -2.3440  -2.0605  -1.7405
    -0.2193   0.1610   0.4150   0.6264   1.9797   2.2580   2.4962   2.6165
     2.8434   3.0411   3.2980   3.4772   3.9765   4.0925   4.2824   4.4096
     4.6994   4.8690   4.9880   5.1405   5.5884   6.0138   6.1982   6.4565
     8.8936   9.0983   9.2871   9.5291   9.6763   9.9235  10.0663  10.1011
    10.3310  10.3663  10.6707  10.8409  11.1263  11.2867

     occupation numbers 
     1.0000   1.0000   1.0000   1.0000   1.0000   1.0000   1.0000   1.0000
     1.0000   1.0000   1.0000   1.0000   1.0000   1.0000   1.0000   1.0000
     1.0000   1.0000   1.0000   1.0000   1.0000   1.0000   1.0000   1.0000
     1.0000   1.0000   1.0000   1.0000   1.0000   1.0000   1.0000   1.0000
     1.0000   1.0000   1.0000   1.0000   1.0000   1.0000   1.0000   1.0000
     1.0000   1.0000   1.0000   1.0000   1.0000   1.0000   1.0000   1.0000
     1.0000   1.0000   1.0000   1.0000   1.0000   1.0000   1.0000   1.0000
     1.0000   1.0000   1.0000   1.0000   1.0000   1.0000   1.0000   1.0000
     1.0000   1.0000   1.0000   1.0000   1.0000   1.0000   1.0000   1.0000
     0.0000   0.0000   0.0000   0.0000   0.0000   0.0000   0.0000   0.0000
     0.0000   0.0000   0.0000   0.0000   0.0000   0.0000

          k =-0.1768-0.1768-0.1768 (  8000 PWs)   bands (ev):

   -17.5827 -17.5780 -17.5259 -17.5208 -17.5192 -17.4878 -17.4807 -17.4762
   -17.4632 -17.4613 -17.4434 -17.4194 -17.4130 -17.4002 -17.3984 -17.1541
   -17.1331 -17.1227 -17.1127 -17.1098 -17.0901 -17.0894 -17.0865 -17.0798
   -17.0741 -17.0697 -17.0246 -17.0190 -17.0030 -16.9954 -16.9929 -16.9927
   -16.9838 -16.9785 -16.9706 -16.6825 -16.6739 -16.6709 -16.6625 -16.6552
    -5.2066  -3.8732  -3.6134  -3.1210  -2.8598  -2.4188  -1.8444  -1.6938
    -0.4231  -0.1488   0.2090   0.3344   0.6071   0.7851   1.0816   3.2044
     3.4476   3.5905   4.2121   4.2931   4.4622   4.5440   4.7008   4.9878
     5.4851   5.7169   5.8852   6.0839   6.2660   6.5670   7.1852   7.4833
     7.8324   8.0407   8.1740   8.2510   8.6033   8.7970   8.9394   9.1321
     9.1929   9.4095   9.4824  10.0402  10.2497  10.4783

     occupation numbers 
     1.0000   1.0000   1.0000   1.0000   1.0000   1.0000   1.0000   1.0000
     1.0000   1.0000   1.0000   1.0000   1.0000   1.0000   1.0000   1.0000
     1.0000   1.0000   1.0000   1.0000   1.0000   1.0000   1.0000   1.0000
     1.0000   1.0000   1.0000   1.0000   1.0000   1.0000   1.0000   1.0000
     1.0000   1.0000   1.0000   1.0000   1.0000   1.0000   1.0000   1.0000
     1.0000   1.0000   1.0000   1.0000   1.0000   1.0000   1.0000   1.0000
     1.0000   1.0000   1.0000   1.0000   1.0000   1.0000   1.0000   1.0000
     1.0000   1.0000   1.0000   1.0000   1.0000   1.0000   1.0000   1.0000
     1.0000   1.0000   1.0000   1.0000   1.0000   1.0000   0.9927   0.6459
     0.0204   0.0002   0.0000   0.0000   0.0000   0.0000   0.0000   0.0000
     0.0000   0.0000   0.0000   0.0000   0.0000   0.0000

          k =-0.1768 0.1768 0.1768 (  8000 PWs)   bands (ev):

   -17.5829 -17.5780 -17.5266 -17.5208 -17.5187 -17.4878 -17.4805 -17.4763
   -17.4631 -17.4613 -17.4435 -17.4193 -17.4130 -17.4001 -17.3982 -17.1541
   -17.1332 -17.1226 -17.1128 -17.1098 -17.0899 -17.0894 -17.0865 -17.0798
   -17.0742 -17.0698 -17.0247 -17.0190 -17.0031 -16.9952 -16.9929 -16.9926
   -16.9839 -16.9785 -16.9706 -16.6825 -16.6739 -16.6708 -16.6626 -16.6553
    -5.2310  -3.7839  -3.6207  -3.2132  -2.7407  -2.3675  -1.9539  -1.6840
    -0.5061  -0.2310  -0.0168   0.4121   0.6507   0.8627   1.1164   3.4065
     3.6552   3.8850   3.9944   4.2873   4.4291   4.5255   4.8567   4.9345
     5.3713   5.7707   5.8384   6.0672   6.1839   6.4775   7.1179   7.5145
     7.5523   7.8973   7.9799   8.2424   8.6519   8.8356   8.9377   9.0974
     9.2885   9.3511   9.5679   9.8868  10.2844  10.3685

     occupation numbers 
     1.0000   1.0000   1.0000   1.0000   1.0000   1.0000   1.0000   1.0000
     1.0000   1.0000   1.0000   1.0000   1.0000   1.0000   1.0000   1.0000
     1.0000   1.0000   1.0000   1.0000   1.0000   1.0000   1.0000   1.0000
     1.0000   1.0000   1.0000   1.0000   1.0000   1.0000   1.0000   1.0000
     1.0000   1.0000   1.0000   1.0000   1.0000   1.0000   1.0000   1.0000
     1.0000   1.0000   1.0000   1.0000   1.0000   1.0000   1.0000   1.0000
     1.0000   1.0000   1.0000   1.0000   1.0000   1.0000   1.0000   1.0000
     1.0000   1.0000   1.0000   1.0000   1.0000   1.0000   1.0000   1.0000
     1.0000   1.0000   1.0000   1.0000   1.0000   1.0000   0.9982   0.5629
     0.4588   0.0063   0.0011   0.0000   0.0000   0.0000   0.0000   0.0000
     0.0000   0.0000   0.0000   0.0000   0.0000   0.0000

          k = 0.1768-0.1768 0.1768 (  8000 PWs)   bands (ev):

   -17.5828 -17.5779 -17.5260 -17.5210 -17.5191 -17.4877 -17.4806 -17.4762
   -17.4629 -17.4615 -17.4434 -17.4195 -17.4132 -17.4000 -17.3984 -17.1541
   -17.1330 -17.1227 -17.1128 -17.1098 -17.0900 -17.0893 -17.0866 -17.0800
   -17.0741 -17.0697 -17.0247 -17.0190 -17.0031 -16.9952 -16.9928 -16.9926
   -16.9839 -16.9785 -16.9706 -16.6825 -16.6739 -16.6708 -16.6625 -16.6552
    -5.2124  -3.9981  -3.4512  -3.1381  -2.7701  -2.4134  -1.9018  -1.5575
    -0.7013  -0.1503   0.0548   0.2363   0.4600   0.9183   1.2567   3.3783
     3.6188   3.7989   4.2053   4.2889   4.4939   4.6202   4.8732   5.0871
     5.4098   5.6237   5.8351   5.9183   6.0580   6.5282   7.1937   7.5827
     7.6904   7.8859   8.0118   8.1703   8.5756   8.7383   8.8894   9.0587
     9.1466   9.3287   9.5577   9.7815  10.1055  10.4888

     occupation numbers 
     1.0000   1.0000   1.0000   1.0000   1.0000   1.0000   1.0000   1.0000
     1.0000   1.0000   1.0000   1.0000   1.0000   1.0000   1.0000   1.0000
     1.0000   1.0000   1.0000   1.0000   1.0000   1.0000   1.0000   1.0000
     1.0000   1.0000   1.0000   1.0000   1.0000   1.0000   1.0000   1.0000
     1.0000   1.0000   1.0000   1.0000   1.0000   1.0000   1.0000   1.0000
     1.0000   1.0000   1.0000   1.0000   1.0000   1.0000   1.0000   1.0000
     1.0000   1.0000   1.0000   1.0000   1.0000   1.0000   1.0000   1.0000
     1.0000   1.0000   1.0000   1.0000   1.0000   1.0000   1.0000   1.0000
     1.0000   1.0000   1.0000   1.0000   1.0000   1.0000   0.9914   0.3768
     0.1445   0.0079   0.0005   0.0000   0.0000   0.0000   0.0000   0.0000
     0.0000   0.0000   0.0000   0.0000   0.0000   0.0000

          k = 0.3536 0.3536 0.3536 (  8026 PWs)   bands (ev):

   -17.5825 -17.5779 -17.5251 -17.5205 -17.5196 -17.4878 -17.4807 -17.4761
   -17.4632 -17.4611 -17.4431 -17.4194 -17.4128 -17.4002 -17.3984 -17.1539
   -17.1329 -17.1227 -17.1126 -17.1095 -17.0901 -17.0894 -17.0864 -17.0798
   -17.0740 -17.0696 -17.0245 -17.0188 -17.0028 -16.9954 -16.9928 -16.9926
   -16.9838 -16.9785 -16.9706 -16.6824 -16.6738 -16.6707 -16.6624 -16.6552
    -4.8036  -4.4707  -3.5955  -3.1505  -2.9153  -2.4707  -2.1062  -1.9596
    -0.0303   0.2951   0.6589   0.8289   0.9584   1.2494   2.1886   2.3646
     2.8746   3.1272   3.3499   3.6862   3.8437   4.3099   4.6717   4.9881
     5.0420   5.1687   5.3131   5.4885   6.4981   6.7195   6.7796   7.0620
     8.2770   8.3770   8.4101   8.5101   8.7001   9.0019   9.2085   9.4103
    10.6182  10.6481  10.8040  10.9540  11.1886  11.2434

     occupation numbers 
     1.0000   1.0000   1.0000   1.0000   1.0000   1.0000   1.0000   1.0000
     1.0000   1.0000   1.0000   1.0000   1.0000   1.0000   1.0000   1.0000
     1.0000   1.0000   1.0000   1.0000   1.0000   1.0000   1.0000   1.0000
     1.0000   1.0000   1.0000   1.0000   1.0000   1.0000   1.0000   1.0000
     1.0000   1.0000   1.0000   1.0000   1.0000   1.0000   1.0000   1.0000
     1.0000   1.0000   1.0000   1.0000   1.0000   1.0000   1.0000   1.0000
     1.0000   1.0000   1.0000   1.0000   1.0000   1.0000   1.0000   1.0000
     1.0000   1.0000   1.0000   1.0000   1.0000   1.0000   1.0000   1.0000
     1.0000   1.0000   1.0000   1.0000   1.0000   1.0000   1.0000   0.9995
     0.0000   0.0000   0.0000   0.0000   0.0000   0.0000   0.0000   0.0000
     0.0000   0.0000   0.0000   0.0000   0.0000   0.0000

          k = 0.3536-0.3536-0.3536 (  8026 PWs)   bands (ev):

   -17.5828 -17.5777 -17.5264 -17.5207 -17.5185 -17.4877 -17.4803 -17.4763
   -17.4630 -17.4612 -17.4435 -17.4193 -17.4129 -17.4000 -17.3981 -17.1541
   -17.1329 -17.1224 -17.1126 -17.1097 -17.0897 -17.0894 -17.0865 -17.0797
   -17.0741 -17.0699 -17.0246 -17.0190 -17.0030 -16.9951 -16.9928 -16.9926
   -16.9839 -16.9785 -16.9705 -16.6822 -16.6738 -16.6706 -16.6626 -16.6553
    -4.9636  -4.2156  -3.5768  -3.3255  -2.7059  -2.4165  -2.1933  -1.9992
    -0.1763   0.0949   0.3067   0.8404   0.8919   1.2890   2.7564   2.7880
     3.1399   3.2733   3.4632   3.7349   3.9298   4.1568   4.4941   4.6175
     4.7727   5.2620   5.5623   5.6839   5.9958   6.6001   6.8969   7.2987
     7.6815   8.0169   8.4158   8.4689   8.7121   8.8035   9.1244   9.2817
    10.1251  10.7209  10.9084  11.1819  11.1956  11.2646

     occupation numbers 
     1.0000   1.0000   1.0000   1.0000   1.0000   1.0000   1.0000   1.0000
     1.0000   1.0000   1.0000   1.0000   1.0000   1.0000   1.0000   1.0000
     1.0000   1.0000   1.0000   1.0000   1.0000   1.0000   1.0000   1.0000
     1.0000   1.0000   1.0000   1.0000   1.0000   1.0000   1.0000   1.0000
     1.0000   1.0000   1.0000   1.0000   1.0000   1.0000   1.0000   1.0000
     1.0000   1.0000   1.0000   1.0000   1.0000   1.0000   1.0000   1.0000
     1.0000   1.0000   1.0000   1.0000   1.0000   1.0000   1.0000   1.0000
     1.0000   1.0000   1.0000   1.0000   1.0000   1.0000   1.0000   1.0000
     1.0000   1.0000   1.0000   1.0000   1.0000   1.0000   1.0000   0.9509
     0.1589   0.0004   0.0000   0.0000   0.0000   0.0000   0.0000   0.0000
     0.0000   0.0000   0.0000   0.0000   0.0000   0.0000

          k =-0.3536 0.3536-0.3536 (  8026 PWs)   bands (ev):

   -17.5825 -17.5778 -17.5253 -17.5210 -17.5195 -17.4874 -17.4806 -17.4759
   -17.4623 -17.4618 -17.4434 -17.4195 -17.4132 -17.3999 -17.3984 -17.1539
   -17.1329 -17.1225 -17.1125 -17.1094 -17.0900 -17.0891 -17.0865 -17.0801
   -17.0742 -17.0696 -17.0248 -17.0190 -17.0029 -16.9951 -16.9928 -16.9925
   -16.9838 -16.9785 -16.9706 -16.6824 -16.6737 -16.6708 -16.6625 -16.6552
    -4.8059  -4.5640  -3.4268  -3.1188  -2.8985  -2.5067  -2.1005  -1.7637
    -0.4679   0.1582   0.4011   0.5443   0.8236   1.3451   2.6696   2.8453
     3.1142   3.3436   3.3906   3.9455   4.1677   4.3955   4.6802   4.7797
     4.8784   5.1598   5.1762   5.4045   5.8115   6.6173   7.0338   7.3725
     8.0202   8.1734   8.2996   8.3996   8.6161   8.7503   8.8009   9.1465
     9.8768  10.5907  10.8640  11.0625  11.1446  11.3301

     occupation numbers 
     1.0000   1.0000   1.0000   1.0000   1.0000   1.0000   1.0000   1.0000
     1.0000   1.0000   1.0000   1.0000   1.0000   1.0000   1.0000   1.0000
     1.0000   1.0000   1.0000   1.0000   1.0000   1.0000   1.0000   1.0000
     1.0000   1.0000   1.0000   1.0000   1.0000   1.0000   1.0000   1.0000
     1.0000   1.0000   1.0000   1.0000   1.0000   1.0000   1.0000   1.0000
     1.0000   1.0000   1.0000   1.0000   1.0000   1.0000   1.0000   1.0000
     1.0000   1.0000   1.0000   1.0000   1.0000   1.0000   1.0000   1.0000
     1.0000   1.0000   1.0000   1.0000   1.0000   1.0000   1.0000   1.0000
     1.0000   1.0000   1.0000   1.0000   1.0000   1.0000   0.9998   0.8734
     0.0004   0.0000   0.0000   0.0000   0.0000   0.0000   0.0000   0.0000
     0.0000   0.0000   0.0000   0.0000   0.0000   0.0000

          k = 0.0000 0.3536 0.0000 (  8044 PWs)   bands (ev):

   -17.5828 -17.5779 -17.5264 -17.5207 -17.5187 -17.4876 -17.4806 -17.4763
   -17.4628 -17.4614 -17.4433 -17.4194 -17.4130 -17.4000 -17.3984 -17.1540
   -17.1331 -17.1226 -17.1128 -17.1098 -17.0900 -17.0892 -17.0865 -17.0798
   -17.0740 -17.0698 -17.0246 -17.0190 -17.0030 -16.9952 -16.9929 -16.9926
   -16.9838 -16.9785 -16.9704 -16.6825 -16.6738 -16.6708 -16.6625 -16.6552
    -5.1540  -3.9139  -3.5723  -3.2779  -2.8563  -2.5923  -1.7422  -1.3906
    -0.6998  -0.4249   0.2764   0.5273   0.6197   1.1447   1.3664   3.3630
     3.5163   3.7336   3.8780   4.1486   4.3009   4.4357   4.7539   4.8948
     5.0304   5.6046   5.7356   6.0769   6.2022   6.5082   6.8049   6.9262
     7.5107   8.2430   8.4136   8.6372   8.8186   8.9294   9.0068   9.2912
     9.3841   9.5520   9.7777  10.2906  10.4385  10.5824

     occupation numbers 
     1.0000   1.0000   1.0000   1.0000   1.0000   1.0000   1.0000   1.0000
     1.0000   1.0000   1.0000   1.0000   1.0000   1.0000   1.0000   1.0000
     1.0000   1.0000   1.0000   1.0000   1.0000   1.0000   1.0000   1.0000
     1.0000   1.0000   1.0000   1.0000   1.0000   1.0000   1.0000   1.0000
     1.0000   1.0000   1.0000   1.0000   1.0000   1.0000   1.0000   1.0000
     1.0000   1.0000   1.0000   1.0000   1.0000   1.0000   1.0000   1.0000
     1.0000   1.0000   1.0000   1.0000   1.0000   1.0000   1.0000   1.0000
     1.0000   1.0000   1.0000   1.0000   1.0000   1.0000   1.0000   1.0000
     1.0000   1.0000   1.0000   1.0000   1.0000   1.0000   1.0000   1.0000
     0.5733   0.0000   0.0000   0.0000   0.0000   0.0000   0.0000   0.0000
     0.0000   0.0000   0.0000   0.0000   0.0000   0.0000

          k = 0.0000 0.0000 0.3536 (  8044 PWs)   bands (ev):

   -17.5828 -17.5779 -17.5259 -17.5208 -17.5192 -17.4877 -17.4805 -17.4762
   -17.4629 -17.4614 -17.4434 -17.4193 -17.4130 -17.4001 -17.3982 -17.1541
   -17.1330 -17.1225 -17.1126 -17.1097 -17.0901 -17.0892 -17.0864 -17.0800
   -17.0741 -17.0697 -17.0247 -17.0189 -17.0030 -16.9953 -16.9928 -16.9925
   -16.9839 -16.9784 -16.9705 -16.6824 -16.6740 -16.6708 -16.6625 -16.6551
    -5.1563  -3.8657  -3.5731  -3.2607  -2.9840  -2.6461  -1.6321  -1.3387
    -0.7082  -0.2626   0.1975   0.3165   0.7986   1.0280   1.3940   3.2898
     3.5483   3.6456   3.8771   4.0865   4.3413   4.5100   4.6671   4.9052
     5.0121   5.6188   5.8341   6.1080   6.3665   6.5372   6.7352   6.8778
     7.6495   8.3446   8.4848   8.5985   8.8022   8.9090   9.0997   9.2403
     9.3777   9.4895   9.5492  10.2981  10.3834  10.5051

     occupation numbers 
     1.0000   1.0000   1.0000   1.0000   1.0000   1.0000   1.0000   1.0000
     1.0000   1.0000   1.0000   1.0000   1.0000   1.0000   1.0000   1.0000
     1.0000   1.0000   1.0000   1.0000   1.0000   1.0000   1.0000   1.0000
     1.0000   1.0000   1.0000   1.0000   1.0000   1.0000   1.0000   1.0000
     1.0000   1.0000   1.0000   1.0000   1.0000   1.0000   1.0000   1.0000
     1.0000   1.0000   1.0000   1.0000   1.0000   1.0000   1.0000   1.0000
     1.0000   1.0000   1.0000   1.0000   1.0000   1.0000   1.0000   1.0000
     1.0000   1.0000   1.0000   1.0000   1.0000   1.0000   1.0000   1.0000
     1.0000   1.0000   1.0000   1.0000   1.0000   1.0000   1.0000   1.0000
     0.2186   0.0000   0.0000   0.0000   0.0000   0.0000   0.0000   0.0000
     0.0000   0.0000   0.0000   0.0000   0.0000   0.0000

          k = 0.1768 0.5303 0.5303 (  8019 PWs)   bands (ev):

   -17.5824 -17.5779 -17.5251 -17.5207 -17.5195 -17.4877 -17.4805 -17.4760
   -17.4630 -17.4613 -17.4431 -17.4193 -17.4130 -17.4000 -17.3982 -17.1539
   -17.1328 -17.1226 -17.1126 -17.1095 -17.0899 -17.0894 -17.0863 -17.0798
   -17.0739 -17.0696 -17.0246 -17.0188 -17.0029 -16.9952 -16.9928 -16.9926
   -16.9837 -16.9784 -16.9705 -16.6824 -16.6737 -16.6707 -16.6623 -16.6552
    -4.7902  -4.2555  -3.7947  -3.5193  -2.8076  -2.3697  -2.1920  -1.6335
    -0.3090   0.0837   0.3104   1.0807   1.5387   1.7480   2.1284   2.5077
     2.8322   3.3228   3.4506   3.8447   3.9474   4.1924   4.3041   4.5238
     4.8855   4.9697   5.1055   5.4185   5.6684   6.2204   6.3338   7.0043
     8.4006   8.7149   9.1217   9.2763   9.4355   9.6236   9.7768   9.9229
    10.1442  10.3550  10.5321  10.7669  10.9016  11.1837

     occupation numbers 
     1.0000   1.0000   1.0000   1.0000   1.0000   1.0000   1.0000   1.0000
     1.0000   1.0000   1.0000   1.0000   1.0000   1.0000   1.0000   1.0000
     1.0000   1.0000   1.0000   1.0000   1.0000   1.0000   1.0000   1.0000
     1.0000   1.0000   1.0000   1.0000   1.0000   1.0000   1.0000   1.0000
     1.0000   1.0000   1.0000   1.0000   1.0000   1.0000   1.0000   1.0000
     1.0000   1.0000   1.0000   1.0000   1.0000   1.0000   1.0000   1.0000
     1.0000   1.0000   1.0000   1.0000   1.0000   1.0000   1.0000   1.0000
     1.0000   1.0000   1.0000   1.0000   1.0000   1.0000   1.0000   1.0000
     1.0000   1.0000   1.0000   1.0000   1.0000   1.0000   1.0000   0.9999
     0.0000   0.0000   0.0000   0.0000   0.0000   0.0000   0.0000   0.0000
     0.0000   0.0000   0.0000   0.0000   0.0000   0.0000

          k = 0.1768-0.5303-0.5303 (  8019 PWs)   bands (ev):

   -17.5825 -17.5778 -17.5258 -17.5208 -17.5190 -17.4876 -17.4802 -17.4761
   -17.4630 -17.4613 -17.4434 -17.4192 -17.4130 -17.3999 -17.3980 -17.1540
   -17.1328 -17.1226 -17.1126 -17.1095 -17.0897 -17.0893 -17.0863 -17.0797
   -17.0740 -17.0697 -17.0246 -17.0190 -17.0030 -16.9950 -16.9928 -16.9925
   -16.9838 -16.9784 -16.9705 -16.6823 -16.6737 -16.6707 -16.6625 -16.6552
    -4.8777  -4.0095  -3.8134  -3.6729  -2.8149  -2.2039  -2.1508  -1.7916
    -0.3337  -0.0864   0.2205   1.0591   1.5383   1.7423   2.1700   2.8807
     3.0812   3.4208   3.5373   3.6705   3.9746   4.0852   4.3849   4.5621
     4.6963   4.9363   5.0716   5.3646   5.7219   6.0952   6.2749   7.1265
     8.2820   8.6039   8.9263   9.1369   9.3173   9.5441   9.6103   9.9511
    10.1482  10.3819  10.4761  10.5426  11.0874  11.1285

     occupation numbers 
     1.0000   1.0000   1.0000   1.0000   1.0000   1.0000   1.0000   1.0000
     1.0000   1.0000   1.0000   1.0000   1.0000   1.0000   1.0000   1.0000
     1.0000   1.0000   1.0000   1.0000   1.0000   1.0000   1.0000   1.0000
     1.0000   1.0000   1.0000   1.0000   1.0000   1.0000   1.0000   1.0000
     1.0000   1.0000   1.0000   1.0000   1.0000   1.0000   1.0000   1.0000
     1.0000   1.0000   1.0000   1.0000   1.0000   1.0000   1.0000   1.0000
     1.0000   1.0000   1.0000   1.0000   1.0000   1.0000   1.0000   1.0000
     1.0000   1.0000   1.0000   1.0000   1.0000   1.0000   1.0000   1.0000
     1.0000   1.0000   1.0000   1.0000   1.0000   1.0000   1.0000   0.9978
     0.0000   0.0000   0.0000   0.0000   0.0000   0.0000   0.0000   0.0000
     0.0000   0.0000   0.0000   0.0000   0.0000   0.0000

          k =-0.1768 0.5303-0.5303 (  8019 PWs)   bands (ev):

   -17.5824 -17.5778 -17.5252 -17.5209 -17.5195 -17.4876 -17.4804 -17.4759
   -17.4628 -17.4615 -17.4433 -17.4193 -17.4131 -17.3999 -17.3982 -17.1539
   -17.1327 -17.1225 -17.1126 -17.1094 -17.0898 -17.0891 -17.0863 -17.0799
   -17.0740 -17.0696 -17.0247 -17.0189 -17.0030 -16.9951 -16.9928 -16.9926
   -16.9838 -16.9784 -16.9706 -16.6824 -16.6737 -16.6707 -16.6624 -16.6552
    -4.8002  -4.3067  -3.8071  -3.3859  -2.7123  -2.5522  -2.0512  -1.6108
    -0.5675   0.0063   0.5888   0.6921   1.1125   2.0826   2.3096   2.7218
     3.1240   3.2767   3.6149   3.7367   3.9733   4.2430   4.4059   4.5608
     4.7490   4.9849   5.1874   5.5107   5.6527   5.8599   6.4849   6.7950
     8.0684   8.5351   8.8342   9.0353   9.4227   9.5451   9.7857   9.9030
    10.1405  10.4083  10.7611  10.9297  11.0545  11.1588

     occupation numbers 
     1.0000   1.0000   1.0000   1.0000   1.0000   1.0000   1.0000   1.0000
     1.0000   1.0000   1.0000   1.0000   1.0000   1.0000   1.0000   1.0000
     1.0000   1.0000   1.0000   1.0000   1.0000   1.0000   1.0000   1.0000
     1.0000   1.0000   1.0000   1.0000   1.0000   1.0000   1.0000   1.0000
     1.0000   1.0000   1.0000   1.0000   1.0000   1.0000   1.0000   1.0000
     1.0000   1.0000   1.0000   1.0000   1.0000   1.0000   1.0000   1.0000
     1.0000   1.0000   1.0000   1.0000   1.0000   1.0000   1.0000   1.0000
     1.0000   1.0000   1.0000   1.0000   1.0000   1.0000   1.0000   1.0000
     1.0000   1.0000   1.0000   1.0000   1.0000   1.0000   1.0000   1.0000
     0.0001   0.0000   0.0000   0.0000   0.0000   0.0000   0.0000   0.0000
     0.0000   0.0000   0.0000   0.0000   0.0000   0.0000

          k =-0.5303-0.1768-0.5303 (  8019 PWs)   bands (ev):

   -17.5826 -17.5778 -17.5257 -17.5205 -17.5190 -17.4876 -17.4805 -17.4762
   -17.4629 -17.4613 -17.4431 -17.4194 -17.4127 -17.4001 -17.3983 -17.1538
   -17.1329 -17.1225 -17.1126 -17.1096 -17.0899 -17.0892 -17.0864 -17.0797
   -17.0740 -17.0698 -17.0244 -17.0189 -17.0028 -16.9952 -16.9928 -16.9925
   -16.9837 -16.9784 -16.9705 -16.6824 -16.6737 -16.6707 -16.6624 -16.6552
    -4.7686  -4.2344  -3.9434  -3.3734  -2.8817  -2.4869  -1.9752  -1.6910
    -0.2469  -0.0493   0.5179   1.0916   1.3337   1.8281   2.0557   2.6136
     2.9548   3.0902   3.2555   3.7681   4.0467   4.1583   4.3068   4.4405
     4.7892   5.1520   5.3438   5.5959   5.7807   6.1027   6.4573   6.8364
     8.3849   8.7497   8.9158   9.1162   9.3324   9.6158   9.9694  10.0201
    10.1110  10.4029  10.5600  10.7775  11.0197  11.1914

     occupation numbers 
     1.0000   1.0000   1.0000   1.0000   1.0000   1.0000   1.0000   1.0000
     1.0000   1.0000   1.0000   1.0000   1.0000   1.0000   1.0000   1.0000
     1.0000   1.0000   1.0000   1.0000   1.0000   1.0000   1.0000   1.0000
     1.0000   1.0000   1.0000   1.0000   1.0000   1.0000   1.0000   1.0000
     1.0000   1.0000   1.0000   1.0000   1.0000   1.0000   1.0000   1.0000
     1.0000   1.0000   1.0000   1.0000   1.0000   1.0000   1.0000   1.0000
     1.0000   1.0000   1.0000   1.0000   1.0000   1.0000   1.0000   1.0000
     1.0000   1.0000   1.0000   1.0000   1.0000   1.0000   1.0000   1.0000
     1.0000   1.0000   1.0000   1.0000   1.0000   1.0000   1.0000   1.0000
     0.0000   0.0000   0.0000   0.0000   0.0000   0.0000   0.0000   0.0000
     0.0000   0.0000   0.0000   0.0000   0.0000   0.0000

          k = 0.5303 0.1768-0.5303 (  8019 PWs)   bands (ev):

   -17.5826 -17.5777 -17.5262 -17.5207 -17.5186 -17.4874 -17.4805 -17.4763
   -17.4625 -17.4616 -17.4431 -17.4193 -17.4130 -17.4000 -17.3983 -17.1538
   -17.1329 -17.1225 -17.1127 -17.1097 -17.0900 -17.0890 -17.0864 -17.0796
   -17.0739 -17.0698 -17.0246 -17.0189 -17.0029 -16.9952 -16.9928 -16.9924
   -16.9837 -16.9785 -16.9705 -16.6824 -16.6737 -16.6707 -16.6624 -16.6551
    -4.7736  -4.4126  -3.6359  -3.4852  -2.7652  -2.4508  -1.9270  -1.6853
    -0.6839   0.0045   0.3421   0.8249   1.0819   1.9016   2.5259   3.0153
     3.0918   3.3497   3.6899   3.7925   3.9317   4.2083   4.3084   4.4835
     4.7835   4.9974   5.2297   5.5303   5.5850   6.1231   6.2850   6.7970
     7.8977   8.3347   8.8650   9.0328   9.3192   9.3683   9.7405   9.8440
    10.1665  10.4012  10.5592  10.7478  10.9734  11.2554

     occupation numbers 
     1.0000   1.0000   1.0000   1.0000   1.0000   1.0000   1.0000   1.0000
     1.0000   1.0000   1.0000   1.0000   1.0000   1.0000   1.0000   1.0000
     1.0000   1.0000   1.0000   1.0000   1.0000   1.0000   1.0000   1.0000
     1.0000   1.0000   1.0000   1.0000   1.0000   1.0000   1.0000   1.0000
     1.0000   1.0000   1.0000   1.0000   1.0000   1.0000   1.0000   1.0000
     1.0000   1.0000   1.0000   1.0000   1.0000   1.0000   1.0000   1.0000
     1.0000   1.0000   1.0000   1.0000   1.0000   1.0000   1.0000   1.0000
     1.0000   1.0000   1.0000   1.0000   1.0000   1.0000   1.0000   1.0000
     1.0000   1.0000   1.0000   1.0000   1.0000   1.0000   1.0000   1.0000
     0.0063   0.0000   0.0000   0.0000   0.0000   0.0000   0.0000   0.0000
     0.0000   0.0000   0.0000   0.0000   0.0000   0.0000

          k =-0.5303 0.1768 0.5303 (  8019 PWs)   bands (ev):

   -17.5827 -17.5777 -17.5263 -17.5206 -17.5185 -17.4875 -17.4804 -17.4763
   -17.4627 -17.4613 -17.4433 -17.4193 -17.4128 -17.3999 -17.3983 -17.1539
   -17.1329 -17.1224 -17.1126 -17.1097 -17.0898 -17.0892 -17.0865 -17.0796
   -17.0741 -17.0698 -17.0246 -17.0189 -17.0029 -16.9951 -16.9928 -16.9926
   -16.9838 -16.9785 -16.9704 -16.6824 -16.6737 -16.6707 -16.6625 -16.6552
    -4.8556  -4.0710  -3.8790  -3.5480  -2.6936  -2.5977  -2.0445  -1.6000
    -0.3885  -0.0829   0.5748   0.7517   1.2500   2.0291   2.2635   2.8502
     2.9596   3.2641   3.4074   3.6214   3.9572   4.2044   4.3219   4.5213
     4.7159   5.0436   5.4317   5.5900   5.7939   5.8989   6.4556   6.8657
     7.8315   8.5206   8.8081   9.0849   9.4072   9.6620   9.8216  10.0568
    10.2810  10.4790  10.7086  10.8971  10.9871  11.1207

     occupation numbers 
     1.0000   1.0000   1.0000   1.0000   1.0000   1.0000   1.0000   1.0000
     1.0000   1.0000   1.0000   1.0000   1.0000   1.0000   1.0000   1.0000
     1.0000   1.0000   1.0000   1.0000   1.0000   1.0000   1.0000   1.0000
     1.0000   1.0000   1.0000   1.0000   1.0000   1.0000   1.0000   1.0000
     1.0000   1.0000   1.0000   1.0000   1.0000   1.0000   1.0000   1.0000
     1.0000   1.0000   1.0000   1.0000   1.0000   1.0000   1.0000   1.0000
     1.0000   1.0000   1.0000   1.0000   1.0000   1.0000   1.0000   1.0000
     1.0000   1.0000   1.0000   1.0000   1.0000   1.0000   1.0000   1.0000
     1.0000   1.0000   1.0000   1.0000   1.0000   1.0000   1.0000   1.0000
     0.0208   0.0000   0.0000   0.0000   0.0000   0.0000   0.0000   0.0000
     0.0000   0.0000   0.0000   0.0000   0.0000   0.0000

          k = 0.5303-0.1768 0.5303 (  8019 PWs)   bands (ev):

   -17.5826 -17.5777 -17.5258 -17.5208 -17.5190 -17.4873 -17.4805 -17.4762
   -17.4623 -17.4617 -17.4433 -17.4194 -17.4130 -17.3998 -17.3983 -17.1538
   -17.1329 -17.1225 -17.1126 -17.1095 -17.0899 -17.0890 -17.0864 -17.0799
   -17.0741 -17.0697 -17.0247 -17.0190 -17.0029 -16.9950 -16.9928 -16.9925
   -16.9838 -16.9784 -16.9705 -16.6824 -16.6737 -16.6707 -16.6625 -16.6551
    -4.7765  -4.3301  -3.8137  -3.3649  -2.9400  -2.3045  -2.0223  -1.6623
    -0.5038   0.0525   0.2165   1.0200   1.2800   1.7830   2.2454   2.7929
     3.0119   3.4043   3.6514   3.8066   4.0123   4.1718   4.2114   4.4667
     4.6700   5.0946   5.2556   5.5058   5.5947   6.1511   6.3296   6.9791
     8.3620   8.7878   8.9519   9.1166   9.1477   9.3495   9.5923   9.7792
    10.0172  10.2041  10.4626  10.5345  10.9810  11.2050

     occupation numbers 
     1.0000   1.0000   1.0000   1.0000   1.0000   1.0000   1.0000   1.0000
     1.0000   1.0000   1.0000   1.0000   1.0000   1.0000   1.0000   1.0000
     1.0000   1.0000   1.0000   1.0000   1.0000   1.0000   1.0000   1.0000
     1.0000   1.0000   1.0000   1.0000   1.0000   1.0000   1.0000   1.0000
     1.0000   1.0000   1.0000   1.0000   1.0000   1.0000   1.0000   1.0000
     1.0000   1.0000   1.0000   1.0000   1.0000   1.0000   1.0000   1.0000
     1.0000   1.0000   1.0000   1.0000   1.0000   1.0000   1.0000   1.0000
     1.0000   1.0000   1.0000   1.0000   1.0000   1.0000   1.0000   1.0000
     1.0000   1.0000   1.0000   1.0000   1.0000   1.0000   1.0000   0.9999
     0.0000   0.0000   0.0000   0.0000   0.0000   0.0000   0.0000   0.0000
     0.0000   0.0000   0.0000   0.0000   0.0000   0.0000

          k = 0.5303 0.5303-0.1768 (  8019 PWs)   bands (ev):

   -17.5826 -17.5777 -17.5258 -17.5208 -17.5191 -17.4875 -17.4803 -17.4762
   -17.4625 -17.4617 -17.4433 -17.4192 -17.4130 -17.4001 -17.3981 -17.1539
   -17.1328 -17.1224 -17.1125 -17.1096 -17.0901 -17.0890 -17.0863 -17.0798
   -17.0741 -17.0698 -17.0247 -17.0190 -17.0029 -16.9952 -16.9927 -16.9923
   -16.9838 -16.9784 -16.9705 -16.6823 -16.6739 -16.6706 -16.6625 -16.6551
    -4.7993  -4.3305  -3.7733  -3.3658  -2.8627  -2.4809  -1.8577  -1.7017
    -0.4921  -0.0160   0.3116   0.6635   1.2261   1.8329   2.3785   2.9129
     3.2302   3.4577   3.6341   3.7560   3.8985   4.1088   4.3246   4.6454
     4.7905   4.9789   5.2089   5.4730   5.6373   6.1648   6.2589   6.8271
     8.3053   8.6927   8.7323   8.9801   9.1923   9.3020   9.5012   9.8303
     9.9281  10.3986  10.5150  10.7312  10.8418  11.2392

     occupation numbers 
     1.0000   1.0000   1.0000   1.0000   1.0000   1.0000   1.0000   1.0000
     1.0000   1.0000   1.0000   1.0000   1.0000   1.0000   1.0000   1.0000
     1.0000   1.0000   1.0000   1.0000   1.0000   1.0000   1.0000   1.0000
     1.0000   1.0000   1.0000   1.0000   1.0000   1.0000   1.0000   1.0000
     1.0000   1.0000   1.0000   1.0000   1.0000   1.0000   1.0000   1.0000
     1.0000   1.0000   1.0000   1.0000   1.0000   1.0000   1.0000   1.0000
     1.0000   1.0000   1.0000   1.0000   1.0000   1.0000   1.0000   1.0000
     1.0000   1.0000   1.0000   1.0000   1.0000   1.0000   1.0000   1.0000
     1.0000   1.0000   1.0000   1.0000   1.0000   1.0000   1.0000   1.0000
     0.0000   0.0000   0.0000   0.0000   0.0000   0.0000   0.0000   0.0000
     0.0000   0.0000   0.0000   0.0000   0.0000   0.0000

          k =-0.5303 0.5303 0.1768 (  8019 PWs)   bands (ev):

   -17.5826 -17.5777 -17.5258 -17.5206 -17.5190 -17.4876 -17.4803 -17.4762
   -17.4628 -17.4614 -17.4434 -17.4192 -17.4128 -17.4000 -17.3981 -17.1540
   -17.1329 -17.1223 -17.1125 -17.1096 -17.0899 -17.0892 -17.0863 -17.0798
   -17.0741 -17.0697 -17.0246 -17.0189 -17.0029 -16.9952 -16.9927 -16.9924
   -16.9838 -16.9784 -16.9705 -16.6822 -16.6739 -16.6707 -16.6625 -16.6552
    -4.8628  -4.0485  -3.8210  -3.5589  -3.0128  -2.4218  -1.9113  -1.6531
    -0.3361   0.1353   0.3893   0.6028   1.3675   1.9536   2.2851   2.8758
     2.9122   3.1737   3.3148   3.7738   3.9822   4.1277   4.3573   4.4970
     4.6861   4.9791   5.3465   5.7081   5.8717   6.0378   6.4187   6.8612
     8.1689   8.6839   8.7979   9.0670   9.3529   9.5320   9.6829   9.8641
    10.2119  10.4228  10.6469  10.7143  10.9866  11.2836

     occupation numbers 
     1.0000   1.0000   1.0000   1.0000   1.0000   1.0000   1.0000   1.0000
     1.0000   1.0000   1.0000   1.0000   1.0000   1.0000   1.0000   1.0000
     1.0000   1.0000   1.0000   1.0000   1.0000   1.0000   1.0000   1.0000
     1.0000   1.0000   1.0000   1.0000   1.0000   1.0000   1.0000   1.0000
     1.0000   1.0000   1.0000   1.0000   1.0000   1.0000   1.0000   1.0000
     1.0000   1.0000   1.0000   1.0000   1.0000   1.0000   1.0000   1.0000
     1.0000   1.0000   1.0000   1.0000   1.0000   1.0000   1.0000   1.0000
     1.0000   1.0000   1.0000   1.0000   1.0000   1.0000   1.0000   1.0000
     1.0000   1.0000   1.0000   1.0000   1.0000   1.0000   1.0000   1.0000
     0.0000   0.0000   0.0000   0.0000   0.0000   0.0000   0.0000   0.0000
     0.0000   0.0000   0.0000   0.0000   0.0000   0.0000

          k = 0.5303-0.5303 0.1768 (  8019 PWs)   bands (ev):

   -17.5825 -17.5777 -17.5252 -17.5208 -17.5195 -17.4875 -17.4805 -17.4760
   -17.4624 -17.4617 -17.4433 -17.4193 -17.4130 -17.4000 -17.3983 -17.1539
   -17.1328 -17.1225 -17.1124 -17.1095 -17.0900 -17.0890 -17.0863 -17.0801
   -17.0741 -17.0696 -17.0246 -17.0189 -17.0029 -16.9952 -16.9927 -16.9924
   -16.9838 -16.9784 -16.9705 -16.6823 -16.6739 -16.6707 -16.6625 -16.6551
    -4.7726  -4.3690  -3.6099  -3.4443  -3.1107  -2.4263  -1.9088  -1.5254
    -0.4454   0.1061   0.2611   0.6528   1.4846   1.7822   2.2836   2.7307
     2.9703   3.1677   3.5247   3.8005   3.9657   4.2925   4.3965   4.5829
     4.8549   5.0300   5.2741   5.3603   5.7818   6.0315   6.3857   6.9178
     8.2436   8.7213   8.8171   9.1675   9.3466   9.4495   9.7262   9.9124
    10.1004  10.2517  10.5248  10.6842  10.8926  11.0806

     occupation numbers 
     1.0000   1.0000   1.0000   1.0000   1.0000   1.0000   1.0000   1.0000
     1.0000   1.0000   1.0000   1.0000   1.0000   1.0000   1.0000   1.0000
     1.0000   1.0000   1.0000   1.0000   1.0000   1.0000   1.0000   1.0000
     1.0000   1.0000   1.0000   1.0000   1.0000   1.0000   1.0000   1.0000
     1.0000   1.0000   1.0000   1.0000   1.0000   1.0000   1.0000   1.0000
     1.0000   1.0000   1.0000   1.0000   1.0000   1.0000   1.0000   1.0000
     1.0000   1.0000   1.0000   1.0000   1.0000   1.0000   1.0000   1.0000
     1.0000   1.0000   1.0000   1.0000   1.0000   1.0000   1.0000   1.0000
     1.0000   1.0000   1.0000   1.0000   1.0000   1.0000   1.0000   1.0000
     0.0000   0.0000   0.0000   0.0000   0.0000   0.0000   0.0000   0.0000
     0.0000   0.0000   0.0000   0.0000   0.0000   0.0000

          k =-0.5303-0.5303-0.1768 (  8019 PWs)   bands (ev):

   -17.5825 -17.5778 -17.5251 -17.5206 -17.5195 -17.4877 -17.4805 -17.4760
   -17.4629 -17.4613 -17.4433 -17.4193 -17.4128 -17.4001 -17.3983 -17.1539
   -17.1328 -17.1225 -17.1125 -17.1095 -17.0900 -17.0892 -17.0863 -17.0799
   -17.0741 -17.0696 -17.0246 -17.0188 -17.0029 -16.9953 -16.9926 -16.9926
   -16.9838 -16.9784 -16.9705 -16.6823 -16.6739 -16.6706 -16.6624 -16.6551
    -4.7773  -4.2053  -3.9399  -3.3395  -2.9388  -2.6479  -1.8970  -1.5807
    -0.2880   0.2578   0.4623   0.7712   1.3725   1.8360   2.1248   2.4810
     2.9483   3.0590   3.3411   3.6221   3.9745   4.1662   4.3140   4.5684
     4.9592   5.1502   5.4261   5.5529   5.7376   6.1263   6.5163   6.7379
     8.3924   8.7222   8.9172   9.3471   9.4810   9.6248   9.7643   9.9093
    10.1256  10.4763  10.7324  10.7602  10.9591  11.1392

     occupation numbers 
     1.0000   1.0000   1.0000   1.0000   1.0000   1.0000   1.0000   1.0000
     1.0000   1.0000   1.0000   1.0000   1.0000   1.0000   1.0000   1.0000
     1.0000   1.0000   1.0000   1.0000   1.0000   1.0000   1.0000   1.0000
     1.0000   1.0000   1.0000   1.0000   1.0000   1.0000   1.0000   1.0000
     1.0000   1.0000   1.0000   1.0000   1.0000   1.0000   1.0000   1.0000
     1.0000   1.0000   1.0000   1.0000   1.0000   1.0000   1.0000   1.0000
     1.0000   1.0000   1.0000   1.0000   1.0000   1.0000   1.0000   1.0000
     1.0000   1.0000   1.0000   1.0000   1.0000   1.0000   1.0000   1.0000
     1.0000   1.0000   1.0000   1.0000   1.0000   1.0000   1.0000   1.0000
     0.0000   0.0000   0.0000   0.0000   0.0000   0.0000   0.0000   0.0000
     0.0000   0.0000   0.0000   0.0000   0.0000   0.0000

          k = 0.0000 0.3536 0.3536 (  8024 PWs)   bands (ev):

   -17.5826 -17.5779 -17.5258 -17.5206 -17.5190 -17.4877 -17.4806 -17.4762
   -17.4630 -17.4612 -17.4434 -17.4194 -17.4128 -17.4001 -17.3983 -17.1539
   -17.1330 -17.1225 -17.1125 -17.1096 -17.0900 -17.0893 -17.0865 -17.0797
   -17.0740 -17.0697 -17.0245 -17.0190 -17.0030 -16.9953 -16.9928 -16.9926
   -16.9838 -16.9785 -16.9704 -16.6823 -16.6738 -16.6707 -16.6626 -16.6552
    -4.9580  -4.0487  -3.6592  -3.5754  -2.7627  -2.4572  -2.2489  -1.4464
    -0.4777   0.0245   0.4469   0.8946   1.1912   1.5600   1.7394   2.7286
     3.0289   3.1716   3.7013   3.8921   4.0475   4.3488   4.5631   4.6938
     4.9634   5.2529   5.4358   5.5532   5.7756   6.0206   6.1736   7.5623
     8.2526   8.5567   8.9265   9.1729   9.2723   9.3858   9.6301   9.7872
     9.9002  10.1172  10.3234  10.4524  10.6693  10.7801

     occupation numbers 
     1.0000   1.0000   1.0000   1.0000   1.0000   1.0000   1.0000   1.0000
     1.0000   1.0000   1.0000   1.0000   1.0000   1.0000   1.0000   1.0000
     1.0000   1.0000   1.0000   1.0000   1.0000   1.0000   1.0000   1.0000
     1.0000   1.0000   1.0000   1.0000   1.0000   1.0000   1.0000   1.0000
     1.0000   1.0000   1.0000   1.0000   1.0000   1.0000   1.0000   1.0000
     1.0000   1.0000   1.0000   1.0000   1.0000   1.0000   1.0000   1.0000
     1.0000   1.0000   1.0000   1.0000   1.0000   1.0000   1.0000   1.0000
     1.0000   1.0000   1.0000   1.0000   1.0000   1.0000   1.0000   1.0000
     1.0000   1.0000   1.0000   1.0000   1.0000   1.0000   1.0000   0.4313
     0.0000   0.0000   0.0000   0.0000   0.0000   0.0000   0.0000   0.0000
     0.0000   0.0000   0.0000   0.0000   0.0000   0.0000

          k =-0.3536 0.0000-0.3536 (  8024 PWs)   bands (ev):

   -17.5825 -17.5778 -17.5251 -17.5208 -17.5195 -17.4877 -17.4805 -17.4760
   -17.4629 -17.4615 -17.4433 -17.4194 -17.4131 -17.4001 -17.3983 -17.1539
   -17.1328 -17.1226 -17.1126 -17.1096 -17.0900 -17.0893 -17.0864 -17.0799
   -17.0741 -17.0696 -17.0247 -17.0189 -17.0030 -16.9953 -16.9928 -16.9925
   -16.9838 -16.9784 -16.9706 -16.6824 -16.6738 -16.6707 -16.6625 -16.6552
    -4.9200  -4.0895  -3.9534  -3.1831  -2.8512  -2.4735  -2.1372  -1.4853
    -0.5726   0.1529   0.3387   0.8006   1.1603   1.5177   1.8174   2.5496
     3.2031   3.3793   3.7477   3.9036   4.0810   4.2365   4.4630   4.8648
     4.9538   5.1944   5.2920   5.7231   5.7716   6.0041   6.2452   7.4245
     8.3464   8.6673   8.8763   9.0791   9.2652   9.4120   9.5865   9.7068
     9.8861  10.0417  10.2074  10.4621  10.5558  10.7908

     occupation numbers 
     1.0000   1.0000   1.0000   1.0000   1.0000   1.0000   1.0000   1.0000
     1.0000   1.0000   1.0000   1.0000   1.0000   1.0000   1.0000   1.0000
     1.0000   1.0000   1.0000   1.0000   1.0000   1.0000   1.0000   1.0000
     1.0000   1.0000   1.0000   1.0000   1.0000   1.0000   1.0000   1.0000
     1.0000   1.0000   1.0000   1.0000   1.0000   1.0000   1.0000   1.0000
     1.0000   1.0000   1.0000   1.0000   1.0000   1.0000   1.0000   1.0000
     1.0000   1.0000   1.0000   1.0000   1.0000   1.0000   1.0000   1.0000
     1.0000   1.0000   1.0000   1.0000   1.0000   1.0000   1.0000   1.0000
     1.0000   1.0000   1.0000   1.0000   1.0000   1.0000   1.0000   0.7829
     0.0000   0.0000   0.0000   0.0000   0.0000   0.0000   0.0000   0.0000
     0.0000   0.0000   0.0000   0.0000   0.0000   0.0000

          k = 0.3536 0.0000-0.3536 (  8024 PWs)   bands (ev):

   -17.5827 -17.5778 -17.5264 -17.5208 -17.5186 -17.4876 -17.4803 -17.4763
   -17.4629 -17.4614 -17.4433 -17.4192 -17.4130 -17.4001 -17.3981 -17.1539
   -17.1329 -17.1225 -17.1127 -17.1097 -17.0900 -17.0893 -17.0863 -17.0797
   -17.0741 -17.0698 -17.0246 -17.0189 -17.0029 -16.9952 -16.9928 -16.9924
   -16.9838 -16.9784 -16.9706 -16.6823 -16.6738 -16.6707 -16.6625 -16.6552
    -4.9813  -4.0962  -3.7654  -3.3905  -2.5632  -2.3862  -2.1040  -1.8261
    -0.5130  -0.1052   0.1149   0.8139   1.0253   1.6569   1.9046   3.0375
     3.4893   3.6407   3.7183   3.8613   4.2751   4.3893   4.4679   4.6360
     4.9072   5.0520   5.2922   5.5378   5.7570   6.0009   6.1906   7.2250
     7.7145   8.4642   8.6650   8.9608   9.0765   9.4062   9.5970   9.7927
     9.8229   9.9840  10.2437  10.4570  10.5870  10.7826

     occupation numbers 
     1.0000   1.0000   1.0000   1.0000   1.0000   1.0000   1.0000   1.0000
     1.0000   1.0000   1.0000   1.0000   1.0000   1.0000   1.0000   1.0000
     1.0000   1.0000   1.0000   1.0000   1.0000   1.0000   1.0000   1.0000
     1.0000   1.0000   1.0000   1.0000   1.0000   1.0000   1.0000   1.0000
     1.0000   1.0000   1.0000   1.0000   1.0000   1.0000   1.0000   1.0000
     1.0000   1.0000   1.0000   1.0000   1.0000   1.0000   1.0000   1.0000
     1.0000   1.0000   1.0000   1.0000   1.0000   1.0000   1.0000   1.0000
     1.0000   1.0000   1.0000   1.0000   1.0000   1.0000   1.0000   1.0000
     1.0000   1.0000   1.0000   1.0000   1.0000   1.0000   1.0000   0.9848
     0.1098   0.0000   0.0000   0.0000   0.0000   0.0000   0.0000   0.0000
     0.0000   0.0000   0.0000   0.0000   0.0000   0.0000

          k = 0.3536 0.3536 0.0000 (  8024 PWs)   bands (ev):

   -17.5825 -17.5779 -17.5257 -17.5207 -17.5191 -17.4877 -17.4805 -17.4763
   -17.4629 -17.4615 -17.4431 -17.4193 -17.4130 -17.4001 -17.3983 -17.1539
   -17.1329 -17.1225 -17.1126 -17.1097 -17.0901 -17.0892 -17.0863 -17.0797
   -17.0740 -17.0698 -17.0246 -17.0190 -17.0029 -16.9953 -16.9928 -16.9926
   -16.9837 -16.9785 -16.9706 -16.6824 -16.6738 -16.6708 -16.6624 -16.6553
    -4.9274  -4.1872  -3.8572  -3.1677  -2.7571  -2.4345  -2.1316  -1.6513
    -0.5431   0.0684   0.3195   0.6081   1.0988   1.5556   1.9923   2.7655
     3.1922   3.5368   3.7283   4.0275   4.1637   4.2574   4.5712   4.7381
     4.9114   4.9914   5.3812   5.6270   5.7764   6.0631   6.1699   7.2559
     8.1995   8.5847   8.7791   9.0982   9.1767   9.2934   9.4815   9.6050
     9.7377  10.0840  10.3299  10.4739  10.5128  10.7246

     occupation numbers 
     1.0000   1.0000   1.0000   1.0000   1.0000   1.0000   1.0000   1.0000
     1.0000   1.0000   1.0000   1.0000   1.0000   1.0000   1.0000   1.0000
     1.0000   1.0000   1.0000   1.0000   1.0000   1.0000   1.0000   1.0000
     1.0000   1.0000   1.0000   1.0000   1.0000   1.0000   1.0000   1.0000
     1.0000   1.0000   1.0000   1.0000   1.0000   1.0000   1.0000   1.0000
     1.0000   1.0000   1.0000   1.0000   1.0000   1.0000   1.0000   1.0000
     1.0000   1.0000   1.0000   1.0000   1.0000   1.0000   1.0000   1.0000
     1.0000   1.0000   1.0000   1.0000   1.0000   1.0000   1.0000   1.0000
     1.0000   1.0000   1.0000   1.0000   1.0000   1.0000   1.0000   0.9744
     0.0000   0.0000   0.0000   0.0000   0.0000   0.0000   0.0000   0.0000
     0.0000   0.0000   0.0000   0.0000   0.0000   0.0000

          k =-0.3536 0.3536 0.0000 (  8024 PWs)   bands (ev):

   -17.5827 -17.5778 -17.5259 -17.5208 -17.5190 -17.4876 -17.4804 -17.4761
   -17.4627 -17.4615 -17.4434 -17.4193 -17.4131 -17.3999 -17.3983 -17.1539
   -17.1329 -17.1226 -17.1127 -17.1096 -17.0898 -17.0892 -17.0865 -17.0799
   -17.0741 -17.0698 -17.0246 -17.0190 -17.0030 -16.9951 -16.9928 -16.9926
   -16.9839 -16.9785 -16.9705 -16.6824 -16.6737 -16.6707 -16.6625 -16.6553
    -4.9714  -4.0852  -3.7159  -3.4143  -2.8902  -2.2955  -2.0110  -1.7362
    -0.4454  -0.1269   0.3680   0.5434   1.3398   1.5587   1.8174   2.8732
     3.3011   3.5041   3.7827   3.9225   4.1750   4.2368   4.4993   4.6323
     4.8788   5.0968   5.3272   5.5814   5.8292   5.9173   6.4372   7.3030
     8.1752   8.5852   8.7498   8.8452   9.0597   9.4369   9.5815   9.7757
     9.9110   9.9866  10.1672  10.2978  10.5434  10.7441

     occupation numbers 
     1.0000   1.0000   1.0000   1.0000   1.0000   1.0000   1.0000   1.0000
     1.0000   1.0000   1.0000   1.0000   1.0000   1.0000   1.0000   1.0000
     1.0000   1.0000   1.0000   1.0000   1.0000   1.0000   1.0000   1.0000
     1.0000   1.0000   1.0000   1.0000   1.0000   1.0000   1.0000   1.0000
     1.0000   1.0000   1.0000   1.0000   1.0000   1.0000   1.0000   1.0000
     1.0000   1.0000   1.0000   1.0000   1.0000   1.0000   1.0000   1.0000
     1.0000   1.0000   1.0000   1.0000   1.0000   1.0000   1.0000   1.0000
     1.0000   1.0000   1.0000   1.0000   1.0000   1.0000   1.0000   1.0000
     1.0000   1.0000   1.0000   1.0000   1.0000   1.0000   1.0000   0.9478
     0.0000   0.0000   0.0000   0.0000   0.0000   0.0000   0.0000   0.0000
     0.0000   0.0000   0.0000   0.0000   0.0000   0.0000

          k = 0.0000-0.7071 0.0000 (  7992 PWs)   bands (ev):

   -17.5825 -17.5776 -17.5261 -17.5204 -17.5184 -17.4872 -17.4804 -17.4762
   -17.4622 -17.4614 -17.4430 -17.4193 -17.4127 -17.3997 -17.3982 -17.1537
   -17.1328 -17.1223 -17.1126 -17.1095 -17.0897 -17.0888 -17.0864 -17.0795
   -17.0739 -17.0697 -17.0244 -17.0188 -17.0027 -16.9950 -16.9927 -16.9924
   -16.9836 -16.9784 -16.9702 -16.6823 -16.6736 -16.6706 -16.6623 -16.6550
    -4.5671  -4.4264  -3.8540  -3.5061  -2.9410  -2.8066  -1.6937  -1.3354
    -0.5009  -0.4246   0.9299   1.3851   1.4432   1.6381   2.6855   2.8876
     3.1141   3.2138   3.3528   3.3775   3.5315   3.6956   3.7628   4.1149
     4.7742   5.3221   5.4590   5.6371   6.0237   6.1929   6.2892   6.5489
     7.8842   7.9597   8.8998   9.1220   9.4736   9.6521   9.9792  10.2122
    10.8592  11.1004  11.2504  11.3428  11.4922  11.6260

     occupation numbers 
     1.0000   1.0000   1.0000   1.0000   1.0000   1.0000   1.0000   1.0000
     1.0000   1.0000   1.0000   1.0000   1.0000   1.0000   1.0000   1.0000
     1.0000   1.0000   1.0000   1.0000   1.0000   1.0000   1.0000   1.0000
     1.0000   1.0000   1.0000   1.0000   1.0000   1.0000   1.0000   1.0000
     1.0000   1.0000   1.0000   1.0000   1.0000   1.0000   1.0000   1.0000
     1.0000   1.0000   1.0000   1.0000   1.0000   1.0000   1.0000   1.0000
     1.0000   1.0000   1.0000   1.0000   1.0000   1.0000   1.0000   1.0000
     1.0000   1.0000   1.0000   1.0000   1.0000   1.0000   1.0000   1.0000
     1.0000   1.0000   1.0000   1.0000   1.0000   1.0000   1.0000   1.0000
     0.0081   0.0017   0.0000   0.0000   0.0000   0.0000   0.0000   0.0000
     0.0000   0.0000   0.0000   0.0000   0.0000   0.0000

          k = 0.0000 0.0000-0.7071 (  7992 PWs)   bands (ev):

   -17.5824 -17.5776 -17.5250 -17.5205 -17.5194 -17.4874 -17.4802 -17.4759
   -17.4624 -17.4615 -17.4433 -17.4191 -17.4127 -17.4000 -17.3980 -17.1538
   -17.1327 -17.1222 -17.1123 -17.1094 -17.0900 -17.0888 -17.0861 -17.0799
   -17.0740 -17.0695 -17.0245 -17.0188 -17.0028 -16.9951 -16.9925 -16.9922
   -16.9837 -16.9782 -16.9703 -16.6821 -16.6738 -16.6705 -16.6624 -16.6549
    -4.6385  -4.3144  -3.7646  -3.5616  -3.1393  -2.8363  -1.5744  -1.2583
    -0.5829  -0.0878   0.8617   0.9754   1.5614   1.7114   2.6844   2.7859
     2.9902   3.1504   3.1871   3.3799   3.4536   3.7640   3.9078   4.2249
     5.1117   5.1309   5.5352   5.7196   5.8828   6.1873   6.3737   6.5174
     7.9901   8.2288   9.1328   9.1562   9.3569   9.4933   9.8890  10.1312
    10.7881  11.1188  11.2810  11.3406  11.3646  11.5763

     occupation numbers 
     1.0000   1.0000   1.0000   1.0000   1.0000   1.0000   1.0000   1.0000
     1.0000   1.0000   1.0000   1.0000   1.0000   1.0000   1.0000   1.0000
     1.0000   1.0000   1.0000   1.0000   1.0000   1.0000   1.0000   1.0000
     1.0000   1.0000   1.0000   1.0000   1.0000   1.0000   1.0000   1.0000
     1.0000   1.0000   1.0000   1.0000   1.0000   1.0000   1.0000   1.0000
     1.0000   1.0000   1.0000   1.0000   1.0000   1.0000   1.0000   1.0000
     1.0000   1.0000   1.0000   1.0000   1.0000   1.0000   1.0000   1.0000
     1.0000   1.0000   1.0000   1.0000   1.0000   1.0000   1.0000   1.0000
     1.0000   1.0000   1.0000   1.0000   1.0000   1.0000   1.0000   1.0000
     0.0009   0.0000   0.0000   0.0000   0.0000   0.0000   0.0000   0.0000
     0.0000   0.0000   0.0000   0.0000   0.0000   0.0000

          k = 0.3536-0.7071 0.0000 (  8004 PWs)   bands (ev):

   -17.5826 -17.5777 -17.5257 -17.5206 -17.5190 -17.4875 -17.4804 -17.4762
   -17.4625 -17.4616 -17.4432 -17.4193 -17.4128 -17.4000 -17.3983 -17.1539
   -17.1329 -17.1224 -17.1125 -17.1096 -17.0900 -17.0890 -17.0863 -17.0798
   -17.0741 -17.0697 -17.0246 -17.0189 -17.0029 -16.9952 -16.9927 -16.9924
   -16.9838 -16.9784 -16.9705 -16.6823 -16.6739 -16.6707 -16.6624 -16.6551
    -4.5784  -4.2916  -4.0021  -3.7151  -2.7212  -2.4265  -1.9392  -1.7816
    -0.1257   0.1034   0.4264   0.6278   1.9650   2.3078   2.4069   2.5282
     2.9015   3.0447   3.1453   3.4790   3.9524   4.1329   4.2425   4.4174
     4.6913   4.7838   5.1023   5.2908   5.7819   6.0939   6.1497   6.3660
     8.8342   9.0196   9.2227   9.4777   9.6573   9.8478  10.0503  10.1903
    10.3849  10.5453  10.6280  10.8102  11.1874  11.4177

     occupation numbers 
     1.0000   1.0000   1.0000   1.0000   1.0000   1.0000   1.0000   1.0000
     1.0000   1.0000   1.0000   1.0000   1.0000   1.0000   1.0000   1.0000
     1.0000   1.0000   1.0000   1.0000   1.0000   1.0000   1.0000   1.0000
     1.0000   1.0000   1.0000   1.0000   1.0000   1.0000   1.0000   1.0000
     1.0000   1.0000   1.0000   1.0000   1.0000   1.0000   1.0000   1.0000
     1.0000   1.0000   1.0000   1.0000   1.0000   1.0000   1.0000   1.0000
     1.0000   1.0000   1.0000   1.0000   1.0000   1.0000   1.0000   1.0000
     1.0000   1.0000   1.0000   1.0000   1.0000   1.0000   1.0000   1.0000
     1.0000   1.0000   1.0000   1.0000   1.0000   1.0000   1.0000   1.0000
     0.0000   0.0000   0.0000   0.0000   0.0000   0.0000   0.0000   0.0000
     0.0000   0.0000   0.0000   0.0000   0.0000   0.0000

          k = 0.7071-0.0000 0.3536 (  8004 PWs)   bands (ev):

   -17.5825 -17.5778 -17.5257 -17.5207 -17.5190 -17.4875 -17.4804 -17.4762
   -17.4627 -17.4614 -17.4432 -17.4193 -17.4129 -17.3999 -17.3982 -17.1539
   -17.1328 -17.1225 -17.1127 -17.1095 -17.0898 -17.0891 -17.0863 -17.0797
   -17.0740 -17.0697 -17.0246 -17.0189 -17.0029 -16.9951 -16.9928 -16.9925
   -16.9837 -16.9784 -16.9705 -16.6825 -16.6736 -16.6708 -16.6624 -16.6551
    -4.5968  -4.2966  -4.0346  -3.6520  -2.5668  -2.3498  -2.1462  -1.8207
    -0.4487   0.2631   0.4213   0.7497   1.8937   2.3426   2.5387   2.6759
     2.9024   3.0438   3.2493   3.4534   3.9870   4.1929   4.2847   4.4381
     4.6879   4.7280   4.9255   5.1206   5.4875   5.9609   6.2506   6.5542
     8.8274   8.9409   9.2706   9.4041   9.6371   9.7945   9.9919  10.1900
    10.4044  10.5640  10.7122  10.8665  11.2027  11.3633

     occupation numbers 
     1.0000   1.0000   1.0000   1.0000   1.0000   1.0000   1.0000   1.0000
     1.0000   1.0000   1.0000   1.0000   1.0000   1.0000   1.0000   1.0000
     1.0000   1.0000   1.0000   1.0000   1.0000   1.0000   1.0000   1.0000
     1.0000   1.0000   1.0000   1.0000   1.0000   1.0000   1.0000   1.0000
     1.0000   1.0000   1.0000   1.0000   1.0000   1.0000   1.0000   1.0000
     1.0000   1.0000   1.0000   1.0000   1.0000   1.0000   1.0000   1.0000
     1.0000   1.0000   1.0000   1.0000   1.0000   1.0000   1.0000   1.0000
     1.0000   1.0000   1.0000   1.0000   1.0000   1.0000   1.0000   1.0000
     1.0000   1.0000   1.0000   1.0000   1.0000   1.0000   1.0000   1.0000
     0.0000   0.0000   0.0000   0.0000   0.0000   0.0000   0.0000   0.0000
     0.0000   0.0000   0.0000   0.0000   0.0000   0.0000

     the Fermi energy is     7.5374 ev

!    total energy              =   -1781.51089057 Ry
     Harris-Foulkes estimate   =   -1781.51089055 Ry
     estimated scf accuracy    <          8.7E-10 Ry

     The total energy is the sum of the following terms:

     one-electron contribution =   -1190.84670605 Ry
     hartree contribution      =     710.46717661 Ry
     xc contribution           =    -495.22112172 Ry
     ewald contribution        =    -805.90640046 Ry
     smearing contrib. (-TS)   =      -0.00383896 Ry

     convergence has been achieved in  12 iterations

     Forces acting on atoms (Ry/au):

     atom    1 type  1   force =  -0.10763190E+00  0.53795015E-01  0.29570910E-01
     atom    2 type  2   force =  -0.10371375E+00  0.20823860E+00 -0.16160943E+00
     atom    3 type  1   force =  -0.10861540E+00 -0.13481244E+00 -0.99652712E-01
     atom    4 type  2   force =   0.10194989E+00  0.10730341E+00  0.11037360E+00
     atom    5 type  1   force =   0.21959508E+00 -0.21018650E+00  0.17076661E+00
     atom    6 type  2   force =  -0.49872527E-01  0.25637497E-02  0.16293296E-01
     atom    7 type  1   force =  -0.11393406E+00 -0.13434506E+00 -0.11827215E+00
     atom    8 type  2   force =   0.14995654E+00  0.13359130E+00  0.93938212E-01
     atom    9 type  1   force =  -0.10028992E+00 -0.11554518E-02 -0.21090568E-01
     atom   10 type  2   force =   0.15583607E+00 -0.78041838E-01 -0.72852240E-01
     atom   11 type  1   force =  -0.69368951E-01 -0.13260383E+00 -0.25866555E-01
     atom   12 type  2   force =   0.13855751E+00  0.10672335E+00  0.12734997E+00
     atom   13 type  1   force =   0.32744787E-01  0.62858744E-01 -0.41879403E-01
     atom   14 type  2   force =  -0.24845961E-01 -0.31042802E-01  0.99460898E-02
     atom   15 type  1   force =  -0.60624214E-01  0.67137062E-01  0.28190644E-01
     atom   16 type  2   force =  -0.59743201E-01 -0.20023301E-01 -0.45206275E-01
     The non-local contrib.  to forces
     atom    1 type  1   force =  -0.96864852E-01  0.66278196E-01  0.64117708E-01
     atom    2 type  2   force =  -0.94003500E-01  0.36420844E-01 -0.12143113E+00
     atom    3 type  1   force =  -0.94683613E-01 -0.10435786E+00 -0.71031597E-01
     atom    4 type  2   force =   0.45032331E-02  0.33144305E-01  0.63642909E-01
     atom    5 type  1   force =   0.18853276E+00 -0.18797128E+00  0.18197425E+00
     atom    6 type  2   force =   0.23717095E-01  0.16279457E-01 -0.15206008E-01
     atom    7 type  1   force =  -0.10766445E+00 -0.93555677E-01 -0.13508603E+00
     atom    8 type  2   force =   0.13075441E+00 -0.60558163E-03  0.14082609E-01
     atom    9 type  1   force =  -0.38280323E-01 -0.12398836E-01 -0.24497978E-01
     atom   10 type  2   force =   0.38860762E-01 -0.11760872E-01 -0.67865870E-01
     atom   11 type  1   force =  -0.42630315E-01 -0.16077782E+00 -0.39649769E-01
     atom   12 type  2   force =   0.36858797E-01  0.83672444E-01  0.81463790E-01
     atom   13 type  1   force =   0.92725119E-02  0.40841887E-01 -0.60573497E-01
     atom   14 type  2   force =  -0.53170807E-01  0.20211674E-01  0.43741892E-01
     atom   15 type  1   force =  -0.16932206E-01  0.76079405E-01  0.11117318E-01
     atom   16 type  2   force =  -0.13625677E+00 -0.42823715E-01  0.12618636E-01
     The ionic contribution  to forces
     atom    1 type  1   force =  -0.10691413E+01  0.12486269E+01  0.11869276E+01
     atom    2 type  2   force =  -0.79688990E+00  0.36502590E+01 -0.66001472E+00
     atom    3 type  1   force =  -0.10433573E+01 -0.45361998E+00 -0.76326139E+00
     atom    4 type  2   force =  -0.12641797E+01  0.17327050E+00  0.11660896E+01
     atom    5 type  1   force =   0.15225647E+01 -0.15263302E+01  0.18109616E+01
     atom    6 type  2   force =  -0.30353516E+01  0.17291080E+00  0.59371822E+00
     atom    7 type  1   force =  -0.17779232E+01 -0.87665080E+00 -0.10107863E+01
     atom    8 type  2   force =   0.18710182E+01  0.27028907E+01  0.25210810E+01
     atom    9 type  1   force =  -0.51051942E+00 -0.39038880E+00  0.27754205E+00
     atom   10 type  2   force =   0.33199920E+01 -0.26782874E+01 -0.22158979E+01
     atom   11 type  1   force =  -0.41228970E+00 -0.29105946E+01 -0.94176672E+00
     atom   12 type  2   force =   0.31660714E+01  0.75496054E+00  0.26576493E+01
     atom   13 type  1   force =   0.68334553E+00  0.39660179E+00 -0.12902495E+01
     atom   14 type  2   force =   0.45413925E+00 -0.25303703E+00 -0.53024153E-02
     atom   15 type  1   force =   0.35293774E+00  0.16484624E+01  0.22771762E+00
     atom   16 type  2   force =  -0.14604167E+01 -0.16590739E+01 -0.35544082E+01
     The local contribution  to forces
     atom    1 type  1   force =   0.10493505E+01 -0.12541175E+01 -0.12144438E+01
     atom    2 type  2   force =   0.77719004E+00 -0.34569816E+01  0.60110747E+00
     atom    3 type  1   force =   0.10200126E+01  0.41378054E+00  0.72745946E+00
     atom    4 type  2   force =   0.13715421E+01 -0.93575577E-01 -0.11101322E+01
     atom    5 type  1   force =  -0.14745783E+01  0.14866373E+01 -0.18054684E+01
     atom    6 type  2   force =   0.29589670E+01 -0.19039628E+00 -0.56332394E+00
     atom    7 type  1   force =   0.17609968E+01  0.82706606E+00  0.10151541E+01
     atom    8 type  2   force =  -0.18366633E+01 -0.25609152E+01 -0.24352388E+01
     atom    9 type  1   force =   0.44441083E+00  0.40007147E+00 -0.27578414E+00
     atom   10 type  2   force =  -0.31889175E+01  0.26085915E+01  0.22033651E+01
     atom   11 type  1   force =   0.38143157E+00  0.29221220E+01  0.95098927E+00
     atom   12 type  2   force =  -0.30554917E+01 -0.72222009E+00 -0.25980735E+01
     atom   13 type  1   force =  -0.65827275E+00 -0.37054147E+00  0.13028189E+01
     atom   14 type  2   force =  -0.42829822E+00  0.20187793E+00 -0.23366561E-01
     atom   15 type  1   force =  -0.39762010E+00 -0.16491924E+01 -0.20944656E+00
     atom   16 type  2   force =   0.15256834E+01  0.16807468E+01  0.34954971E+01
     The core correction contribution to forces
     atom    1 type  1   force =   0.90264498E-02 -0.69839102E-02 -0.70254701E-02
     atom    2 type  2   force =   0.10016275E-01 -0.21522093E-01  0.18798619E-01
     atom    3 type  1   force =   0.94095010E-02  0.93883992E-02  0.71789739E-02
     atom    4 type  2   force =  -0.99205686E-02 -0.55286221E-02 -0.92215276E-02
     atom    5 type  1   force =  -0.16922499E-01  0.17478302E-01 -0.16697634E-01
     atom    6 type  2   force =   0.27704162E-02  0.38046418E-02  0.11160528E-02
     atom    7 type  1   force =   0.10659716E-01  0.87997846E-02  0.12450000E-01
     atom    8 type  2   force =  -0.15196441E-01 -0.77595927E-02 -0.60127390E-02
     atom    9 type  1   force =   0.40997428E-02  0.15617296E-02  0.16483599E-02
     atom   10 type  2   force =  -0.14098603E-01  0.34019375E-02  0.75749883E-02
     atom   11 type  1   force =   0.41207186E-02  0.16651498E-01  0.45621322E-02
     atom   12 type  2   force =  -0.88723077E-02 -0.97235910E-02 -0.13723746E-01
     atom   13 type  1   force =  -0.15971173E-02 -0.40391977E-02  0.61271052E-02
     atom   14 type  2   force =   0.24683845E-02 -0.10097763E-03 -0.51611791E-02
     atom   15 type  1   force =   0.99224829E-03 -0.82082458E-02 -0.11965690E-02
     atom   16 type  2   force =   0.11290556E-01  0.11458291E-02  0.10524914E-02
     The Hubbard contrib.    to forces
     atom    1 type  1   force =   0.00000000E+00  0.00000000E+00  0.00000000E+00
     atom    2 type  2   force =   0.00000000E+00  0.00000000E+00  0.00000000E+00
     atom    3 type  1   force =   0.00000000E+00  0.00000000E+00  0.00000000E+00
     atom    4 type  2   force =   0.00000000E+00  0.00000000E+00  0.00000000E+00
     atom    5 type  1   force =   0.00000000E+00  0.00000000E+00  0.00000000E+00
     atom    6 type  2   force =   0.00000000E+00  0.00000000E+00  0.00000000E+00
     atom    7 type  1   force =   0.00000000E+00  0.00000000E+00  0.00000000E+00
     atom    8 type  2   force =   0.00000000E+00  0.00000000E+00  0.00000000E+00
     atom    9 type  1   force =   0.00000000E+00  0.00000000E+00  0.00000000E+00
     atom   10 type  2   force =   0.00000000E+00  0.00000000E+00  0.00000000E+00
     atom   11 type  1   force =   0.00000000E+00  0.00000000E+00  0.00000000E+00
     atom   12 type  2   force =   0.00000000E+00  0.00000000E+00  0.00000000E+00
     atom   13 type  1   force =   0.00000000E+00  0.00000000E+00  0.00000000E+00
     atom   14 type  2   force =   0.00000000E+00  0.00000000E+00  0.00000000E+00
     atom   15 type  1   force =   0.00000000E+00  0.00000000E+00  0.00000000E+00
     atom   16 type  2   force =   0.00000000E+00  0.00000000E+00  0.00000000E+00
     The SCF correction term to forces
     atom    1 type  1   force =  -0.14189889E-05 -0.48101402E-05 -0.35275180E-05
     atom    2 type  2   force =  -0.25312791E-04  0.66328468E-04 -0.68021239E-04
     atom    3 type  1   force =   0.47280937E-05  0.36574692E-06  0.34873474E-05
     atom    4 type  2   force =   0.60906351E-05 -0.32971999E-05 -0.36212108E-05
     atom    5 type  1   force =  -0.19608234E-06  0.32064006E-05 -0.15494178E-05
     atom    6 type  2   force =   0.25890320E-04 -0.30968037E-04 -0.93893533E-05
     atom    7 type  1   force =  -0.15239550E-05 -0.52594718E-06 -0.23245470E-05
     atom    8 type  2   force =   0.45033109E-04 -0.15124763E-04  0.27764127E-04
     atom    9 type  1   force =   0.61124792E-06  0.28847615E-05  0.27799980E-05
     atom   10 type  2   force =   0.81765977E-06  0.16848565E-04 -0.26865916E-04
     atom   11 type  1   force =   0.13300417E-06 -0.93992693E-06  0.17656751E-06
     atom   12 type  2   force =  -0.72728614E-05  0.37955214E-04  0.35772009E-04
     atom   13 type  1   force =  -0.20256622E-05 -0.36365020E-06 -0.74698049E-06
     atom   14 type  2   force =   0.16780328E-04  0.95042415E-05  0.35997970E-04
     atom   15 type  1   force =  -0.54488725E-06 -0.16332025E-06  0.48674420E-06
     atom   16 type  2   force =  -0.42262344E-04 -0.14379352E-04  0.35317289E-04

     Total force =     0.726351     Total SCF correction =     0.000153


     entering subroutine stress ...

          total   stress  (Ry/bohr**3)                   (kbar)     P=   41.83
   0.0002037228   0.0000082799   0.0003106135         29.97      1.22     45.69
   0.0000082799   0.0003301553   0.0002119788          1.22     48.57     31.18
   0.0003106135   0.0002119788   0.0003191170         45.69     31.18     46.94

     kinetic stress (kbar)   6428.91     -3.15    -15.19
                               -3.15   6422.93    -26.61
                              -15.19    -26.61   6420.62

     local   stress (kbar)  -1013.88    -52.76  -1004.09
                              -52.76  -1186.39   -929.80
                            -1004.09   -929.80  -1386.66

     nonloc. stress (kbar)   2515.99      0.34     21.52
                                0.34   2529.93     26.49
                               21.52     26.49   2526.83

     hartree stress (kbar)  15174.87     10.64    273.12
                               10.64  15165.94    186.56
                              273.12    186.56  15257.65

     exc-cor stress (kbar)  10937.60      0.03      0.71
                                0.03  10937.93      0.87
                                0.71      0.87  10937.93

     corecor stress (kbar) -16606.20     -0.14     -2.11
                               -0.14 -16607.48     -2.44
                               -2.11     -2.44 -16607.21

     ewald   stress (kbar) -17407.32     46.25    771.73
                               46.25 -17214.30    776.12
                              771.73    776.12 -17102.22

     hubbard stress (kbar)      0.00      0.00      0.00
                                0.00      0.00      0.00
                                0.00      0.00      0.00

     london  stress (kbar)      0.00      0.00      0.00
                                0.00      0.00      0.00
                                0.00      0.00      0.00

     XDM     stress (kbar)      0.00      0.00      0.00
                                0.00      0.00      0.00
                                0.00      0.00      0.00

     dft-nl  stress (kbar)      0.00      0.00      0.00
                                0.00      0.00      0.00
                                0.00      0.00      0.00



     Writing output data file SiGe_zns.scf.in.super.222.largedist.a.033.save

     init_run     :     27.39s CPU     26.01s WALL (       1 calls)
     electrons    :   1043.07s CPU   1055.04s WALL (       1 calls)
     forces       :     11.32s CPU      8.11s WALL (       1 calls)
     stress       :     29.49s CPU     28.88s WALL (       1 calls)

     Called by init_run:
     wfcinit      :     25.81s CPU     24.42s WALL (       1 calls)
     potinit      :      0.20s CPU      0.20s WALL (       1 calls)

     Called by electrons:
     c_bands      :    890.09s CPU    903.71s WALL (      13 calls)
     sum_band     :    139.96s CPU    138.20s WALL (      13 calls)
     v_of_rho     :      1.46s CPU      1.47s WALL (      13 calls)
     v_h          :      0.10s CPU      0.10s WALL (      13 calls)
     v_xc         :      1.52s CPU      1.53s WALL (      15 calls)
     newd         :      9.99s CPU     10.05s WALL (      13 calls)
     mix_rho      :      2.26s CPU      2.30s WALL (      13 calls)

     Called by c_bands:
     init_us_2    :      6.57s CPU      6.82s WALL (    1044 calls)
     cegterg      :    862.30s CPU    874.82s WALL (     468 calls)

     Called by sum_band:
     sum_band:bec :      1.15s CPU      1.12s WALL (     468 calls)
     addusdens    :     10.19s CPU     10.35s WALL (      13 calls)

     Called by *egterg:
     h_psi        :    513.63s CPU    503.23s WALL (    1837 calls)
     s_psi        :     51.50s CPU     38.88s WALL (    1837 calls)
     g_psi        :      1.52s CPU      1.51s WALL (    1333 calls)
     cdiaghg      :    142.60s CPU    183.45s WALL (    1765 calls)
     cegterg:over :     75.88s CPU     72.33s WALL (    1333 calls)
     cegterg:upda :     28.99s CPU     24.97s WALL (    1333 calls)
     cegterg:last :     14.96s CPU     10.77s WALL (     468 calls)

     Called by h_psi:
     h_psi:vloc   :    385.67s CPU    395.33s WALL (    1837 calls)
     h_psi:vnl    :    126.56s CPU    106.43s WALL (    1837 calls)
     add_vuspsi   :     51.96s CPU     40.99s WALL (    1837 calls)

     General routines
     calbec       :    110.46s CPU     95.17s WALL (    2377 calls)
     fft          :      1.74s CPU      1.73s WALL (     233 calls)
     ffts         :      1.14s CPU      1.11s WALL (     375 calls)
     fftw         :    412.00s CPU    422.21s WALL (  236010 calls)
     interpolate  :      0.26s CPU      0.27s WALL (      26 calls)

     Parallel routines
     fft_scatter  :    212.93s CPU    218.67s WALL (  236618 calls)

     PWSCF        : 18m33.85s CPU    18m42.00s WALL


   This run was terminated on:  17:44:51  27Sep2017            

=------------------------------------------------------------------------------=
   JOB DONE.
=------------------------------------------------------------------------------=
