
     Program PWSCF v.5.1 starts on  4Feb2017 at 13: 8:59 

     This program is part of the open-source Quantum ESPRESSO suite
     for quantum simulation of materials; please cite
         "P. Giannozzi et al., J. Phys.:Condens. Matter 21 395502 (2009);
          URL http://www.quantum-espresso.org", 
     in publications or presentations arising from this work. More details at
     http://www.quantum-espresso.org/quote

     Parallel version (MPI), running on    16 processors
     R & G space division:  proc/nbgrp/npool/nimage =      16
     Reading input from /tmp/SiGe_zns.scf.in.super.444.c.06.3410/SiGe_zns.scf.in.super.444.c.06.t
Warning: card &IONS ignored
Warning: card   ION_DYNAMICS='BFGS', ignored
Warning: card / ignored
Warning: card &CELL ignored
Warning: card  CELL_DYNAMICS = 'BFGS' ignored
Warning: card / ignored
     Message from routine read_cards :
     DEPRECATED: no units specified in CELL_PARAMETERS card

     Current dimensions of program PWSCF are:
     Max number of different atomic species (ntypx) = 10
     Max number of k-points (npk) =  40000
     Max angular momentum in pseudopotentials (lmaxx) =  3

     Subspace diagonalization in iterative solution of the eigenvalue problem:
     a serial algorithm will be used


     Parallelization info
     --------------------
     sticks:   dense  smooth     PW     G-vecs:    dense   smooth      PW
     Min         756     528    139                54833    32100    4328
     Max         757     529    140                54835    32128    4330
     Sum       12109    8463   2229               877343   513795   69263



     bravais-lattice index     =            0
     lattice parameter (alat)  =    29.609642074  a.u.
     unit-cell volume          =   18365.6395 (a.u.)^3
     number of atoms/cell      =          128
     number of atomic types    =            2
     number of electrons       =      1092.00
     number of Kohn-Sham states=          655
     kinetic-energy cutoff     =      35.0000  Ry
     charge density cutoff     =     200.0000  Ry
     convergence threshold     =      1.0E-09
     mixing beta               =       0.3000
     number of iterations used =            8  local-TF  mixing
     Exchange-correlation      = SLA  PW   PSX  PSC ( 1  4 10  8 0)
     A smooth kinetic-energy cutoff is imposed at      34.5000 Ry
     height of the smooth step-function =             800.0000 Ry
     width of the smooth step-function  =               1.0000 Ry


     celldm(1)=  29.609642  celldm(2)=   0.000000  celldm(3)=   0.000000
     celldm(4)=   0.000000  celldm(5)=   0.000000  celldm(6)=   0.000000

     crystal axes: (cart. coord. in units of alat)
               a(1) = (  -0.000645944339   0.707837838378   0.706374672052 )  
               a(2) = (   0.708322650972  -0.000237952768   0.706587901404 )  
               a(3) = (   0.707977500167   0.706003572977   0.000620186007 )  

     reciprocal axes: (cart. coord. in units 2 pi/alat)
               b(1) = ( -0.705126  0.706476  0.707095 )  
               b(2) = (  0.704292 -0.706884  0.708993 )  
               b(3) = (  0.707195  0.707873 -0.708693 )  


     PseudoPot. # 1 for Si read from file:
     /users/kfg/psuedo/gbrv_1.5/si.pbesol.UPF
     MD5 check sum: ef58ba74faed4df802eb8a9742fc00a8
     Pseudo is Ultrasoft + core correction, Zval =  4.0
     Generated by new atomic code, or converted to UPF format
     Using radial grid of  899 points,  6 beta functions with: 
                l(1) =   0
                l(2) =   0
                l(3) =   1
                l(4) =   1
                l(5) =   2
                l(6) =   2
     Q(r) pseudized with  8 coefficients,  rinner =    0.900   0.900   0.900
                                                       0.900   0.900

     PseudoPot. # 2 for Ge read from file:
     /users/kfg/psuedo/gbrv_1.5/ge.pbesol.UPF
     MD5 check sum: 7bed0412183f5e553a4d27ec7023354d
     Pseudo is Ultrasoft + core correction, Zval = 14.0
     Generated by new atomic code, or converted to UPF format
     Using radial grid of  873 points,  6 beta functions with: 
                l(1) =   0
                l(2) =   0
                l(3) =   1
                l(4) =   1
                l(5) =   2
                l(6) =   2
     Q(r) pseudized with  8 coefficients,  rinner =    1.400   1.400   1.400
                                                       1.400   1.400

     atomic species   valence    mass     pseudopotential
        Si             4.00    28.08550     Si( 1.00)
        Ge            14.00    72.64000     Ge( 1.00)

     No symmetry found


                                    s                        frac. trans.

      isym =  1     identity                                     

 cryst.   s( 1) = (     1          0          0      )
                  (     0          1          0      )
                  (     0          0          1      )

 cart.    s( 1) = (  1.0000000  0.0000000  0.0000000 )
                  ( -0.0000000  1.0000000 -0.0000000 )
                  ( -0.0000000  0.0000000  1.0000000 )


     point group C_1 (1)    
     there are  1 classes
     the character table:

       E    
A      1.00

     the symmetry operations in each class:
     E        1

   Cartesian axes

     site n.     atom                  positions (alat units)
         1           Ge  tau(   1) = (    0.00088072117    0.00150772411   -0.00349464331  )
         2           Si  tau(   2) = (    0.08610032002    0.08417070063    0.09462052312  )
         3           Si  tau(   3) = (    0.18027384148    0.17318703101   -0.00405347910  )
         4           Ge  tau(   4) = (    0.26746016385    0.25983252059    0.08901079346  )
         5           Si  tau(   5) = (    0.35342488147    0.35522014883   -0.00203570001  )
         6           Si  tau(   6) = (    0.44084501095    0.44671816407    0.09538320291  )
         7           Ge  tau(   7) = (    0.53640025972    0.53226588535    0.00278819100  )
         8           Si  tau(   8) = (    0.62067932519    0.62237687212    0.09337969000  )
         9           Ge  tau(   9) = (    0.18322651921   -0.00622707926    0.17160395057  )
        10           Ge  tau(  10) = (    0.26278624198    0.08995798100    0.25886487723  )
        11           Si  tau(  11) = (    0.34739047052    0.17126807004    0.17546378615  )
        12           Ge  tau(  12) = (    0.43724847868    0.25840848267    0.26347228073  )
        13           Si  tau(  13) = (    0.52602032486    0.35669403219    0.18092033482  )
        14           Si  tau(  14) = (    0.62174686134    0.44679781872    0.26708664705  )
        15           Ge  tau(  15) = (    0.70384318751    0.52960289483    0.17934317312  )
        16           Ge  tau(  16) = (    0.80022926417    0.61632683766    0.27091521672  )
        17           Si  tau(  17) = (    0.35116305261    0.00088872601    0.35784344126  )
        18           Ge  tau(  18) = (    0.43694575614    0.09232666078    0.43490460083  )
        19           Si  tau(  19) = (    0.53034926344    0.17868811987    0.34845341451  )
        20           Ge  tau(  20) = (    0.62133181021    0.26114182184    0.44132361161  )
        21           Ge  tau(  21) = (    0.70371044175    0.35656922328    0.35414634957  )
        22           Si  tau(  22) = (    0.79108233719    0.43971132693    0.44262793689  )
        23           Ge  tau(  23) = (    0.88921998869    0.52309170994    0.35490117071  )
        24           Ge  tau(  24) = (    0.97029055635    0.61651644604    0.44692641888  )
        25           Ge  tau(  25) = (    0.52733593842    0.00189652002    0.53347660478  )
        26           Ge  tau(  26) = (    0.61521389476    0.08457851351    0.61999482754  )
        27           Ge  tau(  27) = (    0.71178030066    0.18155500683    0.53163933370  )
        28           Si  tau(  28) = (    0.79114767811    0.26499063484    0.61653877558  )
        29           Ge  tau(  29) = (    0.88493619357    0.34810624235    0.53217198886  )
        30           Si  tau(  30) = (    0.96887968927    0.44680241987    0.62327806086  )
        31           Si  tau(  31) = (    1.05696662864    0.52621016781    0.53256217876  )
        32           Ge  tau(  32) = (    1.15356229113    0.61731006857    0.62546396525  )
        33           Ge  tau(  33) = (    0.00073075028    0.17876650711    0.17899570956  )
        34           Si  tau(  34) = (    0.08400832073    0.26297830337    0.26804832834  )
        35           Ge  tau(  35) = (    0.17292861667    0.35817805528    0.18096019387  )
        36           Si  tau(  36) = (    0.26182941220    0.44277065205    0.27015368989  )
        37           Si  tau(  37) = (    0.35131664347    0.53510351055    0.18352947389  )
        38           Si  tau(  38) = (    0.43954076283    0.61772081487    0.27138212864  )
        39           Ge  tau(  39) = (    0.52786966657    0.71264094788    0.18184132465  )
        40           Ge  tau(  40) = (    0.62289838455    0.80090542774    0.26044938477  )
        41           Si  tau(  41) = (    0.17052532275    0.17149558759    0.35507853257  )
        42           Ge  tau(  42) = (    0.26383859443    0.27034843826    0.43676665064  )
        43           Si  tau(  43) = (    0.35626059822    0.35379780001    0.35827688609  )
        44           Si  tau(  44) = (    0.44703157938    0.44531136244    0.43602313518  )
        45           Ge  tau(  45) = (    0.52859478932    0.52635589947    0.35007627250  )
        46           Si  tau(  46) = (    0.61726203218    0.61213017349    0.43686164026  )
        47           Si  tau(  47) = (    0.70221805144    0.70152763483    0.35649399762  )
        48           Si  tau(  48) = (    0.79661556423    0.79119082158    0.44328934092  )
        49           Ge  tau(  49) = (    0.35545174051    0.18243216561    0.52876954027  )
        50           Si  tau(  50) = (    0.44113282184    0.25901232636    0.62109593271  )
        51           Ge  tau(  51) = (    0.52820393104    0.35447325443    0.52339409293  )
        52           Ge  tau(  52) = (    0.62234092340    0.44147327261    0.61796059193  )
        53           Si  tau(  53) = (    0.70190379324    0.53065438023    0.52857966131  )
        54           Ge  tau(  54) = (    0.80313150622    0.61536706638    0.62494209285  )
        55           Si  tau(  55) = (    0.89038867995    0.71036423610    0.52361217308  )
        56           Si  tau(  56) = (    0.97660196575    0.78886402076    0.61824763786  )
        57           Si  tau(  57) = (    0.53202821669    0.18060742621    0.70288036487  )
        58           Si  tau(  58) = (    0.62236477161    0.26659201873    0.80040427500  )
        59           Si  tau(  59) = (    0.70886042610    0.35970243245    0.70649616288  )
        60           Si  tau(  60) = (    0.79351362615    0.43650507515    0.80153947290  )
        61           Ge  tau(  61) = (    0.88243395140    0.53055604994    0.71351935610  )
        62           Ge  tau(  62) = (    0.96715268664    0.62178502131    0.79925228543  )
        63           Ge  tau(  63) = (    1.05728174794    0.70339233251    0.70796814266  )
        64           Si  tau(  64) = (    1.15537113571    0.79936352393    0.79046615002  )
        65           Si  tau(  65) = (   -0.00569868782    0.35224613918    0.35939592656  )
        66           Ge  tau(  66) = (    0.08141440378    0.44168817644    0.44041458274  )
        67           Si  tau(  67) = (    0.17273017718    0.53211956885    0.35422600372  )
        68           Si  tau(  68) = (    0.25924256344    0.62219861491    0.43748977271  )
        69           Si  tau(  69) = (    0.35708238804    0.70075736226    0.35667906939  )
        70           Ge  tau(  70) = (    0.44355574794    0.78889239568    0.44687401568  )
        71           Si  tau(  71) = (    0.52567258115    0.88478167938    0.35661554255  )
        72           Ge  tau(  72) = (    0.62167491394    0.97547354567    0.44445108992  )
        73           Si  tau(  73) = (    0.17210371870    0.35363140704    0.53049158695  )
        74           Ge  tau(  74) = (    0.25878753015    0.44300350145    0.61965552403  )
        75           Ge  tau(  75) = (    0.34958822580    0.52436463778    0.52703079653  )
        76           Ge  tau(  76) = (    0.44108197056    0.61379277303    0.61669604810  )
        77           Si  tau(  77) = (    0.53173408397    0.70496024791    0.52670985773  )
        78           Si  tau(  78) = (    0.61562170620    0.79372966770    0.62329510205  )
        79           Si  tau(  79) = (    0.70257275108    0.87978638378    0.52385815630  )
        80           Si  tau(  80) = (    0.78971746457    0.96542511153    0.61544652253  )
        81           Ge  tau(  81) = (    0.35918264647    0.35749405833    0.70869618268  )
        82           Ge  tau(  82) = (    0.43604446036    0.44414064769    0.79921923431  )
        83           Ge  tau(  83) = (    0.53294836737    0.53339121527    0.70310239619  )
        84           Si  tau(  84) = (    0.61625436913    0.61353004824    0.79883465541  )
        85           Ge  tau(  85) = (    0.71227888890    0.70956514461    0.70401177401  )
        86           Ge  tau(  86) = (    0.79072919231    0.79567153514    0.79032523106  )
        87           Ge  tau(  87) = (    0.88377479362    0.87862829507    0.70461159449  )
        88           Ge  tau(  88) = (    0.97096106929    0.96970042615    0.79248715253  )
        89           Ge  tau(  89) = (    0.52568058915    0.35458724574    0.88130415222  )
        90           Si  tau(  90) = (    0.61725835852    0.44247072933    0.96894692789  )
        91           Si  tau(  91) = (    0.70876788538    0.52538153844    0.88495752730  )
        92           Si  tau(  92) = (    0.79052870726    0.62295641158    0.96904629945  )
        93           Ge  tau(  93) = (    0.88683858909    0.70937839800    0.88615024492  )
        94           Si  tau(  94) = (    0.96691082231    0.80063033596    0.97583658816  )
        95           Si  tau(  95) = (    1.06656527390    0.87662373295    0.87807241455  )
        96           Si  tau(  96) = (    1.14536538163    0.97785294700    0.97062192622  )
        97           Si  tau(  97) = (    0.00267195083    0.53501935706    0.53630295139  )
        98           Si  tau(  98) = (    0.08821894901    0.61608193930    0.61792057361  )
        99           Si  tau(  99) = (    0.17870928153    0.70921668962    0.53253805980  )
       100           Si  tau( 100) = (    0.26220997837    0.80198334585    0.62286656951  )
       101           Si  tau( 101) = (    0.35171823687    0.88316068204    0.53089676772  )
       102           Si  tau( 102) = (    0.43888732888    0.97555491359    0.61357507439  )
       103           Ge  tau( 103) = (    0.52541026809    1.05793053066    0.53650307752  )
       104           Si  tau( 104) = (    0.62555176687    1.15380988559    0.61670558061  )
       105           Ge  tau( 105) = (    0.17896495479    0.53167175419    0.70222633577  )
       106           Si  tau( 106) = (    0.26976792327    0.62549302254    0.80050422378  )
       107           Ge  tau( 107) = (    0.35429214086    0.70989740651    0.70870104468  )
       108           Ge  tau( 108) = (    0.43555718553    0.79364190251    0.78986240188  )
       109           Ge  tau( 109) = (    0.53725785548    0.88319602602    0.70744766246  )
       110           Si  tau( 110) = (    0.61553251027    0.97067730951    0.80057047172  )
       111           Si  tau( 111) = (    0.70191874608    1.06643656166    0.70091641079  )
       112           Si  tau( 112) = (    0.79000318638    1.15407330466    0.79739234503  )
       113           Si  tau( 113) = (    0.35092733460    0.53114463664    0.87762979957  )
       114           Si  tau( 114) = (    0.44705408859    0.61675947139    0.97140553599  )
       115           Si  tau( 115) = (    0.52793474985    0.71377243889    0.88528671425  )
       116           Ge  tau( 116) = (    0.61693475296    0.79294506130    0.97722218024  )
       117           Si  tau( 117) = (    0.70763053144    0.88908304892    0.87931391168  )
       118           Ge  tau( 118) = (    0.79573832180    0.96923879825    0.97545867152  )
       119           Ge  tau( 119) = (    0.87927015538    1.05965126345    0.88651747300  )
       120           Si  tau( 120) = (    0.97736673981    1.15402595754    0.96857620451  )
       121           Si  tau( 121) = (    0.53099631095    0.53652988342    1.06419647202  )
       122           Si  tau( 122) = (    0.61634544325    0.62167001103    1.15346502640  )
       123           Ge  tau( 123) = (    0.70951370539    0.71014276556    1.05807887691  )
       124           Ge  tau( 124) = (    0.78949736478    0.79148879141    1.15426071515  )
       125           Si  tau( 125) = (    0.88196389227    0.88288800859    1.06201863915  )
       126           Ge  tau( 126) = (    0.97291378711    0.97434125537    1.14937781607  )
       127           Ge  tau( 127) = (    1.05815353978    1.05621887378    1.05418339070  )
       128           Si  tau( 128) = (    1.15440668381    1.14862108290    1.14420140366  )

   Crystallographic axes

     site n.     atom                  positions (cryst. coord.)
         1           Ge  tau(   1) = (   -0.00202689267   -0.00292317746    0.00416674925  )
         2           Si  tau(   2) = (    0.06565872602    0.06822609714    0.05341503353  )
         3           Si  tau(   3) = (   -0.00762942847    0.00166840696    0.25295598068  )
         4           Ge  tau(   4) = (    0.05791149179    0.06780660770    0.30999377138  )
         5           Si  tau(   5) = (    0.00030612015   -0.00362840368    0.50283400199  )
         6           Si  tau(   6) = (    0.07218950786    0.06233169195    0.56038601789  )
         7           Ge  tau(   7) = (   -0.00022500477    0.00350900601    0.75414064120  )
         8           Si  tau(   8) = (    0.06806570309    0.06339676432    0.81332800483  )
         9           Ge  tau(   9) = (   -0.01225675580    0.25511278594    0.00355440278  )
        10           Ge  tau(  10) = (    0.06129784007    0.30502172902    0.06606429901  )
        11           Si  tau(  11) = (    0.00011236355    0.24800026057    0.24255903762  )
        12           Ge  tau(  12) = (    0.06054414543    0.31208574684    0.30541956947  )
        13           Si  tau(  13) = (    0.00901315878    0.24660185063    0.49627632262  )
        14           Si  tau(  14) = (    0.06609784487    0.31141964041    0.56669028538  )
        15           Ge  tau(  15) = (    0.00466645102    0.24849637543    0.74554712579  )
        16           Ge  tau(  16) = (    0.06272066445    0.32000045613    0.81020400604  )
        17           Si  tau(  17) = (    0.00604299920    0.50040156533   -0.00463123088  )
        18           Ge  tau(  18) = (    0.06464367569    0.55081741562    0.06614766756  )
        19           Si  tau(  19) = (   -0.00133443407    0.49425998282    0.25460252639  )
        20           Ge  tau(  20) = (    0.05843104231    0.56589734618    0.31149527342  )
        21           Ge  tau(  21) = (    0.00611832546    0.49465182307    0.49908549797  )
        22           Si  tau(  22) = (    0.06581294110    0.56014812027    0.55702228829  )
        23           Ge  tau(  23) = (   -0.00651135145    0.50812780827    0.74761888112  )
        24           Ge  tau(  24) = (    0.06739663294    0.56442992622    0.80586683765  )
        25           Ge  tau(  25) = (    0.00672024444    0.74828899489   -0.00379922417  )
        26           Ge  tau(  26) = (    0.06434468145    0.81307494068    0.05556117308  )
        27           Ge  tau(  27) = (    0.00228907281    0.74989137221    0.25511648962  )
        28           Si  tau(  28) = (    0.06530233216    0.80700294634    0.31013894288  )
        29           Ge  tau(  29) = (   -0.00176650526    0.75448893722    0.49509122576  )
        30           Si  tau(  30) = (    0.07318990630    0.80843644813    0.55975383074  )
        31           Si  tau(  31) = (    0.00303246997    0.75002642886    0.74254885067  )
        32           Ge  tau(  32) = (    0.06497066356    0.81952760111    0.80950919409  )
        33           Ge  tau(  33) = (    0.25234596851    0.00105405132    0.00020783613  )
        34           Si  tau(  34) = (    0.31608708438    0.06331545490    0.05560166040  )
        35           Ge  tau(  35) = (    0.25906386349   -0.00309871136    0.24759380758  )
        36           Si  tau(  36) = (    0.31920853802    0.06295378563    0.30713406962  )
        37           Si  tau(  37) = (    0.26008819884   -0.00070561570    0.49716897707  )
        38           Si  tau(  38) = (    0.31836641610    0.06531596018    0.55578268469  )
        39           Ge  tau(  39) = (    0.25982838685   -0.00305598532    0.74889685724  )
        40           Ge  tau(  40) = (    0.31076129469    0.05721176868    0.82287181056  )
        41           Si  tau(  41) = (    0.25198996540    0.25062018149   -0.00964982233  )
        42           Ge  tau(  42) = (    0.31379080397    0.30437874483    0.06842438690  )
        43           Si  tau(  43) = (    0.25207693131    0.25483315137    0.24848153015  )
        44           Si  tau(  44) = (    0.30769809673    0.30919447081    0.32235613129  )
        45           Ge  tau(  45) = (    0.24666921268    0.24841401762    0.49831646955  )
        46           Si  tau(  46) = (    0.30611062279    0.31175937111    0.56023466607  )
        47           Si  tau(  47) = (    0.25253556149    0.25141952201    0.74055324202  )
        48           Si  tau(  48) = (    0.31069088800    0.31605872199    0.80926964670  )
        49           Ge  tau(  49) = (    0.25213602984    0.49627718101    0.00577735576  )
        50           Si  tau(  50) = (    0.31110566806    0.56794712346    0.05514859819  )
        51           Ge  tau(  51) = (    0.24806597404    0.49252092964    0.25353974847  )
        52           Ge  tau(  52) = (    0.31001847988    0.56436889076    0.31467936367  )
        53           Si  tau(  53) = (    0.25372016868    0.49399327065    0.49741843382  )
        54           Ge  tau(  54) = (    0.31032677325    0.57372535400    0.56068066608  )
        55           Si  tau(  55) = (    0.24426284911    0.49618574575    0.76144631322  )
        56           Si  tau(  56) = (    0.30584611812    0.56851067885    0.81091635543  )
        57           Si  tau(  57) = (    0.24945113754    0.74537180262    0.00596857534  )
        58           Si  tau(  58) = (    0.31545722645    0.81735771570    0.06160584967  )
        59           Si  tau(  59) = (    0.25384524363    0.74587749994    0.25523758580  )
        60           Si  tau(  60) = (    0.31561796437    0.81859251883    0.30211394392  )
        61           Ge  tau(  61) = (    0.25712413914    0.75232965720    0.49395341237  )
        62           Ge  tau(  62) = (    0.32245918397    0.80829209600    0.55768633470  )
        63           Ge  tau(  63) = (    0.25201391948    0.74936259827    0.74388526844  )
        64           Si  tau(  64) = (    0.30898384008    0.80909614881    0.82272331100  )
        65           Si  tau(  65) = (    0.50699883978    0.00179823106   -0.00938578215  )
        66           Ge  tau(  66) = (    0.56604969697    0.05736776780    0.05811646698  )
        67           Si  tau(  67) = (    0.50460470164   -0.00335082537    0.24778978033  )
        68           Si  tau(  68) = (    0.56611667115    0.05293711595    0.31372703927  )
        69           Si  tau(  69) = (    0.49548632628    0.00901882247    0.49579853640  )
        70           Ge  tau(  70) = (    0.56055341600    0.07156762304    0.55542000371  )
        71           Si  tau(  71) = (    0.50657289998   -0.00237333571    0.74533567290  )
        72           Ge  tau(  72) = (    0.56505888703    0.06340646625    0.81517798818  )
        73           Si  tau(  73) = (    0.50358529864    0.24734943326   -0.00391848542  )
        74           Ge  tau(  74) = (    0.56864892627    0.30844101639    0.05745816399  )
        75           Ge  tau(  75) = (    0.49660823767    0.24920809812    0.24490787679  )
        76           Ge  tau(  76) = (    0.55867432541    0.31400309434    0.30937047976  )
        77           Si  tau(  77) = (    0.49553204689    0.24960428713    0.50178685007  )
        78           Si  tau(  78) = (    0.56738913332    0.31441420848    0.55550000141  )
        79           Si  tau(  79) = (    0.49656336330    0.24432096690    0.74837890792  )
        80           Si  tau(  80) = (    0.56037876391    0.31009512034    0.80572057760  )
        81           Ge  tau(  81) = (    0.50040754706    0.50272297727    0.00482474362  )
        82           Ge  tau(  82) = (    0.57143243773    0.55978722150    0.05636281547  )
        83           Ge  tau(  83) = (    0.49819265858    0.49679995271    0.25618824405  )
        84           Si  tau(  84) = (    0.56375941514    0.56669630948    0.30398521712  )
        85           Ge  tau(  85) = (    0.49684777292    0.49921122377    0.50707431721  )
        86           Ge  tau(  86) = (    0.56339435796    0.55479151582    0.56233667934  )
        87           Ge  tau(  87) = (    0.49578479580    0.50091165825    0.74760563605  )
        88           Ge  tau(  88) = (    0.56078415204    0.56024194268    0.81145410196  )
        89           Ge  tau(  89) = (    0.50300216920    0.74441875230   -0.00181243544  )
        90           Si  tau(  90) = (    0.56248766693    0.80893089605    0.06304948601  )
        91           Si  tau(  91) = (    0.49714796594    0.75522414542    0.24597765677  )
        92           Si  tau(  92) = (    0.56788936524    0.80345183489    0.31327605540  )
        93           Ge  tau(  93) = (    0.50241847245    0.75141911563    0.50130963681  )
        94           Si  tau(  94) = (    0.57384155030    0.80689576497    0.55897107552  )
        95           Si  tau(  95) = (    0.48813159314    0.75404902089    0.75252473162  )
        96           Si  tau(  96) = (    0.56952491941    0.80360690723    0.81432007094  )
        97           Si  tau(  97) = (    0.75531147280    0.00391985442    0.00054142727  )
        98           Si  tau(  98) = (    0.80997026339    0.06473437124    0.06058006541  )
        99           Si  tau(  99) = (    0.75158713039    0.00209495933    0.25101201351  )
       100           Si  tau( 100) = (    0.82211689493    0.05937081005    0.31171517528  )
       101           Si  tau( 101) = (    0.75132078142   -0.00017809892    0.49765663413  )
       102           Si  tau( 102) = (    0.81359133670    0.05452069852    0.56611208377  )
       103           Ge  tau( 103) = (    0.75628096829    0.00258463903    0.74023259921  )
       104           Si  tau( 104) = (    0.81011587263    0.06220089798    0.82208368423  )
       105           Ge  tau( 105) = (    0.74596129982    0.24808648273    0.00525656416  )
       106           Si  tau( 106) = (    0.81770806727    0.31539582888    0.06623672015  )
       107           Ge  tau( 107) = (    0.75282398036    0.25017368285    0.25081974635  )
       108           Ge  tau( 108) = (    0.81207417261    0.30575316131    0.31005201497  )
       109           Ge  tau( 109) = (    0.74535521147    0.25564432318    0.50377398812  )
       110           Si  tau( 110) = (    0.81781183846    0.31495679710    0.55505964193  )
       111           Si  tau( 111) = (    0.75408541956    0.23745326130    0.75456115433  )
       112           Si  tau( 112) = (    0.82210571926    0.30594214092    0.81051795076  )
       113           Si  tau( 113) = (    0.74836068374    0.49393063462    0.00218718454  )
       114           Si  tau( 114) = (    0.80737241388    0.56759848927    0.06431382298  )
       115           Si  tau( 115) = (    0.75798453704    0.49492757170    0.25121696099  )
       116           Ge  tau( 116) = (    0.81616900800    0.56682527096    0.30504751082  )
       117           Si  tau( 117) = (    0.75090582766    0.49332694474    0.50662757704  )
       118           Ge  tau( 118) = (    0.81339034701    0.56688566646    0.55753999036  )
       119           Ge  tau( 119) = (    0.75547427400    0.49874669659    0.74364590300  )
       120           Si  tau( 120) = (    0.81100062297    0.55930241129    0.82167022861  )
       121           Si  tau( 121) = (    0.75711428970    0.74921947485    0.00112466859  )
       122           Si  tau( 122) = (    0.82020322470    0.81243673746    0.05848760059  )
       123           Ge  tau( 123) = (    0.74956470517    0.74788635920    0.25460277177  )
       124           Ge  tau( 124) = (    0.81864487931    0.81490821814    0.30058612651  )
       125           Si  tau( 125) = (    0.75279180562    0.75002406776    0.49604841655  )
       126           Ge  tau( 126) = (    0.81504145537    0.81136952529    0.56319423336  )
       127           Ge  tau( 127) = (    0.74546979341    0.74603308767    0.74889800492  )
       128           Si  tau( 128) = (    0.80653045381    0.81232787144    0.81858170082  )

     number of k points=     8  gaussian smearing, width (Ry)=  0.0150
                       cart. coord. in units 2pi/alat
        k(    1) = (   0.0000000   0.0000000   0.0000000), wk =   0.2500000
        k(    2) = (  -0.3535976  -0.3539367   0.3543465), wk =   0.2500000
        k(    3) = (  -0.3521462   0.3534422  -0.3544963), wk =   0.2500000
        k(    4) = (  -0.7057438  -0.0004946  -0.0001497), wk =   0.2500000
        k(    5) = (   0.3525629  -0.3532381  -0.3535475), wk =   0.2500000
        k(    6) = (  -0.0010347  -0.7071748   0.0007991), wk =   0.2500000
        k(    7) = (   0.0004168   0.0002041  -0.7080438), wk =   0.2500000
        k(    8) = (  -0.3531809  -0.3537327  -0.3536972), wk =   0.2500000

                       cryst. coord.
        k(    1) = (   0.0000000   0.0000000   0.0000000), wk =   0.2500000
        k(    2) = (   0.0000000  -0.0000000  -0.5000000), wk =   0.2500000
        k(    3) = (  -0.0000000  -0.5000000   0.0000000), wk =   0.2500000
        k(    4) = (  -0.0000000  -0.5000000  -0.5000000), wk =   0.2500000
        k(    5) = (  -0.5000000   0.0000000   0.0000000), wk =   0.2500000
        k(    6) = (  -0.5000000   0.0000000  -0.5000000), wk =   0.2500000
        k(    7) = (  -0.5000000  -0.5000000   0.0000000), wk =   0.2500000
        k(    8) = (  -0.5000000  -0.5000000  -0.5000000), wk =   0.2500000

     Dense  grid:   877343 G-vectors     FFT dimensions: ( 135, 135, 135)

     Smooth grid:   513795 G-vectors     FFT dimensions: ( 120, 120, 120)

     Largest allocated arrays     est. size (Mb)     dimensions
        Kohn-Sham Wavefunctions        40.07 Mb     (    4009,  655)
        NL pseudopotentials           140.94 Mb     (    4009, 2304)
        Each V/rho on FFT grid          2.50 Mb     (  164025)
        Each G-vector array             0.42 Mb     (   54835)
        G-vector shells                 0.41 Mb     (   54295)
     Largest temporary arrays     est. size (Mb)     dimensions
        Auxiliary wavefunctions       160.27 Mb     (    4009, 2620)
        Each subspace H/S matrix      104.74 Mb     (    2620, 2620)
        Each <psi_i|beta_j> matrix     23.03 Mb     (    2304,  655)
        Arrays for rho mixing          20.02 Mb     (  164025,    8)

     Initial potential from superposition of free atoms

     starting charge 1091.90776, renormalised to 1092.00000
     Starting wfc are  802 randomized atomic wfcs

     total cpu time spent up to now is      757.8 secs

     Self-consistent Calculation

     iteration #  1     ecut=    35.00 Ry     beta=0.30
     Davidson diagonalization with overlap
     ethr =  1.00E-02,  avg # of iterations =  3.0

     Threshold (ethr) on eigenvalues was too large:
     Diagonalizing with lowered threshold

     Davidson diagonalization with overlap
     ethr =  2.66E-04,  avg # of iterations =  6.9

     total cpu time spent up to now is     5852.6 secs

     total energy              =  -13033.71978737 Ry
     Harris-Foulkes estimate   =  -13034.02463394 Ry
     estimated scf accuracy    <       2.90387704 Ry

     iteration #  2     ecut=    35.00 Ry     beta=0.30
     Davidson diagonalization with overlap
     ethr =  2.66E-04,  avg # of iterations =  1.0

     total cpu time spent up to now is     7498.0 secs

     total energy              =  -13033.13588520 Ry
     Harris-Foulkes estimate   =  -13033.73496746 Ry
     estimated scf accuracy    <       1.79357002 Ry

     iteration #  3     ecut=    35.00 Ry     beta=0.30
     Davidson diagonalization with overlap
     ethr =  1.64E-04,  avg # of iterations =  2.0

     total cpu time spent up to now is     9382.1 secs

     total energy              =  -13033.25421365 Ry
     Harris-Foulkes estimate   =  -13033.25383488 Ry
     estimated scf accuracy    <       0.02885658 Ry

     iteration #  4     ecut=    35.00 Ry     beta=0.30
     Davidson diagonalization with overlap
     ethr =  2.64E-06,  avg # of iterations =  9.9

     total cpu time spent up to now is    14953.0 secs

     total energy              =  -13033.25846039 Ry
     Harris-Foulkes estimate   =  -13033.25921665 Ry
     estimated scf accuracy    <       0.01398290 Ry

     iteration #  5     ecut=    35.00 Ry     beta=0.30
     Davidson diagonalization with overlap
     ethr =  1.28E-06,  avg # of iterations =  2.0

     total cpu time spent up to now is    17035.3 secs

     total energy              =  -13033.25954779 Ry
     Harris-Foulkes estimate   =  -13033.25970494 Ry
     estimated scf accuracy    <       0.00124933 Ry

     iteration #  6     ecut=    35.00 Ry     beta=0.30
     Davidson diagonalization with overlap
     ethr =  1.14E-07,  avg # of iterations =  1.4

     total cpu time spent up to now is    18654.6 secs

     total energy              =  -13033.25941633 Ry
     Harris-Foulkes estimate   =  -13033.25959125 Ry
     estimated scf accuracy    <       0.00066664 Ry

     iteration #  7     ecut=    35.00 Ry     beta=0.30
     Davidson diagonalization with overlap
     ethr =  6.10E-08,  avg # of iterations =  2.5

     total cpu time spent up to now is    20685.0 secs

     total energy              =  -13033.25949373 Ry
     Harris-Foulkes estimate   =  -13033.25948343 Ry
     estimated scf accuracy    <       0.00012440 Ry

     iteration #  8     ecut=    35.00 Ry     beta=0.30
     Davidson diagonalization with overlap
     ethr =  1.14E-08,  avg # of iterations =  2.0

     total cpu time spent up to now is    22436.0 secs

     total energy              =  -13033.25948327 Ry
     Harris-Foulkes estimate   =  -13033.25949873 Ry
     estimated scf accuracy    <       0.00006276 Ry

     iteration #  9     ecut=    35.00 Ry     beta=0.30
     Davidson diagonalization with overlap
     ethr =  5.75E-09,  avg # of iterations =  2.9

     total cpu time spent up to now is    24745.1 secs

     total energy              =  -13033.25949351 Ry
     Harris-Foulkes estimate   =  -13033.25949837 Ry
     estimated scf accuracy    <       0.00001731 Ry

     iteration # 10     ecut=    35.00 Ry     beta=0.30
     Davidson diagonalization with overlap
     ethr =  1.58E-09,  avg # of iterations =  2.0

     total cpu time spent up to now is    26474.5 secs

     total energy              =  -13033.25949231 Ry
     Harris-Foulkes estimate   =  -13033.25949453 Ry
     estimated scf accuracy    <       0.00000464 Ry

     iteration # 11     ecut=    35.00 Ry     beta=0.30
     Davidson diagonalization with overlap
     ethr =  4.25E-10,  avg # of iterations =  2.0

     total cpu time spent up to now is    28911.3 secs

     total energy              =  -13033.25949328 Ry
     Harris-Foulkes estimate   =  -13033.25949320 Ry
     estimated scf accuracy    <       0.00000028 Ry

     iteration # 12     ecut=    35.00 Ry     beta=0.30
     Davidson diagonalization with overlap
     ethr =  2.57E-11,  avg # of iterations =  2.5

     total cpu time spent up to now is    30844.0 secs

     total energy              =  -13033.25949338 Ry
     Harris-Foulkes estimate   =  -13033.25949332 Ry
     estimated scf accuracy    <       0.00000010 Ry

     iteration # 13     ecut=    35.00 Ry     beta=0.30
     Davidson diagonalization with overlap
     ethr =  8.75E-12,  avg # of iterations =  2.3

     total cpu time spent up to now is    32893.0 secs

     total energy              =  -13033.25949343 Ry
     Harris-Foulkes estimate   =  -13033.25949339 Ry
     estimated scf accuracy    <       0.00000001 Ry

     iteration # 14     ecut=    35.00 Ry     beta=0.30
     Davidson diagonalization with overlap
     ethr =  1.19E-12,  avg # of iterations =  2.0

     total cpu time spent up to now is    34728.9 secs

     total energy              =  -13033.25949344 Ry
     Harris-Foulkes estimate   =  -13033.25949343 Ry
     estimated scf accuracy    <          6.9E-09 Ry

     iteration # 15     ecut=    35.00 Ry     beta=0.30
     Davidson diagonalization with overlap
     ethr =  6.33E-13,  avg # of iterations =  3.0

     total cpu time spent up to now is    36909.8 secs

     total energy              =  -13033.25949345 Ry
     Harris-Foulkes estimate   =  -13033.25949344 Ry
     estimated scf accuracy    <          2.1E-09 Ry

     iteration # 16     ecut=    35.00 Ry     beta=0.30
     Davidson diagonalization with overlap
     ethr =  1.96E-13,  avg # of iterations =  2.5

     total cpu time spent up to now is    38952.1 secs

     End of self-consistent calculation

          k = 0.0000 0.0000 0.0000 ( 64219 PWs)   bands (ev):

   -17.6894 -17.6587 -17.6309 -17.6291 -17.5971 -17.5806 -17.5698 -17.5695
   -17.5618 -17.5613 -17.5565 -17.5529 -17.5496 -17.5487 -17.5230 -17.5160
   -17.5136 -17.5119 -17.5115 -17.5083 -17.5074 -17.5074 -17.4972 -17.4914
   -17.4862 -17.4818 -17.4810 -17.4795 -17.4765 -17.4764 -17.4743 -17.4672
   -17.4644 -17.4621 -17.4594 -17.4565 -17.4539 -17.4521 -17.4499 -17.4488
   -17.4448 -17.4405 -17.4384 -17.4341 -17.4332 -17.4287 -17.4251 -17.4229
   -17.4217 -17.4213 -17.4211 -17.4140 -17.4128 -17.4089 -17.4084 -17.3992
   -17.3978 -17.3951 -17.3910 -17.3908 -17.3871 -17.3852 -17.3826 -17.3771
   -17.3756 -17.3715 -17.3697 -17.3693 -17.3654 -17.3627 -17.3588 -17.3558
   -17.3523 -17.3516 -17.3508 -17.3482 -17.3466 -17.3455 -17.3440 -17.3423
   -17.3416 -17.3372 -17.3366 -17.3360 -17.3329 -17.3328 -17.3326 -17.3303
   -17.3294 -17.3233 -17.3207 -17.3168 -17.3163 -17.3158 -17.3152 -17.3123
   -17.3120 -17.3053 -17.3052 -17.3048 -17.3010 -17.2986 -17.2975 -17.2958
   -17.2954 -17.2923 -17.2919 -17.2872 -17.2860 -17.2839 -17.2837 -17.2808
   -17.2797 -17.2758 -17.2739 -17.2731 -17.2722 -17.2705 -17.2691 -17.2680
   -17.2674 -17.2668 -17.2641 -17.2602 -17.2596 -17.2589 -17.2580 -17.2572
   -17.2554 -17.2518 -17.2511 -17.2508 -17.2500 -17.2498 -17.2497 -17.2492
   -17.2486 -17.2482 -17.2480 -17.2467 -17.2463 -17.2440 -17.2422 -17.2418
   -17.2414 -17.2412 -17.2405 -17.2372 -17.2348 -17.2342 -17.2340 -17.2339
   -17.2335 -17.2323 -17.2321 -17.2315 -17.2298 -17.2287 -17.2280 -17.2275
   -17.2252 -17.2248 -17.2239 -17.2221 -17.2220 -17.2204 -17.2197 -17.2183
   -17.2178 -17.2172 -17.2165 -17.2156 -17.2154 -17.2149 -17.2144 -17.2139
   -17.2135 -17.2125 -17.2122 -17.2102 -17.2086 -17.2069 -17.2062 -17.2054
   -17.2052 -17.2039 -17.2034 -17.2017 -17.2002 -17.1994 -17.1977 -17.1964
   -17.1960 -17.1940 -17.1935 -17.1933 -17.1914 -17.1903 -17.1895 -17.1892
   -17.1879 -17.1877 -17.1860 -17.1827 -17.1817 -17.1805 -17.1803 -17.1793
   -17.1787 -17.1785 -17.1783 -17.1772 -17.1755 -17.1749 -17.1737 -17.1735
   -17.1709 -17.1689 -17.1689 -17.1675 -17.1662 -17.1657 -17.1632 -17.1623
   -17.1622 -17.1613 -17.1608 -17.1599 -17.1585 -17.1560 -17.1558 -17.1549
   -17.1520 -17.1505 -17.1504 -17.1485 -17.1446 -17.1437 -17.1419 -17.1393
   -17.1382 -17.1373 -17.1357 -17.1311 -17.1304 -17.1290 -17.1286 -17.1274
   -17.1268 -17.1255 -17.1197 -17.1190 -17.1153 -17.1122 -17.1098 -17.1097
   -17.1088 -17.1066 -17.1044 -17.1037 -17.1010 -17.0990 -17.0964 -17.0917
   -17.0865 -17.0827 -17.0819 -17.0791 -17.0786 -17.0696 -17.0693 -17.0669
   -17.0663 -17.0559 -17.0486 -17.0443 -17.0396 -17.0368 -17.0342 -17.0309
   -17.0277 -17.0105 -17.0079 -16.9876 -16.9846 -16.9658 -16.9586 -16.9481
   -16.9289 -16.8997  -5.3200  -4.7998  -4.7207  -4.6450  -4.6349  -4.5777
    -4.5252  -4.4651  -4.4410  -4.3351  -4.2920  -4.2343  -4.1537  -4.1010
    -4.0579  -3.6470  -3.6075  -3.5347  -3.4881  -3.4441  -3.4023  -3.3522
    -3.3037  -3.2887  -3.2330  -3.1942  -3.1523  -3.0962  -3.0810  -3.0511
    -3.0028  -2.9701  -2.8986  -2.8714  -2.7887  -2.7516  -2.7407  -2.6826
    -2.6309  -2.6070  -2.5941  -2.5515  -2.5193  -2.5003  -2.4737  -2.4468
    -2.4084  -2.3940  -2.3774  -2.3137  -2.2891  -2.2505  -2.1877  -2.1673
    -2.1178  -1.4594  -1.3773  -1.3175  -1.2388  -1.2024  -1.1598  -1.1466
    -1.1124  -1.0590  -1.0240  -0.9979  -0.9442  -0.9130  -0.8940  -0.8151
    -0.8043  -0.7518  -0.7458  -0.2390  -0.1860  -0.1339  -0.0615  -0.0399
     0.0370   0.0761   0.1427   0.1660   0.2083   0.2320   0.2710   0.2817
     0.3201   0.3492   0.3742   0.4091   0.4197   0.4226   0.4407   0.4823
     0.5074   0.5425   0.5764   0.6026   0.6238   0.6293   0.6861   1.0660
     1.1005   1.1914   1.2208   1.2390   1.2978   1.3129   1.3330   1.3531
     1.4005   1.4369   1.4721   2.6099   2.7014   2.7463   2.7892   2.8344
     2.8632   2.8976   2.9207   2.9555   2.9766   3.0232   3.0451   3.0665
     3.1246   3.1330   3.1424   3.1538   3.1651   3.1754   3.1929   3.1955
     3.2005   3.2289   3.2383   3.2468   3.2577   3.2702   3.2840   3.2905
     3.2959   3.3221   3.3353   3.3421   3.3690   3.3831   3.3880   3.4146
     3.4223   3.4472   3.4567   3.4605   3.4748   3.5047   3.5064   3.5226
     3.5417   3.5439   3.5720   3.5755   3.5822   3.5874   3.6127   3.6238
     3.6272   3.6597   3.6668   3.6893   3.7009   3.7061   3.7311   3.7533
     3.7943   4.1219   4.1662   4.1881   4.1916   4.2159   4.2475   4.6311
     4.6714   4.6919   4.7228   4.7292   4.7467   4.7547   4.7597   4.7793
     4.7995   4.8161   4.8234   4.8440   4.8531   4.8622   4.8801   4.9084
     4.9197   4.9427   4.9587   4.9632   4.9906   5.0251   5.0433   5.1186
     5.1233   5.1516   5.1570   5.1910   5.2108   5.2162   5.2439   5.2636
     5.2931   5.3270   5.3622   5.6138   5.6268   5.6543   5.6597   5.6967
     5.7299   5.7482   5.7684   5.7804   5.8194   5.8357   5.8425   5.8663
     5.8813   5.9061   5.9377   5.9576   5.9836   6.0028   6.0731   6.2078
     6.2459   6.2668   6.2929   6.3324   6.3543   6.3596   6.3975   6.4425
     6.4672   6.4995   6.5273   6.5668   6.5757   6.6067   6.6756   7.1791
     7.2536   7.3702   7.6136   7.6497   7.6961   7.7246   7.7623   7.8094
     7.8584   7.8856   7.9249   7.9734   8.0118   8.0349   8.0723   8.1029
     8.1184   8.1579   8.2629   8.2970   8.3136   8.3255   8.3521   8.3744
     8.3831   8.4096   8.4366   8.4430   8.4521   8.4652   8.4782   8.4969
     8.5206   8.5304   8.5457   8.5475   8.5641   8.5907   8.5997   8.6329
     8.6424   8.6615   8.6841   8.6956   8.7093   8.7281   8.7460   8.7983
     8.8527   8.8819   8.9557   9.2062   9.2572   9.2832   9.3188   9.3256
     9.3443   9.3708   9.3990   9.4230   9.4574   9.4799   9.5333   9.6405
     9.6821   9.6917   9.9787  10.0368  10.0457  10.0749  10.1407  10.1688
    10.3539  10.3666  10.4350  10.4586  10.4763  10.4992  10.5135  10.5395
    10.5512  10.5778  10.6092  10.6271  10.6285  10.6768  10.6875  10.6929
    10.7185  10.7383  10.7558  10.7780  10.7876  10.8512  10.8782  10.9407
    11.1703  11.1978  11.2053  11.2396  11.2423  11.2603  11.2875  11.3064
    11.3270  11.3290  11.3563  11.3623  11.4003  11.4030  11.4224

     occupation numbers 
     1.0000   1.0000   1.0000   1.0000   1.0000   1.0000   1.0000   1.0000
     1.0000   1.0000   1.0000   1.0000   1.0000   1.0000   1.0000   1.0000
     1.0000   1.0000   1.0000   1.0000   1.0000   1.0000   1.0000   1.0000
     1.0000   1.0000   1.0000   1.0000   1.0000   1.0000   1.0000   1.0000
     1.0000   1.0000   1.0000   1.0000   1.0000   1.0000   1.0000   1.0000
     1.0000   1.0000   1.0000   1.0000   1.0000   1.0000   1.0000   1.0000
     1.0000   1.0000   1.0000   1.0000   1.0000   1.0000   1.0000   1.0000
     1.0000   1.0000   1.0000   1.0000   1.0000   1.0000   1.0000   1.0000
     1.0000   1.0000   1.0000   1.0000   1.0000   1.0000   1.0000   1.0000
     1.0000   1.0000   1.0000   1.0000   1.0000   1.0000   1.0000   1.0000
     1.0000   1.0000   1.0000   1.0000   1.0000   1.0000   1.0000   1.0000
     1.0000   1.0000   1.0000   1.0000   1.0000   1.0000   1.0000   1.0000
     1.0000   1.0000   1.0000   1.0000   1.0000   1.0000   1.0000   1.0000
     1.0000   1.0000   1.0000   1.0000   1.0000   1.0000   1.0000   1.0000
     1.0000   1.0000   1.0000   1.0000   1.0000   1.0000   1.0000   1.0000
     1.0000   1.0000   1.0000   1.0000   1.0000   1.0000   1.0000   1.0000
     1.0000   1.0000   1.0000   1.0000   1.0000   1.0000   1.0000   1.0000
     1.0000   1.0000   1.0000   1.0000   1.0000   1.0000   1.0000   1.0000
     1.0000   1.0000   1.0000   1.0000   1.0000   1.0000   1.0000   1.0000
     1.0000   1.0000   1.0000   1.0000   1.0000   1.0000   1.0000   1.0000
     1.0000   1.0000   1.0000   1.0000   1.0000   1.0000   1.0000   1.0000
     1.0000   1.0000   1.0000   1.0000   1.0000   1.0000   1.0000   1.0000
     1.0000   1.0000   1.0000   1.0000   1.0000   1.0000   1.0000   1.0000
     1.0000   1.0000   1.0000   1.0000   1.0000   1.0000   1.0000   1.0000
     1.0000   1.0000   1.0000   1.0000   1.0000   1.0000   1.0000   1.0000
     1.0000   1.0000   1.0000   1.0000   1.0000   1.0000   1.0000   1.0000
     1.0000   1.0000   1.0000   1.0000   1.0000   1.0000   1.0000   1.0000
     1.0000   1.0000   1.0000   1.0000   1.0000   1.0000   1.0000   1.0000
     1.0000   1.0000   1.0000   1.0000   1.0000   1.0000   1.0000   1.0000
     1.0000   1.0000   1.0000   1.0000   1.0000   1.0000   1.0000   1.0000
     1.0000   1.0000   1.0000   1.0000   1.0000   1.0000   1.0000   1.0000
     1.0000   1.0000   1.0000   1.0000   1.0000   1.0000   1.0000   1.0000
     1.0000   1.0000   1.0000   1.0000   1.0000   1.0000   1.0000   1.0000
     1.0000   1.0000   1.0000   1.0000   1.0000   1.0000   1.0000   1.0000
     1.0000   1.0000   1.0000   1.0000   1.0000   1.0000   1.0000   1.0000
     1.0000   1.0000   1.0000   1.0000   1.0000   1.0000   1.0000   1.0000
     1.0000   1.0000   1.0000   1.0000   1.0000   1.0000   1.0000   1.0000
     1.0000   1.0000   1.0000   1.0000   1.0000   1.0000   1.0000   1.0000
     1.0000   1.0000   1.0000   1.0000   1.0000   1.0000   1.0000   1.0000
     1.0000   1.0000   1.0000   1.0000   1.0000   1.0000   1.0000   1.0000
     1.0000   1.0000   1.0000   1.0000   1.0000   1.0000   1.0000   1.0000
     1.0000   1.0000   1.0000   1.0000   1.0000   1.0000   1.0000   1.0000
     1.0000   1.0000   1.0000   1.0000   1.0000   1.0000   1.0000   1.0000
     1.0000   1.0000   1.0000   1.0000   1.0000   1.0000   1.0000   1.0000
     1.0000   1.0000   1.0000   1.0000   1.0000   1.0000   1.0000   1.0000
     1.0000   1.0000   1.0000   1.0000   1.0000   1.0000   1.0000   1.0000
     1.0000   1.0000   1.0000   1.0000   1.0000   1.0000   1.0000   1.0000
     1.0000   1.0000   1.0000   1.0000   1.0000   1.0000   1.0000   1.0000
     1.0000   1.0000   1.0000   1.0000   1.0000   1.0000   1.0000   1.0000
     1.0000   1.0000   1.0000   1.0000   1.0000   1.0000   1.0000   1.0000
     1.0000   1.0000   1.0000   1.0000   1.0000   1.0000   1.0000   1.0000
     1.0000   1.0000   1.0000   1.0000   1.0000   1.0000   1.0000   1.0000
     1.0000   1.0000   1.0000   1.0000   1.0000   1.0000   1.0000   1.0000
     1.0000   1.0000   1.0000   1.0000   1.0000   1.0000   1.0000   1.0000
     1.0000   1.0000   1.0000   1.0000   1.0000   1.0000   1.0000   1.0000
     1.0000   1.0000   1.0000   1.0000   1.0000   1.0000   1.0000   1.0000
     1.0000   1.0000   1.0000   1.0000   1.0000   1.0000   1.0000   1.0000
     1.0000   1.0000   1.0000   1.0000   1.0000   1.0000   1.0000   1.0000
     1.0000   1.0000   1.0000   1.0000   1.0000   1.0000   1.0000   1.0000
     1.0000   1.0000   1.0000   1.0000   1.0000   1.0000   1.0000   1.0000
     1.0000   1.0000   1.0000   1.0000   1.0000   1.0000   1.0000   1.0000
     1.0000   1.0000   1.0000   1.0000   1.0000   1.0000   1.0000   1.0000
     1.0000   1.0000   1.0000   1.0000   1.0000   1.0000   1.0000   1.0000
     1.0000   1.0000   1.0000   1.0000   1.0000   1.0000   1.0000   1.0000
     1.0000   1.0000   1.0000   1.0000   1.0000   1.0000   1.0000   1.0000
     1.0000   1.0000   1.0000   1.0000   1.0000   1.0000   1.0000   1.0000
     1.0000   1.0000   1.0000   1.0000   1.0000   1.0000   1.0000   1.0000
     1.0000   1.0000   1.0000   1.0000   1.0000   1.0000   1.0000   0.9432
     0.8568   0.6020   0.0766   0.0466   0.0227   0.0140   0.0070   0.0027
     0.0009   0.0005   0.0002   0.0000   0.0000   0.0000   0.0000   0.0000
     0.0000   0.0000   0.0000   0.0000   0.0000   0.0000   0.0000   0.0000
     0.0000   0.0000   0.0000   0.0000   0.0000   0.0000   0.0000   0.0000
     0.0000   0.0000   0.0000   0.0000   0.0000   0.0000   0.0000   0.0000
     0.0000   0.0000   0.0000   0.0000   0.0000   0.0000   0.0000   0.0000
     0.0000   0.0000   0.0000   0.0000   0.0000   0.0000   0.0000   0.0000
     0.0000   0.0000   0.0000   0.0000   0.0000   0.0000   0.0000   0.0000
     0.0000   0.0000   0.0000   0.0000   0.0000   0.0000   0.0000   0.0000
     0.0000   0.0000   0.0000   0.0000   0.0000   0.0000   0.0000   0.0000
     0.0000   0.0000   0.0000   0.0000   0.0000   0.0000   0.0000   0.0000
     0.0000   0.0000   0.0000   0.0000   0.0000   0.0000   0.0000   0.0000
     0.0000   0.0000   0.0000   0.0000   0.0000   0.0000   0.0000   0.0000
     0.0000   0.0000   0.0000   0.0000   0.0000   0.0000   0.0000

          k =-0.3536-0.3539 0.3543 ( 64170 PWs)   bands (ev):

   -17.6894 -17.6587 -17.6309 -17.6291 -17.5972 -17.5806 -17.5698 -17.5696
   -17.5618 -17.5613 -17.5565 -17.5529 -17.5496 -17.5488 -17.5231 -17.5160
   -17.5137 -17.5120 -17.5115 -17.5083 -17.5075 -17.5074 -17.4973 -17.4914
   -17.4862 -17.4818 -17.4811 -17.4795 -17.4766 -17.4765 -17.4743 -17.4673
   -17.4644 -17.4621 -17.4594 -17.4566 -17.4539 -17.4521 -17.4499 -17.4488
   -17.4448 -17.4405 -17.4385 -17.4341 -17.4332 -17.4287 -17.4251 -17.4230
   -17.4217 -17.4213 -17.4212 -17.4140 -17.4128 -17.4089 -17.4084 -17.3993
   -17.3979 -17.3951 -17.3910 -17.3908 -17.3871 -17.3853 -17.3827 -17.3771
   -17.3756 -17.3715 -17.3698 -17.3694 -17.3654 -17.3626 -17.3588 -17.3558
   -17.3521 -17.3518 -17.3509 -17.3483 -17.3468 -17.3456 -17.3439 -17.3422
   -17.3416 -17.3372 -17.3366 -17.3360 -17.3330 -17.3329 -17.3326 -17.3303
   -17.3295 -17.3233 -17.3208 -17.3169 -17.3163 -17.3159 -17.3152 -17.3123
   -17.3121 -17.3053 -17.3053 -17.3048 -17.3011 -17.2986 -17.2976 -17.2959
   -17.2955 -17.2924 -17.2918 -17.2873 -17.2861 -17.2840 -17.2837 -17.2808
   -17.2798 -17.2758 -17.2740 -17.2731 -17.2722 -17.2706 -17.2691 -17.2680
   -17.2674 -17.2668 -17.2642 -17.2602 -17.2597 -17.2589 -17.2581 -17.2572
   -17.2554 -17.2519 -17.2511 -17.2508 -17.2500 -17.2499 -17.2498 -17.2492
   -17.2487 -17.2482 -17.2481 -17.2468 -17.2462 -17.2441 -17.2422 -17.2419
   -17.2414 -17.2413 -17.2407 -17.2374 -17.2343 -17.2341 -17.2340 -17.2338
   -17.2335 -17.2325 -17.2323 -17.2315 -17.2300 -17.2286 -17.2280 -17.2276
   -17.2253 -17.2249 -17.2240 -17.2222 -17.2221 -17.2205 -17.2197 -17.2183
   -17.2179 -17.2172 -17.2165 -17.2156 -17.2155 -17.2145 -17.2144 -17.2142
   -17.2135 -17.2125 -17.2123 -17.2103 -17.2087 -17.2070 -17.2062 -17.2055
   -17.2052 -17.2040 -17.2033 -17.2017 -17.2003 -17.1996 -17.1974 -17.1963
   -17.1954 -17.1942 -17.1936 -17.1934 -17.1921 -17.1900 -17.1896 -17.1892
   -17.1879 -17.1877 -17.1860 -17.1827 -17.1818 -17.1812 -17.1803 -17.1793
   -17.1787 -17.1785 -17.1783 -17.1774 -17.1755 -17.1749 -17.1737 -17.1713
   -17.1708 -17.1698 -17.1689 -17.1678 -17.1664 -17.1657 -17.1632 -17.1624
   -17.1623 -17.1614 -17.1608 -17.1604 -17.1585 -17.1560 -17.1559 -17.1549
   -17.1521 -17.1505 -17.1503 -17.1487 -17.1444 -17.1436 -17.1420 -17.1394
   -17.1382 -17.1375 -17.1357 -17.1311 -17.1305 -17.1291 -17.1290 -17.1274
   -17.1264 -17.1255 -17.1197 -17.1189 -17.1154 -17.1123 -17.1099 -17.1098
   -17.1088 -17.1066 -17.1045 -17.1034 -17.1018 -17.0987 -17.0965 -17.0917
   -17.0866 -17.0828 -17.0819 -17.0792 -17.0786 -17.0697 -17.0693 -17.0670
   -17.0664 -17.0559 -17.0486 -17.0443 -17.0397 -17.0369 -17.0342 -17.0310
   -17.0277 -17.0106 -17.0080 -16.9876 -16.9846 -16.9658 -16.9586 -16.9481
   -16.9290 -16.8997  -5.1803  -5.0843  -4.8221  -4.7514  -4.6789  -4.5155
    -4.5052  -4.4360  -4.2477  -4.2309  -4.1655  -4.0912  -4.0724  -4.0196
    -3.8804  -3.7276  -3.7065  -3.6422  -3.6015  -3.5587  -3.4920  -3.4192
    -3.3775  -3.3225  -3.2648  -3.2485  -3.1894  -3.1341  -3.0966  -3.0675
    -3.0306  -3.0139  -2.9848  -2.9113  -2.9007  -2.8280  -2.7847  -2.7649
    -2.7595  -2.6899  -2.6183  -2.5620  -2.4990  -2.3778  -2.3385  -2.2566
    -2.1933  -2.1007  -2.0562  -2.0340  -1.9953  -1.9567  -1.9186  -1.9078
    -1.8600  -1.8210  -1.7852  -1.7524  -1.6862  -1.6699  -1.6019  -1.5943
    -1.5332  -1.4726  -0.5945  -0.5791  -0.5039  -0.4847  -0.4468  -0.3976
    -0.3773  -0.3528  -0.2940  -0.2817  -0.2494  -0.2231  -0.2174  -0.1329
    -0.0990  -0.0751  -0.0601  -0.0009   0.0228   0.0374   0.1050   0.1238
     0.1442   0.1562   0.2190   0.2494   0.2748   0.3134   0.3631   0.4240
     0.6786   0.7158   0.7360   0.7927   0.8429   0.8630   0.9038   0.9697
     0.9846   1.0071   1.0927   1.1265   1.1412   1.1972   1.6395   1.6791
     1.7257   1.7624   1.8327   1.9181   2.0467   2.1251   2.1823   2.2278
     2.2516   2.3091   2.8578   2.8694   2.8907   2.9085   2.9245   2.9630
     2.9782   3.0077   3.0161   3.0407   3.0488   3.0662   3.0953   3.1000
     3.1142   3.1312   3.1432   3.1929   3.3739   3.3972   3.4544   3.4918
     3.5134   3.5370   3.5618   3.5703   3.5920   3.6138   3.6304   3.6373
     3.6539   3.6707   3.6901   3.7013   3.7041   3.7321   3.7473   3.7612
     3.7942   3.8051   3.8158   3.8605   4.0027   4.0474   4.0630   4.0789
     4.1026   4.1145   4.1308   4.1465   4.1582   4.1655   4.1935   4.2214
     4.2400   4.2793   4.2987   4.3248   4.3437   4.3496   4.3876   4.3975
     4.4191   4.4541   4.4654   4.4864   4.5774   4.6018   4.6649   4.6750
     4.6798   4.7091   4.7402   4.7509   4.7624   4.7819   4.8062   4.8123
     4.8195   4.8365   4.8539   4.8675   4.8981   4.9287   5.0397   5.0519
     5.0721   5.1025   5.1169   5.1310   5.1568   5.1643   5.1947   5.2035
     5.2115   5.2334   5.2547   5.2708   5.2873   5.2956   5.3228   5.3505
     5.3736   5.4066   5.4469   5.4950   5.5207   5.5323   5.6070   5.6376
     5.6876   5.7361   5.7535   5.7673   5.8041   5.8315   5.8520   5.8949
     5.9005   5.9490   5.9659   5.9866   6.0260   6.0624   6.0754   6.1309
     6.2738   6.3228   6.3507   6.3925   6.4396   6.4689   6.7935   6.8321
     6.9208   7.0593   7.7706   7.7847   7.8661   7.8725   7.9415   7.9774
     8.0342   8.1177   8.2026   8.2742   8.2930   8.3254   8.3864   8.3921
     8.6372   8.6822   8.7241   8.7498   8.7594   8.8037   8.8284   8.8345
     8.8547   8.8756   8.8917   8.9116   8.9415   8.9676   8.9884   9.0050
     9.0170   9.0288   9.0386   9.0782   9.0983   9.1269   9.1519   9.1667
     9.1932   9.2176   9.2490   9.2708   9.2894   9.3136   9.3281   9.3643
     9.3794   9.3871   9.4015   9.4342   9.4498   9.4587   9.4868   9.4974
     9.5103   9.5469   9.5731   9.5824   9.6672   9.6932   9.7475   9.7587
     9.7951   9.8215   9.8228   9.8525   9.8692   9.8965   9.9221   9.9413
     9.9454   9.9734   9.9855   9.9930  10.0273  10.0619  10.0893  10.1092
    10.1485  10.1767  10.2239  10.2519  10.2976  10.3187  10.3289  10.3403
    10.3878  10.4214  10.4270  10.4820  10.5050  10.5258  10.5336  10.5405
    10.5516  10.5799  10.5968  10.6043  10.6304  10.6476  10.6651  10.6844
    10.6975  10.7256  10.7351  10.7596  10.7822  10.8085  10.8438

     occupation numbers 
     1.0000   1.0000   1.0000   1.0000   1.0000   1.0000   1.0000   1.0000
     1.0000   1.0000   1.0000   1.0000   1.0000   1.0000   1.0000   1.0000
     1.0000   1.0000   1.0000   1.0000   1.0000   1.0000   1.0000   1.0000
     1.0000   1.0000   1.0000   1.0000   1.0000   1.0000   1.0000   1.0000
     1.0000   1.0000   1.0000   1.0000   1.0000   1.0000   1.0000   1.0000
     1.0000   1.0000   1.0000   1.0000   1.0000   1.0000   1.0000   1.0000
     1.0000   1.0000   1.0000   1.0000   1.0000   1.0000   1.0000   1.0000
     1.0000   1.0000   1.0000   1.0000   1.0000   1.0000   1.0000   1.0000
     1.0000   1.0000   1.0000   1.0000   1.0000   1.0000   1.0000   1.0000
     1.0000   1.0000   1.0000   1.0000   1.0000   1.0000   1.0000   1.0000
     1.0000   1.0000   1.0000   1.0000   1.0000   1.0000   1.0000   1.0000
     1.0000   1.0000   1.0000   1.0000   1.0000   1.0000   1.0000   1.0000
     1.0000   1.0000   1.0000   1.0000   1.0000   1.0000   1.0000   1.0000
     1.0000   1.0000   1.0000   1.0000   1.0000   1.0000   1.0000   1.0000
     1.0000   1.0000   1.0000   1.0000   1.0000   1.0000   1.0000   1.0000
     1.0000   1.0000   1.0000   1.0000   1.0000   1.0000   1.0000   1.0000
     1.0000   1.0000   1.0000   1.0000   1.0000   1.0000   1.0000   1.0000
     1.0000   1.0000   1.0000   1.0000   1.0000   1.0000   1.0000   1.0000
     1.0000   1.0000   1.0000   1.0000   1.0000   1.0000   1.0000   1.0000
     1.0000   1.0000   1.0000   1.0000   1.0000   1.0000   1.0000   1.0000
     1.0000   1.0000   1.0000   1.0000   1.0000   1.0000   1.0000   1.0000
     1.0000   1.0000   1.0000   1.0000   1.0000   1.0000   1.0000   1.0000
     1.0000   1.0000   1.0000   1.0000   1.0000   1.0000   1.0000   1.0000
     1.0000   1.0000   1.0000   1.0000   1.0000   1.0000   1.0000   1.0000
     1.0000   1.0000   1.0000   1.0000   1.0000   1.0000   1.0000   1.0000
     1.0000   1.0000   1.0000   1.0000   1.0000   1.0000   1.0000   1.0000
     1.0000   1.0000   1.0000   1.0000   1.0000   1.0000   1.0000   1.0000
     1.0000   1.0000   1.0000   1.0000   1.0000   1.0000   1.0000   1.0000
     1.0000   1.0000   1.0000   1.0000   1.0000   1.0000   1.0000   1.0000
     1.0000   1.0000   1.0000   1.0000   1.0000   1.0000   1.0000   1.0000
     1.0000   1.0000   1.0000   1.0000   1.0000   1.0000   1.0000   1.0000
     1.0000   1.0000   1.0000   1.0000   1.0000   1.0000   1.0000   1.0000
     1.0000   1.0000   1.0000   1.0000   1.0000   1.0000   1.0000   1.0000
     1.0000   1.0000   1.0000   1.0000   1.0000   1.0000   1.0000   1.0000
     1.0000   1.0000   1.0000   1.0000   1.0000   1.0000   1.0000   1.0000
     1.0000   1.0000   1.0000   1.0000   1.0000   1.0000   1.0000   1.0000
     1.0000   1.0000   1.0000   1.0000   1.0000   1.0000   1.0000   1.0000
     1.0000   1.0000   1.0000   1.0000   1.0000   1.0000   1.0000   1.0000
     1.0000   1.0000   1.0000   1.0000   1.0000   1.0000   1.0000   1.0000
     1.0000   1.0000   1.0000   1.0000   1.0000   1.0000   1.0000   1.0000
     1.0000   1.0000   1.0000   1.0000   1.0000   1.0000   1.0000   1.0000
     1.0000   1.0000   1.0000   1.0000   1.0000   1.0000   1.0000   1.0000
     1.0000   1.0000   1.0000   1.0000   1.0000   1.0000   1.0000   1.0000
     1.0000   1.0000   1.0000   1.0000   1.0000   1.0000   1.0000   1.0000
     1.0000   1.0000   1.0000   1.0000   1.0000   1.0000   1.0000   1.0000
     1.0000   1.0000   1.0000   1.0000   1.0000   1.0000   1.0000   1.0000
     1.0000   1.0000   1.0000   1.0000   1.0000   1.0000   1.0000   1.0000
     1.0000   1.0000   1.0000   1.0000   1.0000   1.0000   1.0000   1.0000
     1.0000   1.0000   1.0000   1.0000   1.0000   1.0000   1.0000   1.0000
     1.0000   1.0000   1.0000   1.0000   1.0000   1.0000   1.0000   1.0000
     1.0000   1.0000   1.0000   1.0000   1.0000   1.0000   1.0000   1.0000
     1.0000   1.0000   1.0000   1.0000   1.0000   1.0000   1.0000   1.0000
     1.0000   1.0000   1.0000   1.0000   1.0000   1.0000   1.0000   1.0000
     1.0000   1.0000   1.0000   1.0000   1.0000   1.0000   1.0000   1.0000
     1.0000   1.0000   1.0000   1.0000   1.0000   1.0000   1.0000   1.0000
     1.0000   1.0000   1.0000   1.0000   1.0000   1.0000   1.0000   1.0000
     1.0000   1.0000   1.0000   1.0000   1.0000   1.0000   1.0000   1.0000
     1.0000   1.0000   1.0000   1.0000   1.0000   1.0000   1.0000   1.0000
     1.0000   1.0000   1.0000   1.0000   1.0000   1.0000   1.0000   1.0000
     1.0000   1.0000   1.0000   1.0000   1.0000   1.0000   1.0000   1.0000
     1.0000   1.0000   1.0000   1.0000   1.0000   1.0000   1.0000   1.0000
     1.0000   1.0000   1.0000   1.0000   1.0000   1.0000   1.0000   1.0000
     1.0000   1.0000   1.0000   1.0000   1.0000   1.0000   1.0000   1.0000
     1.0000   1.0000   1.0000   1.0000   1.0000   1.0000   1.0000   1.0000
     1.0000   1.0000   1.0000   1.0000   1.0000   1.0000   1.0000   1.0000
     1.0000   1.0000   1.0000   1.0000   1.0000   1.0000   1.0000   1.0000
     1.0000   1.0000   1.0000   1.0000   1.0000   1.0000   1.0000   1.0000
     1.0000   1.0000   1.0000   1.0000   1.0000   1.0000   1.0000   1.0000
     0.9996   0.9921   0.0059   0.0045   0.0007   0.0006   0.0001   0.0000
     0.0000   0.0000   0.0000   0.0000   0.0000   0.0000   0.0000   0.0000
     0.0000   0.0000   0.0000   0.0000   0.0000   0.0000   0.0000   0.0000
     0.0000   0.0000   0.0000   0.0000   0.0000   0.0000   0.0000   0.0000
     0.0000   0.0000   0.0000   0.0000   0.0000   0.0000   0.0000   0.0000
     0.0000   0.0000   0.0000   0.0000   0.0000   0.0000   0.0000   0.0000
     0.0000   0.0000   0.0000   0.0000   0.0000   0.0000   0.0000   0.0000
     0.0000   0.0000   0.0000   0.0000   0.0000   0.0000   0.0000   0.0000
     0.0000   0.0000   0.0000   0.0000   0.0000   0.0000   0.0000   0.0000
     0.0000   0.0000   0.0000   0.0000   0.0000   0.0000   0.0000   0.0000
     0.0000   0.0000   0.0000   0.0000   0.0000   0.0000   0.0000   0.0000
     0.0000   0.0000   0.0000   0.0000   0.0000   0.0000   0.0000   0.0000
     0.0000   0.0000   0.0000   0.0000   0.0000   0.0000   0.0000   0.0000
     0.0000   0.0000   0.0000   0.0000   0.0000   0.0000   0.0000

          k =-0.3521 0.3534-0.3545 ( 64220 PWs)   bands (ev):

   -17.6894 -17.6587 -17.6309 -17.6291 -17.5972 -17.5806 -17.5698 -17.5696
   -17.5618 -17.5613 -17.5565 -17.5529 -17.5496 -17.5488 -17.5231 -17.5160
   -17.5137 -17.5119 -17.5116 -17.5083 -17.5074 -17.5074 -17.4973 -17.4914
   -17.4862 -17.4818 -17.4811 -17.4795 -17.4766 -17.4765 -17.4743 -17.4673
   -17.4644 -17.4621 -17.4594 -17.4566 -17.4539 -17.4521 -17.4499 -17.4488
   -17.4448 -17.4406 -17.4384 -17.4341 -17.4332 -17.4287 -17.4250 -17.4230
   -17.4217 -17.4213 -17.4212 -17.4141 -17.4129 -17.4087 -17.4086 -17.3991
   -17.3980 -17.3951 -17.3910 -17.3909 -17.3871 -17.3852 -17.3827 -17.3771
   -17.3756 -17.3715 -17.3698 -17.3694 -17.3654 -17.3627 -17.3588 -17.3558
   -17.3523 -17.3517 -17.3509 -17.3482 -17.3466 -17.3456 -17.3440 -17.3423
   -17.3416 -17.3372 -17.3366 -17.3360 -17.3329 -17.3329 -17.3326 -17.3304
   -17.3294 -17.3232 -17.3208 -17.3169 -17.3163 -17.3158 -17.3152 -17.3123
   -17.3121 -17.3053 -17.3052 -17.3049 -17.3011 -17.2987 -17.2975 -17.2958
   -17.2955 -17.2923 -17.2919 -17.2873 -17.2861 -17.2839 -17.2838 -17.2808
   -17.2798 -17.2758 -17.2740 -17.2731 -17.2722 -17.2706 -17.2691 -17.2681
   -17.2675 -17.2668 -17.2642 -17.2603 -17.2596 -17.2589 -17.2580 -17.2572
   -17.2554 -17.2519 -17.2511 -17.2508 -17.2500 -17.2499 -17.2498 -17.2493
   -17.2487 -17.2483 -17.2480 -17.2466 -17.2464 -17.2441 -17.2422 -17.2419
   -17.2414 -17.2413 -17.2405 -17.2373 -17.2349 -17.2342 -17.2340 -17.2339
   -17.2336 -17.2323 -17.2321 -17.2316 -17.2298 -17.2287 -17.2280 -17.2275
   -17.2254 -17.2248 -17.2239 -17.2222 -17.2220 -17.2205 -17.2197 -17.2183
   -17.2179 -17.2172 -17.2165 -17.2156 -17.2155 -17.2149 -17.2145 -17.2139
   -17.2135 -17.2125 -17.2123 -17.2103 -17.2087 -17.2070 -17.2062 -17.2054
   -17.2052 -17.2039 -17.2034 -17.2017 -17.2003 -17.1995 -17.1977 -17.1964
   -17.1960 -17.1943 -17.1936 -17.1932 -17.1914 -17.1903 -17.1896 -17.1891
   -17.1879 -17.1877 -17.1860 -17.1827 -17.1817 -17.1805 -17.1804 -17.1794
   -17.1787 -17.1785 -17.1783 -17.1772 -17.1755 -17.1749 -17.1738 -17.1736
   -17.1709 -17.1690 -17.1689 -17.1675 -17.1663 -17.1656 -17.1632 -17.1624
   -17.1623 -17.1613 -17.1609 -17.1599 -17.1585 -17.1560 -17.1559 -17.1549
   -17.1520 -17.1506 -17.1504 -17.1486 -17.1446 -17.1437 -17.1420 -17.1390
   -17.1387 -17.1373 -17.1357 -17.1311 -17.1305 -17.1291 -17.1287 -17.1274
   -17.1268 -17.1255 -17.1197 -17.1191 -17.1153 -17.1122 -17.1099 -17.1098
   -17.1088 -17.1066 -17.1045 -17.1038 -17.1010 -17.0991 -17.0964 -17.0917
   -17.0866 -17.0828 -17.0820 -17.0791 -17.0786 -17.0696 -17.0694 -17.0670
   -17.0664 -17.0559 -17.0486 -17.0443 -17.0397 -17.0369 -17.0342 -17.0310
   -17.0277 -17.0106 -17.0080 -16.9876 -16.9846 -16.9658 -16.9586 -16.9481
   -16.9290 -16.8997  -5.1788  -5.0959  -4.7856  -4.7197  -4.6695  -4.6132
    -4.5135  -4.4410  -4.2595  -4.2180  -4.1412  -4.1131  -4.0820  -3.9643
    -3.8096  -3.7752  -3.7248  -3.6186  -3.5761  -3.5401  -3.4952  -3.4023
    -3.3486  -3.3250  -3.3013  -3.2822  -3.1981  -3.1806  -3.1497  -3.1147
    -3.0401  -3.0254  -2.9786  -2.9277  -2.8686  -2.8561  -2.8068  -2.7671
    -2.7221  -2.6592  -2.5759  -2.4953  -2.4261  -2.4212  -2.3261  -2.2138
    -2.1731  -2.1365  -2.1148  -2.0494  -1.9817  -1.9579  -1.9427  -1.8966
    -1.8409  -1.8188  -1.7795  -1.7427  -1.6753  -1.6600  -1.6400  -1.6020
    -1.5449  -1.5123  -0.5785  -0.5635  -0.5084  -0.4778  -0.4333  -0.3983
    -0.3591  -0.3429  -0.3031  -0.2832  -0.2487  -0.2075  -0.1988  -0.1524
    -0.1188  -0.0875  -0.0475  -0.0038   0.0111   0.0405   0.0749   0.1088
     0.1368   0.1829   0.2197   0.2401   0.2651   0.3119   0.3456   0.3555
     0.7466   0.7718   0.8121   0.8376   0.8655   0.8880   0.9272   0.9430
     0.9803   0.9870   1.0683   1.0763   1.1146   1.1461   1.5796   1.6742
     1.7205   1.7611   1.8358   1.8948   2.0600   2.0949   2.1751   2.1981
     2.2665   2.3714   2.8445   2.8957   2.9107   2.9221   2.9310   2.9456
     2.9704   2.9950   2.9993   3.0240   3.0424   3.0835   3.1115   3.1220
     3.1336   3.1628   3.2164   3.2454   3.3128   3.4505   3.4705   3.4960
     3.5058   3.5331   3.5537   3.5680   3.5808   3.6021   3.6102   3.6366
     3.6638   3.6696   3.6912   3.7102   3.7152   3.7462   3.7522   3.7952
     3.8171   3.8295   3.8581   3.8990   3.9802   4.0278   4.0363   4.0631
     4.0795   4.0850   4.1184   4.1270   4.1598   4.1689   4.1870   4.2295
     4.2605   4.2744   4.3173   4.3409   4.3511   4.3761   4.3970   4.4225
     4.4331   4.4501   4.4584   4.4737   4.5567   4.5877   4.6199   4.6487
     4.6748   4.6843   4.6926   4.7241   4.7517   4.7645   4.7932   4.8239
     4.8493   4.8593   4.8668   4.8982   4.9298   4.9408   4.9853   5.0213
     5.0506   5.0735   5.0952   5.1098   5.1234   5.1597   5.1633   5.1829
     5.1945   5.2016   5.2187   5.2294   5.2588   5.2645   5.2983   5.3328
     5.3895   5.4008   5.4232   5.4954   5.5521   5.5672   5.5946   5.6621
     5.6829   5.6867   5.7361   5.7690   5.7918   5.8227   5.8638   5.8710
     5.9021   5.9378   5.9462   5.9954   6.0115   6.0544   6.0781   6.1444
     6.3018   6.3177   6.4007   6.4390   6.5186   6.5395   6.8516   6.9369
     6.9448   7.1351   7.7820   7.8411   7.8857   7.8948   7.9588   8.0324
     8.0858   8.1351   8.2373   8.2976   8.3363   8.3580   8.3829   8.4267
     8.6577   8.7049   8.7092   8.7381   8.7517   8.7790   8.7947   8.8278
     8.8467   8.8782   8.8867   8.9212   8.9378   8.9624   8.9772   8.9941
     9.0112   9.0247   9.0472   9.0752   9.0958   9.1059   9.1354   9.1510
     9.1789   9.2233   9.2503   9.2614   9.2787   9.3022   9.3184   9.3473
     9.3525   9.3768   9.3861   9.4160   9.4269   9.4451   9.4707   9.4798
     9.5136   9.5364   9.5547   9.5788   9.6873   9.6918   9.7173   9.7501
     9.7930   9.8004   9.8089   9.8190   9.8362   9.8704   9.8988   9.9100
     9.9374   9.9619   9.9741   9.9908  10.0019  10.0412  10.0734  10.1136
    10.1382  10.1426  10.2082  10.2314  10.2505  10.2747  10.3302  10.3940
    10.4032  10.4196  10.4494  10.4689  10.4888  10.5007  10.5064  10.5244
    10.5471  10.5681  10.5845  10.5978  10.6223  10.6340  10.6571  10.6598
    10.6918  10.7057  10.7177  10.7371  10.7641  10.7951  10.8135

     occupation numbers 
     1.0000   1.0000   1.0000   1.0000   1.0000   1.0000   1.0000   1.0000
     1.0000   1.0000   1.0000   1.0000   1.0000   1.0000   1.0000   1.0000
     1.0000   1.0000   1.0000   1.0000   1.0000   1.0000   1.0000   1.0000
     1.0000   1.0000   1.0000   1.0000   1.0000   1.0000   1.0000   1.0000
     1.0000   1.0000   1.0000   1.0000   1.0000   1.0000   1.0000   1.0000
     1.0000   1.0000   1.0000   1.0000   1.0000   1.0000   1.0000   1.0000
     1.0000   1.0000   1.0000   1.0000   1.0000   1.0000   1.0000   1.0000
     1.0000   1.0000   1.0000   1.0000   1.0000   1.0000   1.0000   1.0000
     1.0000   1.0000   1.0000   1.0000   1.0000   1.0000   1.0000   1.0000
     1.0000   1.0000   1.0000   1.0000   1.0000   1.0000   1.0000   1.0000
     1.0000   1.0000   1.0000   1.0000   1.0000   1.0000   1.0000   1.0000
     1.0000   1.0000   1.0000   1.0000   1.0000   1.0000   1.0000   1.0000
     1.0000   1.0000   1.0000   1.0000   1.0000   1.0000   1.0000   1.0000
     1.0000   1.0000   1.0000   1.0000   1.0000   1.0000   1.0000   1.0000
     1.0000   1.0000   1.0000   1.0000   1.0000   1.0000   1.0000   1.0000
     1.0000   1.0000   1.0000   1.0000   1.0000   1.0000   1.0000   1.0000
     1.0000   1.0000   1.0000   1.0000   1.0000   1.0000   1.0000   1.0000
     1.0000   1.0000   1.0000   1.0000   1.0000   1.0000   1.0000   1.0000
     1.0000   1.0000   1.0000   1.0000   1.0000   1.0000   1.0000   1.0000
     1.0000   1.0000   1.0000   1.0000   1.0000   1.0000   1.0000   1.0000
     1.0000   1.0000   1.0000   1.0000   1.0000   1.0000   1.0000   1.0000
     1.0000   1.0000   1.0000   1.0000   1.0000   1.0000   1.0000   1.0000
     1.0000   1.0000   1.0000   1.0000   1.0000   1.0000   1.0000   1.0000
     1.0000   1.0000   1.0000   1.0000   1.0000   1.0000   1.0000   1.0000
     1.0000   1.0000   1.0000   1.0000   1.0000   1.0000   1.0000   1.0000
     1.0000   1.0000   1.0000   1.0000   1.0000   1.0000   1.0000   1.0000
     1.0000   1.0000   1.0000   1.0000   1.0000   1.0000   1.0000   1.0000
     1.0000   1.0000   1.0000   1.0000   1.0000   1.0000   1.0000   1.0000
     1.0000   1.0000   1.0000   1.0000   1.0000   1.0000   1.0000   1.0000
     1.0000   1.0000   1.0000   1.0000   1.0000   1.0000   1.0000   1.0000
     1.0000   1.0000   1.0000   1.0000   1.0000   1.0000   1.0000   1.0000
     1.0000   1.0000   1.0000   1.0000   1.0000   1.0000   1.0000   1.0000
     1.0000   1.0000   1.0000   1.0000   1.0000   1.0000   1.0000   1.0000
     1.0000   1.0000   1.0000   1.0000   1.0000   1.0000   1.0000   1.0000
     1.0000   1.0000   1.0000   1.0000   1.0000   1.0000   1.0000   1.0000
     1.0000   1.0000   1.0000   1.0000   1.0000   1.0000   1.0000   1.0000
     1.0000   1.0000   1.0000   1.0000   1.0000   1.0000   1.0000   1.0000
     1.0000   1.0000   1.0000   1.0000   1.0000   1.0000   1.0000   1.0000
     1.0000   1.0000   1.0000   1.0000   1.0000   1.0000   1.0000   1.0000
     1.0000   1.0000   1.0000   1.0000   1.0000   1.0000   1.0000   1.0000
     1.0000   1.0000   1.0000   1.0000   1.0000   1.0000   1.0000   1.0000
     1.0000   1.0000   1.0000   1.0000   1.0000   1.0000   1.0000   1.0000
     1.0000   1.0000   1.0000   1.0000   1.0000   1.0000   1.0000   1.0000
     1.0000   1.0000   1.0000   1.0000   1.0000   1.0000   1.0000   1.0000
     1.0000   1.0000   1.0000   1.0000   1.0000   1.0000   1.0000   1.0000
     1.0000   1.0000   1.0000   1.0000   1.0000   1.0000   1.0000   1.0000
     1.0000   1.0000   1.0000   1.0000   1.0000   1.0000   1.0000   1.0000
     1.0000   1.0000   1.0000   1.0000   1.0000   1.0000   1.0000   1.0000
     1.0000   1.0000   1.0000   1.0000   1.0000   1.0000   1.0000   1.0000
     1.0000   1.0000   1.0000   1.0000   1.0000   1.0000   1.0000   1.0000
     1.0000   1.0000   1.0000   1.0000   1.0000   1.0000   1.0000   1.0000
     1.0000   1.0000   1.0000   1.0000   1.0000   1.0000   1.0000   1.0000
     1.0000   1.0000   1.0000   1.0000   1.0000   1.0000   1.0000   1.0000
     1.0000   1.0000   1.0000   1.0000   1.0000   1.0000   1.0000   1.0000
     1.0000   1.0000   1.0000   1.0000   1.0000   1.0000   1.0000   1.0000
     1.0000   1.0000   1.0000   1.0000   1.0000   1.0000   1.0000   1.0000
     1.0000   1.0000   1.0000   1.0000   1.0000   1.0000   1.0000   1.0000
     1.0000   1.0000   1.0000   1.0000   1.0000   1.0000   1.0000   1.0000
     1.0000   1.0000   1.0000   1.0000   1.0000   1.0000   1.0000   1.0000
     1.0000   1.0000   1.0000   1.0000   1.0000   1.0000   1.0000   1.0000
     1.0000   1.0000   1.0000   1.0000   1.0000   1.0000   1.0000   1.0000
     1.0000   1.0000   1.0000   1.0000   1.0000   1.0000   1.0000   1.0000
     1.0000   1.0000   1.0000   1.0000   1.0000   1.0000   1.0000   1.0000
     1.0000   1.0000   1.0000   1.0000   1.0000   1.0000   1.0000   1.0000
     1.0000   1.0000   1.0000   1.0000   1.0000   1.0000   1.0000   1.0000
     1.0000   1.0000   1.0000   1.0000   1.0000   1.0000   1.0000   1.0000
     1.0000   1.0000   1.0000   1.0000   1.0000   1.0000   1.0000   1.0000
     1.0000   1.0000   1.0000   1.0000   1.0000   1.0000   0.9999   0.9994
     0.9993   0.9705   0.0047   0.0013   0.0005   0.0004   0.0001   0.0000
     0.0000   0.0000   0.0000   0.0000   0.0000   0.0000   0.0000   0.0000
     0.0000   0.0000   0.0000   0.0000   0.0000   0.0000   0.0000   0.0000
     0.0000   0.0000   0.0000   0.0000   0.0000   0.0000   0.0000   0.0000
     0.0000   0.0000   0.0000   0.0000   0.0000   0.0000   0.0000   0.0000
     0.0000   0.0000   0.0000   0.0000   0.0000   0.0000   0.0000   0.0000
     0.0000   0.0000   0.0000   0.0000   0.0000   0.0000   0.0000   0.0000
     0.0000   0.0000   0.0000   0.0000   0.0000   0.0000   0.0000   0.0000
     0.0000   0.0000   0.0000   0.0000   0.0000   0.0000   0.0000   0.0000
     0.0000   0.0000   0.0000   0.0000   0.0000   0.0000   0.0000   0.0000
     0.0000   0.0000   0.0000   0.0000   0.0000   0.0000   0.0000   0.0000
     0.0000   0.0000   0.0000   0.0000   0.0000   0.0000   0.0000   0.0000
     0.0000   0.0000   0.0000   0.0000   0.0000   0.0000   0.0000   0.0000
     0.0000   0.0000   0.0000   0.0000   0.0000   0.0000   0.0000

          k =-0.7057-0.0005-0.0001 ( 64250 PWs)   bands (ev):

   -17.6894 -17.6587 -17.6309 -17.6291 -17.5971 -17.5806 -17.5699 -17.5695
   -17.5618 -17.5613 -17.5565 -17.5529 -17.5496 -17.5488 -17.5231 -17.5160
   -17.5137 -17.5120 -17.5116 -17.5083 -17.5074 -17.5074 -17.4973 -17.4914
   -17.4862 -17.4818 -17.4811 -17.4795 -17.4766 -17.4765 -17.4743 -17.4673
   -17.4644 -17.4621 -17.4594 -17.4566 -17.4539 -17.4522 -17.4499 -17.4488
   -17.4448 -17.4406 -17.4385 -17.4341 -17.4332 -17.4287 -17.4250 -17.4231
   -17.4217 -17.4213 -17.4212 -17.4141 -17.4128 -17.4087 -17.4087 -17.3992
   -17.3980 -17.3951 -17.3911 -17.3908 -17.3871 -17.3852 -17.3827 -17.3771
   -17.3757 -17.3715 -17.3698 -17.3694 -17.3654 -17.3626 -17.3589 -17.3559
   -17.3521 -17.3518 -17.3509 -17.3483 -17.3468 -17.3456 -17.3439 -17.3422
   -17.3416 -17.3372 -17.3366 -17.3360 -17.3330 -17.3329 -17.3326 -17.3303
   -17.3295 -17.3232 -17.3208 -17.3169 -17.3163 -17.3159 -17.3152 -17.3124
   -17.3121 -17.3054 -17.3053 -17.3048 -17.3011 -17.2986 -17.2975 -17.2959
   -17.2955 -17.2924 -17.2918 -17.2873 -17.2861 -17.2839 -17.2837 -17.2808
   -17.2798 -17.2758 -17.2740 -17.2731 -17.2722 -17.2705 -17.2691 -17.2681
   -17.2674 -17.2668 -17.2642 -17.2602 -17.2597 -17.2589 -17.2581 -17.2572
   -17.2554 -17.2519 -17.2511 -17.2508 -17.2501 -17.2499 -17.2498 -17.2492
   -17.2487 -17.2482 -17.2481 -17.2466 -17.2464 -17.2442 -17.2422 -17.2419
   -17.2414 -17.2413 -17.2407 -17.2374 -17.2345 -17.2341 -17.2340 -17.2337
   -17.2336 -17.2325 -17.2323 -17.2315 -17.2299 -17.2286 -17.2280 -17.2275
   -17.2254 -17.2249 -17.2239 -17.2222 -17.2221 -17.2205 -17.2197 -17.2183
   -17.2179 -17.2172 -17.2166 -17.2156 -17.2156 -17.2145 -17.2144 -17.2142
   -17.2135 -17.2125 -17.2123 -17.2103 -17.2087 -17.2070 -17.2062 -17.2055
   -17.2052 -17.2039 -17.2034 -17.2017 -17.2003 -17.1996 -17.1974 -17.1963
   -17.1954 -17.1946 -17.1935 -17.1931 -17.1921 -17.1900 -17.1896 -17.1893
   -17.1879 -17.1877 -17.1861 -17.1827 -17.1818 -17.1812 -17.1803 -17.1794
   -17.1787 -17.1785 -17.1784 -17.1774 -17.1755 -17.1749 -17.1737 -17.1714
   -17.1707 -17.1697 -17.1689 -17.1678 -17.1664 -17.1656 -17.1632 -17.1624
   -17.1623 -17.1614 -17.1609 -17.1604 -17.1584 -17.1560 -17.1559 -17.1550
   -17.1521 -17.1506 -17.1503 -17.1488 -17.1444 -17.1436 -17.1420 -17.1390
   -17.1387 -17.1375 -17.1357 -17.1311 -17.1305 -17.1292 -17.1290 -17.1274
   -17.1264 -17.1255 -17.1197 -17.1189 -17.1154 -17.1123 -17.1099 -17.1098
   -17.1088 -17.1066 -17.1045 -17.1035 -17.1018 -17.0987 -17.0964 -17.0918
   -17.0866 -17.0828 -17.0820 -17.0792 -17.0786 -17.0697 -17.0694 -17.0670
   -17.0664 -17.0559 -17.0486 -17.0443 -17.0397 -17.0369 -17.0342 -17.0309
   -17.0277 -17.0106 -17.0080 -16.9877 -16.9846 -16.9659 -16.9586 -16.9481
   -16.9289 -16.8998  -5.1077  -5.0719  -4.9235  -4.8230  -4.7503  -4.6945
    -4.2959  -4.2187  -4.1644  -4.1464  -4.0903  -4.0505  -4.0111  -3.9678
    -3.9430  -3.8775  -3.8336  -3.7140  -3.6857  -3.6178  -3.5939  -3.5174
    -3.3894  -3.3709  -3.2805  -3.2257  -3.1885  -3.1686  -3.1383  -3.0689
    -2.9974  -2.9325  -2.9081  -2.8599  -2.8078  -2.7328  -2.7063  -2.6661
    -2.6147  -2.6068  -2.5795  -2.5066  -2.4754  -2.4308  -2.4026  -2.3599
    -2.3001  -2.2488  -2.2143  -2.1981  -2.1412  -2.0918  -2.0468  -1.9702
    -1.9570  -1.8892  -1.7558  -1.6611  -1.5248  -1.4594  -1.2662  -1.1217
    -1.0979  -1.0795  -1.0142  -0.9858  -0.9324  -0.9119  -0.7037  -0.6369
    -0.5575  -0.4704  -0.2278  -0.2023  -0.1636  -0.1149  -0.0847  -0.0396
     0.0043   0.0257   0.0411   0.0709   0.1160   0.1252   0.1642   0.1911
     0.2253   0.3002   0.3496   0.3773   0.4575   0.4623   0.4827   0.5236
     0.5319   0.6210   0.6454   0.6941   0.7062   0.7541   0.7746   0.8288
     0.8676   0.9217   1.0148   1.1156   1.4014   1.4151   1.4536   1.5295
     1.5908   1.5961   1.6170   1.7400   2.2861   2.3022   2.3663   2.3901
     2.4297   2.4800   2.4933   2.5616   2.6980   2.7626   2.7807   2.7990
     2.8242   2.8351   2.8694   2.8928   2.9104   2.9618   2.9715   2.9971
     3.4194   3.4324   3.4665   3.5022   3.5029   3.5219   3.5405   3.5505
     3.5751   3.5849   3.6055   3.6249   3.6326   3.6437   3.6520   3.6952
     3.6995   3.7087   3.7232   3.7284   3.7442   3.7588   3.7901   3.8369
     3.9799   4.0308   4.0586   4.1046   4.1441   4.1770   4.1871   4.2310
     4.2384   4.2440   4.2616   4.2796   4.2914   4.3080   4.3247   4.3310
     4.3468   4.3667   4.3806   4.3905   4.4053   4.4158   4.4302   4.4455
     4.4639   4.4817   4.4835   4.4932   4.4988   4.5197   4.5413   4.5537
     4.5573   4.5703   4.5831   4.5999   4.6164   4.6365   4.6602   4.6734
     4.6833   4.7006   4.7197   4.7404   4.8564   4.8878   4.9095   4.9138
     4.9278   4.9611   4.9834   5.0254   5.0764   5.1015   5.1327   5.1474
     5.1748   5.1955   5.2194   5.2335   5.3280   5.3769   5.3892   5.4024
     5.4463   5.4750   5.4860   5.5100   5.5137   5.5268   5.5505   5.5821
     5.5984   5.6168   5.6392   5.6767   5.6863   5.6948   5.7272   5.7358
     5.7833   5.8393   5.8502   5.8626   5.8939   5.9287   5.9392   5.9550
     5.9849   6.0270   6.2642   6.4195   6.4479   6.5063   6.8352   6.9285
[...]
     atom   77 type  1   force =   0.00000000E+00  0.00000000E+00  0.00000000E+00
     atom   78 type  1   force =   0.00000000E+00  0.00000000E+00  0.00000000E+00
     atom   79 type  1   force =   0.00000000E+00  0.00000000E+00  0.00000000E+00
     atom   80 type  1   force =   0.00000000E+00  0.00000000E+00  0.00000000E+00
     atom   81 type  2   force =   0.00000000E+00  0.00000000E+00  0.00000000E+00
     atom   82 type  2   force =   0.00000000E+00  0.00000000E+00  0.00000000E+00
     atom   83 type  2   force =   0.00000000E+00  0.00000000E+00  0.00000000E+00
     atom   84 type  1   force =   0.00000000E+00  0.00000000E+00  0.00000000E+00
     atom   85 type  2   force =   0.00000000E+00  0.00000000E+00  0.00000000E+00
     atom   86 type  2   force =   0.00000000E+00  0.00000000E+00  0.00000000E+00
     atom   87 type  2   force =   0.00000000E+00  0.00000000E+00  0.00000000E+00
     atom   88 type  2   force =   0.00000000E+00  0.00000000E+00  0.00000000E+00
     atom   89 type  2   force =   0.00000000E+00  0.00000000E+00  0.00000000E+00
     atom   90 type  1   force =   0.00000000E+00  0.00000000E+00  0.00000000E+00
     atom   91 type  1   force =   0.00000000E+00  0.00000000E+00  0.00000000E+00
     atom   92 type  1   force =   0.00000000E+00  0.00000000E+00  0.00000000E+00
     atom   93 type  2   force =   0.00000000E+00  0.00000000E+00  0.00000000E+00
     atom   94 type  1   force =   0.00000000E+00  0.00000000E+00  0.00000000E+00
     atom   95 type  1   force =   0.00000000E+00  0.00000000E+00  0.00000000E+00
     atom   96 type  1   force =   0.00000000E+00  0.00000000E+00  0.00000000E+00
     atom   97 type  1   force =   0.00000000E+00  0.00000000E+00  0.00000000E+00
     atom   98 type  1   force =   0.00000000E+00  0.00000000E+00  0.00000000E+00
     atom   99 type  1   force =   0.00000000E+00  0.00000000E+00  0.00000000E+00
     atom  100 type  1   force =   0.00000000E+00  0.00000000E+00  0.00000000E+00
     atom  101 type  1   force =   0.00000000E+00  0.00000000E+00  0.00000000E+00
     atom  102 type  1   force =   0.00000000E+00  0.00000000E+00  0.00000000E+00
     atom  103 type  2   force =   0.00000000E+00  0.00000000E+00  0.00000000E+00
     atom  104 type  1   force =   0.00000000E+00  0.00000000E+00  0.00000000E+00
     atom  105 type  2   force =   0.00000000E+00  0.00000000E+00  0.00000000E+00
     atom  106 type  1   force =   0.00000000E+00  0.00000000E+00  0.00000000E+00
     atom  107 type  2   force =   0.00000000E+00  0.00000000E+00  0.00000000E+00
     atom  108 type  2   force =   0.00000000E+00  0.00000000E+00  0.00000000E+00
     atom  109 type  2   force =   0.00000000E+00  0.00000000E+00  0.00000000E+00
     atom  110 type  1   force =   0.00000000E+00  0.00000000E+00  0.00000000E+00
     atom  111 type  1   force =   0.00000000E+00  0.00000000E+00  0.00000000E+00
     atom  112 type  1   force =   0.00000000E+00  0.00000000E+00  0.00000000E+00
     atom  113 type  1   force =   0.00000000E+00  0.00000000E+00  0.00000000E+00
     atom  114 type  1   force =   0.00000000E+00  0.00000000E+00  0.00000000E+00
     atom  115 type  1   force =   0.00000000E+00  0.00000000E+00  0.00000000E+00
     atom  116 type  2   force =   0.00000000E+00  0.00000000E+00  0.00000000E+00
     atom  117 type  1   force =   0.00000000E+00  0.00000000E+00  0.00000000E+00
     atom  118 type  2   force =   0.00000000E+00  0.00000000E+00  0.00000000E+00
     atom  119 type  2   force =   0.00000000E+00  0.00000000E+00  0.00000000E+00
     atom  120 type  1   force =   0.00000000E+00  0.00000000E+00  0.00000000E+00
     atom  121 type  1   force =   0.00000000E+00  0.00000000E+00  0.00000000E+00
     atom  122 type  1   force =   0.00000000E+00  0.00000000E+00  0.00000000E+00
     atom  123 type  2   force =   0.00000000E+00  0.00000000E+00  0.00000000E+00
     atom  124 type  2   force =   0.00000000E+00  0.00000000E+00  0.00000000E+00
     atom  125 type  1   force =   0.00000000E+00  0.00000000E+00  0.00000000E+00
     atom  126 type  2   force =   0.00000000E+00  0.00000000E+00  0.00000000E+00
     atom  127 type  2   force =   0.00000000E+00  0.00000000E+00  0.00000000E+00
     atom  128 type  1   force =   0.00000000E+00  0.00000000E+00  0.00000000E+00
     The SCF correction term to forces
     atom    1 type  2   force =   0.62171008E-05 -0.69241324E-05  0.16884637E-05
     atom    2 type  1   force =   0.14164265E-05 -0.14119796E-05 -0.53663383E-06
     atom    3 type  1   force =   0.60142179E-06 -0.59991758E-06 -0.32560929E-06
     atom    4 type  2   force =   0.50980058E-05 -0.52961410E-05 -0.73597556E-05
     atom    5 type  1   force =   0.14480470E-05 -0.99311946E-06  0.13344112E-07
     atom    6 type  1   force =   0.24276598E-05 -0.22870712E-05 -0.31625542E-06
     atom    7 type  2   force =   0.52871773E-05 -0.13398625E-04  0.37066507E-05
     atom    8 type  1   force =   0.16664188E-05 -0.24134307E-05  0.55581363E-07
     atom    9 type  2   force =   0.10442303E-05 -0.80736029E-05 -0.60726029E-06
     atom   10 type  2   force =   0.68923851E-05 -0.51471439E-05  0.49831425E-05
     atom   11 type  1   force =   0.17760728E-05 -0.39490174E-06  0.51654436E-06
     atom   12 type  2   force =   0.10240112E-04 -0.91985908E-06 -0.99348381E-06
     atom   13 type  1   force =   0.18751330E-05 -0.16047868E-05  0.26460615E-06
     atom   14 type  1   force =   0.17718209E-05 -0.21462888E-05 -0.21225484E-06
     atom   15 type  2   force =   0.62696049E-05 -0.74629311E-05 -0.16094703E-06
     atom   16 type  2   force =   0.39913824E-06 -0.53267795E-05  0.36658344E-05
     atom   17 type  1   force =   0.14131084E-06 -0.15330659E-05 -0.10331702E-05
     atom   18 type  2   force =   0.91216391E-06  0.17138699E-05 -0.13083597E-04
     atom   19 type  1   force =   0.90782467E-06  0.30354433E-06 -0.13921838E-05
     atom   20 type  2   force =  -0.16316014E-05  0.19740009E-05 -0.97916401E-05
     atom   21 type  2   force =   0.74043962E-07  0.12998996E-05 -0.22663601E-05
     atom   22 type  1   force =  -0.44779445E-06  0.32198907E-06 -0.20483630E-05
     atom   23 type  2   force =   0.16494375E-05 -0.38910877E-05 -0.59593713E-06
     atom   24 type  2   force =  -0.19331533E-05  0.21341534E-06 -0.55260650E-05
     atom   25 type  2   force =   0.20602796E-06  0.12944641E-05 -0.86623323E-05
     atom   26 type  2   force =   0.21129508E-05  0.45412863E-05 -0.27868152E-05
     atom   27 type  2   force =  -0.15948901E-05  0.74524229E-05 -0.47913612E-05
     atom   28 type  1   force =   0.77714416E-07  0.89376064E-07 -0.11393055E-05
     atom   29 type  2   force =  -0.91764454E-05  0.78973239E-05 -0.15523521E-05
     atom   30 type  1   force =   0.97806669E-06 -0.91764444E-06 -0.21401902E-05
     atom   31 type  1   force =  -0.72225989E-06 -0.38812501E-08 -0.25009218E-05
     atom   32 type  2   force =  -0.34978839E-07 -0.90797664E-05 -0.50373631E-05
     atom   33 type  2   force =   0.42082055E-05 -0.35818271E-05 -0.23054223E-05
     atom   34 type  1   force =   0.21128231E-06 -0.22404528E-06  0.15635865E-05
     atom   35 type  2   force =   0.46613411E-05  0.20621836E-06  0.57717649E-06
     atom   36 type  1   force =   0.55044857E-06 -0.18068772E-06  0.16704843E-05
     atom   37 type  1   force =   0.17896241E-05 -0.14535957E-05  0.11759771E-05
     atom   38 type  1   force =   0.45426277E-06 -0.21053083E-06  0.17340974E-05
     atom   39 type  2   force =  -0.20797110E-05 -0.39005063E-05 -0.10441529E-05
     atom   40 type  2   force =   0.32773458E-05 -0.43904575E-05  0.11922937E-04
     atom   41 type  1   force =   0.29596951E-06 -0.16429342E-05  0.11780983E-05
     atom   42 type  2   force =  -0.65575844E-06  0.68033511E-06  0.23186765E-05
     atom   43 type  1   force =   0.19951418E-05 -0.53373996E-06  0.39886226E-06
     atom   44 type  1   force =   0.49825607E-06 -0.27917942E-06  0.16167335E-05
     atom   45 type  2   force =   0.69412805E-05 -0.39421856E-05  0.32504705E-05
     atom   46 type  1   force =   0.56334571E-06 -0.17947041E-06  0.15278912E-05
     atom   47 type  1   force =   0.12403315E-05 -0.13931753E-05  0.14211972E-05
     atom   48 type  1   force =  -0.57619549E-07 -0.73683432E-06  0.19274140E-05
     atom   49 type  2   force =   0.32063838E-05 -0.11780789E-05  0.23531607E-05
     atom   50 type  1   force =  -0.71375701E-06  0.21098140E-05 -0.94767214E-07
     atom   51 type  2   force =   0.17417717E-05  0.66456592E-06 -0.73653613E-06
     atom   52 type  2   force =  -0.63025689E-05  0.56906366E-05 -0.13389209E-05
     atom   53 type  1   force =  -0.71959467E-06 -0.14744963E-06 -0.89195694E-06
     atom   54 type  2   force =  -0.90231264E-05  0.10375231E-04 -0.12585994E-04
     atom   55 type  1   force =  -0.29804205E-06  0.71416537E-07 -0.11818896E-05
     atom   56 type  1   force =  -0.23899886E-05  0.14947547E-05 -0.10919100E-05
     atom   57 type  1   force =  -0.12570452E-05  0.13726722E-05 -0.10639944E-05
     atom   58 type  1   force =  -0.12478802E-05  0.12289781E-05 -0.79508924E-06
     atom   59 type  1   force =  -0.10496201E-05  0.10899084E-05 -0.19422820E-05
     atom   60 type  1   force =  -0.19804913E-05  0.83288278E-06 -0.27269919E-07
     atom   61 type  2   force =  -0.72275516E-05 -0.69086178E-05 -0.63276192E-05
     atom   62 type  2   force =   0.13653145E-05  0.21904292E-05  0.39167682E-05
     atom   63 type  2   force =   0.20497452E-05  0.10750414E-04 -0.63279517E-05
     atom   64 type  1   force =  -0.11601786E-05  0.18533019E-05  0.32908661E-06
     atom   65 type  1   force =  -0.10167650E-05  0.47830417E-06  0.14303421E-05
     atom   66 type  2   force =   0.17193792E-05  0.40677055E-05  0.31242036E-05
     atom   67 type  1   force =  -0.10203690E-06  0.64341584E-06  0.18108101E-05
     atom   68 type  1   force =   0.51180446E-06 -0.20789153E-06  0.18179510E-05
     atom   69 type  1   force =  -0.59236358E-07  0.29850105E-06  0.21902273E-05
     atom   70 type  2   force =  -0.96272577E-06 -0.33273951E-05  0.52640449E-05
     atom   71 type  1   force =  -0.60978273E-06  0.17063655E-06  0.18503066E-05
     atom   72 type  2   force =   0.52571303E-05 -0.70301872E-05  0.70664481E-05
     atom   73 type  1   force =  -0.90182342E-06 -0.56045312E-06  0.25911836E-05
     atom   74 type  2   force =   0.44328095E-05 -0.17861421E-05  0.35572430E-05
     atom   75 type  2   force =  -0.18809868E-05  0.72706572E-05  0.20144263E-05
     atom   76 type  2   force =   0.31072315E-05 -0.12871849E-05  0.10136438E-05
     atom   77 type  1   force =   0.10841258E-06 -0.10017176E-08  0.18070122E-05
     atom   78 type  1   force =   0.41811074E-06 -0.28573171E-06  0.55705757E-06
     atom   79 type  1   force =   0.24978546E-06 -0.89414938E-07  0.22803270E-05
     atom   80 type  1   force =  -0.41231596E-06 -0.31465588E-06  0.15053006E-05
     atom   81 type  2   force =  -0.27536474E-05  0.15400695E-05  0.22466394E-05
     atom   82 type  2   force =  -0.93183975E-05  0.11180392E-04 -0.33901047E-05
     atom   83 type  2   force =   0.23923572E-06  0.57219197E-05  0.19683896E-05
     atom   84 type  1   force =  -0.17354839E-05  0.11432832E-05 -0.56961822E-06
     atom   85 type  2   force =  -0.15360956E-04  0.34860023E-05  0.30350856E-05
     atom   86 type  2   force =  -0.79809383E-05  0.97941444E-05 -0.14732602E-05
     atom   87 type  2   force =  -0.53996459E-05  0.11465120E-04 -0.30972701E-05
     atom   88 type  2   force =  -0.31138903E-05  0.21193865E-05  0.82740853E-06
     atom   89 type  2   force =  -0.44105862E-05  0.88914862E-05  0.21201332E-05
     atom   90 type  1   force =  -0.11381981E-05  0.17251006E-05 -0.12790153E-06
     atom   91 type  1   force =  -0.28106128E-05  0.16846751E-05 -0.21355803E-06
     atom   92 type  1   force =  -0.15762409E-05  0.31489632E-06  0.17407470E-06
     atom   93 type  2   force =  -0.11697501E-04  0.13482234E-04  0.74699178E-05
     atom   94 type  1   force =  -0.29611876E-06  0.15583831E-05  0.11181699E-06
     atom   95 type  1   force =  -0.17420969E-05  0.22337168E-05 -0.25871350E-06
     atom   96 type  1   force =  -0.11997781E-05  0.44731694E-06 -0.13848217E-06
     atom   97 type  1   force =   0.43821487E-06 -0.10269390E-05  0.86732718E-06
     atom   98 type  1   force =   0.12397050E-05 -0.11399154E-05  0.30458302E-06
     atom   99 type  1   force =   0.12597775E-05 -0.10683387E-05  0.42688498E-06
     atom  100 type  1   force =   0.84129855E-06 -0.13954679E-05 -0.69810434E-07
     atom  101 type  1   force =   0.14209481E-05 -0.14817900E-05  0.58833132E-06
     atom  102 type  1   force =   0.95984896E-06 -0.68972822E-06  0.81674241E-06
     atom  103 type  2   force =   0.38184652E-05  0.27897788E-05  0.27741834E-05
     atom  104 type  1   force =   0.10993513E-05 -0.13366827E-05  0.14040249E-05
     atom  105 type  2   force =   0.12775673E-05 -0.65578896E-06  0.70326358E-05
     atom  106 type  1   force =   0.11807599E-05 -0.20479758E-05  0.98556603E-07
     atom  107 type  2   force =  -0.95997211E-06 -0.63877815E-05 -0.51205512E-05
     atom  108 type  2   force =   0.85290386E-05 -0.52948011E-05  0.34314873E-05
     atom  109 type  2   force =   0.82385409E-05  0.63985862E-06  0.89781252E-06
     atom  110 type  1   force =   0.10876809E-05 -0.19076638E-06  0.65334229E-06
     atom  111 type  1   force =   0.10377773E-05 -0.97714367E-06  0.77133240E-06
     atom  112 type  1   force =   0.56646053E-06 -0.15174571E-05  0.50717907E-06
     atom  113 type  1   force =  -0.24228823E-06  0.18940592E-06  0.22792243E-06
     atom  114 type  1   force =  -0.57873262E-06  0.21517048E-06 -0.13188129E-05
     atom  115 type  1   force =   0.22675937E-06 -0.74917839E-06 -0.71280523E-08
     atom  116 type  2   force =  -0.67372406E-05  0.71891275E-05 -0.81829659E-05
     atom  117 type  1   force =  -0.97779003E-06  0.99098506E-06 -0.19010263E-06
     atom  118 type  2   force =  -0.66326613E-05  0.55083440E-05 -0.47084129E-05
     atom  119 type  2   force =   0.48882852E-06  0.46791433E-05 -0.25954469E-05
     atom  120 type  1   force =  -0.10572181E-05  0.10291146E-05 -0.12404502E-05
     atom  121 type  1   force =  -0.14099927E-05  0.65594310E-06 -0.16778270E-05
     atom  122 type  1   force =  -0.16569032E-06 -0.51253568E-06 -0.11620578E-05
     atom  123 type  2   force =  -0.54723416E-05  0.12890470E-05 -0.62045870E-05
     atom  124 type  2   force =   0.22260468E-05  0.86801483E-06  0.24223462E-05
     atom  125 type  1   force =  -0.11652402E-05  0.59040631E-06 -0.17531842E-05
     atom  126 type  2   force =   0.73344187E-06  0.69455424E-06 -0.11913998E-05
     atom  127 type  2   force =  -0.45282076E-06  0.10521058E-04 -0.82318619E-05
     atom  128 type  1   force =  -0.52679109E-06  0.70382944E-06 -0.73758457E-06

     Total force =     0.710194     Total SCF correction =     0.000074


     entering subroutine stress ...

          total   stress  (Ry/bohr**3)                   (kbar)     P=    3.00
   0.0000119699  -0.0000145735   0.0000037264          1.76     -2.14      0.55
  -0.0000145735   0.0000220849   0.0000126096         -2.14      3.25      1.85
   0.0000037264   0.0000126096   0.0000270792          0.55      1.85      3.98

     kinetic stress (kbar)   5990.20      4.68     -1.31
                                4.68   5992.49     -3.23
                               -1.31     -3.23   5993.63

     local   stress (kbar)  -6120.81  -1364.18   3072.82
                            -1364.18  -5228.09  -1222.79
                             3072.82  -1222.79  -3972.09

     nonloc. stress (kbar)   2432.00     -3.06      0.85
                               -3.06   2431.31      1.84
                                0.85      1.84   2430.82

     hartree stress (kbar)  16252.43    705.26  -1534.69
                              705.26  15831.39    570.87
                            -1534.69    570.87  15216.97

     exc-cor stress (kbar)   9984.99     -0.09      0.06
                               -0.09   9984.95      0.09
                                0.06      0.09   9984.93

     corecor stress (kbar) -15199.61      0.31     -0.02
                                0.31 -15199.58     -0.13
                               -0.02     -0.13 -15199.53

     ewald   stress (kbar) -13337.44    654.95  -1537.16
                              654.95 -13809.22    655.20
                            -1537.16    655.20 -14450.76

     hubbard stress (kbar)      0.00      0.00      0.00
                                0.00      0.00      0.00
                                0.00      0.00      0.00

     london  stress (kbar)      0.00      0.00      0.00
                                0.00      0.00      0.00
                                0.00      0.00      0.00

     XDM     stress (kbar)      0.00      0.00      0.00
                                0.00      0.00      0.00
                                0.00      0.00      0.00

     dft-nl  stress (kbar)      0.00      0.00      0.00
                                0.00      0.00      0.00
                                0.00      0.00      0.00



     Writing output data file SiGe_zns.scf.in.super.444.c.066.save

     init_run     :    882.33s CPU    754.89s WALL (       1 calls)
     electrons    :  43583.17s CPU  38194.59s WALL (       1 calls)
     forces       :    614.72s CPU    471.40s WALL (       1 calls)
     stress       :   3599.66s CPU   3598.13s WALL (       1 calls)

     Called by init_run:
     wfcinit      :    818.61s CPU    689.83s WALL (       1 calls)
     potinit      :      5.05s CPU      5.27s WALL (       1 calls)

     Called by electrons:
     c_bands      :  38407.27s CPU  33251.94s WALL (      17 calls)
     sum_band     :   4478.90s CPU   4230.67s WALL (      17 calls)
     v_of_rho     :      9.91s CPU     11.31s WALL (      17 calls)
     v_h          :      0.65s CPU      0.87s WALL (      17 calls)
     v_xc         :     10.35s CPU     11.65s WALL (      19 calls)
     newd         :    714.62s CPU    726.39s WALL (      17 calls)
     mix_rho      :     19.71s CPU     21.59s WALL (      17 calls)

     Called by c_bands:
     init_us_2    :     56.77s CPU     58.14s WALL (     296 calls)
     cegterg      :  38077.86s CPU  32897.74s WALL (     136 calls)

     Called by sum_band:
     sum_band:bec :     16.27s CPU     16.50s WALL (     136 calls)
     addusdens    :    501.97s CPU    506.52s WALL (      17 calls)

     Called by *egterg:
     h_psi        :  16277.99s CPU  14804.23s WALL (     542 calls)
     s_psi        :   4005.48s CPU   2659.13s WALL (     542 calls)
     g_psi        :      7.03s CPU      8.12s WALL (     398 calls)
     cdiaghg      :  11011.12s CPU  10506.89s WALL (     526 calls)
     cegterg:over :   3249.99s CPU   2375.62s WALL (     398 calls)
     cegterg:upda :   1591.08s CPU   1091.96s WALL (     398 calls)
     cegterg:last :   1060.82s CPU    693.50s WALL (     136 calls)

     Called by h_psi:
     h_psi:vloc   :   7957.44s CPU   9155.58s WALL (     542 calls)
     h_psi:vnl    :   8301.31s CPU   5628.82s WALL (     542 calls)
     add_vuspsi   :   3983.87s CPU   2642.98s WALL (     542 calls)

     General routines
     calbec       :   6988.36s CPU   5007.00s WALL (     694 calls)
     fft          :    240.58s CPU    244.06s WALL (     297 calls)
     ffts         :     12.40s CPU     13.83s WALL (     495 calls)
     fftw         :   8887.35s CPU  10348.53s WALL (  508214 calls)
     interpolate  :      2.62s CPU      3.15s WALL (      34 calls)

     Parallel routines
     fft_scatter  :   5909.40s CPU   6785.73s WALL (  509006 calls)

     PWSCF        :    13h32m CPU       11h58m WALL


   This run was terminated on:   1: 7:11   5Feb2017            

=------------------------------------------------------------------------------=
   JOB DONE.
=------------------------------------------------------------------------------=
