
     Program PWSCF v.5.1 starts on 27Sep2017 at 10:47: 8 

     This program is part of the open-source Quantum ESPRESSO suite
     for quantum simulation of materials; please cite
         "P. Giannozzi et al., J. Phys.:Condens. Matter 21 395502 (2009);
          URL http://www.quantum-espresso.org", 
     in publications or presentations arising from this work. More details at
     http://www.quantum-espresso.org/quote

     Parallel version (MPI), running on     8 processors
     R & G space division:  proc/nbgrp/npool/nimage =       8
     Reading input from /tmp/SiGe_zns.scf.in.super.222.largedist.04.16451/SiGe_zns.scf.in.super.222.largedist.04.t
Warning: card &IONS ignored
Warning: card   ION_DYNAMICS='BFGS', ignored
Warning: card / ignored
Warning: card &CELL ignored
Warning: card  CELL_DYNAMICS = 'BFGS' ignored
Warning: card / ignored
     Message from routine read_cards :
     DEPRECATED: no units specified in CELL_PARAMETERS card

     Current dimensions of program PWSCF are:
     Max number of different atomic species (ntypx) = 10
     Max number of k-points (npk) =  40000
     Max angular momentum in pseudopotentials (lmaxx) =  3
 kfg - two_fermi_energies  F

     Subspace diagonalization in iterative solution of the eigenvalue problem:
     a serial algorithm will be used


     Parallelization info
     --------------------
     sticks:   dense  smooth     PW     G-vecs:    dense   smooth      PW
     Min         379     263     74                13630     7968    1208
     Max         380     264     75                13631     7987    1211
     Sum        3035    2107    595               109041    63811    9675



     bravais-lattice index     =            0
     lattice parameter (alat)  =    14.855552967  a.u.
     unit-cell volume          =    2282.4951 (a.u.)^3
     number of atoms/cell      =           16
     number of atomic types    =            2
     number of electrons       =       144.00
     number of Kohn-Sham states=           86
     kinetic-energy cutoff     =      35.0000  Ry
     charge density cutoff     =     200.0000  Ry
     convergence threshold     =      1.0E-09
     mixing beta               =       0.3000
     number of iterations used =            8  local-TF  mixing
     Exchange-correlation      = SLA  PW   PSX  PSC ( 1  4 10  8 0)
     A smooth kinetic-energy cutoff is imposed at      34.5000 Ry
     height of the smooth step-function =             800.0000 Ry
     width of the smooth step-function  =               1.0000 Ry


     celldm(1)=  14.855553  celldm(2)=   0.000000  celldm(3)=   0.000000
     celldm(4)=   0.000000  celldm(5)=   0.000000  celldm(6)=   0.000000

     crystal axes: (cart. coord. in units of alat)
               a(1) = (  -0.006176981512   0.704048401485   0.710125125078 )  
               a(2) = (   0.701294916812   0.003148200087   0.709112327154 )  
               a(3) = (   0.701950277304   0.697976947517   0.006721243928 )  

     reciprocal axes: (cart. coord. in units 2 pi/alat)
               b(1) = ( -0.710877  0.708184  0.699896 )  
               b(2) = (  0.705125 -0.716035  0.716041 )  
               b(3) = (  0.713880  0.721598 -0.709213 )  


     PseudoPot. # 1 for Si read from file:
     /users/kfg/psuedo/gbrv_1.5/si.pbesol.UPF
     MD5 check sum: ef58ba74faed4df802eb8a9742fc00a8
     Pseudo is Ultrasoft + core correction, Zval =  4.0
     Generated by new atomic code, or converted to UPF format
     Using radial grid of  899 points,  6 beta functions with: 
                l(1) =   0
                l(2) =   0
                l(3) =   1
                l(4) =   1
                l(5) =   2
                l(6) =   2
     Q(r) pseudized with  8 coefficients,  rinner =    0.900   0.900   0.900
                                                       0.900   0.900

     PseudoPot. # 2 for Ge read from file:
     /users/kfg/psuedo/gbrv_1.5/ge.pbesol.UPF
     MD5 check sum: 7bed0412183f5e553a4d27ec7023354d
     Pseudo is Ultrasoft + core correction, Zval = 14.0
     Generated by new atomic code, or converted to UPF format
     Using radial grid of  873 points,  6 beta functions with: 
                l(1) =   0
                l(2) =   0
                l(3) =   1
                l(4) =   1
                l(5) =   2
                l(6) =   2
     Q(r) pseudized with  8 coefficients,  rinner =    1.400   1.400   1.400
                                                       1.400   1.400

     atomic species   valence    mass     pseudopotential
        Si             4.00    28.08550     Si( 1.00)
        Ge            14.00    72.64000     Ge( 1.00)

     No symmetry found


                                    s                        frac. trans.

      isym =  1     identity                                     

 cryst.   s( 1) = (     1          0          0      )
                  (     0          1          0      )
                  (     0          0          1      )

 cart.    s( 1) = (  1.0000000 -0.0000000 -0.0000000 )
                  (  0.0000000  1.0000000  0.0000000 )
                  ( -0.0000000 -0.0000000  1.0000000 )


     point group C_1 (1)    
     there are  1 classes
     the character table:

       E    
A      1.00

     the symmetry operations in each class:
     E        1

   Cartesian axes

     site n.     atom                  positions (alat units)
         1           Si  tau(   1) = (    0.01084553260    0.01709058788   -0.01642676003  )
         2           Ge  tau(   2) = (    0.16891886237    0.18976987518    0.19661319959  )
         3           Si  tau(   3) = (    0.35078791637    0.33018671636    0.00143452428  )
         4           Ge  tau(   4) = (    0.53859316500    0.51439489195    0.16824053964  )
         5           Si  tau(   5) = (    0.33135718235   -0.01021341797    0.35635203655  )
         6           Ge  tau(   6) = (    0.51081142103    0.18349539671    0.51744056872  )
         7           Si  tau(   7) = (    0.70508862547    0.35230126159    0.35168342161  )
         8           Ge  tau(   8) = (    0.86096965801    0.53841334794    0.53206127465  )
         9           Si  tau(   9) = (   -0.00631609006    0.34458908713    0.35187098996  )
        10           Ge  tau(  10) = (    0.17967423487    0.51659055312    0.52789443778  )
        11           Si  tau(  11) = (    0.36500598573    0.69726663964    0.36952691016  )
        12           Ge  tau(  12) = (    0.52940200111    0.86188206715    0.53242445564  )
        13           Si  tau(  13) = (    0.34261737093    0.35719787206    0.69054015986  )
        14           Ge  tau(  14) = (    0.52347824633    0.54157015365    0.90675508077  )
        15           Si  tau(  15) = (    0.68688530889    0.68721404083    0.70748233608  )
        16           Ge  tau(  16) = (    0.87959910311    0.86755610063    0.90218573251  )

   Crystallographic axes

     site n.     atom                  positions (cryst. coord.)
         1           Si  tau(   1) = (   -0.00710357776   -0.01635222253    0.03172501698  )
         2           Ge  tau(   2) = (    0.15192016106    0.12401025555    0.11808458694  )
         3           Si  tau(   3) = (   -0.01453007065    0.01195152930    0.48766505081  )
         4           Ge  tau(   4) = (    0.09916358161    0.13191826451    0.63635858937  )
         5           Si  tau(   5) = (    0.00662220127    0.49612412568   -0.02355044284  )
         6           Ge  tau(   6) = (    0.12897894550    0.59930561399    0.13009203620  )
         7           Si  tau(   7) = (   -0.00559531190    0.49673568106    0.50814974612  )
         8           Ge  tau(   8) = (    0.14163970304    0.60254656442    0.62580176299  )
         9           Si  tau(   9) = (    0.49479523185    0.00076264023   -0.00540577432  )
        10           Ge  tau(  10) = (    0.60758571994    0.13479011100    0.12664666405  )
        11           Si  tau(  11) = (    0.49294883305    0.02270429118    0.50164310628  )
        12           Ge  tau(  12) = (    0.60667277664    0.13739504334    0.62225912043  )
        13           Si  tau(  13) = (    0.49270901812    0.48027710502    0.01260051218  )
        14           Ge  tau(  14) = (    0.64603655364    0.63060847346    0.12141356447  )
        15           Si  tau(  15) = (    0.49354680491    0.49885746159    0.48448978132  )
        16           Ge  tau(  16) = (    0.62053842133    0.64502927299    0.61411245363  )

     number of k points=    36  gaussian smearing, width (Ry)=  0.0150
                       cart. coord. in units 2pi/alat
        k(    1) = (   0.0000000   0.0000000   0.0000000), wk =   0.0312500
        k(    2) = (   0.1784699   0.1803995  -0.1773033), wk =   0.0625000
        k(    3) = (  -0.3569399  -0.3607990   0.3546067), wk =   0.0312500
        k(    4) = (   0.1762813  -0.1790087   0.1790102), wk =   0.0625000
        k(    5) = (   0.3547513   0.0013908   0.0017069), wk =   0.0625000
        k(    6) = (  -0.1806585  -0.5398076   0.5336169), wk =   0.0625000
        k(    7) = (  -0.0021886  -0.3594081   0.3563136), wk =   0.0625000
        k(    8) = (  -0.3525627   0.3580173  -0.3580204), wk =   0.0312500
        k(    9) = (  -0.1740928   0.5384168  -0.5353238), wk =   0.0625000
        k(   10) = (  -0.7095026  -0.0027817  -0.0034137), wk =   0.0312500
        k(   11) = (  -0.1777191   0.1770459   0.1749739), wk =   0.0625000
        k(   12) = (   0.0007508   0.3574454  -0.0023295), wk =   0.0625000
        k(   13) = (  -0.5346590  -0.1837531   0.5295806), wk =   0.0625000
        k(   14) = (  -0.3561891  -0.0033536   0.3522772), wk =   0.0625000
        k(   15) = (  -0.0014378  -0.0019628   0.3539841), wk =   0.0625000
        k(   16) = (   0.1770322   0.1784367   0.1766807), wk =   0.0625000
        k(   17) = (  -0.3583776  -0.3627617   0.7085908), wk =   0.0625000
        k(   18) = (  -0.1799077  -0.1823622   0.5312874), wk =   0.0625000
        k(   19) = (  -0.5302818   0.5350632  -0.1830465), wk =   0.0625000
        k(   20) = (  -0.3518119   0.7154627  -0.3603499), wk =   0.0625000
        k(   21) = (  -0.8872217   0.1742642   0.1715602), wk =   0.0625000
        k(   22) = (  -0.7087518   0.3546637  -0.0057432), wk =   0.0625000
        k(   23) = (  -0.3540005   0.3560545  -0.0040363), wk =   0.0625000
        k(   24) = (  -0.1755305   0.5364540  -0.1813397), wk =   0.0625000
        k(   25) = (  -0.7109403  -0.0047444   0.3505704), wk =   0.0625000
        k(   26) = (  -0.5324704   0.1756551   0.1732670), wk =   0.0625000
        k(   27) = (   0.3554383  -0.3540918  -0.3499478), wk =   0.0312500
        k(   28) = (   0.5339082  -0.1736923  -0.5272511), wk =   0.0625000
        k(   29) = (  -0.0015016  -0.7148907   0.0046589), wk =   0.0312500
        k(   30) = (   0.5317196  -0.5331004  -0.1709376), wk =   0.0625000
        k(   31) = (   0.7101895  -0.3527009  -0.3482409), wk =   0.0625000
        k(   32) = (   0.1747797  -0.8938994   0.1836691), wk =   0.0625000
        k(   33) = (   0.3532497  -0.7134999   0.0063658), wk =   0.0625000
        k(   34) = (   0.0028756   0.0039255  -0.7079682), wk =   0.0312500
        k(   35) = (   0.1813455   0.1843250  -0.8852715), wk =   0.0625000
        k(   36) = (  -0.3540643  -0.3568734  -0.3533615), wk =   0.0312500

                       cryst. coord.
        k(    1) = (   0.0000000   0.0000000   0.0000000), wk =   0.0312500
        k(    2) = (  -0.0000000   0.0000000   0.2500000), wk =   0.0625000
        k(    3) = (   0.0000000  -0.0000000  -0.5000000), wk =   0.0312500
        k(    4) = (  -0.0000000   0.2500000  -0.0000000), wk =   0.0625000
        k(    5) = (  -0.0000000   0.2500000   0.2500000), wk =   0.0625000
        k(    6) = (  -0.0000000   0.2500000  -0.5000000), wk =   0.0625000
        k(    7) = (   0.0000000   0.2500000  -0.2500000), wk =   0.0625000
        k(    8) = (   0.0000000  -0.5000000   0.0000000), wk =   0.0312500
        k(    9) = (   0.0000000  -0.5000000   0.2500000), wk =   0.0625000
        k(   10) = (   0.0000000  -0.5000000  -0.5000000), wk =   0.0312500
        k(   11) = (   0.2500000   0.0000000   0.0000000), wk =   0.0625000
        k(   12) = (   0.2500000   0.0000000   0.2500000), wk =   0.0625000
        k(   13) = (   0.2500000   0.0000000  -0.5000000), wk =   0.0625000
        k(   14) = (   0.2500000   0.0000000  -0.2500000), wk =   0.0625000
        k(   15) = (   0.2500000   0.2500000  -0.0000000), wk =   0.0625000
        k(   16) = (   0.2500000   0.2500000   0.2500000), wk =   0.0625000
        k(   17) = (   0.2500000   0.2500000  -0.5000000), wk =   0.0625000
        k(   18) = (   0.2500000   0.2500000  -0.2500000), wk =   0.0625000
        k(   19) = (   0.2500000  -0.5000000   0.0000000), wk =   0.0625000
        k(   20) = (   0.2500000  -0.5000000   0.2500000), wk =   0.0625000
        k(   21) = (   0.2500000  -0.5000000  -0.5000000), wk =   0.0625000
        k(   22) = (   0.2500000  -0.5000000  -0.2500000), wk =   0.0625000
        k(   23) = (   0.2500000  -0.2500000   0.0000000), wk =   0.0625000
        k(   24) = (   0.2500000  -0.2500000   0.2500000), wk =   0.0625000
        k(   25) = (   0.2500000  -0.2500000  -0.5000000), wk =   0.0625000
        k(   26) = (   0.2500000  -0.2500000  -0.2500000), wk =   0.0625000
        k(   27) = (  -0.5000000  -0.0000000  -0.0000000), wk =   0.0312500
        k(   28) = (  -0.5000000   0.0000000   0.2500000), wk =   0.0625000
        k(   29) = (  -0.5000000  -0.0000000  -0.5000000), wk =   0.0312500
        k(   30) = (  -0.5000000   0.2500000  -0.0000000), wk =   0.0625000
        k(   31) = (  -0.5000000   0.2500000   0.2500000), wk =   0.0625000
        k(   32) = (  -0.5000000   0.2500000  -0.5000000), wk =   0.0625000
        k(   33) = (  -0.5000000   0.2500000  -0.2500000), wk =   0.0625000
        k(   34) = (  -0.5000000  -0.5000000   0.0000000), wk =   0.0312500
        k(   35) = (  -0.5000000  -0.5000000   0.2500000), wk =   0.0625000
        k(   36) = (  -0.5000000  -0.5000000  -0.5000000), wk =   0.0312500

     Dense  grid:   109041 G-vectors     FFT dimensions: (  72,  72,  72)

     Smooth grid:    63811 G-vectors     FFT dimensions: (  60,  60,  60)

     Largest allocated arrays     est. size (Mb)     dimensions
        Kohn-Sham Wavefunctions         1.33 Mb     (    1010,   86)
        NL pseudopotentials             4.44 Mb     (    1010,  288)
        Each V/rho on FFT grid          0.71 Mb     (   46656)
        Each G-vector array             0.10 Mb     (   13630)
        G-vector shells                 0.10 Mb     (   13406)
     Largest temporary arrays     est. size (Mb)     dimensions
        Auxiliary wavefunctions         5.30 Mb     (    1010,  344)
        Each subspace H/S matrix        1.81 Mb     (     344,  344)
        Each <psi_i|beta_j> matrix      0.38 Mb     (     288,   86)
        Arrays for rho mixing           5.70 Mb     (   46656,    8)

     Check: negative/imaginary core charge=   -0.000001    0.000000

     Initial potential from superposition of free atoms

     starting charge  143.98835, renormalised to  144.00000
     Starting wfc are  104 randomized atomic wfcs

     total cpu time spent up to now is       33.0 secs

     per-process dynamical memory:    71.0 Mb

     Self-consistent Calculation

     iteration #  1     ecut=    35.00 Ry     beta=0.30
     Davidson diagonalization with overlap
     ethr =  1.00E-02,  avg # of iterations =  3.0

     Threshold (ethr) on eigenvalues was too large:
     Diagonalizing with lowered threshold

     Davidson diagonalization with overlap
     ethr =  2.51E-04,  avg # of iterations =  5.4

     total cpu time spent up to now is      229.1 secs

     total energy              =   -1781.86681534 Ry
     Harris-Foulkes estimate   =   -1781.90543374 Ry
     estimated scf accuracy    <       0.36014134 Ry

     iteration #  2     ecut=    35.00 Ry     beta=0.30
     Davidson diagonalization with overlap
     ethr =  2.50E-04,  avg # of iterations =  1.0

     total cpu time spent up to now is      297.4 secs

     total energy              =   -1781.79355467 Ry
     Harris-Foulkes estimate   =   -1781.86882241 Ry
     estimated scf accuracy    <       0.22179708 Ry

     iteration #  3     ecut=    35.00 Ry     beta=0.30
     Davidson diagonalization with overlap
     ethr =  1.54E-04,  avg # of iterations =  2.1

     total cpu time spent up to now is      378.1 secs

     total energy              =   -1781.80864267 Ry
     Harris-Foulkes estimate   =   -1781.80883802 Ry
     estimated scf accuracy    <       0.00403060 Ry

     iteration #  4     ecut=    35.00 Ry     beta=0.30
     Davidson diagonalization with overlap
     ethr =  2.80E-06,  avg # of iterations =  8.3

     total cpu time spent up to now is      540.2 secs

     total energy              =   -1781.80900203 Ry
     Harris-Foulkes estimate   =   -1781.80937886 Ry
     estimated scf accuracy    <       0.00191827 Ry

     iteration #  5     ecut=    35.00 Ry     beta=0.30
     Davidson diagonalization with overlap
     ethr =  1.33E-06,  avg # of iterations =  2.0

     total cpu time spent up to now is      624.1 secs

     total energy              =   -1781.80916238 Ry
     Harris-Foulkes estimate   =   -1781.80917574 Ry
     estimated scf accuracy    <       0.00009743 Ry

     iteration #  6     ecut=    35.00 Ry     beta=0.30
     Davidson diagonalization with overlap
     ethr =  6.77E-08,  avg # of iterations =  1.4

     total cpu time spent up to now is      696.6 secs

     total energy              =   -1781.80914628 Ry
     Harris-Foulkes estimate   =   -1781.80916648 Ry
     estimated scf accuracy    <       0.00005171 Ry

     iteration #  7     ecut=    35.00 Ry     beta=0.30
     Davidson diagonalization with overlap
     ethr =  3.59E-08,  avg # of iterations =  2.2

     total cpu time spent up to now is      782.9 secs

     total energy              =   -1781.80915294 Ry
     Harris-Foulkes estimate   =   -1781.80915264 Ry
     estimated scf accuracy    <       0.00000524 Ry

     iteration #  8     ecut=    35.00 Ry     beta=0.30
     Davidson diagonalization with overlap
     ethr =  3.64E-09,  avg # of iterations =  2.0

     total cpu time spent up to now is      868.7 secs

     total energy              =   -1781.80915319 Ry
     Harris-Foulkes estimate   =   -1781.80915356 Ry
     estimated scf accuracy    <       0.00000175 Ry

     iteration #  9     ecut=    35.00 Ry     beta=0.30
     Davidson diagonalization with overlap
     ethr =  1.21E-09,  avg # of iterations =  2.1

     total cpu time spent up to now is      964.9 secs

     total energy              =   -1781.80915354 Ry
     Harris-Foulkes estimate   =   -1781.80915352 Ry
     estimated scf accuracy    <       0.00000023 Ry

     iteration # 10     ecut=    35.00 Ry     beta=0.30
     Davidson diagonalization with overlap
     ethr =  1.62E-10,  avg # of iterations =  1.7

     total cpu time spent up to now is     1038.6 secs

     total energy              =   -1781.80915354 Ry
     Harris-Foulkes estimate   =   -1781.80915355 Ry
     estimated scf accuracy    <       0.00000008 Ry

     iteration # 11     ecut=    35.00 Ry     beta=0.30
     Davidson diagonalization with overlap
     ethr =  5.77E-11,  avg # of iterations =  2.1

     total cpu time spent up to now is     1135.3 secs

     total energy              =   -1781.80915358 Ry
     Harris-Foulkes estimate   =   -1781.80915356 Ry
     estimated scf accuracy    <          3.8E-09 Ry

     iteration # 12     ecut=    35.00 Ry     beta=0.30
     Davidson diagonalization with overlap
     ethr =  2.65E-12,  avg # of iterations =  2.1

     total cpu time spent up to now is     1217.5 secs

     total energy              =   -1781.80915359 Ry
     Harris-Foulkes estimate   =   -1781.80915358 Ry
     estimated scf accuracy    <          1.9E-09 Ry

     iteration # 13     ecut=    35.00 Ry     beta=0.30
     Davidson diagonalization with overlap
     ethr =  1.33E-12,  avg # of iterations =  2.1

     total cpu time spent up to now is     1316.4 secs

     End of self-consistent calculation

          k = 0.0000 0.0000 0.0000 (  7919 PWs)   bands (ev):

   -17.2549 -17.2365 -17.2325 -17.2302 -17.2271 -17.2114 -17.2080 -17.2045
   -17.1955 -17.1944 -17.1908 -17.1839 -17.1729 -17.1643 -17.1558 -17.1419
   -17.1345 -17.1325 -17.1293 -17.1256 -17.0223 -16.9890 -16.9857 -16.9681
   -16.9630 -16.8879 -16.8794 -16.8748 -16.8571 -16.8546 -16.7828 -16.7785
   -16.7724 -16.7618 -16.7566 -16.6828 -16.6707 -16.6624 -16.6522 -16.6497
    -5.2068  -3.2172  -3.0725  -2.9993  -2.6891  -1.6526  -1.4968  -1.2393
    -0.8347  -0.7336  -0.3553  -0.0343   0.2022   0.3110   0.4074   4.0925
     4.2420   4.2644   4.3799   4.4464   4.5259   5.6620   5.8174   5.9081
     6.0097   6.1053   6.1507   6.2465   6.6499   7.3139   7.3707   7.5791
     7.7093   7.8006   7.8385   8.0214   8.0974   8.1133   8.2175   8.3540
     8.4981   8.5829   9.0579   9.6757   9.8391  10.0063

     occupation numbers 
     1.0000   1.0000   1.0000   1.0000   1.0000   1.0000   1.0000   1.0000
     1.0000   1.0000   1.0000   1.0000   1.0000   1.0000   1.0000   1.0000
     1.0000   1.0000   1.0000   1.0000   1.0000   1.0000   1.0000   1.0000
     1.0000   1.0000   1.0000   1.0000   1.0000   1.0000   1.0000   1.0000
     1.0000   1.0000   1.0000   1.0000   1.0000   1.0000   1.0000   1.0000
     1.0000   1.0000   1.0000   1.0000   1.0000   1.0000   1.0000   1.0000
     1.0000   1.0000   1.0000   1.0000   1.0000   1.0000   1.0000   1.0000
     1.0000   1.0000   1.0000   1.0000   1.0000   1.0000   1.0000   1.0000
     1.0000   1.0000   1.0000   1.0000   1.0000   0.9756   0.9427   0.5530
     0.2209   0.0805   0.0481   0.0017   0.0003   0.0002   0.0000   0.0000
     0.0000   0.0000   0.0000   0.0000   0.0000   0.0000

          k = 0.1785 0.1804-0.1773 (  7956 PWs)   bands (ev):

   -17.2545 -17.2359 -17.2321 -17.2300 -17.2274 -17.2112 -17.2080 -17.2046
   -17.1957 -17.1944 -17.1905 -17.1841 -17.1730 -17.1643 -17.1557 -17.1416
   -17.1343 -17.1325 -17.1297 -17.1259 -17.0222 -16.9889 -16.9856 -16.9681
   -16.9631 -16.8878 -16.8793 -16.8746 -16.8571 -16.8547 -16.7828 -16.7784
   -16.7723 -16.7620 -16.7566 -16.6827 -16.6706 -16.6623 -16.6522 -16.6498
    -5.0123  -3.6202  -3.1370  -2.9169  -2.6914  -2.1626  -1.9012  -1.6233
    -0.2477  -0.2241   0.0976   0.3696   0.4860   0.5979   1.1842   3.5519
     3.7455   3.8300   4.3775   4.4229   4.5739   4.7455   4.8828   5.1206
     5.5798   5.6430   5.7493   6.0591   6.1520   6.3469   7.0732   7.2752
     7.8711   8.0035   8.1644   8.3995   8.9107   9.0169   9.0992   9.1817
     9.3472   9.4628   9.5956  10.1739  10.3500  10.6901

     occupation numbers 
     1.0000   1.0000   1.0000   1.0000   1.0000   1.0000   1.0000   1.0000
     1.0000   1.0000   1.0000   1.0000   1.0000   1.0000   1.0000   1.0000
     1.0000   1.0000   1.0000   1.0000   1.0000   1.0000   1.0000   1.0000
     1.0000   1.0000   1.0000   1.0000   1.0000   1.0000   1.0000   1.0000
     1.0000   1.0000   1.0000   1.0000   1.0000   1.0000   1.0000   1.0000
     1.0000   1.0000   1.0000   1.0000   1.0000   1.0000   1.0000   1.0000
     1.0000   1.0000   1.0000   1.0000   1.0000   1.0000   1.0000   1.0000
     1.0000   1.0000   1.0000   1.0000   1.0000   1.0000   1.0000   1.0000
     1.0000   1.0000   1.0000   1.0000   1.0000   1.0000   0.9999   0.9874
     0.0293   0.0025   0.0000   0.0000   0.0000   0.0000   0.0000   0.0000
     0.0000   0.0000   0.0000   0.0000   0.0000   0.0000

          k =-0.3569-0.3608 0.3546 (  7952 PWs)   bands (ev):

   -17.2542 -17.2351 -17.2318 -17.2292 -17.2279 -17.2110 -17.2079 -17.2047
   -17.1958 -17.1943 -17.1901 -17.1842 -17.1730 -17.1643 -17.1556 -17.1414
   -17.1340 -17.1327 -17.1298 -17.1260 -17.0221 -16.9888 -16.9854 -16.9681
   -16.9629 -16.8875 -16.8792 -16.8744 -16.8570 -16.8546 -16.7826 -16.7783
   -16.7723 -16.7620 -16.7566 -16.6827 -16.6705 -16.6622 -16.6522 -16.6498
    -4.4951  -4.3966  -2.9954  -2.7992  -2.6693  -2.5123  -2.2559  -1.8903
     0.1203   0.2551   0.4891   0.6926   0.8528   0.9351   2.7082   3.0136
     3.2449   3.4034   3.6457   3.8560   4.1090   4.1836   4.7497   4.9152
     5.0175   5.0991   5.1792   5.4324   6.2803   6.6173   6.7356   6.8485
     8.2212   8.4370   8.5071   8.6690   8.6911   8.8975   9.0568   9.1427
    10.5041  10.9105  10.9664  11.2377  11.3726  11.5039

     occupation numbers 
     1.0000   1.0000   1.0000   1.0000   1.0000   1.0000   1.0000   1.0000
     1.0000   1.0000   1.0000   1.0000   1.0000   1.0000   1.0000   1.0000
     1.0000   1.0000   1.0000   1.0000   1.0000   1.0000   1.0000   1.0000
     1.0000   1.0000   1.0000   1.0000   1.0000   1.0000   1.0000   1.0000
     1.0000   1.0000   1.0000   1.0000   1.0000   1.0000   1.0000   1.0000
     1.0000   1.0000   1.0000   1.0000   1.0000   1.0000   1.0000   1.0000
     1.0000   1.0000   1.0000   1.0000   1.0000   1.0000   1.0000   1.0000
     1.0000   1.0000   1.0000   1.0000   1.0000   1.0000   1.0000   1.0000
     1.0000   1.0000   1.0000   1.0000   1.0000   1.0000   1.0000   1.0000
     0.0000   0.0000   0.0000   0.0000   0.0000   0.0000   0.0000   0.0000
     0.0000   0.0000   0.0000   0.0000   0.0000   0.0000

          k = 0.1763-0.1790 0.1790 (  7963 PWs)   bands (ev):

   -17.2546 -17.2359 -17.2321 -17.2300 -17.2274 -17.2111 -17.2081 -17.2045
   -17.1956 -17.1944 -17.1905 -17.1841 -17.1729 -17.1643 -17.1557 -17.1417
   -17.1343 -17.1326 -17.1296 -17.1258 -17.0222 -16.9888 -16.9855 -16.9681
   -16.9631 -16.8878 -16.8793 -16.8747 -16.8571 -16.8547 -16.7827 -16.7783
   -16.7723 -16.7620 -16.7565 -16.6827 -16.6707 -16.6623 -16.6522 -16.6498
    -5.0198  -3.6294  -3.0494  -2.9442  -2.7183  -2.0383  -1.9199  -1.7850
    -0.3084  -0.2292   0.1437   0.3381   0.6033   0.6491   1.1077   3.6431
     3.7374   3.8501   4.2971   4.5327   4.5890   4.7351   4.9477   5.0036
     5.4241   5.5778   5.7123   5.8305   6.1212   6.5825   7.1273   7.4583
     7.8777   8.0401   8.2094   8.3876   8.8789   9.0196   9.1316   9.2474
     9.2679   9.4474   9.5218  10.2108  10.3899  10.7327

     occupation numbers 
     1.0000   1.0000   1.0000   1.0000   1.0000   1.0000   1.0000   1.0000
     1.0000   1.0000   1.0000   1.0000   1.0000   1.0000   1.0000   1.0000
     1.0000   1.0000   1.0000   1.0000   1.0000   1.0000   1.0000   1.0000
     1.0000   1.0000   1.0000   1.0000   1.0000   1.0000   1.0000   1.0000
     1.0000   1.0000   1.0000   1.0000   1.0000   1.0000   1.0000   1.0000
     1.0000   1.0000   1.0000   1.0000   1.0000   1.0000   1.0000   1.0000
     1.0000   1.0000   1.0000   1.0000   1.0000   1.0000   1.0000   1.0000
     1.0000   1.0000   1.0000   1.0000   1.0000   1.0000   1.0000   1.0000
     1.0000   1.0000   1.0000   1.0000   1.0000   1.0000   0.9995   0.8340
     0.0264   0.0011   0.0000   0.0000   0.0000   0.0000   0.0000   0.0000
     0.0000   0.0000   0.0000   0.0000   0.0000   0.0000

          k = 0.3548 0.0014 0.0017 (  7985 PWs)   bands (ev):

   -17.2546 -17.2360 -17.2324 -17.2297 -17.2266 -17.2110 -17.2078 -17.2044
   -17.1954 -17.1941 -17.1908 -17.1840 -17.1730 -17.1643 -17.1557 -17.1418
   -17.1345 -17.1324 -17.1293 -17.1255 -17.0221 -16.9887 -16.9855 -16.9681
   -16.9629 -16.8877 -16.8792 -16.8746 -16.8571 -16.8546 -16.7826 -16.7782
   -16.7723 -16.7619 -16.7564 -16.6827 -16.6705 -16.6622 -16.6522 -16.6496
    -4.9557  -3.4388  -3.3099  -2.9814  -2.8914  -2.6086  -1.4153  -1.3056
    -0.6000  -0.4345   0.2930   0.6331   0.6787   0.9067   1.2509   3.5267
     3.6737   3.8364   3.8717   4.4038   4.4966   4.5965   4.7565   4.8529
     5.0473   5.6234   5.9108   6.0696   6.1478   6.3551   6.7140   6.7855
     7.8248   8.5682   8.8371   8.9437   8.9944   9.1589   9.2544   9.3965
     9.4562   9.5594   9.6677  10.4664  10.6984  10.7834

     occupation numbers 
     1.0000   1.0000   1.0000   1.0000   1.0000   1.0000   1.0000   1.0000
     1.0000   1.0000   1.0000   1.0000   1.0000   1.0000   1.0000   1.0000
     1.0000   1.0000   1.0000   1.0000   1.0000   1.0000   1.0000   1.0000
     1.0000   1.0000   1.0000   1.0000   1.0000   1.0000   1.0000   1.0000
     1.0000   1.0000   1.0000   1.0000   1.0000   1.0000   1.0000   1.0000
     1.0000   1.0000   1.0000   1.0000   1.0000   1.0000   1.0000   1.0000
     1.0000   1.0000   1.0000   1.0000   1.0000   1.0000   1.0000   1.0000
     1.0000   1.0000   1.0000   1.0000   1.0000   1.0000   1.0000   1.0000
     1.0000   1.0000   1.0000   1.0000   1.0000   1.0000   1.0000   1.0000
     0.0583   0.0000   0.0000   0.0000   0.0000   0.0000   0.0000   0.0000
     0.0000   0.0000   0.0000   0.0000   0.0000   0.0000

          k =-0.1807-0.5398 0.5336 (  7963 PWs)   bands (ev):

   -17.2543 -17.2353 -17.2319 -17.2295 -17.2268 -17.2108 -17.2077 -17.2044
   -17.1955 -17.1941 -17.1905 -17.1842 -17.1730 -17.1642 -17.1557 -17.1415
   -17.1342 -17.1325 -17.1295 -17.1257 -17.0220 -16.9887 -16.9854 -16.9680
   -16.9628 -16.8875 -16.8791 -16.8745 -16.8570 -16.8545 -16.7825 -16.7782
   -16.7722 -16.7619 -16.7565 -16.6826 -16.6704 -16.6622 -16.6522 -16.6497
    -4.5200  -4.0662  -3.5265  -3.0380  -2.9103  -2.4028  -1.8312  -1.6013
    -0.1380   0.0403   0.3246   0.9599   1.2729   1.8733   2.2768   2.8289
     3.1049   3.4221   3.5052   3.9456   4.0776   4.2084   4.3282   4.6203
     4.9146   5.1362   5.3979   5.4871   5.5290   6.0288   6.1652   6.6813
     8.5025   8.9327   9.2038   9.3976   9.4580   9.5538   9.9848  10.1509
    10.2906  10.6730  10.7849  10.9454  11.0136  11.2385

     occupation numbers 
     1.0000   1.0000   1.0000   1.0000   1.0000   1.0000   1.0000   1.0000
     1.0000   1.0000   1.0000   1.0000   1.0000   1.0000   1.0000   1.0000
     1.0000   1.0000   1.0000   1.0000   1.0000   1.0000   1.0000   1.0000
     1.0000   1.0000   1.0000   1.0000   1.0000   1.0000   1.0000   1.0000
     1.0000   1.0000   1.0000   1.0000   1.0000   1.0000   1.0000   1.0000
     1.0000   1.0000   1.0000   1.0000   1.0000   1.0000   1.0000   1.0000
     1.0000   1.0000   1.0000   1.0000   1.0000   1.0000   1.0000   1.0000
     1.0000   1.0000   1.0000   1.0000   1.0000   1.0000   1.0000   1.0000
     1.0000   1.0000   1.0000   1.0000   1.0000   1.0000   1.0000   1.0000
     0.0000   0.0000   0.0000   0.0000   0.0000   0.0000   0.0000   0.0000
     0.0000   0.0000   0.0000   0.0000   0.0000   0.0000

          k =-0.0022-0.3594 0.3563 (  7985 PWs)   bands (ev):

   -17.2542 -17.2352 -17.2318 -17.2292 -17.2282 -17.2109 -17.2080 -17.2046
   -17.1956 -17.1944 -17.1902 -17.1843 -17.1730 -17.1643 -17.1556 -17.1414
   -17.1340 -17.1328 -17.1298 -17.1259 -17.0220 -16.9888 -16.9853 -16.9680
   -16.9631 -16.8877 -16.8792 -16.8745 -16.8571 -16.8546 -16.7826 -16.7782
   -16.7723 -16.7619 -16.7565 -16.6827 -16.6706 -16.6622 -16.6522 -16.6498
    -4.7066  -3.8144  -3.6652  -2.7935  -2.6524  -2.3116  -2.2720  -1.5534
    -0.3545   0.0887   0.3106   0.8371   1.0699   1.6950   1.7922   2.8773
     3.5090   3.7163   3.8449   3.9236   4.2880   4.3749   4.5040   4.7974
     4.9454   5.0806   5.3540   5.5153   5.7592   5.8598   6.1005   7.2192
     8.3533   8.8979   9.1138   9.2355   9.3110   9.6533   9.7478   9.9107
     9.9800  10.1433  10.2985  10.5346  10.6404  10.8139

     occupation numbers 
     1.0000   1.0000   1.0000   1.0000   1.0000   1.0000   1.0000   1.0000
     1.0000   1.0000   1.0000   1.0000   1.0000   1.0000   1.0000   1.0000
     1.0000   1.0000   1.0000   1.0000   1.0000   1.0000   1.0000   1.0000
     1.0000   1.0000   1.0000   1.0000   1.0000   1.0000   1.0000   1.0000
     1.0000   1.0000   1.0000   1.0000   1.0000   1.0000   1.0000   1.0000
     1.0000   1.0000   1.0000   1.0000   1.0000   1.0000   1.0000   1.0000
     1.0000   1.0000   1.0000   1.0000   1.0000   1.0000   1.0000   1.0000
     1.0000   1.0000   1.0000   1.0000   1.0000   1.0000   1.0000   1.0000
     1.0000   1.0000   1.0000   1.0000   1.0000   1.0000   1.0000   0.9957
     0.0000   0.0000   0.0000   0.0000   0.0000   0.0000   0.0000   0.0000
     0.0000   0.0000   0.0000   0.0000   0.0000   0.0000

          k =-0.3526 0.3580-0.3580 (  7972 PWs)   bands (ev):

   -17.2541 -17.2353 -17.2318 -17.2290 -17.2283 -17.2108 -17.2080 -17.2046
   -17.1957 -17.1943 -17.1901 -17.1842 -17.1727 -17.1644 -17.1556 -17.1415
   -17.1341 -17.1329 -17.1297 -17.1258 -17.0220 -16.9885 -16.9852 -16.9681
   -16.9632 -16.8876 -16.8792 -16.8745 -16.8571 -16.8547 -16.7824 -16.7782
   -16.7722 -16.7620 -16.7565 -16.6827 -16.6704 -16.6622 -16.6523 -16.6498
    -4.6085  -4.2747  -3.0045  -2.8169  -2.5616  -2.3726  -2.2799  -2.1290
     0.0880   0.1140   0.4870   0.7135   0.9721   1.0438   2.7838   3.0396
     3.3799   3.5505   3.6459   3.8019   3.9041   4.0030   4.6278   4.8580
     4.9661   5.0781   5.2576   5.2905   6.3199   6.6386   6.7770   7.1054
     8.3034   8.4670   8.5844   8.6348   8.7290   8.8453   9.0226   9.1579
    10.5657  10.7450  11.0636  11.2481  11.4555  11.6433

     occupation numbers 
     1.0000   1.0000   1.0000   1.0000   1.0000   1.0000   1.0000   1.0000
     1.0000   1.0000   1.0000   1.0000   1.0000   1.0000   1.0000   1.0000
     1.0000   1.0000   1.0000   1.0000   1.0000   1.0000   1.0000   1.0000
     1.0000   1.0000   1.0000   1.0000   1.0000   1.0000   1.0000   1.0000
     1.0000   1.0000   1.0000   1.0000   1.0000   1.0000   1.0000   1.0000
     1.0000   1.0000   1.0000   1.0000   1.0000   1.0000   1.0000   1.0000
     1.0000   1.0000   1.0000   1.0000   1.0000   1.0000   1.0000   1.0000
     1.0000   1.0000   1.0000   1.0000   1.0000   1.0000   1.0000   1.0000
     1.0000   1.0000   1.0000   1.0000   1.0000   1.0000   1.0000   0.9997
     0.0000   0.0000   0.0000   0.0000   0.0000   0.0000   0.0000   0.0000
     0.0000   0.0000   0.0000   0.0000   0.0000   0.0000

          k =-0.1741 0.5384-0.5353 (  7978 PWs)   bands (ev):

   -17.2543 -17.2354 -17.2319 -17.2296 -17.2269 -17.2107 -17.2078 -17.2044
   -17.1954 -17.1941 -17.1905 -17.1841 -17.1729 -17.1643 -17.1557 -17.1416
   -17.1343 -17.1325 -17.1294 -17.1256 -17.0220 -16.9885 -16.9853 -16.9680
   -16.9630 -16.8875 -16.8792 -16.8745 -16.8570 -16.8546 -16.7824 -16.7781
   -16.7722 -16.7619 -16.7564 -16.6827 -16.6704 -16.6622 -16.6522 -16.6497
    -4.5611  -3.9745  -3.5993  -3.0342  -2.8595  -2.3703  -1.8082  -1.7212
    -0.2145   0.0981   0.4061   0.8706   1.2838   1.9498   2.2501   2.9234
     3.2158   3.4254   3.5758   3.7988   4.0009   4.0661   4.4068   4.5306
     4.9362   5.0513   5.2889   5.5164   5.5650   6.0859   6.2527   6.7496
     8.5391   8.9525   9.1987   9.3495   9.5411   9.6198   9.8830  10.0488
    10.3529  10.5871  10.8231  10.9180  11.0697  11.3012

     occupation numbers 
     1.0000   1.0000   1.0000   1.0000   1.0000   1.0000   1.0000   1.0000
     1.0000   1.0000   1.0000   1.0000   1.0000   1.0000   1.0000   1.0000
     1.0000   1.0000   1.0000   1.0000   1.0000   1.0000   1.0000   1.0000
     1.0000   1.0000   1.0000   1.0000   1.0000   1.0000   1.0000   1.0000
     1.0000   1.0000   1.0000   1.0000   1.0000   1.0000   1.0000   1.0000
     1.0000   1.0000   1.0000   1.0000   1.0000   1.0000   1.0000   1.0000
     1.0000   1.0000   1.0000   1.0000   1.0000   1.0000   1.0000   1.0000
     1.0000   1.0000   1.0000   1.0000   1.0000   1.0000   1.0000   1.0000
     1.0000   1.0000   1.0000   1.0000   1.0000   1.0000   1.0000   1.0000
     0.0000   0.0000   0.0000   0.0000   0.0000   0.0000   0.0000   0.0000
     0.0000   0.0000   0.0000   0.0000   0.0000   0.0000

          k =-0.7095-0.0028-0.0034 (  7992 PWs)   bands (ev):

   -17.2544 -17.2355 -17.2322 -17.2292 -17.2261 -17.2106 -17.2075 -17.2041
   -17.1952 -17.1939 -17.1908 -17.1841 -17.1730 -17.1642 -17.1557 -17.1416
   -17.1343 -17.1322 -17.1291 -17.1254 -17.0219 -16.9884 -16.9854 -16.9680
   -16.9627 -16.8875 -16.8791 -16.8744 -16.8569 -16.8544 -16.7823 -16.7780
   -16.7721 -16.7618 -16.7563 -16.6825 -16.6703 -16.6621 -16.6521 -16.6495
    -4.3208  -4.1376  -3.4547  -3.2907  -2.9862  -2.8558  -1.3222  -1.2854
    -0.4547  -0.3404   1.1849   1.3531   1.3800   1.5537   2.9142   2.9810
     3.1518   3.2210   3.3572   3.4587   3.6858   3.7214   3.7749   3.9346
     5.1425   5.3861   5.4858   5.5657   6.0309   6.0916   6.2422   6.2715
     8.3081   8.3501   9.4054   9.5100   9.5547   9.6077  10.1680  10.3197
    11.2422  11.3704  11.4854  11.6196  11.7896  11.8339

     occupation numbers 
     1.0000   1.0000   1.0000   1.0000   1.0000   1.0000   1.0000   1.0000
     1.0000   1.0000   1.0000   1.0000   1.0000   1.0000   1.0000   1.0000
     1.0000   1.0000   1.0000   1.0000   1.0000   1.0000   1.0000   1.0000
     1.0000   1.0000   1.0000   1.0000   1.0000   1.0000   1.0000   1.0000
     1.0000   1.0000   1.0000   1.0000   1.0000   1.0000   1.0000   1.0000
     1.0000   1.0000   1.0000   1.0000   1.0000   1.0000   1.0000   1.0000
     1.0000   1.0000   1.0000   1.0000   1.0000   1.0000   1.0000   1.0000
     1.0000   1.0000   1.0000   1.0000   1.0000   1.0000   1.0000   1.0000
     1.0000   1.0000   1.0000   1.0000   1.0000   1.0000   1.0000   1.0000
     0.0000   0.0000   0.0000   0.0000   0.0000   0.0000   0.0000   0.0000
     0.0000   0.0000   0.0000   0.0000   0.0000   0.0000

          k =-0.1777 0.1770 0.1750 (  7984 PWs)   bands (ev):

   -17.2547 -17.2361 -17.2323 -17.2298 -17.2266 -17.2111 -17.2079 -17.2043
   -17.1955 -17.1943 -17.1907 -17.1840 -17.1730 -17.1643 -17.1556 -17.1418
   -17.1344 -17.1325 -17.1294 -17.1258 -17.0221 -16.9888 -16.9855 -16.9680
   -16.9630 -16.8877 -16.8793 -16.8746 -16.8571 -16.8547 -16.7825 -16.7783
   -16.7723 -16.7619 -16.7565 -16.6827 -16.6706 -16.6622 -16.6522 -16.6498
    -5.0201  -3.6330  -3.0483  -2.9487  -2.7596  -2.0648  -1.8472  -1.7538
    -0.2912  -0.0800   0.1580   0.3091   0.4732   0.6279   1.0617   3.5021
     3.6540   3.8014   4.4379   4.5333   4.5568   4.6553   4.8889   4.9537
     5.4794   5.7001   5.7364   5.9244   6.2078   6.6354   7.1745   7.4510
     8.0839   8.1401   8.2197   8.4464   8.9059   9.0101   9.1566   9.1749
     9.2818   9.3865   9.4503  10.1694  10.3830  10.7312

     occupation numbers 
     1.0000   1.0000   1.0000   1.0000   1.0000   1.0000   1.0000   1.0000
     1.0000   1.0000   1.0000   1.0000   1.0000   1.0000   1.0000   1.0000
     1.0000   1.0000   1.0000   1.0000   1.0000   1.0000   1.0000   1.0000
     1.0000   1.0000   1.0000   1.0000   1.0000   1.0000   1.0000   1.0000
     1.0000   1.0000   1.0000   1.0000   1.0000   1.0000   1.0000   1.0000
     1.0000   1.0000   1.0000   1.0000   1.0000   1.0000   1.0000   1.0000
     1.0000   1.0000   1.0000   1.0000   1.0000   1.0000   1.0000   1.0000
     1.0000   1.0000   1.0000   1.0000   1.0000   1.0000   1.0000   1.0000
     1.0000   1.0000   1.0000   1.0000   1.0000   1.0000   0.9983   0.8464
     0.0004   0.0001   0.0000   0.0000   0.0000   0.0000   0.0000   0.0000
     0.0000   0.0000   0.0000   0.0000   0.0000   0.0000

          k = 0.0008 0.3574-0.0023 (  7985 PWs)   bands (ev):

   -17.2544 -17.2360 -17.2320 -17.2300 -17.2274 -17.2111 -17.2081 -17.2044
   -17.1956 -17.1942 -17.1905 -17.1840 -17.1728 -17.1643 -17.1556 -17.1416
   -17.1342 -17.1324 -17.1297 -17.1259 -17.0221 -16.9888 -16.9854 -16.9679
   -16.9631 -16.8878 -16.8793 -16.8746 -16.8570 -16.8547 -16.7826 -16.7783
   -16.7723 -16.7619 -16.7564 -16.6827 -16.6706 -16.6622 -16.6521 -16.6499
    -4.9544  -3.4245  -3.3326  -3.0465  -2.8800  -2.4456  -1.5142  -1.3470
    -0.6351  -0.5487   0.4108   0.6190   0.7643   0.9278   1.2600   3.6433
     3.7528   3.8002   3.8930   4.3508   4.4967   4.6295   4.7795   4.9043
     5.0991   5.5579   5.6979   5.9031   6.1215   6.2938   6.7269   6.8230
     7.7300   8.4953   8.8607   8.9138   9.0396   9.1974   9.2862   9.3775
     9.4773   9.6151   9.6938  10.6011  10.6289  10.8641

     occupation numbers 
     1.0000   1.0000   1.0000   1.0000   1.0000   1.0000   1.0000   1.0000
     1.0000   1.0000   1.0000   1.0000   1.0000   1.0000   1.0000   1.0000
     1.0000   1.0000   1.0000   1.0000   1.0000   1.0000   1.0000   1.0000
     1.0000   1.0000   1.0000   1.0000   1.0000   1.0000   1.0000   1.0000
     1.0000   1.0000   1.0000   1.0000   1.0000   1.0000   1.0000   1.0000
     1.0000   1.0000   1.0000   1.0000   1.0000   1.0000   1.0000   1.0000
     1.0000   1.0000   1.0000   1.0000   1.0000   1.0000   1.0000   1.0000
     1.0000   1.0000   1.0000   1.0000   1.0000   1.0000   1.0000   1.0000
     1.0000   1.0000   1.0000   1.0000   1.0000   1.0000   1.0000   1.0000
     0.1808   0.0000   0.0000   0.0000   0.0000   0.0000   0.0000   0.0000
     0.0000   0.0000   0.0000   0.0000   0.0000   0.0000

          k =-0.5347-0.1838 0.5296 (  7991 PWs)   bands (ev):

   -17.2541 -17.2353 -17.2317 -17.2291 -17.2282 -17.2108 -17.2079 -17.2046
   -17.1956 -17.1942 -17.1902 -17.1842 -17.1730 -17.1643 -17.1555 -17.1413
   -17.1339 -17.1327 -17.1298 -17.1259 -17.0220 -16.9888 -16.9853 -16.9680
   -16.9630 -16.8877 -16.8792 -16.8745 -16.8570 -16.8546 -16.7825 -16.7782
   -16.7723 -16.7619 -16.7565 -16.6827 -16.6706 -16.6622 -16.6522 -16.6498
    -4.5184  -4.0636  -3.5481  -3.0840  -2.8090  -2.3211  -1.9107  -1.6924
    -0.1904   0.0039   0.3540   1.1103   1.2280   1.9296   2.2137   2.9115
     3.1722   3.4921   3.7231   3.8949   4.0312   4.1769   4.2615   4.5584
     4.8107   5.1102   5.2725   5.3957   5.5416   6.1145   6.1590   6.6863
     8.5165   8.9240   9.1878   9.3886   9.4775   9.6096   9.9291  10.0154
    10.1664  10.4161  10.7250  10.8171  11.0035  11.3288

     occupation numbers 
     1.0000   1.0000   1.0000   1.0000   1.0000   1.0000   1.0000   1.0000
     1.0000   1.0000   1.0000   1.0000   1.0000   1.0000   1.0000   1.0000
     1.0000   1.0000   1.0000   1.0000   1.0000   1.0000   1.0000   1.0000
     1.0000   1.0000   1.0000   1.0000   1.0000   1.0000   1.0000   1.0000
     1.0000   1.0000   1.0000   1.0000   1.0000   1.0000   1.0000   1.0000
     1.0000   1.0000   1.0000   1.0000   1.0000   1.0000   1.0000   1.0000
     1.0000   1.0000   1.0000   1.0000   1.0000   1.0000   1.0000   1.0000
     1.0000   1.0000   1.0000   1.0000   1.0000   1.0000   1.0000   1.0000
     1.0000   1.0000   1.0000   1.0000   1.0000   1.0000   1.0000   1.0000
     0.0000   0.0000   0.0000   0.0000   0.0000   0.0000   0.0000   0.0000
     0.0000   0.0000   0.0000   0.0000   0.0000   0.0000

          k =-0.3562-0.0034 0.3523 (  7982 PWs)   bands (ev):

   -17.2544 -17.2355 -17.2320 -17.2296 -17.2269 -17.2109 -17.2077 -17.2045
   -17.1955 -17.1943 -17.1905 -17.1842 -17.1731 -17.1643 -17.1556 -17.1416
   -17.1343 -17.1326 -17.1296 -17.1258 -17.0220 -16.9887 -16.9854 -16.9681
   -16.9628 -16.8876 -16.8792 -16.8744 -16.8571 -16.8545 -16.7825 -16.7782
   -16.7722 -16.7619 -16.7566 -16.6826 -16.6705 -16.6622 -16.6523 -16.6497
    -4.7075  -3.8318  -3.6513  -2.8269  -2.5507  -2.4047  -2.3034  -1.4715
    -0.2728   0.0623   0.3845   0.8728   0.9842   1.5908   1.7775   2.7604
     3.3102   3.7313   3.8532   3.9201   4.2750   4.3623   4.5741   4.8424
     5.0492   5.1493   5.3837   5.5873   5.7637   5.8416   6.0941   7.2472
     8.3893   9.0139   9.0944   9.2759   9.4135   9.7006   9.7886   9.8779
     9.9766  10.2080  10.5148  10.6317  10.7697  10.8948

     occupation numbers 
     1.0000   1.0000   1.0000   1.0000   1.0000   1.0000   1.0000   1.0000
     1.0000   1.0000   1.0000   1.0000   1.0000   1.0000   1.0000   1.0000
     1.0000   1.0000   1.0000   1.0000   1.0000   1.0000   1.0000   1.0000
     1.0000   1.0000   1.0000   1.0000   1.0000   1.0000   1.0000   1.0000
     1.0000   1.0000   1.0000   1.0000   1.0000   1.0000   1.0000   1.0000
     1.0000   1.0000   1.0000   1.0000   1.0000   1.0000   1.0000   1.0000
     1.0000   1.0000   1.0000   1.0000   1.0000   1.0000   1.0000   1.0000
     1.0000   1.0000   1.0000   1.0000   1.0000   1.0000   1.0000   1.0000
     1.0000   1.0000   1.0000   1.0000   1.0000   1.0000   1.0000   0.9925
     0.0000   0.0000   0.0000   0.0000   0.0000   0.0000   0.0000   0.0000
     0.0000   0.0000   0.0000   0.0000   0.0000   0.0000

          k =-0.0014-0.0020 0.3540 (  7983 PWs)   bands (ev):

   -17.2545 -17.2358 -17.2321 -17.2299 -17.2272 -17.2111 -17.2078 -17.2045
   -17.1954 -17.1944 -17.1904 -17.1840 -17.1729 -17.1642 -17.1555 -17.1416
   -17.1342 -17.1326 -17.1294 -17.1256 -17.0221 -16.9888 -16.9855 -16.9680
   -16.9629 -16.8876 -16.8793 -16.8745 -16.8571 -16.8544 -16.7827 -16.7783
   -16.7722 -16.7618 -16.7566 -16.6826 -16.6706 -16.6622 -16.6522 -16.6496
    -4.9663  -3.3481  -3.2873  -3.1258  -2.8467  -2.5822  -1.5322  -1.2060
    -0.7525  -0.2766   0.2760   0.5682   0.6994   0.8718   1.3207   3.5476
     3.7427   3.8472   3.9172   4.4422   4.4874   4.6568   4.7069   4.8559
     4.9155   5.6397   5.8294   5.8929   6.0730   6.5497   6.6367   6.9130
     7.8169   8.6139   8.7825   8.9408   9.0152   9.0911   9.2085   9.3552
     9.4920   9.6268   9.7688  10.5181  10.6768  10.8271

     occupation numbers 
     1.0000   1.0000   1.0000   1.0000   1.0000   1.0000   1.0000   1.0000
     1.0000   1.0000   1.0000   1.0000   1.0000   1.0000   1.0000   1.0000
     1.0000   1.0000   1.0000   1.0000   1.0000   1.0000   1.0000   1.0000
     1.0000   1.0000   1.0000   1.0000   1.0000   1.0000   1.0000   1.0000
     1.0000   1.0000   1.0000   1.0000   1.0000   1.0000   1.0000   1.0000
     1.0000   1.0000   1.0000   1.0000   1.0000   1.0000   1.0000   1.0000
     1.0000   1.0000   1.0000   1.0000   1.0000   1.0000   1.0000   1.0000
     1.0000   1.0000   1.0000   1.0000   1.0000   1.0000   1.0000   1.0000
     1.0000   1.0000   1.0000   1.0000   1.0000   1.0000   1.0000   1.0000
     0.0650   0.0000   0.0000   0.0000   0.0000   0.0000   0.0000   0.0000
     0.0000   0.0000   0.0000   0.0000   0.0000   0.0000

          k = 0.1770 0.1784 0.1767 (  7976 PWs)   bands (ev):

   -17.2547 -17.2363 -17.2324 -17.2301 -17.2270 -17.2112 -17.2080 -17.2044
   -17.1955 -17.1943 -17.1907 -17.1838 -17.1728 -17.1642 -17.1555 -17.1417
   -17.1344 -17.1324 -17.1293 -17.1256 -17.0222 -16.9888 -16.9856 -16.9680
   -16.9631 -16.8878 -16.8793 -16.8746 -16.8571 -16.8547 -16.7827 -16.7783
   -16.7722 -16.7620 -16.7565 -16.6827 -16.6706 -16.6622 -16.6522 -16.6498
    -5.0339  -3.5915  -3.1272  -2.9133  -2.6492  -2.1278  -1.9212  -1.6140
    -0.3822  -0.2373   0.0976   0.2192   0.4571   0.6321   1.2698   3.7384
     3.8644   3.9366   4.2461   4.3954   4.5174   4.8214   5.0558   5.1820
     5.5605   5.6631   5.7383   5.8790   6.0034   6.3106   7.1033   7.2748
     7.7231   8.0468   8.1860   8.2504   8.8652   9.0862   9.1689   9.2446
     9.3497   9.5019   9.6059  10.1301  10.4015  10.6208

     occupation numbers 
     1.0000   1.0000   1.0000   1.0000   1.0000   1.0000   1.0000   1.0000
     1.0000   1.0000   1.0000   1.0000   1.0000   1.0000   1.0000   1.0000
     1.0000   1.0000   1.0000   1.0000   1.0000   1.0000   1.0000   1.0000
     1.0000   1.0000   1.0000   1.0000   1.0000   1.0000   1.0000   1.0000
     1.0000   1.0000   1.0000   1.0000   1.0000   1.0000   1.0000   1.0000
     1.0000   1.0000   1.0000   1.0000   1.0000   1.0000   1.0000   1.0000
     1.0000   1.0000   1.0000   1.0000   1.0000   1.0000   1.0000   1.0000
     1.0000   1.0000   1.0000   1.0000   1.0000   1.0000   1.0000   1.0000
     1.0000   1.0000   1.0000   1.0000   1.0000   1.0000   0.9997   0.9875
     0.1936   0.0009   0.0000   0.0000   0.0000   0.0000   0.0000   0.0000
     0.0000   0.0000   0.0000   0.0000   0.0000   0.0000

          k =-0.3584-0.3628 0.7086 (  7976 PWs)   bands (ev):

   -17.2543 -17.2357 -17.2319 -17.2299 -17.2273 -17.2110 -17.2079 -17.2045
   -17.1956 -17.1942 -17.1904 -17.1839 -17.1729 -17.1642 -17.1555 -17.1415
   -17.1342 -17.1324 -17.1296 -17.1258 -17.0221 -16.9888 -16.9855 -16.9680
   -16.9630 -16.8877 -16.8792 -16.8745 -16.8570 -16.8547 -16.7826 -16.7783
   -16.7722 -16.7620 -16.7565 -16.6826 -16.6705 -16.6622 -16.6522 -16.6498
    -4.7294  -3.9133  -3.3994  -2.9921  -2.6222  -2.4880  -1.9113  -1.6537
    -0.2481  -0.0391   0.1962   0.8057   0.9239   1.6535   1.9264   2.9731
     3.4379   3.6149   4.0317   4.1533   4.3020   4.4013   4.6246   4.7752
     5.0546   5.1950   5.3013   5.5198   5.5709   5.8358   5.9976   7.0354
     8.2024   8.8749   9.0690   9.1964   9.2446   9.5941   9.7811  10.0272
    10.1910  10.2824  10.3945  10.4143  10.5600  10.7357

     occupation numbers 
     1.0000   1.0000   1.0000   1.0000   1.0000   1.0000   1.0000   1.0000
     1.0000   1.0000   1.0000   1.0000   1.0000   1.0000   1.0000   1.0000
     1.0000   1.0000   1.0000   1.0000   1.0000   1.0000   1.0000   1.0000
     1.0000   1.0000   1.0000   1.0000   1.0000   1.0000   1.0000   1.0000
     1.0000   1.0000   1.0000   1.0000   1.0000   1.0000   1.0000   1.0000
     1.0000   1.0000   1.0000   1.0000   1.0000   1.0000   1.0000   1.0000
     1.0000   1.0000   1.0000   1.0000   1.0000   1.0000   1.0000   1.0000
     1.0000   1.0000   1.0000   1.0000   1.0000   1.0000   1.0000   1.0000
     1.0000   1.0000   1.0000   1.0000   1.0000   1.0000   1.0000   1.0000
     0.0000   0.0000   0.0000   0.0000   0.0000   0.0000   0.0000   0.0000
     0.0000   0.0000   0.0000   0.0000   0.0000   0.0000

          k =-0.1799-0.1824 0.5313 (  7988 PWs)   bands (ev):

   -17.2542 -17.2350 -17.2319 -17.2292 -17.2279 -17.2109 -17.2078 -17.2046
   -17.1956 -17.1943 -17.1901 -17.1842 -17.1730 -17.1642 -17.1554 -17.1414
   -17.1340 -17.1328 -17.1297 -17.1259 -17.0221 -16.9887 -16.9853 -16.9680
   -16.9629 -16.8875 -16.8792 -16.8743 -16.8570 -16.8545 -16.7827 -16.7783
   -16.7722 -16.7619 -16.7565 -16.6826 -16.6705 -16.6621 -16.6522 -16.6497
    -4.5442  -4.0771  -3.3388  -3.2135  -2.8274  -2.4199  -1.9841  -1.5059
    -0.1952   0.0356   0.5163   0.9025   1.0773   1.9501   2.3720   2.9695
     3.0263   3.2159   3.7553   3.9457   4.0024   4.3142   4.3831   4.5575
     4.8208   5.0749   5.1723   5.3689   5.8808   5.9910   6.2967   6.5645
     8.4111   8.8380   9.1942   9.3893   9.5874   9.7451   9.8970  10.1567
    10.2527  10.4841  10.7673  11.0836  11.2126  11.2427

     occupation numbers 
     1.0000   1.0000   1.0000   1.0000   1.0000   1.0000   1.0000   1.0000
     1.0000   1.0000   1.0000   1.0000   1.0000   1.0000   1.0000   1.0000
     1.0000   1.0000   1.0000   1.0000   1.0000   1.0000   1.0000   1.0000
     1.0000   1.0000   1.0000   1.0000   1.0000   1.0000   1.0000   1.0000
     1.0000   1.0000   1.0000   1.0000   1.0000   1.0000   1.0000   1.0000
     1.0000   1.0000   1.0000   1.0000   1.0000   1.0000   1.0000   1.0000
     1.0000   1.0000   1.0000   1.0000   1.0000   1.0000   1.0000   1.0000
     1.0000   1.0000   1.0000   1.0000   1.0000   1.0000   1.0000   1.0000
     1.0000   1.0000   1.0000   1.0000   1.0000   1.0000   1.0000   1.0000
     0.0000   0.0000   0.0000   0.0000   0.0000   0.0000   0.0000   0.0000
     0.0000   0.0000   0.0000   0.0000   0.0000   0.0000

          k =-0.5303 0.5351-0.1830 (  7991 PWs)   bands (ev):

   -17.2542 -17.2351 -17.2319 -17.2291 -17.2282 -17.2108 -17.2079 -17.2046
   -17.1955 -17.1943 -17.1901 -17.1842 -17.1729 -17.1643 -17.1555 -17.1415
   -17.1340 -17.1328 -17.1296 -17.1257 -17.0220 -16.9886 -16.9853 -16.9680
   -16.9630 -16.8876 -16.8793 -16.8744 -16.8570 -16.8545 -16.7826 -16.7782
   -16.7721 -16.7619 -16.7565 -16.6826 -16.6705 -16.6622 -16.6522 -16.6498
    -4.5858  -3.9676  -3.5286  -3.0925  -2.8100  -2.3662  -1.8776  -1.7308
    -0.2294   0.1381   0.3277   0.9545   1.3080   1.9546   2.2218   2.9241
     3.2027   3.3944   3.6652   3.9104   3.9936   4.0795   4.4123   4.4895
     4.9980   5.0448   5.1094   5.3538   5.5038   6.1044   6.3063   6.9319
     8.5746   9.0434   9.2593   9.3798   9.5425   9.6935   9.7704   9.9279
    10.1898  10.4732  10.6697  10.7972  10.9881  11.3111

     occupation numbers 
     1.0000   1.0000   1.0000   1.0000   1.0000   1.0000   1.0000   1.0000
     1.0000   1.0000   1.0000   1.0000   1.0000   1.0000   1.0000   1.0000
     1.0000   1.0000   1.0000   1.0000   1.0000   1.0000   1.0000   1.0000
     1.0000   1.0000   1.0000   1.0000   1.0000   1.0000   1.0000   1.0000
     1.0000   1.0000   1.0000   1.0000   1.0000   1.0000   1.0000   1.0000
     1.0000   1.0000   1.0000   1.0000   1.0000   1.0000   1.0000   1.0000
     1.0000   1.0000   1.0000   1.0000   1.0000   1.0000   1.0000   1.0000
     1.0000   1.0000   1.0000   1.0000   1.0000   1.0000   1.0000   1.0000
     1.0000   1.0000   1.0000   1.0000   1.0000   1.0000   1.0000   1.0000
     0.0000   0.0000   0.0000   0.0000   0.0000   0.0000   0.0000   0.0000
     0.0000   0.0000   0.0000   0.0000   0.0000   0.0000

          k =-0.3518 0.7155-0.3603 (  7983 PWs)   bands (ev):

   -17.2544 -17.2357 -17.2319 -17.2299 -17.2273 -17.2110 -17.2079 -17.2045
   -17.1955 -17.1943 -17.1904 -17.1839 -17.1727 -17.1642 -17.1555 -17.1416
   -17.1343 -17.1326 -17.1293 -17.1255 -17.0221 -16.9886 -16.9854 -16.9681
   -16.9630 -16.8877 -16.8792 -16.8745 -16.8571 -16.8546 -16.7826 -16.7782
   -16.7721 -16.7619 -16.7565 -16.6826 -16.6705 -16.6621 -16.6523 -16.6497
    -4.7556  -3.7209  -3.6399  -2.8822  -2.6411  -2.3355  -2.1722  -1.5653
    -0.1803  -0.0720   0.0339   0.8309   1.1112   1.6364   1.8362   3.0418
     3.6179   3.6943   3.9303   3.9929   4.3404   4.4238   4.5606   4.6214
     5.0103   5.1573   5.3784   5.4881   5.6508   5.7897   5.9941   7.1353
     8.1288   8.9406   9.0841   9.1658   9.3821   9.7305   9.8392   9.8942
    10.1148  10.2105  10.4285  10.5639  10.6672  10.7467

     occupation numbers 
     1.0000   1.0000   1.0000   1.0000   1.0000   1.0000   1.0000   1.0000
     1.0000   1.0000   1.0000   1.0000   1.0000   1.0000   1.0000   1.0000
     1.0000   1.0000   1.0000   1.0000   1.0000   1.0000   1.0000   1.0000
     1.0000   1.0000   1.0000   1.0000   1.0000   1.0000   1.0000   1.0000
     1.0000   1.0000   1.0000   1.0000   1.0000   1.0000   1.0000   1.0000
     1.0000   1.0000   1.0000   1.0000   1.0000   1.0000   1.0000   1.0000
     1.0000   1.0000   1.0000   1.0000   1.0000   1.0000   1.0000   1.0000
     1.0000   1.0000   1.0000   1.0000   1.0000   1.0000   1.0000   1.0000
     1.0000   1.0000   1.0000   1.0000   1.0000   1.0000   1.0000   0.9993
     0.0001   0.0000   0.0000   0.0000   0.0000   0.0000   0.0000   0.0000
     0.0000   0.0000   0.0000   0.0000   0.0000   0.0000

          k =-0.8872 0.1743 0.1716 (  7990 PWs)   bands (ev):

   -17.2545 -17.2358 -17.2322 -17.2297 -17.2266 -17.2109 -17.2078 -17.2042
   -17.1953 -17.1941 -17.1907 -17.1839 -17.1729 -17.1643 -17.1556 -17.1416
   -17.1344 -17.1323 -17.1292 -17.1255 -17.0220 -16.9886 -16.9855 -16.9680
   -16.9630 -16.8876 -16.8792 -16.8745 -16.8570 -16.8546 -16.7825 -16.7781
   -16.7722 -16.7619 -16.7564 -16.6826 -16.6705 -16.6622 -16.6522 -16.6497
    -4.6080  -3.9399  -3.4719  -3.1466  -2.9049  -2.3514  -1.7655  -1.6234
    -0.2001  -0.0279   0.2101   1.0075   1.1190   1.8509   2.4215   3.0691
     3.1955   3.3432   3.7736   3.9052   3.9501   4.2335   4.3079   4.6292
     4.8517   4.9570   5.3616   5.5023   5.6806   6.0139   6.0946   6.7657
     8.4760   9.0052   9.1418   9.2081   9.4536   9.7131   9.9043  10.1388
    10.2827  10.4286  10.6371  10.8197  10.9602  11.1766

     occupation numbers 
     1.0000   1.0000   1.0000   1.0000   1.0000   1.0000   1.0000   1.0000
     1.0000   1.0000   1.0000   1.0000   1.0000   1.0000   1.0000   1.0000
     1.0000   1.0000   1.0000   1.0000   1.0000   1.0000   1.0000   1.0000
     1.0000   1.0000   1.0000   1.0000   1.0000   1.0000   1.0000   1.0000
     1.0000   1.0000   1.0000   1.0000   1.0000   1.0000   1.0000   1.0000
     1.0000   1.0000   1.0000   1.0000   1.0000   1.0000   1.0000   1.0000
     1.0000   1.0000   1.0000   1.0000   1.0000   1.0000   1.0000   1.0000
     1.0000   1.0000   1.0000   1.0000   1.0000   1.0000   1.0000   1.0000
     1.0000   1.0000   1.0000   1.0000   1.0000   1.0000   1.0000   1.0000
     0.0000   0.0000   0.0000   0.0000   0.0000   0.0000   0.0000   0.0000
     0.0000   0.0000   0.0000   0.0000   0.0000   0.0000

          k =-0.7088 0.3547-0.0057 (  7978 PWs)   bands (ev):

   -17.2543 -17.2353 -17.2319 -17.2295 -17.2269 -17.2109 -17.2077 -17.2043
   -17.1954 -17.1941 -17.1904 -17.1841 -17.1730 -17.1643 -17.1555 -17.1416
   -17.1342 -17.1325 -17.1294 -17.1256 -17.0220 -16.9885 -16.9854 -16.9680
   -16.9629 -16.8875 -16.8792 -16.8744 -16.8570 -16.8545 -16.7826 -16.7782
   -16.7721 -16.7619 -16.7564 -16.6826 -16.6705 -16.6621 -16.6521 -16.6497
    -4.3225  -3.9956  -3.8087  -3.4632  -2.4926  -2.3557  -1.9830  -1.6815
     0.0258   0.2953   0.3502   0.5666   2.2260   2.3234   2.5430   2.6428
     2.8597   3.0992   3.2883   3.3587   4.1565   4.2401   4.4013   4.5650
     4.7465   4.8690   4.9698   5.0690   5.7435   5.9271   6.0498   6.2731
     9.3331   9.4808   9.6461   9.8172   9.9334   9.9774  10.1562  10.3131
    10.6010  10.7124  10.8249  10.9887  11.2422  11.5093

     occupation numbers 
     1.0000   1.0000   1.0000   1.0000   1.0000   1.0000   1.0000   1.0000
     1.0000   1.0000   1.0000   1.0000   1.0000   1.0000   1.0000   1.0000
     1.0000   1.0000   1.0000   1.0000   1.0000   1.0000   1.0000   1.0000
     1.0000   1.0000   1.0000   1.0000   1.0000   1.0000   1.0000   1.0000
     1.0000   1.0000   1.0000   1.0000   1.0000   1.0000   1.0000   1.0000
     1.0000   1.0000   1.0000   1.0000   1.0000   1.0000   1.0000   1.0000
     1.0000   1.0000   1.0000   1.0000   1.0000   1.0000   1.0000   1.0000
     1.0000   1.0000   1.0000   1.0000   1.0000   1.0000   1.0000   1.0000
     1.0000   1.0000   1.0000   1.0000   1.0000   1.0000   1.0000   1.0000
     0.0000   0.0000   0.0000   0.0000   0.0000   0.0000   0.0000   0.0000
     0.0000   0.0000   0.0000   0.0000   0.0000   0.0000

          k =-0.3540 0.3561-0.0040 (  7981 PWs)   bands (ev):

   -17.2544 -17.2355 -17.2320 -17.2296 -17.2269 -17.2108 -17.2079 -17.2044
   -17.1956 -17.1942 -17.1905 -17.1842 -17.1730 -17.1643 -17.1556 -17.1416
   -17.1343 -17.1326 -17.1296 -17.1258 -17.0220 -16.9886 -16.9853 -16.9680
   -16.9630 -16.8876 -16.8792 -16.8745 -16.8570 -16.8547 -16.7824 -16.7781
   -16.7722 -16.7620 -16.7564 -16.6826 -16.6705 -16.6622 -16.6522 -16.6498
    -4.7153  -3.9148  -3.5100  -2.8812  -2.5228  -2.4129  -2.2539  -1.5544
    -0.4375   0.2505   0.4213   0.7662   1.0765   1.4937   1.8648   2.8069
     3.4673   3.5835   3.8669   3.9620   4.2625   4.2829   4.4740   4.8644
     4.9891   5.2641   5.3397   5.4761   5.5286   5.9207   6.2923   7.4218
     8.5117   8.9014   9.1216   9.2030   9.5242   9.6977   9.8412   9.8893
     9.9757  10.1698  10.3728  10.4936  10.7096  10.8364

     occupation numbers 
     1.0000   1.0000   1.0000   1.0000   1.0000   1.0000   1.0000   1.0000
     1.0000   1.0000   1.0000   1.0000   1.0000   1.0000   1.0000   1.0000
     1.0000   1.0000   1.0000   1.0000   1.0000   1.0000   1.0000   1.0000
     1.0000   1.0000   1.0000   1.0000   1.0000   1.0000   1.0000   1.0000
     1.0000   1.0000   1.0000   1.0000   1.0000   1.0000   1.0000   1.0000
     1.0000   1.0000   1.0000   1.0000   1.0000   1.0000   1.0000   1.0000
     1.0000   1.0000   1.0000   1.0000   1.0000   1.0000   1.0000   1.0000
     1.0000   1.0000   1.0000   1.0000   1.0000   1.0000   1.0000   1.0000
     1.0000   1.0000   1.0000   1.0000   1.0000   1.0000   1.0000   0.8893
     0.0000   0.0000   0.0000   0.0000   0.0000   0.0000   0.0000   0.0000
     0.0000   0.0000   0.0000   0.0000   0.0000   0.0000

          k =-0.1755 0.5365-0.1813 (  7981 PWs)   bands (ev):

   -17.2541 -17.2354 -17.2317 -17.2290 -17.2282 -17.2107 -17.2080 -17.2045
   -17.1956 -17.1943 -17.1902 -17.1841 -17.1727 -17.1643 -17.1555 -17.1414
   -17.1340 -17.1327 -17.1297 -17.1259 -17.0220 -16.9887 -16.9852 -16.9680
   -16.9631 -16.8877 -16.8792 -16.8745 -16.8570 -16.8546 -16.7824 -16.7781
   -16.7723 -16.7619 -16.7564 -16.6826 -16.6705 -16.6622 -16.6522 -16.6498
    -4.5457  -4.0623  -3.4518  -3.0294  -2.9325  -2.3665  -1.8315  -1.7158
    -0.2152  -0.0877   0.4804   0.9656   1.2563   2.0293   2.3381   2.9811
     3.1309   3.4029   3.6180   3.8898   4.0406   4.2424   4.3448   4.5220
     4.7421   4.9390   5.1345   5.4890   5.6466   6.0821   6.3568   6.6146
     8.3685   8.6841   9.3820   9.4609   9.5765   9.6416  10.0073  10.0857
    10.3066  10.4357  10.8314  10.8870  11.1183  11.2706

     occupation numbers 
     1.0000   1.0000   1.0000   1.0000   1.0000   1.0000   1.0000   1.0000
     1.0000   1.0000   1.0000   1.0000   1.0000   1.0000   1.0000   1.0000
     1.0000   1.0000   1.0000   1.0000   1.0000   1.0000   1.0000   1.0000
     1.0000   1.0000   1.0000   1.0000   1.0000   1.0000   1.0000   1.0000
     1.0000   1.0000   1.0000   1.0000   1.0000   1.0000   1.0000   1.0000
     1.0000   1.0000   1.0000   1.0000   1.0000   1.0000   1.0000   1.0000
     1.0000   1.0000   1.0000   1.0000   1.0000   1.0000   1.0000   1.0000
     1.0000   1.0000   1.0000   1.0000   1.0000   1.0000   1.0000   1.0000
     1.0000   1.0000   1.0000   1.0000   1.0000   1.0000   1.0000   1.0000
     0.0000   0.0000   0.0000   0.0000   0.0000   0.0000   0.0000   0.0000
     0.0000   0.0000   0.0000   0.0000   0.0000   0.0000

          k =-0.7109-0.0047 0.3506 (  7995 PWs)   bands (ev):

   -17.2543 -17.2356 -17.2318 -17.2296 -17.2271 -17.2107 -17.2078 -17.2043
   -17.1954 -17.1941 -17.1906 -17.1841 -17.1730 -17.1643 -17.1556 -17.1415
   -17.1341 -17.1325 -17.1295 -17.1257 -17.0220 -16.9887 -16.9853 -16.9680
   -16.9630 -16.8877 -16.8792 -16.8746 -16.8570 -16.8545 -16.7824 -16.7781
   -16.7723 -16.7618 -16.7564 -16.6827 -16.6705 -16.6622 -16.6521 -16.6497
    -4.2805  -3.9944  -3.8064  -3.5782  -2.4317  -2.1806  -2.0272  -1.8315
    -0.0328   0.2062   0.4250   0.6665   2.2288   2.4015   2.4899   2.6752
     2.9690   3.0897   3.2908   3.3551   4.0709   4.2726   4.3709   4.5915
     4.6722   4.8551   4.9870   5.1481   5.5484   5.8869   6.1091   6.2748
     9.2684   9.4302   9.5845   9.7598   9.8978   9.9999  10.1816  10.2599
    10.5251  10.6871  10.8659  10.9599  11.3778  11.5552

     occupation numbers 
     1.0000   1.0000   1.0000   1.0000   1.0000   1.0000   1.0000   1.0000
     1.0000   1.0000   1.0000   1.0000   1.0000   1.0000   1.0000   1.0000
     1.0000   1.0000   1.0000   1.0000   1.0000   1.0000   1.0000   1.0000
     1.0000   1.0000   1.0000   1.0000   1.0000   1.0000   1.0000   1.0000
     1.0000   1.0000   1.0000   1.0000   1.0000   1.0000   1.0000   1.0000
     1.0000   1.0000   1.0000   1.0000   1.0000   1.0000   1.0000   1.0000
     1.0000   1.0000   1.0000   1.0000   1.0000   1.0000   1.0000   1.0000
     1.0000   1.0000   1.0000   1.0000   1.0000   1.0000   1.0000   1.0000
     1.0000   1.0000   1.0000   1.0000   1.0000   1.0000   1.0000   1.0000
     0.0000   0.0000   0.0000   0.0000   0.0000   0.0000   0.0000   0.0000
     0.0000   0.0000   0.0000   0.0000   0.0000   0.0000

          k =-0.5325 0.1757 0.1733 (  7987 PWs)   bands (ev):

   -17.2545 -17.2357 -17.2322 -17.2293 -17.2263 -17.2108 -17.2077 -17.2042
   -17.1953 -17.1941 -17.1909 -17.1841 -17.1732 -17.1643 -17.1557 -17.1417
   -17.1344 -17.1324 -17.1293 -17.1256 -17.0220 -16.9886 -16.9854 -16.9680
   -16.9629 -16.8876 -16.8791 -16.8745 -16.8570 -16.8546 -16.7824 -16.7781
   -16.7722 -16.7619 -16.7564 -16.6826 -16.6705 -16.6622 -16.6522 -16.6497
    -4.5441  -4.0684  -3.4548  -3.0801  -2.8959  -2.4385  -1.7242  -1.6819
    -0.1925   0.0492   0.4829   1.0593   1.1087   1.8582   2.2809   2.8310
     3.0254   3.1775   3.6149   3.8906   3.9764   4.2972   4.3692   4.5020
     4.9080   5.0264   5.4186   5.5861   5.6264   6.1211   6.3790   6.7173
     8.5519   8.9780   9.3396   9.4894   9.5752   9.7877   9.9299  10.1201
    10.2463  10.4672  10.7913  10.8700  11.1252  11.3365

     occupation numbers 
     1.0000   1.0000   1.0000   1.0000   1.0000   1.0000   1.0000   1.0000
     1.0000   1.0000   1.0000   1.0000   1.0000   1.0000   1.0000   1.0000
     1.0000   1.0000   1.0000   1.0000   1.0000   1.0000   1.0000   1.0000
     1.0000   1.0000   1.0000   1.0000   1.0000   1.0000   1.0000   1.0000
     1.0000   1.0000   1.0000   1.0000   1.0000   1.0000   1.0000   1.0000
     1.0000   1.0000   1.0000   1.0000   1.0000   1.0000   1.0000   1.0000
     1.0000   1.0000   1.0000   1.0000   1.0000   1.0000   1.0000   1.0000
     1.0000   1.0000   1.0000   1.0000   1.0000   1.0000   1.0000   1.0000
     1.0000   1.0000   1.0000   1.0000   1.0000   1.0000   1.0000   1.0000
     0.0000   0.0000   0.0000   0.0000   0.0000   0.0000   0.0000   0.0000
     0.0000   0.0000   0.0000   0.0000   0.0000   0.0000

          k = 0.3554-0.3541-0.3499 (  8012 PWs)   bands (ev):

   -17.2545 -17.2358 -17.2322 -17.2294 -17.2264 -17.2107 -17.2078 -17.2043
   -17.1955 -17.1942 -17.1910 -17.1841 -17.1733 -17.1643 -17.1555 -17.1417
   -17.1345 -17.1326 -17.1295 -17.1258 -17.0220 -16.9887 -16.9854 -16.9681
   -16.9630 -16.8877 -16.8791 -16.8743 -16.8572 -16.8547 -16.7825 -16.7781
   -16.7721 -16.7620 -16.7565 -16.6826 -16.6706 -16.6621 -16.6523 -16.6498
    -4.5981  -4.2983  -3.0101  -2.8131  -2.6613  -2.4237  -2.1162  -2.0883
     0.0665   0.4981   0.5507   0.6151   0.8248   0.9275   2.5777   2.8562
     3.1628   3.3908   3.5954   3.7482   3.9280   4.1148   4.8403   4.9849
     5.0347   5.1291   5.1867   5.4674   6.3772   6.7976   6.8505   7.0397
     8.4509   8.6242   8.7147   8.7396   8.8190   8.9650   9.0784   9.1479
    10.5800  10.8902  11.0564  11.2151  11.3108  11.4298

     occupation numbers 
     1.0000   1.0000   1.0000   1.0000   1.0000   1.0000   1.0000   1.0000
     1.0000   1.0000   1.0000   1.0000   1.0000   1.0000   1.0000   1.0000
     1.0000   1.0000   1.0000   1.0000   1.0000   1.0000   1.0000   1.0000
     1.0000   1.0000   1.0000   1.0000   1.0000   1.0000   1.0000   1.0000
     1.0000   1.0000   1.0000   1.0000   1.0000   1.0000   1.0000   1.0000
     1.0000   1.0000   1.0000   1.0000   1.0000   1.0000   1.0000   1.0000
     1.0000   1.0000   1.0000   1.0000   1.0000   1.0000   1.0000   1.0000
     1.0000   1.0000   1.0000   1.0000   1.0000   1.0000   1.0000   1.0000
     1.0000   1.0000   1.0000   1.0000   1.0000   1.0000   1.0000   0.9999
     0.0000   0.0000   0.0000   0.0000   0.0000   0.0000   0.0000   0.0000
     0.0000   0.0000   0.0000   0.0000   0.0000   0.0000

          k = 0.5339-0.1737-0.5273 (  7977 PWs)   bands (ev):

   -17.2542 -17.2356 -17.2319 -17.2296 -17.2270 -17.2106 -17.2078 -17.2042
   -17.1955 -17.1941 -17.1906 -17.1841 -17.1730 -17.1644 -17.1553 -17.1414
   -17.1341 -17.1325 -17.1296 -17.1258 -17.0219 -16.9887 -16.9853 -16.9679
   -16.9630 -16.8877 -16.8791 -16.8744 -16.8570 -16.8546 -16.7824 -16.7781
   -16.7722 -16.7619 -16.7564 -16.6826 -16.6705 -16.6621 -16.6521 -16.6498
    -4.5559  -3.9945  -3.5953  -3.1067  -2.7283  -2.3468  -1.9140  -1.6974
    -0.2249   0.0533   0.4217   1.0994   1.2117   1.9324   2.1613   2.8521
     3.2470   3.3562   3.5883   3.8350   3.9497   4.2234   4.3450   4.4533
     4.9873   5.0729   5.2306   5.4927   5.5665   6.1105   6.3131   6.7432
     8.5141   9.0019   9.2618   9.4678   9.6582   9.7040   9.9374  10.0914
    10.1917  10.5658  10.7585  10.9558  11.0688  11.3082

     occupation numbers 
     1.0000   1.0000   1.0000   1.0000   1.0000   1.0000   1.0000   1.0000
     1.0000   1.0000   1.0000   1.0000   1.0000   1.0000   1.0000   1.0000
     1.0000   1.0000   1.0000   1.0000   1.0000   1.0000   1.0000   1.0000
     1.0000   1.0000   1.0000   1.0000   1.0000   1.0000   1.0000   1.0000
     1.0000   1.0000   1.0000   1.0000   1.0000   1.0000   1.0000   1.0000
     1.0000   1.0000   1.0000   1.0000   1.0000   1.0000   1.0000   1.0000
     1.0000   1.0000   1.0000   1.0000   1.0000   1.0000   1.0000   1.0000
     1.0000   1.0000   1.0000   1.0000   1.0000   1.0000   1.0000   1.0000
     1.0000   1.0000   1.0000   1.0000   1.0000   1.0000   1.0000   1.0000
     0.0000   0.0000   0.0000   0.0000   0.0000   0.0000   0.0000   0.0000
     0.0000   0.0000   0.0000   0.0000   0.0000   0.0000

          k =-0.0015-0.7149 0.0047 (  7996 PWs)   bands (ev):

   -17.2539 -17.2353 -17.2316 -17.2289 -17.2282 -17.2105 -17.2079 -17.2043
   -17.1955 -17.1940 -17.1901 -17.1840 -17.1727 -17.1643 -17.1552 -17.1411
   -17.1337 -17.1325 -17.1297 -17.1259 -17.0219 -16.9886 -16.9851 -16.9678
   -16.9630 -16.8876 -16.8791 -16.8743 -16.8569 -16.8545 -16.7823 -16.7780
   -16.7721 -16.7618 -16.7562 -16.6825 -16.6705 -16.6620 -16.6520 -16.6497
    -4.3201  -4.1367  -3.4709  -3.2732  -3.0269  -2.7446  -1.4332  -1.3006
    -0.5145  -0.4217   1.1972   1.4341   1.4741   1.5790   2.9684   3.1945
     3.2196   3.3582   3.4607   3.5628   3.5974   3.6620   3.7825   3.8584
     4.8590   5.1808   5.4538   5.5122   5.9530   6.0659   6.1740   6.3174
     8.1693   8.2491   9.3364   9.3996   9.5046   9.5948  10.2932  10.4477
    11.3471  11.4483  11.5673  11.7320  11.8393  11.9365

     occupation numbers 
     1.0000   1.0000   1.0000   1.0000   1.0000   1.0000   1.0000   1.0000
     1.0000   1.0000   1.0000   1.0000   1.0000   1.0000   1.0000   1.0000
     1.0000   1.0000   1.0000   1.0000   1.0000   1.0000   1.0000   1.0000
     1.0000   1.0000   1.0000   1.0000   1.0000   1.0000   1.0000   1.0000
     1.0000   1.0000   1.0000   1.0000   1.0000   1.0000   1.0000   1.0000
     1.0000   1.0000   1.0000   1.0000   1.0000   1.0000   1.0000   1.0000
     1.0000   1.0000   1.0000   1.0000   1.0000   1.0000   1.0000   1.0000
     1.0000   1.0000   1.0000   1.0000   1.0000   1.0000   1.0000   1.0000
     1.0000   1.0000   1.0000   1.0000   1.0000   1.0000   1.0000   1.0000
     0.0000   0.0000   0.0000   0.0000   0.0000   0.0000   0.0000   0.0000
     0.0000   0.0000   0.0000   0.0000   0.0000   0.0000

          k = 0.5317-0.5331-0.1709 (  7986 PWs)   bands (ev):

   -17.2543 -17.2354 -17.2319 -17.2296 -17.2269 -17.2108 -17.2077 -17.2044
   -17.1954 -17.1942 -17.1905 -17.1841 -17.1731 -17.1643 -17.1554 -17.1416
   -17.1342 -17.1325 -17.1295 -17.1257 -17.0220 -16.9887 -16.9854 -16.9680
   -16.9629 -16.8876 -16.8792 -16.8743 -16.8570 -16.8545 -16.7826 -16.7782
   -16.7721 -16.7619 -16.7565 -16.6826 -16.6706 -16.6621 -16.6522 -16.6497
    -4.5823  -3.9889  -3.5183  -3.0873  -2.7961  -2.4372  -1.8799  -1.6399
    -0.1273   0.1426   0.2640   1.0078   1.2789   1.8819   2.1749   2.7951
     3.1952   3.3249   3.4866   3.8419   4.1178   4.2178   4.3720   4.4896
     4.9702   5.0973   5.3651   5.3949   5.4976   6.0813   6.3442   6.9173
     8.5844   9.0034   9.3134   9.4704   9.6379   9.7323   9.9604  10.0676
    10.2815  10.6129  10.7470  10.9509  10.9732  11.2727

     occupation numbers 
     1.0000   1.0000   1.0000   1.0000   1.0000   1.0000   1.0000   1.0000
     1.0000   1.0000   1.0000   1.0000   1.0000   1.0000   1.0000   1.0000
     1.0000   1.0000   1.0000   1.0000   1.0000   1.0000   1.0000   1.0000
     1.0000   1.0000   1.0000   1.0000   1.0000   1.0000   1.0000   1.0000
     1.0000   1.0000   1.0000   1.0000   1.0000   1.0000   1.0000   1.0000
     1.0000   1.0000   1.0000   1.0000   1.0000   1.0000   1.0000   1.0000
     1.0000   1.0000   1.0000   1.0000   1.0000   1.0000   1.0000   1.0000
     1.0000   1.0000   1.0000   1.0000   1.0000   1.0000   1.0000   1.0000
     1.0000   1.0000   1.0000   1.0000   1.0000   1.0000   1.0000   1.0000
     0.0000   0.0000   0.0000   0.0000   0.0000   0.0000   0.0000   0.0000
     0.0000   0.0000   0.0000   0.0000   0.0000   0.0000

          k = 0.7102-0.3527-0.3482 (  7982 PWs)   bands (ev):

   -17.2545 -17.2360 -17.2322 -17.2298 -17.2265 -17.2109 -17.2079 -17.2042
   -17.1953 -17.1942 -17.1907 -17.1839 -17.1729 -17.1643 -17.1554 -17.1416
   -17.1343 -17.1324 -17.1293 -17.1257 -17.0221 -16.9887 -16.9854 -16.9680
   -16.9631 -16.8876 -16.8792 -16.8744 -16.8571 -16.8546 -16.7825 -16.7782
   -16.7722 -16.7619 -16.7565 -16.6826 -16.6705 -16.6621 -16.6522 -16.6498
    -4.7541  -3.7287  -3.6409  -2.9338  -2.6634  -2.3076  -2.0670  -1.5759
    -0.3160  -0.0026   0.2014   0.8508   0.9940   1.5833   1.8317   3.0139
     3.4637   3.6063   3.8906   4.0268   4.2759   4.3861   4.5037   4.7887
     5.0605   5.1434   5.2551   5.6451   5.7507   5.9282   6.0669   7.1869
     8.3833   8.9516   9.0166   9.2489   9.3425   9.6799   9.8154   9.9640
    10.1045  10.2279  10.3688  10.5572  10.6274  10.7826

     occupation numbers 
     1.0000   1.0000   1.0000   1.0000   1.0000   1.0000   1.0000   1.0000
     1.0000   1.0000   1.0000   1.0000   1.0000   1.0000   1.0000   1.0000
     1.0000   1.0000   1.0000   1.0000   1.0000   1.0000   1.0000   1.0000
     1.0000   1.0000   1.0000   1.0000   1.0000   1.0000   1.0000   1.0000
     1.0000   1.0000   1.0000   1.0000   1.0000   1.0000   1.0000   1.0000
     1.0000   1.0000   1.0000   1.0000   1.0000   1.0000   1.0000   1.0000
     1.0000   1.0000   1.0000   1.0000   1.0000   1.0000   1.0000   1.0000
     1.0000   1.0000   1.0000   1.0000   1.0000   1.0000   1.0000   1.0000
     1.0000   1.0000   1.0000   1.0000   1.0000   1.0000   1.0000   0.9978
     0.0000   0.0000   0.0000   0.0000   0.0000   0.0000   0.0000   0.0000
     0.0000   0.0000   0.0000   0.0000   0.0000   0.0000

          k = 0.1748-0.8939 0.1837 (  7973 PWs)   bands (ev):

   -17.2543 -17.2359 -17.2318 -17.2299 -17.2272 -17.2109 -17.2080 -17.2043
   -17.1955 -17.1941 -17.1903 -17.1838 -17.1727 -17.1642 -17.1554 -17.1414
   -17.1341 -17.1324 -17.1295 -17.1257 -17.0221 -16.9888 -16.9853 -16.9679
   -16.9631 -16.8876 -16.8792 -16.8745 -16.8570 -16.8547 -16.7825 -16.7782
   -16.7722 -16.7619 -16.7564 -16.6826 -16.6705 -16.6621 -16.6521 -16.6498
    -4.6081  -3.9360  -3.4823  -3.1368  -2.9181  -2.2090  -1.8486  -1.7134
    -0.2559  -0.1247   0.3590   0.9494   1.2300   1.8386   2.4692   3.0880
     3.2469   3.3338   3.7741   3.9145   4.0796   4.2558   4.3504   4.6350
     4.8201   4.9805   5.3302   5.4919   5.5913   5.6607   6.0939   6.7859
     8.1971   8.9649   9.1020   9.3615   9.6151   9.6669   9.9252  10.1572
    10.3812  10.5228  10.7088  10.7772  11.0910  11.2753

     occupation numbers 
     1.0000   1.0000   1.0000   1.0000   1.0000   1.0000   1.0000   1.0000
     1.0000   1.0000   1.0000   1.0000   1.0000   1.0000   1.0000   1.0000
     1.0000   1.0000   1.0000   1.0000   1.0000   1.0000   1.0000   1.0000
     1.0000   1.0000   1.0000   1.0000   1.0000   1.0000   1.0000   1.0000
     1.0000   1.0000   1.0000   1.0000   1.0000   1.0000   1.0000   1.0000
     1.0000   1.0000   1.0000   1.0000   1.0000   1.0000   1.0000   1.0000
     1.0000   1.0000   1.0000   1.0000   1.0000   1.0000   1.0000   1.0000
     1.0000   1.0000   1.0000   1.0000   1.0000   1.0000   1.0000   1.0000
     1.0000   1.0000   1.0000   1.0000   1.0000   1.0000   1.0000   1.0000
     0.0000   0.0000   0.0000   0.0000   0.0000   0.0000   0.0000   0.0000
     0.0000   0.0000   0.0000   0.0000   0.0000   0.0000

          k = 0.3532-0.7135 0.0064 (  7989 PWs)   bands (ev):

   -17.2541 -17.2353 -17.2318 -17.2291 -17.2282 -17.2108 -17.2078 -17.2045
   -17.1956 -17.1942 -17.1901 -17.1841 -17.1730 -17.1643 -17.1553 -17.1414
   -17.1340 -17.1327 -17.1297 -17.1258 -17.0221 -16.9887 -16.9853 -16.9680
   -16.9629 -16.8876 -16.8793 -16.8744 -16.8570 -16.8545 -16.7826 -16.7782
   -16.7722 -16.7619 -16.7564 -16.6826 -16.6706 -16.6621 -16.6522 -16.6497
    -4.3224  -4.0063  -3.7972  -3.4634  -2.4144  -2.2781  -2.0928  -1.7852
    -0.0414   0.3243   0.4081   0.5593   2.2235   2.3513   2.6049   2.7111
     2.9799   3.1183   3.2903   3.3394   4.1564   4.3175   4.4038   4.5979
     4.6800   4.7656   4.8181   4.9846   5.5805   5.9776   6.1760   6.2380
     9.2715   9.4580   9.5506   9.7488   9.8353  10.0392  10.1299  10.3611
    10.5435  10.7301  10.8429  10.8975  11.2180  11.6292

     occupation numbers 
     1.0000   1.0000   1.0000   1.0000   1.0000   1.0000   1.0000   1.0000
     1.0000   1.0000   1.0000   1.0000   1.0000   1.0000   1.0000   1.0000
     1.0000   1.0000   1.0000   1.0000   1.0000   1.0000   1.0000   1.0000
     1.0000   1.0000   1.0000   1.0000   1.0000   1.0000   1.0000   1.0000
     1.0000   1.0000   1.0000   1.0000   1.0000   1.0000   1.0000   1.0000
     1.0000   1.0000   1.0000   1.0000   1.0000   1.0000   1.0000   1.0000
     1.0000   1.0000   1.0000   1.0000   1.0000   1.0000   1.0000   1.0000
     1.0000   1.0000   1.0000   1.0000   1.0000   1.0000   1.0000   1.0000
     1.0000   1.0000   1.0000   1.0000   1.0000   1.0000   1.0000   1.0000
     0.0000   0.0000   0.0000   0.0000   0.0000   0.0000   0.0000   0.0000
     0.0000   0.0000   0.0000   0.0000   0.0000   0.0000

          k = 0.0029 0.0039-0.7080 (  7986 PWs)   bands (ev):

   -17.2541 -17.2349 -17.2318 -17.2290 -17.2278 -17.2108 -17.2076 -17.2045
   -17.1953 -17.1943 -17.1899 -17.1841 -17.1729 -17.1641 -17.1552 -17.1414
   -17.1339 -17.1327 -17.1295 -17.1255 -17.0219 -16.9885 -16.9853 -16.9679
   -16.9628 -16.8874 -16.8791 -16.8742 -16.8570 -16.8543 -16.7826 -16.7781
   -16.7720 -16.7617 -16.7565 -16.6824 -16.6704 -16.6620 -16.6521 -16.6495
    -4.4542  -3.9793  -3.4028  -3.2217  -3.0250  -2.9365  -1.4869  -1.1495
    -0.6590  -0.1610   1.1488   1.3078   1.3798   1.6127   2.9489   3.0371
     3.1761   3.3043   3.4542   3.5160   3.5845   3.7080   3.8460   3.9076
     4.9649   5.1424   5.4352   5.7707   5.8822   6.0473   6.1424   6.5821
     8.1850   8.4164   9.3207   9.4047   9.4451   9.9401  10.2158  10.4651
    11.1617  11.2941  11.6202  11.6773  11.7407  11.8335

     occupation numbers 
     1.0000   1.0000   1.0000   1.0000   1.0000   1.0000   1.0000   1.0000
     1.0000   1.0000   1.0000   1.0000   1.0000   1.0000   1.0000   1.0000
     1.0000   1.0000   1.0000   1.0000   1.0000   1.0000   1.0000   1.0000
     1.0000   1.0000   1.0000   1.0000   1.0000   1.0000   1.0000   1.0000
     1.0000   1.0000   1.0000   1.0000   1.0000   1.0000   1.0000   1.0000
     1.0000   1.0000   1.0000   1.0000   1.0000   1.0000   1.0000   1.0000
     1.0000   1.0000   1.0000   1.0000   1.0000   1.0000   1.0000   1.0000
     1.0000   1.0000   1.0000   1.0000   1.0000   1.0000   1.0000   1.0000
     1.0000   1.0000   1.0000   1.0000   1.0000   1.0000   1.0000   1.0000
     0.0000   0.0000   0.0000   0.0000   0.0000   0.0000   0.0000   0.0000
     0.0000   0.0000   0.0000   0.0000   0.0000   0.0000

          k = 0.1813 0.1843-0.8853 (  7985 PWs)   bands (ev):

   -17.2544 -17.2356 -17.2319 -17.2299 -17.2271 -17.2110 -17.2078 -17.2044
   -17.1954 -17.1943 -17.1902 -17.1838 -17.1729 -17.1642 -17.1553 -17.1415
   -17.1342 -17.1325 -17.1294 -17.1255 -17.0221 -16.9887 -16.9854 -16.9680
   -16.9630 -16.8875 -16.8792 -16.8744 -16.8571 -16.8545 -16.7826 -16.7782
   -16.7721 -16.7619 -16.7565 -16.6825 -16.6705 -16.6621 -16.6522 -16.6497
    -4.6329  -3.9061  -3.4171  -3.2336  -2.8084  -2.3683  -1.9621  -1.4947
    -0.2563   0.0311   0.2713   0.8830   1.0798   1.9591   2.3808   3.1171
     3.3235   3.4746   3.6175   3.7827   4.0003   4.3049   4.3637   4.6880
     4.7899   4.8684   5.1871   5.4498   5.8745   5.9896   6.1745   6.6039
     8.3553   8.8761   9.1339   9.2589   9.5458   9.7163   9.9447  10.2190
    10.3342  10.6339  10.7136  10.9745  11.1035  11.1923

     occupation numbers 
     1.0000   1.0000   1.0000   1.0000   1.0000   1.0000   1.0000   1.0000
     1.0000   1.0000   1.0000   1.0000   1.0000   1.0000   1.0000   1.0000
     1.0000   1.0000   1.0000   1.0000   1.0000   1.0000   1.0000   1.0000
     1.0000   1.0000   1.0000   1.0000   1.0000   1.0000   1.0000   1.0000
     1.0000   1.0000   1.0000   1.0000   1.0000   1.0000   1.0000   1.0000
     1.0000   1.0000   1.0000   1.0000   1.0000   1.0000   1.0000   1.0000
     1.0000   1.0000   1.0000   1.0000   1.0000   1.0000   1.0000   1.0000
     1.0000   1.0000   1.0000   1.0000   1.0000   1.0000   1.0000   1.0000
     1.0000   1.0000   1.0000   1.0000   1.0000   1.0000   1.0000   1.0000
     0.0000   0.0000   0.0000   0.0000   0.0000   0.0000   0.0000   0.0000
     0.0000   0.0000   0.0000   0.0000   0.0000   0.0000

          k =-0.3541-0.3569-0.3534 (  7982 PWs)   bands (ev):

   -17.2546 -17.2362 -17.2322 -17.2300 -17.2268 -17.2112 -17.2080 -17.2044
   -17.1954 -17.1942 -17.1905 -17.1836 -17.1727 -17.1642 -17.1554 -17.1416
   -17.1344 -17.1323 -17.1292 -17.1255 -17.0221 -16.9888 -16.9856 -16.9681
   -16.9632 -16.8876 -16.8792 -16.8746 -16.8572 -16.8547 -16.7825 -16.7781
   -16.7722 -16.7620 -16.7566 -16.6825 -16.6705 -16.6621 -16.6522 -16.6498
    -4.7094  -4.1502  -2.9749  -2.8594  -2.5796  -2.4592  -2.2608  -1.8789
    -0.0919   0.1385   0.4354   0.5133   0.7955   0.9869   2.9809   3.1093
     3.5560   3.6620   3.8180   3.9605   4.0173   4.1447   4.4760   4.6542
     4.9001   5.1855   5.3446   5.5679   5.9191   6.5550   6.7139   7.0644
     7.9649   8.2958   8.5007   8.6518   8.7589   8.8521   9.1401   9.2989
    10.3995  10.7838  10.9417  11.1671  11.3491  11.5828

     occupation numbers 
     1.0000   1.0000   1.0000   1.0000   1.0000   1.0000   1.0000   1.0000
     1.0000   1.0000   1.0000   1.0000   1.0000   1.0000   1.0000   1.0000
     1.0000   1.0000   1.0000   1.0000   1.0000   1.0000   1.0000   1.0000
     1.0000   1.0000   1.0000   1.0000   1.0000   1.0000   1.0000   1.0000
     1.0000   1.0000   1.0000   1.0000   1.0000   1.0000   1.0000   1.0000
     1.0000   1.0000   1.0000   1.0000   1.0000   1.0000   1.0000   1.0000
     1.0000   1.0000   1.0000   1.0000   1.0000   1.0000   1.0000   1.0000
     1.0000   1.0000   1.0000   1.0000   1.0000   1.0000   1.0000   1.0000
     1.0000   1.0000   1.0000   1.0000   1.0000   1.0000   1.0000   0.9999
     0.0055   0.0000   0.0000   0.0000   0.0000   0.0000   0.0000   0.0000
     0.0000   0.0000   0.0000   0.0000   0.0000   0.0000

     the Fermi energy is     7.5983 ev

!    total energy              =   -1781.80915360 Ry
     Harris-Foulkes estimate   =   -1781.80915359 Ry
     estimated scf accuracy    <          7.1E-11 Ry

     The total energy is the sum of the following terms:

     one-electron contribution =   -1184.22627162 Ry
     hartree contribution      =     707.79883825 Ry
     xc contribution           =    -495.22539587 Ry
     ewald contribution        =    -810.15480832 Ry
     smearing contrib. (-TS)   =      -0.00151604 Ry

     convergence has been achieved in  13 iterations

     Forces acting on atoms (Ry/au):

     atom    1 type  1   force =  -0.20906669E-01 -0.25877440E-01  0.19367730E-01
     atom    2 type  2   force =   0.34652202E-01 -0.70531332E-01 -0.81793925E-01
     atom    3 type  1   force =  -0.94053137E-03  0.53191008E-01 -0.12049496E-01
     atom    4 type  2   force =  -0.16997881E-01  0.43845514E-01 -0.17508154E-01
     atom    5 type  1   force =   0.39805071E-01  0.66423451E-01 -0.14021170E-01
     atom    6 type  2   force =   0.29774364E-01 -0.19952867E-01  0.45850883E-02
     atom    7 type  1   force =  -0.12612125E-02 -0.22769435E-01 -0.24096331E-02
     atom    8 type  2   force =   0.18437045E-01 -0.10279728E+00  0.37994487E-01
     atom    9 type  1   force =  -0.28445061E-01  0.56570594E-01  0.50246476E-01
     atom   10 type  2   force =  -0.58663466E-01  0.67466622E-01 -0.26959702E-01
     atom   11 type  1   force =  -0.31870122E-01 -0.60476592E-01 -0.82164169E-01
     atom   12 type  2   force =  -0.35490965E-02  0.51313560E-01  0.37179155E-01
     atom   13 type  1   force =   0.40579287E-01 -0.41940030E-01  0.11731767E+00
     atom   14 type  2   force =  -0.34432931E-01 -0.54711589E-01 -0.52622524E-01
     atom   15 type  1   force =   0.34835044E-01  0.51840979E-01  0.66593831E-01
     atom   16 type  2   force =  -0.10160422E-02  0.84048417E-02 -0.43755662E-01
     The non-local contrib.  to forces
     atom    1 type  1   force =   0.28751025E-02 -0.16134919E-01  0.80619163E-02
     atom    2 type  2   force =  -0.17805770E-02 -0.11359346E-01 -0.79558386E-02
     atom    3 type  1   force =  -0.13044246E-01  0.25778349E-01 -0.36699967E-01
     atom    4 type  2   force =  -0.66236395E-01  0.23811170E-01  0.81503817E-02
     atom    5 type  1   force =   0.42885570E-01  0.29507781E-01 -0.37633392E-01
     atom    6 type  2   force =   0.81542446E-02 -0.40110245E-01  0.15396784E-01
     atom    7 type  1   force =   0.20362117E-01 -0.26632373E-01  0.24452768E-01
     atom    8 type  2   force =   0.38443202E-01 -0.31860695E-02  0.34451550E-01
     atom    9 type  1   force =  -0.44533229E-01  0.44350046E-01  0.40160071E-01
     atom   10 type  2   force =  -0.76553918E-01  0.26006816E-01 -0.39301771E-01
     atom   11 type  1   force =  -0.26483775E-01 -0.41177045E-01 -0.64846701E-01
     atom   12 type  2   force =   0.21321257E-01  0.87400572E-01  0.16598543E-01
     atom   13 type  1   force =   0.52670777E-01 -0.28111210E-01  0.11501658E+00
     atom   14 type  2   force =  -0.14182025E-01 -0.10181996E-01  0.26322872E-01
     atom   15 type  1   force =   0.22619700E-01  0.23131995E-01  0.52740241E-01
     atom   16 type  2   force =  -0.13447016E-01 -0.12400082E-01 -0.16535775E-01
     The ionic contribution  to forces
     atom    1 type  1   force =   0.22918618E+00  0.39104508E+00 -0.21485309E+00
     atom    2 type  2   force =  -0.19560470E+00 -0.71529848E+00 -0.36178737E+01
     atom    3 type  1   force =  -0.30036244E+00  0.23979960E+00 -0.89881101E+00
     atom    4 type  2   force =  -0.46547748E+00  0.12741591E+01 -0.23709251E+01
     atom    5 type  1   force =   0.38334859E+00 -0.34273987E+00 -0.41907614E+00
     atom    6 type  2   force =   0.18256479E+01 -0.10031911E+01  0.20127780E+01
     atom    7 type  1   force =   0.65372499E+00 -0.45124943E+00  0.15656734E+00
     atom    8 type  2   force =   0.15542238E+01 -0.28850944E+01  0.16765457E+01
     atom    9 type  1   force =  -0.99414937E+00  0.68453577E+00  0.21555386E+00
     atom   10 type  2   force =  -0.15937489E+01  0.21479403E+01  0.12361181E+01
     atom   11 type  1   force =  -0.15096172E+00 -0.34654052E+00 -0.82812095E+00
     atom   12 type  2   force =  -0.17012066E+01  0.20334713E+01  0.96112140E+00
     atom   13 type  1   force =   0.70659996E+00 -0.16978930E+00  0.18748567E+01
     atom   14 type  2   force =  -0.11516509E+01 -0.13213456E+01 -0.47037930E+00
     atom   15 type  1   force =   0.25756959E+00  0.19090607E+00  0.95702775E+00
     atom   16 type  2   force =   0.94286102E+00  0.27339154E+00 -0.27052943E+00
     The local contribution  to forces
     atom    1 type  1   force =  -0.25233883E+00 -0.40164084E+00  0.22655959E+00
     atom    2 type  2   force =   0.23482289E+00  0.65168589E+00  0.35399330E+01
     atom    3 type  1   force =   0.31116441E+00 -0.21013691E+00  0.91957380E+00
     atom    4 type  2   force =   0.51089439E+00 -0.12492766E+01  0.23417993E+01
     atom    5 type  1   force =  -0.38274229E+00  0.38210622E+00  0.43919184E+00
     atom    6 type  2   force =  -0.18030095E+01  0.10198281E+01 -0.20245300E+01
     atom    7 type  1   force =  -0.67319244E+00  0.45258656E+00 -0.18122846E+00
     atom    8 type  2   force =  -0.15715047E+01  0.27778522E+01 -0.16670541E+01
     atom    9 type  1   force =   0.10057185E+01 -0.66801675E+00 -0.20162143E+00
     atom   10 type  2   force =   0.16023425E+01 -0.21010389E+01 -0.12282826E+01
     atom   11 type  1   force =   0.14352128E+00  0.32302192E+00  0.80472340E+00
     atom   12 type  2   force =   0.16781996E+01 -0.20611581E+01 -0.93702247E+00
     atom   13 type  1   force =  -0.71359540E+00  0.15348917E+00 -0.18613062E+01
     atom   14 type  2   force =   0.11281960E+01  0.12733458E+01  0.39064916E+00
     atom   15 type  1   force =  -0.24327166E+00 -0.15994222E+00 -0.93794643E+00
     atom   16 type  2   force =  -0.93062919E+00 -0.25413657E+00  0.23929798E+00
     The core correction contribution to forces
     atom    1 type  1   force =  -0.62993551E-03  0.85353022E-03 -0.40126202E-03
     atom    2 type  2   force =  -0.27858735E-02  0.44396346E-02  0.41016771E-02
     atom    3 type  1   force =   0.13010875E-02 -0.22489359E-02  0.38875221E-02
     atom    4 type  2   force =   0.38241851E-02 -0.48489992E-02  0.34660619E-02
     atom    5 type  1   force =  -0.36859094E-02 -0.24510232E-02  0.34967602E-02
     atom    6 type  2   force =  -0.10190732E-02  0.35187696E-02  0.94239755E-03
     atom    7 type  1   force =  -0.21556872E-02  0.25253102E-02 -0.22012254E-02
     atom    8 type  2   force =  -0.27220718E-02  0.76298442E-02 -0.59516476E-02
     atom    9 type  1   force =   0.45179329E-02 -0.42964198E-02 -0.38463111E-02
     atom   10 type  2   force =   0.92965967E-02 -0.54414573E-02  0.45107767E-02
     atom   11 type  1   force =   0.20523923E-02  0.42199132E-02  0.60797097E-02
     atom   12 type  2   force =  -0.18666580E-02 -0.84006831E-02 -0.35195273E-02
     atom   13 type  1   force =  -0.50965162E-02  0.24716159E-02 -0.11247988E-01
     atom   14 type  2   force =   0.32028117E-02  0.34686245E-02  0.78605251E-03
     atom   15 type  1   force =  -0.20826041E-02 -0.22547411E-02 -0.52258479E-02
     atom   16 type  2   force =   0.20007357E-03  0.15523526E-02  0.40088916E-02
     The Hubbard contrib.    to forces
     atom    1 type  1   force =   0.00000000E+00  0.00000000E+00  0.00000000E+00
     atom    2 type  2   force =   0.00000000E+00  0.00000000E+00  0.00000000E+00
     atom    3 type  1   force =   0.00000000E+00  0.00000000E+00  0.00000000E+00
     atom    4 type  2   force =   0.00000000E+00  0.00000000E+00  0.00000000E+00
     atom    5 type  1   force =   0.00000000E+00  0.00000000E+00  0.00000000E+00
     atom    6 type  2   force =   0.00000000E+00  0.00000000E+00  0.00000000E+00
     atom    7 type  1   force =   0.00000000E+00  0.00000000E+00  0.00000000E+00
     atom    8 type  2   force =   0.00000000E+00  0.00000000E+00  0.00000000E+00
     atom    9 type  1   force =   0.00000000E+00  0.00000000E+00  0.00000000E+00
     atom   10 type  2   force =   0.00000000E+00  0.00000000E+00  0.00000000E+00
     atom   11 type  1   force =   0.00000000E+00  0.00000000E+00  0.00000000E+00
     atom   12 type  2   force =   0.00000000E+00  0.00000000E+00  0.00000000E+00
     atom   13 type  1   force =   0.00000000E+00  0.00000000E+00  0.00000000E+00
     atom   14 type  2   force =   0.00000000E+00  0.00000000E+00  0.00000000E+00
     atom   15 type  1   force =   0.00000000E+00  0.00000000E+00  0.00000000E+00
     atom   16 type  2   force =   0.00000000E+00  0.00000000E+00  0.00000000E+00
     The SCF correction term to forces
     atom    1 type  1   force =   0.35578417E-06  0.16502173E-06  0.76914141E-06
     atom    2 type  2   force =   0.45901459E-08  0.14137570E-05  0.11221118E-05
     atom    3 type  1   force =   0.20498607E-06 -0.64436532E-06  0.35298068E-06
     atom    4 type  2   force =  -0.30409549E-05  0.12585716E-05  0.14804688E-05
     atom    5 type  1   force =  -0.13519354E-05  0.79140765E-06 -0.54255321E-07
     atom    6 type  2   force =   0.24627990E-06  0.21375139E-05 -0.19408942E-05
     atom    7 type  1   force =  -0.65301185E-06  0.94691518E-06  0.13494560E-06
     atom    8 type  2   force =  -0.36024880E-05  0.15662034E-05  0.32699887E-05
     atom    9 type  1   force =   0.60777164E-06 -0.16011357E-05  0.47351030E-06
     atom   10 type  2   force =  -0.19824956E-06  0.27371955E-06 -0.40407438E-05
     atom   11 type  1   force =   0.12378239E-05 -0.40354493E-06  0.55941427E-06
     atom   12 type  2   force =   0.28273671E-05  0.93689385E-06  0.13919715E-05
     atom   13 type  1   force =   0.14526220E-07  0.13941722E-06 -0.11503156E-05
     atom   14 type  2   force =   0.65072318E-06  0.19877947E-05 -0.11266502E-05
     atom   15 type  1   force =  -0.43686682E-06  0.31964241E-06 -0.16962293E-05
     atom   16 type  2   force =  -0.13878207E-05 -0.19488856E-05  0.28626756E-05

     Total force =     0.324594     Total SCF correction =     0.000011


     entering subroutine stress ...

          total   stress  (Ry/bohr**3)                   (kbar)     P=   15.87
   0.0001207375  -0.0000805259  -0.0000606061         17.76    -11.85     -8.92
  -0.0000805259   0.0001154355  -0.0000830375        -11.85     16.98    -12.22
  -0.0000606061  -0.0000830375   0.0000875007         -8.92    -12.22     12.87

     kinetic stress (kbar)   6443.03     13.15     11.86
                               13.15   6452.48     -2.56
                               11.86     -2.56   6442.86

     local   stress (kbar)  -1286.25    441.17    453.71
                              441.17  -1018.82    318.81
                              453.71    318.81   -863.03

     nonloc. stress (kbar)   2519.34    -10.92     -8.85
                              -10.92   2513.51     -6.77
                               -8.85     -6.77   2517.76

     hartree stress (kbar)  15289.04   -102.21   -124.91
                             -102.21  15218.49   -106.81
                             -124.91   -106.81  15109.56

     exc-cor stress (kbar)  10982.73     -0.35     -0.30
                               -0.35  10982.51     -0.17
                               -0.30     -0.17  10982.65

     corecor stress (kbar) -16675.02      1.03      0.81
                                1.03 -16674.50      0.54
                                0.81      0.54 -16674.89

     ewald   stress (kbar) -17255.11   -353.71   -341.23
                             -353.71 -17456.70   -215.26
                             -341.23   -215.26 -17502.05

     hubbard stress (kbar)      0.00      0.00      0.00
                                0.00      0.00      0.00
                                0.00      0.00      0.00

     london  stress (kbar)      0.00      0.00      0.00
                                0.00      0.00      0.00
                                0.00      0.00      0.00

     XDM     stress (kbar)      0.00      0.00      0.00
                                0.00      0.00      0.00
                                0.00      0.00      0.00

     dft-nl  stress (kbar)      0.00      0.00      0.00
                                0.00      0.00      0.00
                                0.00      0.00      0.00



     Writing output data file SiGe_zns.scf.in.super.222.largedist.044.save

     init_run     :     31.72s CPU     32.79s WALL (       1 calls)
     electrons    :   1189.06s CPU   1283.55s WALL (       1 calls)
     forces       :     14.88s CPU     14.34s WALL (       1 calls)
     stress       :     95.96s CPU     96.22s WALL (       1 calls)

     Called by init_run:
     wfcinit      :     27.76s CPU     28.79s WALL (       1 calls)
     potinit      :      0.98s CPU      0.98s WALL (       1 calls)

     Called by electrons:
     c_bands      :    999.82s CPU   1089.07s WALL (      14 calls)
     sum_band     :    173.02s CPU    177.69s WALL (      14 calls)
     v_of_rho     :      1.69s CPU      1.77s WALL (      14 calls)
     v_h          :      0.12s CPU      0.11s WALL (      14 calls)
     v_xc         :      1.84s CPU      1.93s WALL (      16 calls)
     newd         :     12.52s CPU     12.86s WALL (      14 calls)
     mix_rho      :      2.60s CPU      2.72s WALL (      14 calls)

     Called by c_bands:
     init_us_2    :      8.26s CPU      8.69s WALL (    1116 calls)
     cegterg      :    967.72s CPU   1054.87s WALL (     504 calls)

     Called by sum_band:
     sum_band:bec :      0.99s CPU      1.06s WALL (     504 calls)
     addusdens    :     13.03s CPU     13.36s WALL (      14 calls)

     Called by *egterg:
     h_psi        :    618.17s CPU    632.48s WALL (    1884 calls)
     s_psi        :     51.05s CPU     44.33s WALL (    1884 calls)
     g_psi        :      1.31s CPU      1.28s WALL (    1344 calls)
     cdiaghg      :    131.66s CPU    200.12s WALL (    1812 calls)
     cegterg:over :     86.17s CPU     90.08s WALL (    1344 calls)
     cegterg:upda :     25.22s CPU     26.89s WALL (    1344 calls)
     cegterg:last :     13.48s CPU     11.85s WALL (     504 calls)

     Called by h_psi:
     h_psi:vloc   :    483.38s CPU    502.99s WALL (    1884 calls)
     h_psi:vnl    :    133.16s CPU    127.76s WALL (    1884 calls)
     add_vuspsi   :     51.26s CPU     47.48s WALL (    1884 calls)

     General routines
     calbec       :    161.96s CPU    158.91s WALL (    2460 calls)
     fft          :      3.94s CPU      3.96s WALL (     249 calls)
     ffts         :      1.27s CPU      1.30s WALL (     402 calls)
     fftw         :    511.52s CPU    531.22s WALL (  253274 calls)
     interpolate  :      0.32s CPU      0.32s WALL (      28 calls)

     Parallel routines
     fft_scatter  :    291.86s CPU    303.92s WALL (  253925 calls)

     PWSCF        : 22m14.74s CPU    23m51.02s WALL


   This run was terminated on:  11:10:59  27Sep2017            

=------------------------------------------------------------------------------=
   JOB DONE.
=------------------------------------------------------------------------------=
