
     Program PWSCF v.5.1 starts on  4Feb2017 at  6:42:53 

     This program is part of the open-source Quantum ESPRESSO suite
     for quantum simulation of materials; please cite
         "P. Giannozzi et al., J. Phys.:Condens. Matter 21 395502 (2009);
          URL http://www.quantum-espresso.org", 
     in publications or presentations arising from this work. More details at
     http://www.quantum-espresso.org/quote

     Parallel version (MPI), running on    16 processors
     R & G space division:  proc/nbgrp/npool/nimage =      16
     Reading input from /tmp/SiGe_zns.scf.in.super.444.c.04.22300/SiGe_zns.scf.in.super.444.c.04.t
Warning: card &IONS ignored
Warning: card   ION_DYNAMICS='BFGS', ignored
Warning: card / ignored
Warning: card &CELL ignored
Warning: card  CELL_DYNAMICS = 'BFGS' ignored
Warning: card / ignored
     Message from routine read_cards :
     DEPRECATED: no units specified in CELL_PARAMETERS card

     Current dimensions of program PWSCF are:
     Max number of different atomic species (ntypx) = 10
     Max number of k-points (npk) =  40000
     Max angular momentum in pseudopotentials (lmaxx) =  3

     Subspace diagonalization in iterative solution of the eigenvalue problem:
     a serial algorithm will be used


     Parallelization info
     --------------------
     sticks:   dense  smooth     PW     G-vecs:    dense   smooth      PW
     Min         753     526    138                54513    31920    4309
     Max         754     527    139                54514    31944    4312
     Sum       12049    8431   2221               872217   510981   68981



     bravais-lattice index     =            0
     lattice parameter (alat)  =    29.549696887  a.u.
     unit-cell volume          =   18260.1959 (a.u.)^3
     number of atoms/cell      =          128
     number of atomic types    =            2
     number of electrons       =      1152.00
     number of Kohn-Sham states=          691
     kinetic-energy cutoff     =      35.0000  Ry
     charge density cutoff     =     200.0000  Ry
     convergence threshold     =      1.0E-09
     mixing beta               =       0.3000
     number of iterations used =            8  local-TF  mixing
     Exchange-correlation      = SLA  PW   PSX  PSC ( 1  4 10  8 0)
     A smooth kinetic-energy cutoff is imposed at      34.5000 Ry
     height of the smooth step-function =             800.0000 Ry
     width of the smooth step-function  =               1.0000 Ry


     celldm(1)=  29.549697  celldm(2)=   0.000000  celldm(3)=   0.000000
     celldm(4)=   0.000000  celldm(5)=   0.000000  celldm(6)=   0.000000

     crystal axes: (cart. coord. in units of alat)
               a(1) = (   0.000604379840   0.706915302574   0.707297949744 )  
               a(2) = (   0.707370057655   0.000929831192   0.709522751222 )  
               a(3) = (   0.708770503008   0.706686996980   0.001211638756 )  

     reciprocal axes: (cart. coord. in units 2 pi/alat)
               b(1) = ( -0.708510  0.709390  0.705431 )  
               b(2) = (  0.705080 -0.708371  0.707386 )  
               b(3) = (  0.707811  0.706367 -0.706590 )  


     PseudoPot. # 1 for Si read from file:
     /users/kfg/psuedo/gbrv_1.5/si.pbesol.UPF
     MD5 check sum: ef58ba74faed4df802eb8a9742fc00a8
     Pseudo is Ultrasoft + core correction, Zval =  4.0
     Generated by new atomic code, or converted to UPF format
     Using radial grid of  899 points,  6 beta functions with: 
                l(1) =   0
                l(2) =   0
                l(3) =   1
                l(4) =   1
                l(5) =   2
                l(6) =   2
     Q(r) pseudized with  8 coefficients,  rinner =    0.900   0.900   0.900
                                                       0.900   0.900

     PseudoPot. # 2 for Ge read from file:
     /users/kfg/psuedo/gbrv_1.5/ge.pbesol.UPF
     MD5 check sum: 7bed0412183f5e553a4d27ec7023354d
     Pseudo is Ultrasoft + core correction, Zval = 14.0
     Generated by new atomic code, or converted to UPF format
     Using radial grid of  873 points,  6 beta functions with: 
                l(1) =   0
                l(2) =   0
                l(3) =   1
                l(4) =   1
                l(5) =   2
                l(6) =   2
     Q(r) pseudized with  8 coefficients,  rinner =    1.400   1.400   1.400
                                                       1.400   1.400

     atomic species   valence    mass     pseudopotential
        Si             4.00    28.08550     Si( 1.00)
        Ge            14.00    72.64000     Ge( 1.00)

     No symmetry found


                                    s                        frac. trans.

      isym =  1     identity                                     

 cryst.   s( 1) = (     1          0          0      )
                  (     0          1          0      )
                  (     0          0          1      )

 cart.    s( 1) = (  1.0000000  0.0000000  0.0000000 )
                  (  0.0000000  1.0000000 -0.0000000 )
                  (  0.0000000 -0.0000000  1.0000000 )


     point group C_1 (1)    
     there are  1 classes
     the character table:

       E    
A      1.00

     the symmetry operations in each class:
     E        1

   Cartesian axes

     site n.     atom                  positions (alat units)
         1           Ge  tau(   1) = (   -0.00582882307    0.00379908037   -0.00552233023  )
         2           Si  tau(   2) = (    0.09357530279    0.08380091011    0.09509200644  )
         3           Ge  tau(   3) = (    0.17910710160    0.17868962845    0.00356945425  )
         4           Ge  tau(   4) = (    0.26552913519    0.27038595555    0.08883645521  )
         5           Ge  tau(   5) = (    0.35159580933    0.35787745436    0.00053179293  )
         6           Si  tau(   6) = (    0.44103973222    0.44022800476    0.09006102574  )
         7           Ge  tau(   7) = (    0.52635758874    0.53020016172    0.00125059258  )
         8           Si  tau(   8) = (    0.61910063119    0.62109479501    0.09024384804  )
         9           Si  tau(   9) = (    0.18353526149    0.00191286106    0.17698035175  )
        10           Si  tau(  10) = (    0.26313711467    0.08857448796    0.26407198008  )
        11           Ge  tau(  11) = (    0.35517053813    0.17867360787    0.18189931592  )
        12           Ge  tau(  12) = (    0.43735459693    0.26578832673    0.26759318402  )
        13           Si  tau(  13) = (    0.53465413668    0.36001654945    0.18063951707  )
        14           Ge  tau(  14) = (    0.62603064408    0.43571485327    0.26704541625  )
        15           Si  tau(  15) = (    0.70540423133    0.52648192980    0.18147383884  )
        16           Ge  tau(  16) = (    0.80074059528    0.62117492936    0.26528053555  )
        17           Ge  tau(  17) = (    0.35174736665    0.00689673618    0.35237180958  )
        18           Si  tau(  18) = (    0.43633584463    0.08576181487    0.44165328610  )
        19           Ge  tau(  19) = (    0.53358754450    0.18322392113    0.36098512416  )
        20           Si  tau(  20) = (    0.62188901156    0.26825376385    0.44352293793  )
        21           Si  tau(  21) = (    0.70377228500    0.34973722022    0.35512194928  )
        22           Si  tau(  22) = (    0.79674461476    0.43822479150    0.44841125936  )
        23           Ge  tau(  23) = (    0.88903490381    0.53351214340    0.35860292397  )
        24           Ge  tau(  24) = (    0.97343626886    0.61973835077    0.43977496950  )
        25           Ge  tau(  25) = (    0.53303489437    0.00393867147    0.53493968375  )
        26           Si  tau(  26) = (    0.62534779207    0.08847077651    0.61536812619  )
        27           Ge  tau(  27) = (    0.70631450079    0.17828421789    0.53313447919  )
        28           Si  tau(  28) = (    0.79229757735    0.26334014116    0.62406355346  )
        29           Si  tau(  29) = (    0.89050664580    0.35728164344    0.53799323115  )
        30           Ge  tau(  30) = (    0.97616111344    0.43949109479    0.62488161620  )
        31           Ge  tau(  31) = (    1.05544304892    0.53330708932    0.53040426527  )
        32           Ge  tau(  32) = (    1.15327464709    0.62024297085    0.61522337096  )
        33           Ge  tau(  33) = (    0.00607683628    0.17077204764    0.17109257829  )
        34           Si  tau(  34) = (    0.08370936406    0.26062809981    0.27168823939  )
        35           Si  tau(  35) = (    0.17560417164    0.34975544830    0.18284228487  )
        36           Ge  tau(  36) = (    0.26239578134    0.43823189910    0.26607978039  )
        37           Ge  tau(  37) = (    0.34961292607    0.52427839997    0.18359315625  )
        38           Si  tau(  38) = (    0.44059083875    0.62300248238    0.27057702362  )
        39           Si  tau(  39) = (    0.53299450375    0.70220490195    0.17272186721  )
        40           Si  tau(  40) = (    0.62547199973    0.79898862813    0.26656051127  )
        41           Ge  tau(  41) = (    0.17329580391    0.17183970925    0.35747557404  )
        42           Si  tau(  42) = (    0.25989599970    0.26640616507    0.44449150511  )
        43           Si  tau(  43) = (    0.35922655465    0.35452845950    0.35804956740  )
        44           Si  tau(  44) = (    0.44405711358    0.44153157158    0.44800480908  )
        45           Si  tau(  45) = (    0.52979702755    0.53072221793    0.34811849020  )
        46           Si  tau(  46) = (    0.62573749486    0.62035697315    0.43931569288  )
        47           Si  tau(  47) = (    0.70623050627    0.70710186581    0.35672523662  )
        48           Si  tau(  48) = (    0.79643869018    0.80079778167    0.44735563649  )
        49           Si  tau(  49) = (    0.35261739617    0.17212434221    0.52680638853  )
        50           Si  tau(  50) = (    0.44440034105    0.26561068489    0.61376205660  )
        51           Ge  tau(  51) = (    0.53073707656    0.34866466017    0.53746606051  )
        52           Ge  tau(  52) = (    0.62201071925    0.44180418368    0.62196182964  )
        53           Ge  tau(  53) = (    0.71344809069    0.52569695555    0.52679204725  )
        54           Ge  tau(  54) = (    0.79495053001    0.62068498584    0.62049040910  )
        55           Si  tau(  55) = (    0.88553331980    0.70616861460    0.53886457855  )
        56           Si  tau(  56) = (    0.97583737617    0.79265491721    0.61512049332  )
        57           Ge  tau(  57) = (    0.52597656764    0.18172126810    0.70513324449  )
        58           Si  tau(  58) = (    0.62099128437    0.26459814989    0.79108188176  )
        59           Ge  tau(  59) = (    0.71347632635    0.35814028401    0.70779709332  )
        60           Si  tau(  60) = (    0.79087363033    0.44192698095    0.80014200698  )
        61           Si  tau(  61) = (    0.88274312543    0.52938634840    0.70478134973  )
        62           Si  tau(  62) = (    0.97573502437    0.62032733404    0.80215396445  )
        63           Ge  tau(  63) = (    1.05626848011    0.70547278319    0.71485520378  )
        64           Si  tau(  64) = (    1.14651320046    0.79276182986    0.79943000449  )
        65           Si  tau(  65) = (   -0.00143061570    0.34787587560    0.35544859924  )
        66           Ge  tau(  66) = (    0.09060207964    0.43743493630    0.43657636990  )
        67           Ge  tau(  67) = (    0.18407382136    0.53298090209    0.35389313447  )
        68           Ge  tau(  68) = (    0.26291126955    0.62224625920    0.44655410990  )
        69           Ge  tau(  69) = (    0.35896950222    0.70958897633    0.35763549837  )
        70           Si  tau(  70) = (    0.44238450755    0.79416191503    0.43633250179  )
        71           Ge  tau(  71) = (    0.52661224493    0.88741435951    0.35387509857  )
        72           Si  tau(  72) = (    0.61808096444    0.97150919918    0.43687757960  )
        73           Ge  tau(  73) = (    0.17429287208    0.35845221449    0.53126695185  )
        74           Si  tau(  74) = (    0.26525562703    0.44734580634    0.62393268097  )
        75           Si  tau(  75) = (    0.36060930151    0.52920309979    0.53090726182  )
        76           Si  tau(  76) = (    0.43790244002    0.62273336639    0.61326335215  )
        77           Ge  tau(  77) = (    0.52623966118    0.71301845392    0.52728104732  )
        78           Si  tau(  78) = (    0.62630950516    0.78931672035    0.61776858641  )
        79           Si  tau(  79) = (    0.70291502921    0.88551260486    0.52570469325  )
        80           Ge  tau(  80) = (    0.80182289404    0.97530128800    0.62261405847  )
        81           Si  tau(  81) = (    0.35805725944    0.35546774744    0.70439106763  )
        82           Ge  tau(  82) = (    0.43823272831    0.44002104026    0.79808751516  )
        83           Si  tau(  83) = (    0.52513811805    0.52563067903    0.71352402241  )
        84           Si  tau(  84) = (    0.62433312123    0.62312092853    0.79558944180  )
        85           Si  tau(  85) = (    0.71231329703    0.70376837187    0.70662327240  )
        86           Ge  tau(  86) = (    0.80294193933    0.79326134444    0.80140445372  )
        87           Ge  tau(  87) = (    0.87925309979    0.88632318719    0.70592161596  )
        88           Si  tau(  88) = (    0.97392529509    0.97805898323    0.79798022396  )
        89           Si  tau(  89) = (    0.53304939710    0.35780339499    0.87926809305  )
        90           Si  tau(  90) = (    0.61516027892    0.44373178868    0.96870935796  )
        91           Si  tau(  91) = (    0.71086570216    0.53291148991    0.89014351878  )
        92           Si  tau(  92) = (    0.79241487461    0.61473221342    0.97389372269  )
        93           Ge  tau(  93) = (    0.88362832940    0.70856754726    0.88046725835  )
        94           Si  tau(  94) = (    0.97429759992    0.79506956563    0.97153656492  )
        95           Ge  tau(  95) = (    1.05959642621    0.88080676849    0.88486451404  )
        96           Ge  tau(  96) = (    1.15725691372    0.96629654611    0.97024232299  )
        97           Ge  tau(  97) = (   -0.00368919714    0.53506464598    0.52803768978  )
        98           Ge  tau(  98) = (    0.08499771183    0.61335441463    0.61962302959  )
        99           Ge  tau(  99) = (    0.17112473242    0.70578095294    0.53658191862  )
       100           Ge  tau( 100) = (    0.26584071384    0.79214163658    0.61454836173  )
       101           Si  tau( 101) = (    0.35965558434    0.87877950395    0.53595693979  )
       102           Ge  tau( 102) = (    0.44422590657    0.97266483822    0.62270946117  )
       103           Ge  tau( 103) = (    0.52603235412    1.06384490287    0.53010563057  )
       104           Ge  tau( 104) = (    0.62028439312    1.15071588764    0.62251801040  )
       105           Si  tau( 105) = (    0.17939901111    0.53169226118    0.71424843324  )
       106           Ge  tau( 106) = (    0.26706978882    0.61869135152    0.79321619280  )
       107           Si  tau( 107) = (    0.35538984792    0.70719440683    0.71126964626  )
       108           Si  tau( 108) = (    0.43662411665    0.80092524737    0.79658997197  )
       109           Si  tau( 109) = (    0.52978944588    0.88479255496    0.70390281707  )
       110           Si  tau( 110) = (    0.61777965468    0.97505978572    0.80240294455  )
       111           Ge  tau( 111) = (    0.70509149777    1.06053172829    0.71450912734  )
       112           Si  tau( 112) = (    0.79851457201    1.14798697824    0.79302501400  )
       113           Si  tau( 113) = (    0.35545942616    0.53538191608    0.87980042892  )
       114           Ge  tau( 114) = (    0.44909644850    0.61460441580    0.97013750420  )
       115           Ge  tau( 115) = (    0.52806618258    0.71132200548    0.89128791229  )
       116           Ge  tau( 116) = (    0.61583912481    0.79042564930    0.98077897826  )
       117           Ge  tau( 117) = (    0.71086413491    0.88461213586    0.88767051030  )
       118           Ge  tau( 118) = (    0.80209333340    0.96891561980    0.98123820296  )
       119           Ge  tau( 119) = (    0.89098500866    1.05807549195    0.88165796249  )
       120           Si  tau( 120) = (    0.97429499579    1.15007151682    0.97501753693  )
       121           Ge  tau( 121) = (    0.53006410848    0.53203973137    1.06593554291  )
       122           Ge  tau( 122) = (    0.62371239616    0.62065047559    1.14560975737  )
       123           Ge  tau( 123) = (    0.70884994104    0.70762967671    1.06918248932  )
       124           Si  tau( 124) = (    0.79858470893    0.79369267056    1.14540583699  )
       125           Ge  tau( 125) = (    0.88321189295    0.88533355172    1.06607010382  )
       126           Ge  tau( 126) = (    0.97439799961    0.97172916030    1.15399650624  )
       127           Ge  tau( 127) = (    1.05670698693    1.06247329282    1.06360215685  )
       128           Si  tau( 128) = (    1.15587533277    1.15542489909    1.15617795611  )

   Crystallographic axes

     site n.     atom                  positions (cryst. coord.)
         1           Ge  tau(   1) = (    0.00292918620   -0.01070736360    0.00245985829  )
         2           Si  tau(   2) = (    0.06022927926    0.07388261844    0.05823683292  )
         3           Ge  tau(   3) = (    0.00237935839    0.00223115739    0.25047234454  )
         4           Ge  tau(   4) = (    0.06634686586    0.05852719280    0.31616531978  )
         5           Ge  tau(   5) = (    0.00514046883   -0.00523086971    0.50128054375  )
         6           Si  tau(   6) = (    0.06334385027    0.06283116259    0.55949925072  )
         7           Ge  tau(   7) = (    0.00407096483   -0.00356987871    0.74619408030  )
         8           Si  tau(   8) = (    0.06561987493    0.06038676909    0.81316191500  )
         9           Si  tau(   9) = (   -0.00383222842    0.25324537943    0.00620705708  )
        10           Si  tau(  10) = (    0.06268303106    0.30958979635    0.06222702276  )
        11           Ge  tau(  11) = (    0.00342465164    0.25252929233    0.24907471109  )
        12           Ge  tau(  12) = (    0.06744578754    0.30938465734    0.30823008326  )
        13           Si  tau(  13) = (    0.00401278637    0.24973023400    0.50510005692  )
        14           Ge  tau(  14) = (    0.05392458130    0.32165775265    0.56219465739  )
        15           Si  tau(  15) = (    0.00171196797    0.25279354889    0.74295502869  )
        16           Ge  tau(  16) = (    0.06045924592    0.31221914342    0.81810625440  )
        17           Ge  tau(  17) = (    0.00424984627    0.49238733029    0.00486016828  )
        18           Si  tau(  18) = (    0.06324602763    0.55931963561    0.05735517625  )
        19           Ge  tau(  19) = (    0.00657499447    0.50178696720    0.25203432427  )
        20           Si  tau(  20) = (    0.06255651643    0.56219991247    0.31627701522  )
        21           Si  tau(  21) = (   -0.00001589294    0.49968000429    0.49425536147  )
        22           Si  tau(  22) = (    0.06269358978    0.56854237984    0.55664967199  )
        23           Ge  tau(  23) = (    0.00154725767    0.50258642605    0.75273925375  )
        24           Ge  tau(  24) = (    0.06017727518    0.55843589236    0.81603151809  )
        25           Ge  tau(  25) = (    0.00249638718    0.75145083648    0.00208750798  )
        26           Si  tau(  26) = (    0.05379466390    0.81355260464    0.07030840956  )
        27           Ge  tau(  27) = (    0.00213148823    0.74884841107    0.24916424724  )
        28           Si  tau(  28) = (    0.06569356943    0.81354408929    0.30585520026  )
        29           Si  tau(  29) = (    0.00203590003    0.75535892632    0.50254225672  )
        30           Ge  tau(  30) = (    0.06096111930    0.81898094250    0.55984507195  )
        31           Ge  tau(  31) = (    0.00469390485    0.74159253311    0.74898695256  )
        32           Ge  tau(  32) = (    0.05688464966    0.80898855177    0.81970960442  )
        33           Ge  tau(  33) = (    0.23753240949    0.00434306155    0.00403674358  )
        34           Si  tau(  34) = (    0.31723521049    0.06658866746    0.05137742583  )
        35           Si  tau(  35) = (    0.25267813192    0.00539821281    0.24215585050  )
        36           Ge  tau(  36) = (    0.31266796829    0.06280005414    0.30727002927  )
        37           Ge  tau(  37) = (    0.25372560861    0.00499235786    0.48806790560  )
        38           Si  tau(  38) = (    0.32066177644    0.06073687737    0.56073663774  )
        39           Si  tau(  39) = (    0.24234815623    0.00056276322    0.75123040434  )
        40           Si  tau(  40) = (    0.31168095692    0.06358807306    0.81874644144  )
        41           Ge  tau(  41) = (    0.25129378188    0.25333416236   -0.00854588896  )
        42           Si  tau(  42) = (    0.31840484846    0.30895986731    0.05806477965  )
        43           Si  tau(  43) = (    0.24956235991    0.25542472722    0.25169772079  )
        44           Si  tau(  44) = (    0.31463535548    0.31723958017    0.30963643840  )
        45           Si  tau(  45) = (    0.24669577023    0.24385479916    0.50390407719  )
        46           Si  tau(  46) = (    0.30664026032    0.31251738936    0.57068786330  )
        47           Si  tau(  47) = (    0.25288420319    0.24940047193    0.74729300908  )
        48           Si  tau(  48) = (    0.31937117945    0.31074358603    0.81328858617  )
        49           Si  tau(  49) = (    0.24389571289    0.49935078514   -0.00106635809  )
        50           Si  tau(  50) = (    0.30652601643    0.55935323422    0.06849234436  )
        51           Ge  tau(  51) = (    0.25045162963    0.50742376095    0.24217900276  )
        52           Ge  tau(  52) = (    0.31146146028    0.56557269066    0.31287037269  )
        53           Ge  tau(  53) = (    0.23905410193    0.50329434597    0.50409583804  )
        54           Ge  tau(  54) = (    0.31479003485    0.55975415049    0.56267430694  )
        55           Si  tau(  55) = (    0.25367101610    0.50532713842    0.74484860315  )
        56           Si  tau(  56) = (    0.30483543477    0.56167662860    0.81597626900  )
        57           Ge  tau(  57) = (    0.25367420944    0.74093053408    0.00241428988  )
        58           Si  tau(  58) = (    0.30577813778    0.81001472052    0.06747786268  )
        59           Ge  tau(  59) = (    0.24785769365    0.75004700973    0.25786305844  )
        60           Si  tau(  60) = (    0.31760128326    0.81058966095    0.30657994709  )
        61           Si  tau(  61) = (    0.24728321767    0.74595450126    0.50076546974  )
        62           Si  tau(  62) = (    0.31459975143    0.81598121743    0.56202142176  )
        63           Ge  tau(  63) = (    0.25635902697    0.75069522917    0.74085223936  )
        64           Si  tau(  64) = (    0.31400334350    0.81231890312    0.80662690026  )
        65           Si  tau(  65) = (    0.49853756752    0.00400523291   -0.00644087694  )
        66           Ge  tau(  66) = (    0.55409376829    0.06284317891    0.06463843128  )
        67           Ge  tau(  67) = (    0.49732008877    0.00257724309    0.25671241361  )
        68           Ge  tau(  68) = (    0.57015278578    0.06047796206    0.31009527098  )
        69           Ge  tau(  69) = (    0.50132862462    0.00343583997    0.50261134948  )
        70           Si  tau(  70) = (    0.55773870521    0.05801016274    0.56578648189  )
        71           Ge  tau(  71) = (    0.50604680594   -0.00698911882    0.74953781453  )
        72           Si  tau(  72) = (    0.55944880645    0.05664802083    0.81503353856  )
        73           Ge  tau(  73) = (    0.50556613140    0.24478374592    0.00117756825  )
        74           Si  tau(  74) = (    0.56954755188    0.31150048506    0.06287689415  )
        75           Si  tau(  75) = (    0.49443420578    0.25494221360    0.25392138408  )
        76           Si  tau(  76) = (    0.56411715978    0.30144340183    0.31650507675  )
        77           Ge  tau(  77) = (    0.50492206257    0.23895016032    0.50355976478  )
        78           Si  tau(  78) = (    0.55197946208    0.31946947305    0.56434735734  )
        79           Si  tau(  79) = (    0.50099930939    0.24021537935    0.75157059490  )
        80           Ge  tau(  80) = (    0.56298009903    0.31490188603    0.81652731382  )
        81           Si  tau(  81) = (    0.49537714324    0.49893195848    0.00681226888  )
        82           Ge  tau(  82) = (    0.56464960361    0.56184645896    0.05708209249  )
        83           Si  tau(  83) = (    0.50415313275    0.50265926390    0.23881821387  )
        84           Si  tau(  84) = (    0.56092251459    0.56159226043    0.31990688151  )
        85           Si  tau(  85) = (    0.49303863276    0.50356356230    0.50200950353  )
        86           Ge  tau(  86) = (    0.55917427530    0.57111658188    0.56240096693  )
        87           Ge  tau(  87) = (    0.50376759633    0.49145649140    0.74961785783  )
        88           Si  tau(  88) = (    0.56670878853    0.55834587705    0.81637939224  )
        89           Si  tau(  89) = (    0.49641397412    0.74436640040    0.00875723652  )
        90           Si  tau(  90) = (    0.56228891950    0.80466138380    0.06437496085  )
        91           Si  tau(  91) = (    0.50232103061    0.75339263943    0.25062374056  )
        92           Si  tau(  92) = (    0.56166536390    0.81217555374    0.30696360272  )
        93           Ge  tau(  93) = (    0.49769959329    0.74392950110    0.50382186364  )
        94           Si  tau(  94) = (    0.55906622728    0.81100414612    0.56475214511  )
        95           Ge  tau(  95) = (    0.49831107355    0.74910226879    0.74693111484  )
        96           Ge  tau(  96) = (    0.54999132748    0.81779723825    0.81611639879  )
        97           Ge  tau(  97) = (    0.75467724389   -0.00809936717    0.00223477270  )
        98           Ge  tau(  98) = (    0.81198674253    0.06375991257    0.05559643103  )
        99           Ge  tau(  99) = (    0.75795152699    0.00027191917    0.24052114697  )
       100           Ge  tau( 100) = (    0.80710759855    0.06103115711    0.31347424901  )
       101           Si  tau( 101) = (    0.74665798819    0.01021188777    0.49660748319  )
       102           Ge  tau( 102) = (    0.81453824300    0.06470252456    0.56148638503  )
       103           Ge  tau( 103) = (    0.75593412394   -0.00771338312    0.74922940046  )
       104           Ge  tau( 104) = (    0.81597151624    0.06257610542    0.81200723033  )
       105           Si  tau( 105) = (    0.75392386257    0.25510416895   -0.00213002088  )
       106           Ge  tau( 106) = (    0.80923077150    0.31115206355    0.06557983541  )
       107           Si  tau( 107) = (    0.75163062735    0.25276390012    0.24851198262  )
       108           Si  tau( 108) = (    0.82075459875    0.30399867690    0.31193243310  )
       109           Si  tau( 109) = (    0.74885622279    0.24471289393    0.50260878080  )
       110           Si  tau( 110) = (    0.82003393271    0.31248787431    0.55905187272  )
       111           Ge  tau( 111) = (    0.75680249140    0.25132897732    0.74333159491  )
       112           Si  tau( 112) = (    0.80803866932    0.31078992144    0.81575449687  )
       113           Si  tau( 113) = (    0.74858616239    0.49373629839    0.00811648043  )
       114           Ge  tau( 114) = (    0.80216956053    0.56754207875    0.06652274639  )
       115           Ge  tau( 115) = (    0.75920620987    0.49893298930    0.24645082647  )
       116           Ge  tau( 116) = (    0.81626325232    0.56808986408    0.30122025527  )
       117           Ge  tau( 117) = (    0.75007038445    0.50250746186    0.50079972814  )
       118           Ge  tau( 118) = (    0.81124312512    0.57330160260    0.55880802749  )
       119           Ge  tau( 119) = (    0.74126457111    0.50237738006    0.75506850910  )
       120           Si  tau( 120) = (    0.81335834933    0.56199144801    0.81305231097  )
       121           Ge  tau( 121) = (    0.75381151801    0.75088337914   -0.00217827802  )
       122           Ge  tau( 122) = (    0.80652494577    0.81050398215    0.07040177313  )
       123           Ge  tau( 123) = (    0.75399210883    0.75485560582    0.24610503577  )
       124           Si  tau( 124) = (    0.80523660953    0.81108052451    0.31655375304  )
       125           Ge  tau( 125) = (    0.75432059457    0.74971269512    0.49724372406  )
       126           Ge  tau( 126) = (    0.81302845710    0.81500388294    0.56068540699  )
       127           Ge  tau( 127) = (    0.75531767413    0.74481406334    0.74691500138  )
       128           Si  tau( 128) = (    0.81630062364    0.81437820264    0.81735232846  )

     number of k points=     8  gaussian smearing, width (Ry)=  0.0150
                       cart. coord. in units 2pi/alat
        k(    1) = (   0.0000000   0.0000000   0.0000000), wk =   0.2500000
        k(    2) = (  -0.3539057  -0.3531834   0.3532948), wk =   0.2500000
        k(    3) = (  -0.3525399   0.3541857  -0.3536929), wk =   0.2500000
        k(    4) = (  -0.7064456   0.0010023  -0.0003981), wk =   0.2500000
        k(    5) = (   0.3542551  -0.3546948  -0.3527155), wk =   0.2500000
        k(    6) = (   0.0003494  -0.7078782   0.0005793), wk =   0.2500000
        k(    7) = (   0.0017152  -0.0005091  -0.7064083), wk =   0.2500000
        k(    8) = (  -0.3521905  -0.3536925  -0.3531136), wk =   0.2500000

                       cryst. coord.
        k(    1) = (   0.0000000   0.0000000   0.0000000), wk =   0.2500000
        k(    2) = (   0.0000000   0.0000000  -0.5000000), wk =   0.2500000
        k(    3) = (   0.0000000  -0.5000000   0.0000000), wk =   0.2500000
        k(    4) = (   0.0000000  -0.5000000  -0.5000000), wk =   0.2500000
        k(    5) = (  -0.5000000   0.0000000   0.0000000), wk =   0.2500000
        k(    6) = (  -0.5000000  -0.0000000  -0.5000000), wk =   0.2500000
        k(    7) = (  -0.5000000  -0.5000000   0.0000000), wk =   0.2500000
        k(    8) = (  -0.5000000  -0.5000000  -0.5000000), wk =   0.2500000

     Dense  grid:   872217 G-vectors     FFT dimensions: ( 135, 135, 135)

     Smooth grid:   510981 G-vectors     FFT dimensions: ( 120, 120, 120)

     Largest allocated arrays     est. size (Mb)     dimensions
        Kohn-Sham Wavefunctions        42.15 Mb     (    3998,  691)
        NL pseudopotentials           140.55 Mb     (    3998, 2304)
        Each V/rho on FFT grid          2.50 Mb     (  164025)
        Each G-vector array             0.42 Mb     (   54514)
        G-vector shells                 0.41 Mb     (   54126)
     Largest temporary arrays     est. size (Mb)     dimensions
        Auxiliary wavefunctions       168.62 Mb     (    3998, 2764)
        Each subspace H/S matrix      116.57 Mb     (    2764, 2764)
        Each <psi_i|beta_j> matrix     24.29 Mb     (    2304,  691)
        Arrays for rho mixing          20.02 Mb     (  164025,    8)

     Check: negative/imaginary core charge=   -0.000001    0.000000

     Initial potential from superposition of free atoms

     starting charge 1151.90680, renormalised to 1152.00000
     Starting wfc are  832 randomized atomic wfcs

     total cpu time spent up to now is      802.0 secs

     per-process dynamical memory:   583.3 Mb

     Self-consistent Calculation

     iteration #  1     ecut=    35.00 Ry     beta=0.30
     Davidson diagonalization with overlap
     ethr =  1.00E-02,  avg # of iterations =  3.0

     Threshold (ethr) on eigenvalues was too large:
     Diagonalizing with lowered threshold

     Davidson diagonalization with overlap
     ethr =  2.51E-04,  avg # of iterations =  5.9

     total cpu time spent up to now is     5991.4 secs

     total energy              =  -14255.43930077 Ry
     Harris-Foulkes estimate   =  -14255.74417222 Ry
     estimated scf accuracy    <       2.88718041 Ry

     iteration #  2     ecut=    35.00 Ry     beta=0.30
     Davidson diagonalization with overlap
     ethr =  2.51E-04,  avg # of iterations =  1.0

     total cpu time spent up to now is     7626.8 secs

     total energy              =  -14254.85798826 Ry
     Harris-Foulkes estimate   =  -14255.45363483 Ry
     estimated scf accuracy    <       1.78271856 Ry

     iteration #  3     ecut=    35.00 Ry     beta=0.30
     Davidson diagonalization with overlap
     ethr =  1.55E-04,  avg # of iterations =  2.0

     total cpu time spent up to now is     9740.2 secs

     total energy              =  -14254.97399394 Ry
     Harris-Foulkes estimate   =  -14254.97392397 Ry
     estimated scf accuracy    <       0.02991548 Ry

     iteration #  4     ecut=    35.00 Ry     beta=0.30
     Davidson diagonalization with overlap
     ethr =  2.60E-06,  avg # of iterations =  9.8

     total cpu time spent up to now is    15684.2 secs

     total energy              =  -14254.97745056 Ry
     Harris-Foulkes estimate   =  -14254.97879053 Ry
     estimated scf accuracy    <       0.01398869 Ry

     iteration #  5     ecut=    35.00 Ry     beta=0.30
     Davidson diagonalization with overlap
     ethr =  1.21E-06,  avg # of iterations =  2.0

     total cpu time spent up to now is    17965.4 secs

     total energy              =  -14254.97851432 Ry
     Harris-Foulkes estimate   =  -14254.97867132 Ry
     estimated scf accuracy    <       0.00118033 Ry

     iteration #  6     ecut=    35.00 Ry     beta=0.30
     Davidson diagonalization with overlap
     ethr =  1.02E-07,  avg # of iterations =  1.6

     total cpu time spent up to now is    19846.8 secs

     total energy              =  -14254.97841182 Ry
     Harris-Foulkes estimate   =  -14254.97855906 Ry
     estimated scf accuracy    <       0.00061036 Ry

     iteration #  7     ecut=    35.00 Ry     beta=0.30
     Davidson diagonalization with overlap
     ethr =  5.30E-08,  avg # of iterations =  2.5

     total cpu time spent up to now is    22010.9 secs

     total energy              =  -14254.97847096 Ry
     Harris-Foulkes estimate   =  -14254.97846501 Ry
     estimated scf accuracy    <       0.00013694 Ry

     iteration #  8     ecut=    35.00 Ry     beta=0.30
     Davidson diagonalization with overlap
     ethr =  1.19E-08,  avg # of iterations =  2.0

     total cpu time spent up to now is    23938.3 secs

     total energy              =  -14254.97845910 Ry
     Harris-Foulkes estimate   =  -14254.97847669 Ry
     estimated scf accuracy    <       0.00006427 Ry

     iteration #  9     ecut=    35.00 Ry     beta=0.30
     Davidson diagonalization with overlap
     ethr =  5.58E-09,  avg # of iterations =  3.0

     total cpu time spent up to now is    26736.8 secs

     total energy              =  -14254.97846985 Ry
     Harris-Foulkes estimate   =  -14254.97847599 Ry
     estimated scf accuracy    <       0.00001975 Ry

     iteration # 10     ecut=    35.00 Ry     beta=0.30
     Davidson diagonalization with overlap
     ethr =  1.71E-09,  avg # of iterations =  2.0

     total cpu time spent up to now is    28722.1 secs

     total energy              =  -14254.97846918 Ry
     Harris-Foulkes estimate   =  -14254.97847119 Ry
     estimated scf accuracy    <       0.00000425 Ry

     iteration # 11     ecut=    35.00 Ry     beta=0.30
     Davidson diagonalization with overlap
     ethr =  3.69E-10,  avg # of iterations =  2.0

     total cpu time spent up to now is    31707.7 secs

     total energy              =  -14254.97847007 Ry
     Harris-Foulkes estimate   =  -14254.97846995 Ry
     estimated scf accuracy    <       0.00000025 Ry

     iteration # 12     ecut=    35.00 Ry     beta=0.30
     Davidson diagonalization with overlap
     ethr =  2.13E-11,  avg # of iterations =  2.5

     total cpu time spent up to now is    34409.3 secs

     total energy              =  -14254.97847015 Ry
     Harris-Foulkes estimate   =  -14254.97847010 Ry
     estimated scf accuracy    <       0.00000012 Ry

     iteration # 13     ecut=    35.00 Ry     beta=0.30
     Davidson diagonalization with overlap
     ethr =  1.06E-11,  avg # of iterations =  2.0

     total cpu time spent up to now is    36610.3 secs

     total energy              =  -14254.97847020 Ry
     Harris-Foulkes estimate   =  -14254.97847017 Ry
     estimated scf accuracy    <       0.00000001 Ry

     iteration # 14     ecut=    35.00 Ry     beta=0.30
     Davidson diagonalization with overlap
     ethr =  1.30E-12,  avg # of iterations =  2.5

     total cpu time spent up to now is    38729.3 secs

     total energy              =  -14254.97847022 Ry
     Harris-Foulkes estimate   =  -14254.97847021 Ry
     estimated scf accuracy    <          7.6E-09 Ry

     iteration # 15     ecut=    35.00 Ry     beta=0.30
     Davidson diagonalization with overlap
     ethr =  6.64E-13,  avg # of iterations =  2.5

     total cpu time spent up to now is    41234.4 secs

     total energy              =  -14254.97847023 Ry
     Harris-Foulkes estimate   =  -14254.97847022 Ry
     estimated scf accuracy    <          1.4E-09 Ry

     iteration # 16     ecut=    35.00 Ry     beta=0.30
     Davidson diagonalization with overlap
     ethr =  1.23E-13,  avg # of iterations =  2.5

     total cpu time spent up to now is    43632.9 secs

     End of self-consistent calculation

          k = 0.0000 0.0000 0.0000 ( 63913 PWs)   bands (ev):

   -17.5644 -17.5094 -17.4534 -17.4516 -17.4477 -17.4289 -17.4096 -17.4068
   -17.3948 -17.3801 -17.3789 -17.3770 -17.3714 -17.3603 -17.3565 -17.3470
   -17.3445 -17.3349 -17.3170 -17.3098 -17.3092 -17.3072 -17.3052 -17.3001
   -17.2954 -17.2918 -17.2858 -17.2808 -17.2791 -17.2732 -17.2715 -17.2684
   -17.2660 -17.2645 -17.2644 -17.2624 -17.2597 -17.2558 -17.2517 -17.2487
   -17.2483 -17.2445 -17.2416 -17.2394 -17.2370 -17.2338 -17.2325 -17.2303
   -17.2296 -17.2261 -17.2253 -17.2213 -17.2178 -17.2171 -17.2157 -17.2146
   -17.2116 -17.2108 -17.2098 -17.2090 -17.2080 -17.2064 -17.2054 -17.2031
   -17.2016 -17.1987 -17.1981 -17.1963 -17.1947 -17.1937 -17.1934 -17.1933
   -17.1891 -17.1871 -17.1862 -17.1847 -17.1845 -17.1840 -17.1834 -17.1810
   -17.1739 -17.1728 -17.1718 -17.1706 -17.1699 -17.1656 -17.1625 -17.1611
   -17.1575 -17.1571 -17.1553 -17.1538 -17.1509 -17.1500 -17.1484 -17.1475
   -17.1457 -17.1431 -17.1407 -17.1384 -17.1360 -17.1335 -17.1301 -17.1293
   -17.1276 -17.1263 -17.1256 -17.1234 -17.1226 -17.1205 -17.1172 -17.1162
   -17.1150 -17.1145 -17.1142 -17.1137 -17.1100 -17.1097 -17.1088 -17.1055
   -17.1043 -17.1038 -17.1028 -17.1014 -17.1009 -17.0991 -17.0956 -17.0943
   -17.0923 -17.0919 -17.0900 -17.0887 -17.0875 -17.0870 -17.0855 -17.0848
   -17.0844 -17.0840 -17.0832 -17.0818 -17.0804 -17.0799 -17.0798 -17.0790
   -17.0770 -17.0744 -17.0715 -17.0708 -17.0685 -17.0667 -17.0662 -17.0659
   -17.0657 -17.0649 -17.0638 -17.0634 -17.0603 -17.0594 -17.0580 -17.0569
   -17.0564 -17.0526 -17.0524 -17.0516 -17.0512 -17.0493 -17.0474 -17.0462
   -17.0458 -17.0423 -17.0415 -17.0412 -17.0407 -17.0402 -17.0391 -17.0374
   -17.0371 -17.0354 -17.0351 -17.0325 -17.0290 -17.0284 -17.0274 -17.0249
   -17.0247 -17.0218 -17.0176 -17.0157 -17.0155 -17.0124 -17.0110 -17.0080
   -17.0079 -17.0077 -17.0072 -17.0066 -17.0012 -17.0006 -17.0005 -16.9983
   -16.9967 -16.9954 -16.9952 -16.9941 -16.9939 -16.9929 -16.9920 -16.9916
   -16.9915 -16.9913 -16.9907 -16.9895 -16.9891 -16.9883 -16.9878 -16.9874
   -16.9858 -16.9830 -16.9826 -16.9774 -16.9773 -16.9758 -16.9739 -16.9730
   -16.9723 -16.9703 -16.9700 -16.9689 -16.9678 -16.9653 -16.9643 -16.9638
   -16.9633 -16.9607 -16.9606 -16.9588 -16.9584 -16.9573 -16.9569 -16.9542
   -16.9535 -16.9530 -16.9511 -16.9474 -16.9468 -16.9468 -16.9457 -16.9449
   -16.9434 -16.9431 -16.9419 -16.9409 -16.9394 -16.9383 -16.9357 -16.9351
   -16.9324 -16.9315 -16.9300 -16.9280 -16.9262 -16.9245 -16.9217 -16.9210
   -16.9205 -16.9198 -16.9196 -16.9188 -16.9170 -16.9166 -16.9125 -16.9079
   -16.9070 -16.9050 -16.9021 -16.9019 -16.9018 -16.8994 -16.8990 -16.8967
   -16.8966 -16.8961 -16.8959 -16.8943 -16.8942 -16.8925 -16.8910 -16.8880
   -16.8862 -16.8858 -16.8801 -16.8754 -16.8717 -16.8706 -16.8699 -16.8636
   -16.8580 -16.8571 -16.8512 -16.8512 -16.8502 -16.8452 -16.8392 -16.8356
   -16.8282 -16.8250 -16.8243 -16.8241 -16.8232 -16.8214 -16.8171 -16.8097
   -16.8085 -16.8044 -16.8007 -16.7979 -16.7963 -16.7798 -16.7773 -16.7599
    -5.2373  -4.6938  -4.6099  -4.5475  -4.4850  -4.4380  -4.4000  -4.3582
    -4.3117  -4.1983  -4.1667  -4.1051  -4.0492  -4.0112  -3.9301  -3.4693
    -3.4508  -3.3964  -3.3604  -3.3394  -3.3034  -3.2652  -3.2448  -3.1898
    -3.1529  -3.1012  -3.0661  -3.0254  -2.9325  -2.9000  -2.8305  -2.8071
    -2.7712  -2.7361  -2.6874  -2.6452  -2.6022  -2.5420  -2.5285  -2.4952
    -2.4776  -2.4384  -2.4038  -2.3790  -2.3380  -2.3150  -2.3060  -2.2545
    -2.1772  -2.1606  -2.1498  -2.1196  -2.0413  -1.9719  -1.9176  -1.2953
    -1.1945  -1.1419  -1.1218  -1.0840  -1.0513  -0.9994  -0.9351  -0.9225
    -0.8713  -0.8353  -0.8058  -0.7499  -0.7392  -0.6773  -0.6591  -0.5747
    -0.5192  -0.1172  -0.0739  -0.0006   0.0867   0.1435   0.2292   0.2655
     0.2898   0.3277   0.3698   0.3999   0.4282   0.4458   0.4530   0.4818
     0.5387   0.5602   0.5829   0.6226   0.6478   0.6590   0.7035   0.7117
     0.7302   0.7568   0.7756   0.8224   0.8631   1.2412   1.2855   1.3182
     1.3599   1.3874   1.4178   1.4853   1.5296   1.5660   1.5894   1.6224
     1.6782   2.8512   2.8786   2.9123   2.9502   3.0063   3.0317   3.0686
     3.1203   3.1386   3.1730   3.2388   3.2513   3.2601   3.2897   3.2958
     3.3201   3.3351   3.3392   3.3450   3.3709   3.3898   3.3957   3.4136
     3.4201   3.4311   3.4554   3.4651   3.4785   3.4905   3.5180   3.5228
     3.5266   3.5324   3.5452   3.5658   3.5828   3.5998   3.6077   3.6322
     3.6546   3.6591   3.6694   3.6848   3.6951   3.6990   3.7122   3.7317
     3.7423   3.7500   3.7602   3.7714   3.7804   3.7880   3.8178   3.8317
     3.8418   3.8668   3.8878   3.9056   3.9126   3.9710   3.9960   4.3346
     4.3536   4.3669   4.4053   4.4126   4.4516   4.8375   4.8766   4.9014
     4.9107   4.9256   4.9411   4.9660   4.9763   4.9844   5.0026   5.0201
     5.0412   5.0484   5.0599   5.0846   5.0976   5.1141   5.1360   5.1416
     5.1574   5.1614   5.2035   5.2078   5.2323   5.2583   5.3490   5.3867
     5.3935   5.4051   5.4253   5.4323   5.4416   5.4739   5.4876   5.5260
     5.5480   5.8239   5.8451   5.8757   5.8983   5.9365   5.9546   5.9684
     5.9858   6.0016   6.0287   6.0419   6.0700   6.0873   6.0971   6.1051
     6.1505   6.1675   6.1938   6.2145   6.2849   6.3989   6.4223   6.4770
     6.5107   6.5514   6.5932   6.6075   6.6287   6.6754   6.7060   6.7187
     6.7503   6.7799   6.8151   6.8488   6.8781   7.4334   7.4604   7.6247
     7.8526   7.9023   7.9359   7.9703   8.0166   8.0236   8.0825   8.1303
     8.1749   8.2020   8.2435   8.2790   8.2901   8.3149   8.3703   8.3967
     8.4654   8.4881   8.5041   8.5246   8.5553   8.5787   8.6085   8.6335
     8.6633   8.6773   8.6924   8.7252   8.7340   8.7433   8.7517   8.7745
     8.7801   8.7935   8.8129   8.8175   8.8309   8.8569   8.8762   8.9052
     8.9174   8.9253   8.9476   8.9715   8.9880   8.9996   9.0286   9.0715
     9.1764   9.4187   9.4800   9.5133   9.5401   9.5767   9.5833   9.6124
     9.6338   9.6656   9.7070   9.7243   9.7678   9.8695   9.9203   9.9737
    10.2256  10.2516  10.2846  10.3160  10.3879  10.4317  10.6295  10.6702
    10.6990  10.7199  10.7359  10.7452  10.7520  10.7731  10.7801  10.8303
    10.8564  10.8730  10.8876  10.9052  10.9256  10.9488  10.9590  10.9802
    11.0080  11.0610  11.0869  11.1042  11.1507  11.2254  11.4182  11.4614
    11.4759  11.4932  11.5204  11.5302  11.5539  11.5695  11.5843  11.5875
    11.5983  11.6375  11.6457  11.6648  11.6657  11.6864  11.7121  11.7171
    11.7339  11.7376  11.7595

     occupation numbers 
     1.0000   1.0000   1.0000   1.0000   1.0000   1.0000   1.0000   1.0000
     1.0000   1.0000   1.0000   1.0000   1.0000   1.0000   1.0000   1.0000
     1.0000   1.0000   1.0000   1.0000   1.0000   1.0000   1.0000   1.0000
     1.0000   1.0000   1.0000   1.0000   1.0000   1.0000   1.0000   1.0000
     1.0000   1.0000   1.0000   1.0000   1.0000   1.0000   1.0000   1.0000
     1.0000   1.0000   1.0000   1.0000   1.0000   1.0000   1.0000   1.0000
     1.0000   1.0000   1.0000   1.0000   1.0000   1.0000   1.0000   1.0000
     1.0000   1.0000   1.0000   1.0000   1.0000   1.0000   1.0000   1.0000
     1.0000   1.0000   1.0000   1.0000   1.0000   1.0000   1.0000   1.0000
     1.0000   1.0000   1.0000   1.0000   1.0000   1.0000   1.0000   1.0000
     1.0000   1.0000   1.0000   1.0000   1.0000   1.0000   1.0000   1.0000
     1.0000   1.0000   1.0000   1.0000   1.0000   1.0000   1.0000   1.0000
     1.0000   1.0000   1.0000   1.0000   1.0000   1.0000   1.0000   1.0000
     1.0000   1.0000   1.0000   1.0000   1.0000   1.0000   1.0000   1.0000
     1.0000   1.0000   1.0000   1.0000   1.0000   1.0000   1.0000   1.0000
     1.0000   1.0000   1.0000   1.0000   1.0000   1.0000   1.0000   1.0000
     1.0000   1.0000   1.0000   1.0000   1.0000   1.0000   1.0000   1.0000
     1.0000   1.0000   1.0000   1.0000   1.0000   1.0000   1.0000   1.0000
     1.0000   1.0000   1.0000   1.0000   1.0000   1.0000   1.0000   1.0000
     1.0000   1.0000   1.0000   1.0000   1.0000   1.0000   1.0000   1.0000
     1.0000   1.0000   1.0000   1.0000   1.0000   1.0000   1.0000   1.0000
     1.0000   1.0000   1.0000   1.0000   1.0000   1.0000   1.0000   1.0000
     1.0000   1.0000   1.0000   1.0000   1.0000   1.0000   1.0000   1.0000
     1.0000   1.0000   1.0000   1.0000   1.0000   1.0000   1.0000   1.0000
     1.0000   1.0000   1.0000   1.0000   1.0000   1.0000   1.0000   1.0000
     1.0000   1.0000   1.0000   1.0000   1.0000   1.0000   1.0000   1.0000
     1.0000   1.0000   1.0000   1.0000   1.0000   1.0000   1.0000   1.0000
     1.0000   1.0000   1.0000   1.0000   1.0000   1.0000   1.0000   1.0000
     1.0000   1.0000   1.0000   1.0000   1.0000   1.0000   1.0000   1.0000
     1.0000   1.0000   1.0000   1.0000   1.0000   1.0000   1.0000   1.0000
     1.0000   1.0000   1.0000   1.0000   1.0000   1.0000   1.0000   1.0000
     1.0000   1.0000   1.0000   1.0000   1.0000   1.0000   1.0000   1.0000
     1.0000   1.0000   1.0000   1.0000   1.0000   1.0000   1.0000   1.0000
     1.0000   1.0000   1.0000   1.0000   1.0000   1.0000   1.0000   1.0000
     1.0000   1.0000   1.0000   1.0000   1.0000   1.0000   1.0000   1.0000
     1.0000   1.0000   1.0000   1.0000   1.0000   1.0000   1.0000   1.0000
     1.0000   1.0000   1.0000   1.0000   1.0000   1.0000   1.0000   1.0000
     1.0000   1.0000   1.0000   1.0000   1.0000   1.0000   1.0000   1.0000
     1.0000   1.0000   1.0000   1.0000   1.0000   1.0000   1.0000   1.0000
     1.0000   1.0000   1.0000   1.0000   1.0000   1.0000   1.0000   1.0000
     1.0000   1.0000   1.0000   1.0000   1.0000   1.0000   1.0000   1.0000
     1.0000   1.0000   1.0000   1.0000   1.0000   1.0000   1.0000   1.0000
     1.0000   1.0000   1.0000   1.0000   1.0000   1.0000   1.0000   1.0000
     1.0000   1.0000   1.0000   1.0000   1.0000   1.0000   1.0000   1.0000
     1.0000   1.0000   1.0000   1.0000   1.0000   1.0000   1.0000   1.0000
     1.0000   1.0000   1.0000   1.0000   1.0000   1.0000   1.0000   1.0000
     1.0000   1.0000   1.0000   1.0000   1.0000   1.0000   1.0000   1.0000
     1.0000   1.0000   1.0000   1.0000   1.0000   1.0000   1.0000   1.0000
     1.0000   1.0000   1.0000   1.0000   1.0000   1.0000   1.0000   1.0000
     1.0000   1.0000   1.0000   1.0000   1.0000   1.0000   1.0000   1.0000
     1.0000   1.0000   1.0000   1.0000   1.0000   1.0000   1.0000   1.0000
     1.0000   1.0000   1.0000   1.0000   1.0000   1.0000   1.0000   1.0000
     1.0000   1.0000   1.0000   1.0000   1.0000   1.0000   1.0000   1.0000
     1.0000   1.0000   1.0000   1.0000   1.0000   1.0000   1.0000   1.0000
     1.0000   1.0000   1.0000   1.0000   1.0000   1.0000   1.0000   1.0000
     1.0000   1.0000   1.0000   1.0000   1.0000   1.0000   1.0000   1.0000
     1.0000   1.0000   1.0000   1.0000   1.0000   1.0000   1.0000   1.0000
     1.0000   1.0000   1.0000   1.0000   1.0000   1.0000   1.0000   1.0000
     1.0000   1.0000   1.0000   1.0000   1.0000   1.0000   1.0000   1.0000
     1.0000   1.0000   1.0000   1.0000   1.0000   1.0000   1.0000   1.0000
     1.0000   1.0000   1.0000   1.0000   1.0000   1.0000   1.0000   1.0000
     1.0000   1.0000   1.0000   1.0000   1.0000   1.0000   1.0000   1.0000
     1.0000   1.0000   1.0000   1.0000   1.0000   1.0000   1.0000   1.0000
     1.0000   1.0000   1.0000   1.0000   1.0000   1.0000   1.0000   1.0000
     1.0000   1.0000   1.0000   1.0000   1.0000   1.0000   1.0000   1.0000
     1.0000   1.0000   1.0000   1.0000   1.0000   1.0000   1.0000   1.0000
     1.0000   1.0000   1.0000   1.0000   1.0000   1.0000   1.0000   1.0000
     1.0000   1.0000   1.0000   1.0000   1.0000   1.0000   1.0000   1.0000
     1.0000   1.0000   1.0000   1.0000   1.0000   1.0000   1.0000   1.0000
     1.0000   1.0000   1.0000   1.0000   1.0000   1.0000   1.0000   1.0000
     1.0000   1.0000   1.0000   1.0000   1.0000   1.0000   1.0000   1.0000
     1.0000   1.0000   1.0000   1.0000   1.0000   0.9294   0.9005   0.5580
     0.0758   0.0377   0.0222   0.0123   0.0051   0.0044   0.0012   0.0004
     0.0001   0.0001   0.0000   0.0000   0.0000   0.0000   0.0000   0.0000
     0.0000   0.0000   0.0000   0.0000   0.0000   0.0000   0.0000   0.0000
     0.0000   0.0000   0.0000   0.0000   0.0000   0.0000   0.0000   0.0000
     0.0000   0.0000   0.0000   0.0000   0.0000   0.0000   0.0000   0.0000
     0.0000   0.0000   0.0000   0.0000   0.0000   0.0000   0.0000   0.0000
     0.0000   0.0000   0.0000   0.0000   0.0000   0.0000   0.0000   0.0000
     0.0000   0.0000   0.0000   0.0000   0.0000   0.0000   0.0000   0.0000
     0.0000   0.0000   0.0000   0.0000   0.0000   0.0000   0.0000   0.0000
     0.0000   0.0000   0.0000   0.0000   0.0000   0.0000   0.0000   0.0000
     0.0000   0.0000   0.0000   0.0000   0.0000   0.0000   0.0000   0.0000
     0.0000   0.0000   0.0000   0.0000   0.0000   0.0000   0.0000   0.0000
     0.0000   0.0000   0.0000   0.0000   0.0000   0.0000   0.0000   0.0000
     0.0000   0.0000   0.0000   0.0000   0.0000   0.0000   0.0000   0.0000
     0.0000   0.0000   0.0000

          k =-0.3539-0.3532 0.3533 ( 63882 PWs)   bands (ev):

   -17.5645 -17.5094 -17.4535 -17.4517 -17.4477 -17.4289 -17.4096 -17.4068
   -17.3948 -17.3801 -17.3789 -17.3770 -17.3714 -17.3603 -17.3565 -17.3470
   -17.3445 -17.3350 -17.3170 -17.3099 -17.3089 -17.3074 -17.3054 -17.3001
   -17.2955 -17.2919 -17.2857 -17.2809 -17.2792 -17.2733 -17.2716 -17.2684
   -17.2661 -17.2646 -17.2644 -17.2624 -17.2596 -17.2557 -17.2517 -17.2486
   -17.2483 -17.2445 -17.2416 -17.2394 -17.2367 -17.2343 -17.2324 -17.2304
   -17.2298 -17.2261 -17.2253 -17.2210 -17.2180 -17.2173 -17.2158 -17.2147
   -17.2116 -17.2103 -17.2101 -17.2089 -17.2078 -17.2065 -17.2051 -17.2035
   -17.2019 -17.1988 -17.1983 -17.1965 -17.1949 -17.1939 -17.1937 -17.1933
   -17.1881 -17.1871 -17.1866 -17.1848 -17.1845 -17.1840 -17.1833 -17.1812
   -17.1739 -17.1730 -17.1716 -17.1704 -17.1702 -17.1655 -17.1626 -17.1612
   -17.1573 -17.1571 -17.1554 -17.1540 -17.1516 -17.1499 -17.1484 -17.1471
   -17.1457 -17.1430 -17.1407 -17.1384 -17.1362 -17.1337 -17.1297 -17.1293
   -17.1277 -17.1264 -17.1256 -17.1240 -17.1222 -17.1205 -17.1174 -17.1162
   -17.1150 -17.1148 -17.1143 -17.1135 -17.1099 -17.1093 -17.1087 -17.1061
   -17.1041 -17.1038 -17.1029 -17.1015 -17.1010 -17.0991 -17.0959 -17.0943
   -17.0924 -17.0922 -17.0899 -17.0888 -17.0877 -17.0869 -17.0855 -17.0848
   -17.0845 -17.0844 -17.0832 -17.0818 -17.0805 -17.0799 -17.0797 -17.0782
   -17.0771 -17.0740 -17.0722 -17.0710 -17.0685 -17.0673 -17.0663 -17.0659
   -17.0659 -17.0647 -17.0640 -17.0636 -17.0606 -17.0594 -17.0573 -17.0569
   -17.0565 -17.0527 -17.0526 -17.0516 -17.0515 -17.0493 -17.0474 -17.0462
   -17.0453 -17.0422 -17.0414 -17.0407 -17.0406 -17.0403 -17.0401 -17.0376
   -17.0365 -17.0354 -17.0343 -17.0338 -17.0300 -17.0281 -17.0273 -17.0248
   -17.0243 -17.0217 -17.0178 -17.0159 -17.0157 -17.0129 -17.0113 -17.0080
   -17.0078 -17.0078 -17.0067 -17.0062 -17.0013 -17.0008 -17.0003 -16.9985
   -16.9971 -16.9954 -16.9953 -16.9938 -16.9938 -16.9929 -16.9921 -16.9916
   -16.9915 -16.9912 -16.9905 -16.9896 -16.9889 -16.9884 -16.9876 -16.9873
   -16.9859 -16.9830 -16.9825 -16.9787 -16.9773 -16.9764 -16.9739 -16.9729
   -16.9712 -16.9706 -16.9701 -16.9689 -16.9679 -16.9657 -16.9643 -16.9641
   -16.9628 -16.9607 -16.9606 -16.9588 -16.9585 -16.9574 -16.9570 -16.9544
   -16.9533 -16.9530 -16.9510 -16.9476 -16.9472 -16.9468 -16.9458 -16.9447
   -16.9434 -16.9430 -16.9416 -16.9407 -16.9395 -16.9383 -16.9362 -16.9351
   -16.9325 -16.9312 -16.9300 -16.9281 -16.9262 -16.9244 -16.9216 -16.9213
   -16.9206 -16.9198 -16.9196 -16.9187 -16.9170 -16.9166 -16.9126 -16.9081
   -16.9071 -16.9051 -16.9022 -16.9020 -16.9018 -16.8994 -16.8991 -16.8970
   -16.8966 -16.8961 -16.8959 -16.8943 -16.8942 -16.8922 -16.8910 -16.8880
   -16.8864 -16.8859 -16.8801 -16.8754 -16.8718 -16.8706 -16.8699 -16.8636
   -16.8580 -16.8572 -16.8513 -16.8511 -16.8502 -16.8451 -16.8393 -16.8357
   -16.8283 -16.8251 -16.8243 -16.8241 -16.8233 -16.8214 -16.8171 -16.8098
   -16.8085 -16.8044 -16.8008 -16.7979 -16.7963 -16.7799 -16.7774 -16.7600
    -5.1013  -5.0050  -4.7007  -4.5844  -4.5126  -4.4088  -4.3623  -4.3495
    -4.2309  -4.0806  -4.0335  -3.9882  -3.8981  -3.7869  -3.7361  -3.6646
    -3.6123  -3.5160  -3.5012  -3.4778  -3.3668  -3.3089  -3.2516  -3.2435
    -3.1610  -3.1045  -3.0923  -3.0317  -2.9809  -2.9705  -2.9423  -2.9015
    -2.8340  -2.8178  -2.8006  -2.7314  -2.6427  -2.6048  -2.5943  -2.5412
    -2.4613  -2.3622  -2.2977  -2.2863  -2.2344  -2.1549  -2.0832  -1.9928
    -1.9495  -1.9084  -1.8498  -1.8142  -1.7644  -1.7107  -1.6909  -1.6610
    -1.6067  -1.5619  -1.5450  -1.5163  -1.4913  -1.4205  -1.3714  -1.3398
    -0.4809  -0.4059  -0.3612  -0.3107  -0.2569  -0.2323  -0.2056  -0.1815
    -0.1607  -0.1038  -0.0983  -0.0859  -0.0341  -0.0116   0.0448   0.0687
     0.0881   0.1403   0.1498   0.1754   0.2639   0.3206   0.3355   0.3624
     0.3648   0.3830   0.4347   0.4771   0.5125   0.5633   0.8708   0.9120
     0.9648   0.9797   1.0173   1.0557   1.1000   1.1404   1.1706   1.1789
     1.2070   1.2563   1.3447   1.4091   1.7497   1.8443   1.9138   1.9393
     1.9537   1.9728   2.2943   2.3389   2.3594   2.3960   2.4314   2.4639
     3.0147   3.0632   3.1005   3.1082   3.1157   3.1468   3.1512   3.1733
     3.2037   3.2253   3.2360   3.2485   3.2741   3.2838   3.3164   3.3257
     3.3489   3.3921   3.5386   3.5819   3.6574   3.6704   3.7003   3.7051
     3.7526   3.7875   3.8068   3.8203   3.8380   3.8422   3.8507   3.8746
     3.8908   3.9056   3.9370   3.9481   3.9587   3.9673   3.9795   4.0011
     4.0526   4.1081   4.2192   4.2434   4.2553   4.2713   4.2948   4.3003
     4.3104   4.3406   4.3617   4.3809   4.3974   4.4170   4.4573   4.4807
     4.5227   4.5352   4.5471   4.5565   4.5818   4.5927   4.6049   4.6379
     4.6531   4.6826   4.7880   4.7960   4.8206   4.8417   4.8585   4.8796
     4.9091   4.9319   4.9356   4.9608   4.9799   5.0154   5.0315   5.0422
     5.0687   5.1077   5.1220   5.1593   5.2236   5.2382   5.2459   5.2701
     5.2805   5.3040   5.3362   5.3614   5.3729   5.3801   5.3940   5.4175
     5.4230   5.4373   5.4415   5.4772   5.5026   5.5398   5.5683   5.6378
     5.6630   5.7045   5.7551   5.7919   5.8061   5.8565   5.9030   5.9301
     5.9584   5.9768   5.9890   6.0027   6.0487   6.0774   6.0911   6.1239
     6.1352   6.1923   6.2318   6.2741   6.3227   6.3867   6.4897   6.5763
     6.6075   6.6958   6.7324   6.8122   7.0160   7.1277   7.2537   7.3945
     8.0199   8.0813   8.1185   8.1752   8.1902   8.2396   8.2889   8.3775
     8.4083   8.4921   8.5342   8.6122   8.6462   8.6897   8.8749   8.9142
     8.9723   8.9820   9.0108   9.0283   9.0413   9.0569   9.0957   9.1008
     9.1368   9.1753   9.1914   9.2096   9.2330   9.2514   9.2657   9.2748
     9.2947   9.3104   9.3429   9.3538   9.3697   9.3761   9.4102   9.4468
     9.4855   9.4925   9.5062   9.5466   9.5661   9.5969   9.6043   9.6161
     9.6368   9.6491   9.6786   9.7021   9.7104   9.7269   9.7578   9.7651
     9.8190   9.8263   9.9188   9.9375   9.9669   9.9733  10.0103  10.0387
    10.0555  10.0694  10.0936  10.1006  10.1386  10.1466  10.1985  10.2059
    10.2127  10.2316  10.2594  10.2693  10.2971  10.3342  10.3706  10.4298
    10.4606  10.4962  10.5402  10.5806  10.5891  10.6093  10.6347  10.6511
    10.6831  10.6950  10.7361  10.7503  10.7614  10.7679  10.7952  10.8186
    10.8226  10.8387  10.8476  10.8758  10.8971  10.9225  10.9508  10.9544
    10.9754  11.0075  11.0129  11.0346  11.0912  11.1056  11.1099  11.1643
    11.1874  11.1960  11.2314

     occupation numbers 
     1.0000   1.0000   1.0000   1.0000   1.0000   1.0000   1.0000   1.0000
     1.0000   1.0000   1.0000   1.0000   1.0000   1.0000   1.0000   1.0000
     1.0000   1.0000   1.0000   1.0000   1.0000   1.0000   1.0000   1.0000
     1.0000   1.0000   1.0000   1.0000   1.0000   1.0000   1.0000   1.0000
     1.0000   1.0000   1.0000   1.0000   1.0000   1.0000   1.0000   1.0000
     1.0000   1.0000   1.0000   1.0000   1.0000   1.0000   1.0000   1.0000
     1.0000   1.0000   1.0000   1.0000   1.0000   1.0000   1.0000   1.0000
     1.0000   1.0000   1.0000   1.0000   1.0000   1.0000   1.0000   1.0000
     1.0000   1.0000   1.0000   1.0000   1.0000   1.0000   1.0000   1.0000
     1.0000   1.0000   1.0000   1.0000   1.0000   1.0000   1.0000   1.0000
     1.0000   1.0000   1.0000   1.0000   1.0000   1.0000   1.0000   1.0000
     1.0000   1.0000   1.0000   1.0000   1.0000   1.0000   1.0000   1.0000
     1.0000   1.0000   1.0000   1.0000   1.0000   1.0000   1.0000   1.0000
     1.0000   1.0000   1.0000   1.0000   1.0000   1.0000   1.0000   1.0000
     1.0000   1.0000   1.0000   1.0000   1.0000   1.0000   1.0000   1.0000
     1.0000   1.0000   1.0000   1.0000   1.0000   1.0000   1.0000   1.0000
     1.0000   1.0000   1.0000   1.0000   1.0000   1.0000   1.0000   1.0000
     1.0000   1.0000   1.0000   1.0000   1.0000   1.0000   1.0000   1.0000
     1.0000   1.0000   1.0000   1.0000   1.0000   1.0000   1.0000   1.0000
     1.0000   1.0000   1.0000   1.0000   1.0000   1.0000   1.0000   1.0000
     1.0000   1.0000   1.0000   1.0000   1.0000   1.0000   1.0000   1.0000
     1.0000   1.0000   1.0000   1.0000   1.0000   1.0000   1.0000   1.0000
     1.0000   1.0000   1.0000   1.0000   1.0000   1.0000   1.0000   1.0000
     1.0000   1.0000   1.0000   1.0000   1.0000   1.0000   1.0000   1.0000
     1.0000   1.0000   1.0000   1.0000   1.0000   1.0000   1.0000   1.0000
     1.0000   1.0000   1.0000   1.0000   1.0000   1.0000   1.0000   1.0000
     1.0000   1.0000   1.0000   1.0000   1.0000   1.0000   1.0000   1.0000
     1.0000   1.0000   1.0000   1.0000   1.0000   1.0000   1.0000   1.0000
     1.0000   1.0000   1.0000   1.0000   1.0000   1.0000   1.0000   1.0000
     1.0000   1.0000   1.0000   1.0000   1.0000   1.0000   1.0000   1.0000
     1.0000   1.0000   1.0000   1.0000   1.0000   1.0000   1.0000   1.0000
     1.0000   1.0000   1.0000   1.0000   1.0000   1.0000   1.0000   1.0000
     1.0000   1.0000   1.0000   1.0000   1.0000   1.0000   1.0000   1.0000
     1.0000   1.0000   1.0000   1.0000   1.0000   1.0000   1.0000   1.0000
     1.0000   1.0000   1.0000   1.0000   1.0000   1.0000   1.0000   1.0000
     1.0000   1.0000   1.0000   1.0000   1.0000   1.0000   1.0000   1.0000
     1.0000   1.0000   1.0000   1.0000   1.0000   1.0000   1.0000   1.0000
     1.0000   1.0000   1.0000   1.0000   1.0000   1.0000   1.0000   1.0000
     1.0000   1.0000   1.0000   1.0000   1.0000   1.0000   1.0000   1.0000
     1.0000   1.0000   1.0000   1.0000   1.0000   1.0000   1.0000   1.0000
     1.0000   1.0000   1.0000   1.0000   1.0000   1.0000   1.0000   1.0000
     1.0000   1.0000   1.0000   1.0000   1.0000   1.0000   1.0000   1.0000
     1.0000   1.0000   1.0000   1.0000   1.0000   1.0000   1.0000   1.0000
     1.0000   1.0000   1.0000   1.0000   1.0000   1.0000   1.0000   1.0000
     1.0000   1.0000   1.0000   1.0000   1.0000   1.0000   1.0000   1.0000
     1.0000   1.0000   1.0000   1.0000   1.0000   1.0000   1.0000   1.0000
     1.0000   1.0000   1.0000   1.0000   1.0000   1.0000   1.0000   1.0000
     1.0000   1.0000   1.0000   1.0000   1.0000   1.0000   1.0000   1.0000
     1.0000   1.0000   1.0000   1.0000   1.0000   1.0000   1.0000   1.0000
     1.0000   1.0000   1.0000   1.0000   1.0000   1.0000   1.0000   1.0000
     1.0000   1.0000   1.0000   1.0000   1.0000   1.0000   1.0000   1.0000
     1.0000   1.0000   1.0000   1.0000   1.0000   1.0000   1.0000   1.0000
     1.0000   1.0000   1.0000   1.0000   1.0000   1.0000   1.0000   1.0000
     1.0000   1.0000   1.0000   1.0000   1.0000   1.0000   1.0000   1.0000
     1.0000   1.0000   1.0000   1.0000   1.0000   1.0000   1.0000   1.0000
     1.0000   1.0000   1.0000   1.0000   1.0000   1.0000   1.0000   1.0000
     1.0000   1.0000   1.0000   1.0000   1.0000   1.0000   1.0000   1.0000
     1.0000   1.0000   1.0000   1.0000   1.0000   1.0000   1.0000   1.0000
     1.0000   1.0000   1.0000   1.0000   1.0000   1.0000   1.0000   1.0000
     1.0000   1.0000   1.0000   1.0000   1.0000   1.0000   1.0000   1.0000
     1.0000   1.0000   1.0000   1.0000   1.0000   1.0000   1.0000   1.0000
     1.0000   1.0000   1.0000   1.0000   1.0000   1.0000   1.0000   1.0000
     1.0000   1.0000   1.0000   1.0000   1.0000   1.0000   1.0000   1.0000
     1.0000   1.0000   1.0000   1.0000   1.0000   1.0000   1.0000   1.0000
     1.0000   1.0000   1.0000   1.0000   1.0000   1.0000   1.0000   1.0000
     1.0000   1.0000   1.0000   1.0000   1.0000   1.0000   1.0000   1.0000
     1.0000   1.0000   1.0000   1.0000   1.0000   1.0000   1.0000   1.0000
     1.0000   1.0000   1.0000   1.0000   1.0000   1.0000   1.0000   1.0000
     1.0000   1.0000   1.0000   1.0000   1.0000   1.0000   1.0000   1.0000
     1.0000   1.0000   1.0000   1.0000   1.0000   1.0000   1.0000   1.0000
     1.0000   1.0000   1.0000   1.0000   1.0000   1.0000   1.0000   1.0000
     1.0000   1.0000   1.0000   1.0000   1.0000   0.9998   0.9967   0.9591
     0.0048   0.0013   0.0005   0.0001   0.0001   0.0000   0.0000   0.0000
     0.0000   0.0000   0.0000   0.0000   0.0000   0.0000   0.0000   0.0000
     0.0000   0.0000   0.0000   0.0000   0.0000   0.0000   0.0000   0.0000
     0.0000   0.0000   0.0000   0.0000   0.0000   0.0000   0.0000   0.0000
     0.0000   0.0000   0.0000   0.0000   0.0000   0.0000   0.0000   0.0000
     0.0000   0.0000   0.0000   0.0000   0.0000   0.0000   0.0000   0.0000
     0.0000   0.0000   0.0000   0.0000   0.0000   0.0000   0.0000   0.0000
     0.0000   0.0000   0.0000   0.0000   0.0000   0.0000   0.0000   0.0000
     0.0000   0.0000   0.0000   0.0000   0.0000   0.0000   0.0000   0.0000
     0.0000   0.0000   0.0000   0.0000   0.0000   0.0000   0.0000   0.0000
     0.0000   0.0000   0.0000   0.0000   0.0000   0.0000   0.0000   0.0000
     0.0000   0.0000   0.0000   0.0000   0.0000   0.0000   0.0000   0.0000
     0.0000   0.0000   0.0000   0.0000   0.0000   0.0000   0.0000   0.0000
     0.0000   0.0000   0.0000   0.0000   0.0000   0.0000   0.0000   0.0000
     0.0000   0.0000   0.0000

          k =-0.3525 0.3542-0.3537 ( 63876 PWs)   bands (ev):

   -17.5645 -17.5094 -17.4535 -17.4517 -17.4478 -17.4289 -17.4096 -17.4068
   -17.3948 -17.3801 -17.3789 -17.3770 -17.3714 -17.3603 -17.3565 -17.3470
   -17.3445 -17.3350 -17.3170 -17.3098 -17.3090 -17.3075 -17.3054 -17.3001
   -17.2955 -17.2919 -17.2857 -17.2809 -17.2792 -17.2733 -17.2715 -17.2684
   -17.2660 -17.2645 -17.2644 -17.2624 -17.2596 -17.2558 -17.2518 -17.2486
   -17.2483 -17.2445 -17.2416 -17.2394 -17.2369 -17.2337 -17.2328 -17.2304
   -17.2299 -17.2261 -17.2253 -17.2211 -17.2179 -17.2172 -17.2157 -17.2147
   -17.2116 -17.2105 -17.2100 -17.2091 -17.2078 -17.2065 -17.2050 -17.2031
   -17.2017 -17.1988 -17.1982 -17.1968 -17.1952 -17.1937 -17.1936 -17.1934
   -17.1882 -17.1872 -17.1866 -17.1848 -17.1845 -17.1840 -17.1834 -17.1811
   -17.1739 -17.1727 -17.1718 -17.1704 -17.1702 -17.1655 -17.1626 -17.1613
   -17.1573 -17.1571 -17.1552 -17.1534 -17.1519 -17.1500 -17.1484 -17.1473
   -17.1458 -17.1429 -17.1404 -17.1385 -17.1367 -17.1335 -17.1296 -17.1293
   -17.1275 -17.1263 -17.1260 -17.1234 -17.1227 -17.1206 -17.1171 -17.1162
   -17.1150 -17.1147 -17.1143 -17.1140 -17.1099 -17.1097 -17.1086 -17.1057
   -17.1042 -17.1037 -17.1027 -17.1014 -17.1009 -17.0991 -17.0958 -17.0943
   -17.0924 -17.0919 -17.0900 -17.0891 -17.0878 -17.0870 -17.0854 -17.0847
   -17.0846 -17.0844 -17.0833 -17.0819 -17.0801 -17.0799 -17.0796 -17.0790
   -17.0771 -17.0738 -17.0718 -17.0710 -17.0687 -17.0673 -17.0663 -17.0660
   -17.0658 -17.0645 -17.0640 -17.0636 -17.0604 -17.0594 -17.0580 -17.0567
   -17.0564 -17.0526 -17.0523 -17.0517 -17.0512 -17.0493 -17.0475 -17.0462
   -17.0456 -17.0425 -17.0414 -17.0407 -17.0405 -17.0402 -17.0394 -17.0374
   -17.0368 -17.0354 -17.0350 -17.0335 -17.0294 -17.0283 -17.0275 -17.0249
   -17.0242 -17.0219 -17.0175 -17.0158 -17.0158 -17.0129 -17.0112 -17.0080
   -17.0079 -17.0078 -17.0068 -17.0063 -17.0013 -17.0006 -17.0005 -16.9985
   -16.9970 -16.9955 -16.9953 -16.9940 -16.9937 -16.9929 -16.9920 -16.9917
   -16.9915 -16.9913 -16.9904 -16.9896 -16.9890 -16.9884 -16.9876 -16.9873
   -16.9859 -16.9830 -16.9825 -16.9787 -16.9774 -16.9764 -16.9739 -16.9729
   -16.9711 -16.9708 -16.9701 -16.9689 -16.9679 -16.9656 -16.9643 -16.9641
   -16.9629 -16.9608 -16.9606 -16.9588 -16.9585 -16.9574 -16.9569 -16.9544
   -16.9534 -16.9528 -16.9512 -16.9475 -16.9471 -16.9468 -16.9457 -16.9446
   -16.9432 -16.9431 -16.9417 -16.9408 -16.9395 -16.9383 -16.9361 -16.9351
   -16.9324 -16.9313 -16.9300 -16.9281 -16.9262 -16.9246 -16.9217 -16.9211
   -16.9206 -16.9198 -16.9196 -16.9188 -16.9171 -16.9166 -16.9126 -16.9081
   -16.9071 -16.9051 -16.9021 -16.9019 -16.9018 -16.8994 -16.8991 -16.8971
   -16.8966 -16.8961 -16.8959 -16.8943 -16.8942 -16.8922 -16.8910 -16.8881
   -16.8864 -16.8859 -16.8801 -16.8754 -16.8717 -16.8706 -16.8699 -16.8634
   -16.8580 -16.8571 -16.8513 -16.8512 -16.8502 -16.8455 -16.8393 -16.8355
   -16.8283 -16.8250 -16.8243 -16.8241 -16.8231 -16.8215 -16.8171 -16.8098
   -16.8082 -16.8044 -16.8010 -16.7979 -16.7963 -16.7799 -16.7774 -16.7600
    -5.1260  -4.9473  -4.7219  -4.6468  -4.5051  -4.3965  -4.3662  -4.3025
    -4.2149  -4.0777  -4.0338  -3.9951  -3.9350  -3.8390  -3.7500  -3.6372
    -3.5510  -3.4896  -3.4692  -3.4442  -3.3912  -3.3027  -3.2765  -3.2279
    -3.1739  -3.1453  -3.0865  -3.0536  -3.0231  -2.9840  -2.9127  -2.8885
    -2.8361  -2.8194  -2.7997  -2.7446  -2.7272  -2.6342  -2.5961  -2.5313
    -2.4186  -2.3614  -2.2776  -2.2539  -2.1762  -2.0723  -2.0356  -1.9662
    -1.9301  -1.9185  -1.8760  -1.8353  -1.7805  -1.7572  -1.7428  -1.6660
    -1.6463  -1.6012  -1.5864  -1.5505  -1.4417  -1.4050  -1.3483  -1.3048
    -0.4525  -0.4204  -0.3658  -0.3337  -0.2788  -0.2371  -0.2123  -0.1832
    -0.1374  -0.1037  -0.0928  -0.0706  -0.0121  -0.0041   0.0337   0.0747
     0.1179   0.1509   0.1643   0.2011   0.2560   0.2756   0.2995   0.3057
     0.3648   0.4086   0.4232   0.4643   0.5026   0.6196   0.8981   0.9223
     0.9717   1.0138   1.0357   1.0627   1.0969   1.1227   1.1641   1.1861
     1.2085   1.2577   1.2925   1.3590   1.7506   1.8270   1.8594   1.8829
     1.9987   2.0410   2.2886   2.3176   2.3748   2.4046   2.4569   2.4742
     3.0359   3.0758   3.0824   3.1060   3.1165   3.1361   3.1613   3.1807
     3.2047   3.2143   3.2304   3.2559   3.2714   3.2806   3.3335   3.3439
     3.3918   3.4419   3.5453   3.5958   3.6515   3.6887   3.7144   3.7371
     3.7459   3.7639   3.7904   3.7949   3.8121   3.8267   3.8387   3.8688
     3.8777   3.9007   3.9202   3.9261   3.9395   3.9563   3.9971   4.0152
     4.0667   4.0878   4.1896   4.1974   4.2347   4.2541   4.2655   4.2978
     4.3001   4.3247   4.3514   4.3863   4.3996   4.4182   4.4563   4.4771
     4.5248   4.5302   4.5555   4.5699   4.5866   4.6120   4.6125   4.6358
     4.6451   4.7030   4.7689   4.7937   4.8298   4.8660   4.8735   4.8931
     4.9050   4.9261   4.9532   4.9743   4.9810   5.0064   5.0303   5.0428
     5.0686   5.1103   5.1464   5.1589   5.2196   5.2359   5.2465   5.2556
     5.2852   5.3282   5.3358   5.3521   5.3684   5.3752   5.3960   5.4211
     5.4333   5.4421   5.4638   5.4719   5.5155   5.5331   5.5798   5.6205
     5.6924   5.7037   5.7563   5.7762   5.8228   5.8544   5.8906   5.9462
     5.9572   5.9879   6.0014   6.0183   6.0503   6.0718   6.0935   6.1200
     6.1233   6.1723   6.2381   6.2630   6.3065   6.3868   6.5129   6.5521
     6.6418   6.6702   6.7304   6.7412   7.1014   7.1652   7.2057   7.3452
     8.0286   8.0831   8.1346   8.1928   8.2090   8.2293   8.3077   8.3265
     8.4423   8.5241   8.5568   8.5900   8.6555   8.6757   8.8818   8.9272
     8.9376   8.9663   9.0002   9.0162   9.0499   9.0826   9.0956   9.1139
     9.1385   9.1551   9.1824   9.2084   9.2240   9.2323   9.2506   9.2657
     9.2855   9.3067   9.3261   9.3466   9.3730   9.3999   9.4262   9.4714
     9.4823   9.5118   9.5168   9.5316   9.5743   9.5755   9.5867   9.6008
     9.6175   9.6432   9.6468   9.6707   9.7092   9.7284   9.7552   9.7777
     9.7992   9.8274   9.9316   9.9338   9.9654   9.9909  10.0101  10.0328
    10.0554  10.0620  10.1123  10.1274  10.1348  10.1490  10.1708  10.1862
    10.1941  10.2202  10.2847  10.2866  10.2974  10.3130  10.3646  10.4242
    10.5016  10.5323  10.5473  10.5582  10.6062  10.6298  10.6520  10.6606
    10.6881  10.7070  10.7116  10.7461  10.7586  10.7698  10.8037  10.8154
    10.8586  10.8742  10.8771  10.9026  10.9045  10.9318  10.9496  10.9504
    10.9706  10.9783  11.0160  11.0367  11.0498  11.0731  11.1120  11.1295
    11.1671  11.1840  11.2260

     occupation numbers 
     1.0000   1.0000   1.0000   1.0000   1.0000   1.0000   1.0000   1.0000
     1.0000   1.0000   1.0000   1.0000   1.0000   1.0000   1.0000   1.0000
     1.0000   1.0000   1.0000   1.0000   1.0000   1.0000   1.0000   1.0000
     1.0000   1.0000   1.0000   1.0000   1.0000   1.0000   1.0000   1.0000
     1.0000   1.0000   1.0000   1.0000   1.0000   1.0000   1.0000   1.0000
     1.0000   1.0000   1.0000   1.0000   1.0000   1.0000   1.0000   1.0000
     1.0000   1.0000   1.0000   1.0000   1.0000   1.0000   1.0000   1.0000
     1.0000   1.0000   1.0000   1.0000   1.0000   1.0000   1.0000   1.0000
     1.0000   1.0000   1.0000   1.0000   1.0000   1.0000   1.0000   1.0000
     1.0000   1.0000   1.0000   1.0000   1.0000   1.0000   1.0000   1.0000
     1.0000   1.0000   1.0000   1.0000   1.0000   1.0000   1.0000   1.0000
     1.0000   1.0000   1.0000   1.0000   1.0000   1.0000   1.0000   1.0000
     1.0000   1.0000   1.0000   1.0000   1.0000   1.0000   1.0000   1.0000
     1.0000   1.0000   1.0000   1.0000   1.0000   1.0000   1.0000   1.0000
     1.0000   1.0000   1.0000   1.0000   1.0000   1.0000   1.0000   1.0000
     1.0000   1.0000   1.0000   1.0000   1.0000   1.0000   1.0000   1.0000
     1.0000   1.0000   1.0000   1.0000   1.0000   1.0000   1.0000   1.0000
     1.0000   1.0000   1.0000   1.0000   1.0000   1.0000   1.0000   1.0000
     1.0000   1.0000   1.0000   1.0000   1.0000   1.0000   1.0000   1.0000
     1.0000   1.0000   1.0000   1.0000   1.0000   1.0000   1.0000   1.0000
     1.0000   1.0000   1.0000   1.0000   1.0000   1.0000   1.0000   1.0000
     1.0000   1.0000   1.0000   1.0000   1.0000   1.0000   1.0000   1.0000
     1.0000   1.0000   1.0000   1.0000   1.0000   1.0000   1.0000   1.0000
     1.0000   1.0000   1.0000   1.0000   1.0000   1.0000   1.0000   1.0000
     1.0000   1.0000   1.0000   1.0000   1.0000   1.0000   1.0000   1.0000
     1.0000   1.0000   1.0000   1.0000   1.0000   1.0000   1.0000   1.0000
     1.0000   1.0000   1.0000   1.0000   1.0000   1.0000   1.0000   1.0000
     1.0000   1.0000   1.0000   1.0000   1.0000   1.0000   1.0000   1.0000
     1.0000   1.0000   1.0000   1.0000   1.0000   1.0000   1.0000   1.0000
     1.0000   1.0000   1.0000   1.0000   1.0000   1.0000   1.0000   1.0000
     1.0000   1.0000   1.0000   1.0000   1.0000   1.0000   1.0000   1.0000
     1.0000   1.0000   1.0000   1.0000   1.0000   1.0000   1.0000   1.0000
     1.0000   1.0000   1.0000   1.0000   1.0000   1.0000   1.0000   1.0000
     1.0000   1.0000   1.0000   1.0000   1.0000   1.0000   1.0000   1.0000
     1.0000   1.0000   1.0000   1.0000   1.0000   1.0000   1.0000   1.0000
     1.0000   1.0000   1.0000   1.0000   1.0000   1.0000   1.0000   1.0000
     1.0000   1.0000   1.0000   1.0000   1.0000   1.0000   1.0000   1.0000
     1.0000   1.0000   1.0000   1.0000   1.0000   1.0000   1.0000   1.0000
     1.0000   1.0000   1.0000   1.0000   1.0000   1.0000   1.0000   1.0000
     1.0000   1.0000   1.0000   1.0000   1.0000   1.0000   1.0000   1.0000
     1.0000   1.0000   1.0000   1.0000   1.0000   1.0000   1.0000   1.0000
     1.0000   1.0000   1.0000   1.0000   1.0000   1.0000   1.0000   1.0000
     1.0000   1.0000   1.0000   1.0000   1.0000   1.0000   1.0000   1.0000
     1.0000   1.0000   1.0000   1.0000   1.0000   1.0000   1.0000   1.0000
     1.0000   1.0000   1.0000   1.0000   1.0000   1.0000   1.0000   1.0000
     1.0000   1.0000   1.0000   1.0000   1.0000   1.0000   1.0000   1.0000
     1.0000   1.0000   1.0000   1.0000   1.0000   1.0000   1.0000   1.0000
     1.0000   1.0000   1.0000   1.0000   1.0000   1.0000   1.0000   1.0000
     1.0000   1.0000   1.0000   1.0000   1.0000   1.0000   1.0000   1.0000
     1.0000   1.0000   1.0000   1.0000   1.0000   1.0000   1.0000   1.0000
     1.0000   1.0000   1.0000   1.0000   1.0000   1.0000   1.0000   1.0000
     1.0000   1.0000   1.0000   1.0000   1.0000   1.0000   1.0000   1.0000
     1.0000   1.0000   1.0000   1.0000   1.0000   1.0000   1.0000   1.0000
     1.0000   1.0000   1.0000   1.0000   1.0000   1.0000   1.0000   1.0000
     1.0000   1.0000   1.0000   1.0000   1.0000   1.0000   1.0000   1.0000
     1.0000   1.0000   1.0000   1.0000   1.0000   1.0000   1.0000   1.0000
     1.0000   1.0000   1.0000   1.0000   1.0000   1.0000   1.0000   1.0000
     1.0000   1.0000   1.0000   1.0000   1.0000   1.0000   1.0000   1.0000
     1.0000   1.0000   1.0000   1.0000   1.0000   1.0000   1.0000   1.0000
     1.0000   1.0000   1.0000   1.0000   1.0000   1.0000   1.0000   1.0000
     1.0000   1.0000   1.0000   1.0000   1.0000   1.0000   1.0000   1.0000
     1.0000   1.0000   1.0000   1.0000   1.0000   1.0000   1.0000   1.0000
     1.0000   1.0000   1.0000   1.0000   1.0000   1.0000   1.0000   1.0000
     1.0000   1.0000   1.0000   1.0000   1.0000   1.0000   1.0000   1.0000
     1.0000   1.0000   1.0000   1.0000   1.0000   1.0000   1.0000   1.0000
     1.0000   1.0000   1.0000   1.0000   1.0000   1.0000   1.0000   1.0000
     1.0000   1.0000   1.0000   1.0000   1.0000   1.0000   1.0000   1.0000
     1.0000   1.0000   1.0000   1.0000   1.0000   1.0000   1.0000   1.0000
     1.0000   1.0000   1.0000   1.0000   1.0000   1.0000   1.0000   1.0000
     1.0000   1.0000   1.0000   1.0000   1.0000   1.0000   1.0000   1.0000
     1.0000   1.0000   1.0000   1.0000   1.0000   1.0000   1.0000   1.0000
     1.0000   1.0000   1.0000   1.0000   0.9999   0.9996   0.9989   0.9814
     0.0040   0.0012   0.0004   0.0001   0.0000   0.0000   0.0000   0.0000
     0.0000   0.0000   0.0000   0.0000   0.0000   0.0000   0.0000   0.0000
     0.0000   0.0000   0.0000   0.0000   0.0000   0.0000   0.0000   0.0000
     0.0000   0.0000   0.0000   0.0000   0.0000   0.0000   0.0000   0.0000
     0.0000   0.0000   0.0000   0.0000   0.0000   0.0000   0.0000   0.0000
     0.0000   0.0000   0.0000   0.0000   0.0000   0.0000   0.0000   0.0000
     0.0000   0.0000   0.0000   0.0000   0.0000   0.0000   0.0000   0.0000
     0.0000   0.0000   0.0000   0.0000   0.0000   0.0000   0.0000   0.0000
     0.0000   0.0000   0.0000   0.0000   0.0000   0.0000   0.0000   0.0000
     0.0000   0.0000   0.0000   0.0000   0.0000   0.0000   0.0000   0.0000
     0.0000   0.0000   0.0000   0.0000   0.0000   0.0000   0.0000   0.0000
     0.0000   0.0000   0.0000   0.0000   0.0000   0.0000   0.0000   0.0000
     0.0000   0.0000   0.0000   0.0000   0.0000   0.0000   0.0000   0.0000
     0.0000   0.0000   0.0000   0.0000   0.0000   0.0000   0.0000   0.0000
     0.0000   0.0000   0.0000

          k =-0.7064 0.0010-0.0004 ( 63860 PWs)   bands (ev):

   -17.5645 -17.5095 -17.4535 -17.4516 -17.4478 -17.4289 -17.4096 -17.4068
   -17.3948 -17.3801 -17.3789 -17.3770 -17.3714 -17.3603 -17.3565 -17.3470
   -17.3446 -17.3350 -17.3170 -17.3099 -17.3092 -17.3072 -17.3052 -17.3001
   -17.2955 -17.2918 -17.2859 -17.2809 -17.2792 -17.2732 -17.2716 -17.2684
   -17.2661 -17.2646 -17.2644 -17.2623 -17.2597 -17.2558 -17.2518 -17.2487
   -17.2483 -17.2446 -17.2417 -17.2394 -17.2369 -17.2343 -17.2321 -17.2303
   -17.2297 -17.2262 -17.2254 -17.2211 -17.2180 -17.2173 -17.2158 -17.2146
   -17.2116 -17.2109 -17.2098 -17.2089 -17.2080 -17.2065 -17.2054 -17.2035
   -17.2018 -17.1988 -17.1982 -17.1960 -17.1947 -17.1937 -17.1935 -17.1932
   -17.1891 -17.1871 -17.1860 -17.1848 -17.1845 -17.1840 -17.1834 -17.1812
   -17.1739 -17.1731 -17.1717 -17.1706 -17.1702 -17.1656 -17.1626 -17.1610
   -17.1579 -17.1572 -17.1553 -17.1533 -17.1513 -17.1499 -17.1484 -17.1476
   -17.1458 -17.1431 -17.1405 -17.1384 -17.1364 -17.1336 -17.1298 -17.1294
   -17.1277 -17.1266 -17.1262 -17.1234 -17.1219 -17.1206 -17.1175 -17.1162
   -17.1150 -17.1146 -17.1143 -17.1133 -17.1099 -17.1095 -17.1087 -17.1059
   -17.1043 -17.1038 -17.1029 -17.1015 -17.1010 -17.0991 -17.0957 -17.0943
   -17.0924 -17.0921 -17.0899 -17.0891 -17.0874 -17.0871 -17.0856 -17.0848
   -17.0845 -17.0838 -17.0833 -17.0819 -17.0806 -17.0799 -17.0797 -17.0783
   -17.0770 -17.0745 -17.0718 -17.0709 -17.0685 -17.0670 -17.0662 -17.0659
   -17.0658 -17.0649 -17.0640 -17.0635 -17.0605 -17.0594 -17.0574 -17.0570
   -17.0565 -17.0530 -17.0524 -17.0515 -17.0515 -17.0494 -17.0472 -17.0463
   -17.0456 -17.0421 -17.0414 -17.0412 -17.0407 -17.0402 -17.0398 -17.0376
   -17.0361 -17.0355 -17.0350 -17.0332 -17.0295 -17.0282 -17.0273 -17.0249
   -17.0248 -17.0216 -17.0178 -17.0157 -17.0157 -17.0125 -17.0112 -17.0080
   -17.0079 -17.0078 -17.0070 -17.0066 -17.0013 -17.0008 -17.0001 -16.9985
   -16.9967 -16.9955 -16.9953 -16.9942 -16.9938 -16.9930 -16.9921 -16.9917
   -16.9915 -16.9912 -16.9908 -16.9895 -16.9889 -16.9883 -16.9879 -16.9875
   -16.9858 -16.9830 -16.9827 -16.9776 -16.9774 -16.9758 -16.9739 -16.9729
   -16.9725 -16.9704 -16.9700 -16.9689 -16.9679 -16.9654 -16.9643 -16.9638
   -16.9634 -16.9608 -16.9606 -16.9588 -16.9585 -16.9573 -16.9570 -16.9544
   -16.9537 -16.9529 -16.9509 -16.9473 -16.9470 -16.9468 -16.9458 -16.9449
   -16.9435 -16.9432 -16.9418 -16.9410 -16.9394 -16.9383 -16.9359 -16.9351
   -16.9325 -16.9316 -16.9300 -16.9281 -16.9263 -16.9245 -16.9215 -16.9211
   -16.9207 -16.9199 -16.9195 -16.9187 -16.9171 -16.9166 -16.9126 -16.9080
   -16.9071 -16.9051 -16.9021 -16.9019 -16.9018 -16.8995 -16.8991 -16.8968
   -16.8966 -16.8960 -16.8959 -16.8943 -16.8942 -16.8925 -16.8911 -16.8879
   -16.8864 -16.8858 -16.8801 -16.8755 -16.8718 -16.8706 -16.8699 -16.8635
   -16.8580 -16.8571 -16.8513 -16.8512 -16.8502 -16.8455 -16.8393 -16.8355
   -16.8283 -16.8250 -16.8243 -16.8241 -16.8232 -16.8215 -16.8171 -16.8098
[...]
     atom   77 type  2   force =   0.00000000E+00  0.00000000E+00  0.00000000E+00
     atom   78 type  1   force =   0.00000000E+00  0.00000000E+00  0.00000000E+00
     atom   79 type  1   force =   0.00000000E+00  0.00000000E+00  0.00000000E+00
     atom   80 type  2   force =   0.00000000E+00  0.00000000E+00  0.00000000E+00
     atom   81 type  1   force =   0.00000000E+00  0.00000000E+00  0.00000000E+00
     atom   82 type  2   force =   0.00000000E+00  0.00000000E+00  0.00000000E+00
     atom   83 type  1   force =   0.00000000E+00  0.00000000E+00  0.00000000E+00
     atom   84 type  1   force =   0.00000000E+00  0.00000000E+00  0.00000000E+00
     atom   85 type  1   force =   0.00000000E+00  0.00000000E+00  0.00000000E+00
     atom   86 type  2   force =   0.00000000E+00  0.00000000E+00  0.00000000E+00
     atom   87 type  2   force =   0.00000000E+00  0.00000000E+00  0.00000000E+00
     atom   88 type  1   force =   0.00000000E+00  0.00000000E+00  0.00000000E+00
     atom   89 type  1   force =   0.00000000E+00  0.00000000E+00  0.00000000E+00
     atom   90 type  1   force =   0.00000000E+00  0.00000000E+00  0.00000000E+00
     atom   91 type  1   force =   0.00000000E+00  0.00000000E+00  0.00000000E+00
     atom   92 type  1   force =   0.00000000E+00  0.00000000E+00  0.00000000E+00
     atom   93 type  2   force =   0.00000000E+00  0.00000000E+00  0.00000000E+00
     atom   94 type  1   force =   0.00000000E+00  0.00000000E+00  0.00000000E+00
     atom   95 type  2   force =   0.00000000E+00  0.00000000E+00  0.00000000E+00
     atom   96 type  2   force =   0.00000000E+00  0.00000000E+00  0.00000000E+00
     atom   97 type  2   force =   0.00000000E+00  0.00000000E+00  0.00000000E+00
     atom   98 type  2   force =   0.00000000E+00  0.00000000E+00  0.00000000E+00
     atom   99 type  2   force =   0.00000000E+00  0.00000000E+00  0.00000000E+00
     atom  100 type  2   force =   0.00000000E+00  0.00000000E+00  0.00000000E+00
     atom  101 type  1   force =   0.00000000E+00  0.00000000E+00  0.00000000E+00
     atom  102 type  2   force =   0.00000000E+00  0.00000000E+00  0.00000000E+00
     atom  103 type  2   force =   0.00000000E+00  0.00000000E+00  0.00000000E+00
     atom  104 type  2   force =   0.00000000E+00  0.00000000E+00  0.00000000E+00
     atom  105 type  1   force =   0.00000000E+00  0.00000000E+00  0.00000000E+00
     atom  106 type  2   force =   0.00000000E+00  0.00000000E+00  0.00000000E+00
     atom  107 type  1   force =   0.00000000E+00  0.00000000E+00  0.00000000E+00
     atom  108 type  1   force =   0.00000000E+00  0.00000000E+00  0.00000000E+00
     atom  109 type  1   force =   0.00000000E+00  0.00000000E+00  0.00000000E+00
     atom  110 type  1   force =   0.00000000E+00  0.00000000E+00  0.00000000E+00
     atom  111 type  2   force =   0.00000000E+00  0.00000000E+00  0.00000000E+00
     atom  112 type  1   force =   0.00000000E+00  0.00000000E+00  0.00000000E+00
     atom  113 type  1   force =   0.00000000E+00  0.00000000E+00  0.00000000E+00
     atom  114 type  2   force =   0.00000000E+00  0.00000000E+00  0.00000000E+00
     atom  115 type  2   force =   0.00000000E+00  0.00000000E+00  0.00000000E+00
     atom  116 type  2   force =   0.00000000E+00  0.00000000E+00  0.00000000E+00
     atom  117 type  2   force =   0.00000000E+00  0.00000000E+00  0.00000000E+00
     atom  118 type  2   force =   0.00000000E+00  0.00000000E+00  0.00000000E+00
     atom  119 type  2   force =   0.00000000E+00  0.00000000E+00  0.00000000E+00
     atom  120 type  1   force =   0.00000000E+00  0.00000000E+00  0.00000000E+00
     atom  121 type  2   force =   0.00000000E+00  0.00000000E+00  0.00000000E+00
     atom  122 type  2   force =   0.00000000E+00  0.00000000E+00  0.00000000E+00
     atom  123 type  2   force =   0.00000000E+00  0.00000000E+00  0.00000000E+00
     atom  124 type  1   force =   0.00000000E+00  0.00000000E+00  0.00000000E+00
     atom  125 type  2   force =   0.00000000E+00  0.00000000E+00  0.00000000E+00
     atom  126 type  2   force =   0.00000000E+00  0.00000000E+00  0.00000000E+00
     atom  127 type  2   force =   0.00000000E+00  0.00000000E+00  0.00000000E+00
     atom  128 type  1   force =   0.00000000E+00  0.00000000E+00  0.00000000E+00
     The SCF correction term to forces
     atom    1 type  2   force =  -0.63694177E-05 -0.38668206E-05  0.50587333E-05
     atom    2 type  1   force =  -0.15456842E-05  0.31532251E-06  0.50881649E-07
     atom    3 type  2   force =  -0.70940483E-05  0.19276518E-06  0.10141956E-05
     atom    4 type  2   force =  -0.46203716E-05  0.71810251E-05  0.45966990E-05
     atom    5 type  2   force =   0.82469921E-05  0.86159222E-05  0.40409703E-05
     atom    6 type  1   force =   0.11414113E-05  0.19782298E-05 -0.64123439E-06
     atom    7 type  2   force =   0.18733854E-05 -0.98428445E-06  0.29076383E-05
     atom    8 type  1   force =  -0.25440930E-05 -0.31373436E-06 -0.10595821E-05
     atom    9 type  1   force =  -0.15863907E-05  0.87069025E-06  0.15427195E-06
     atom   10 type  1   force =  -0.91383100E-06  0.11325833E-05  0.13751432E-05
     atom   11 type  2   force =   0.40374257E-05  0.29979456E-05 -0.17642500E-05
     atom   12 type  2   force =   0.11473736E-06  0.78615736E-05  0.32408003E-05
     atom   13 type  1   force =  -0.98043656E-06  0.60577124E-06 -0.24241509E-05
     atom   14 type  2   force =  -0.70875011E-05  0.27958442E-05 -0.79652112E-05
     atom   15 type  1   force =  -0.13311799E-05  0.33500606E-06 -0.21613932E-05
     atom   16 type  2   force =  -0.31986628E-05  0.12757949E-06  0.37069215E-05
     atom   17 type  2   force =   0.36230203E-05  0.75308585E-05  0.14375574E-04
     atom   18 type  1   force =  -0.21864900E-06  0.43120823E-06  0.24769542E-05
     atom   19 type  2   force =  -0.86372837E-05 -0.64688090E-05  0.61745043E-05
     atom   20 type  1   force =  -0.11895970E-05 -0.14303152E-05 -0.64932677E-06
     atom   21 type  1   force =  -0.23991391E-06  0.13602388E-06 -0.31763886E-06
     atom   22 type  1   force =   0.23987654E-05  0.47914775E-07 -0.68107123E-06
     atom   23 type  2   force =   0.12299985E-05 -0.53361474E-05  0.38668087E-05
     atom   24 type  2   force =  -0.41998041E-05  0.25365557E-05  0.68024391E-05
     atom   25 type  2   force =  -0.59943642E-05 -0.65709924E-06 -0.27302123E-05
     atom   26 type  1   force =  -0.19025960E-05 -0.20707615E-05  0.60192730E-06
     atom   27 type  2   force =   0.67766354E-06 -0.28675712E-05  0.32706048E-05
     atom   28 type  1   force =   0.87727660E-06 -0.15087201E-06  0.84311740E-06
     atom   29 type  1   force =   0.12256033E-05  0.20121139E-06  0.11999968E-06
     atom   30 type  2   force =  -0.18111449E-05  0.45564265E-05 -0.55916433E-06
     atom   31 type  2   force =   0.66528998E-05 -0.10663606E-05  0.26298682E-05
     atom   32 type  2   force =   0.38733765E-05  0.80600495E-06  0.78429218E-05
     atom   33 type  2   force =  -0.32487999E-05 -0.11634346E-05  0.69148049E-05
     atom   34 type  1   force =  -0.80765812E-06  0.15892371E-05  0.10822985E-05
     atom   35 type  1   force =  -0.51364026E-06  0.14654500E-05  0.15101784E-05
     atom   36 type  2   force =   0.90799219E-06 -0.20421434E-05 -0.15578301E-05
     atom   37 type  2   force =   0.65758999E-06  0.93439970E-07 -0.43996660E-05
     atom   38 type  1   force =   0.29565809E-06 -0.78600998E-06 -0.32716062E-05
     atom   39 type  1   force =  -0.99747456E-07  0.53519941E-08 -0.17502335E-05
     atom   40 type  1   force =  -0.62592748E-06  0.45132274E-06 -0.96144595E-06
     atom   41 type  2   force =  -0.50561194E-05  0.58908972E-05  0.93827682E-05
     atom   42 type  1   force =  -0.24986619E-06 -0.45827618E-06  0.50093889E-06
     atom   43 type  1   force =  -0.16837360E-05 -0.90062180E-07 -0.63074625E-06
     atom   44 type  1   force =  -0.18531198E-05 -0.81001858E-06 -0.18838086E-05
     atom   45 type  1   force =  -0.12111031E-05  0.53372917E-07 -0.22307178E-05
     atom   46 type  1   force =   0.31455242E-06  0.12369239E-05 -0.20307229E-05
     atom   47 type  1   force =   0.51796770E-07  0.20857696E-05 -0.88834939E-06
     atom   48 type  1   force =   0.54129890E-06  0.14802169E-05  0.69669971E-06
     atom   49 type  1   force =  -0.89813180E-06 -0.14103859E-05  0.53979707E-06
     atom   50 type  1   force =  -0.23328993E-05 -0.28738970E-05 -0.12519644E-06
     atom   51 type  2   force =  -0.12024617E-04 -0.89359272E-05 -0.56888397E-05
     atom   52 type  2   force =   0.69565421E-06 -0.21389204E-05  0.45374626E-05
     atom   53 type  2   force =   0.96325451E-05  0.30075739E-05 -0.81718758E-05
     atom   54 type  2   force =   0.13030798E-04  0.59662206E-05  0.40455155E-05
     atom   55 type  1   force =   0.19213580E-05  0.19895564E-05  0.67423915E-06
     atom   56 type  1   force =   0.11107424E-05  0.30286905E-07  0.42302973E-06
     atom   57 type  2   force =  -0.75497620E-05 -0.81920651E-05  0.19443246E-05
     atom   58 type  1   force =   0.35181707E-06 -0.13967352E-05  0.16795723E-05
     atom   59 type  2   force =   0.12291363E-04 -0.54160668E-05  0.11435248E-04
     atom   60 type  1   force =   0.11998747E-05  0.49236176E-06  0.22440440E-05
     atom   61 type  1   force =   0.20166229E-05  0.75138905E-06  0.17558755E-05
     atom   62 type  1   force =   0.13116087E-05 -0.57442307E-07 -0.62935165E-06
     atom   63 type  2   force =  -0.19360644E-05  0.54898264E-05 -0.20139614E-05
     atom   64 type  1   force =  -0.40738694E-07 -0.19632355E-05 -0.10497864E-05
     atom   65 type  1   force =  -0.33860053E-06  0.69418976E-06  0.11720239E-05
     atom   66 type  2   force =  -0.11169685E-04 -0.41250079E-05 -0.58211281E-06
     atom   67 type  2   force =  -0.87188767E-05 -0.52176928E-05 -0.71085907E-05
     atom   68 type  2   force =  -0.15438963E-06 -0.11379795E-04 -0.31545976E-05
     atom   69 type  2   force =   0.52201808E-06 -0.16319565E-05 -0.84947751E-05
     atom   70 type  1   force =   0.86350451E-06  0.22749037E-05 -0.10091972E-05
     atom   71 type  2   force =   0.12967004E-04  0.40528522E-05  0.25780199E-06
     atom   72 type  1   force =   0.77762340E-06  0.21055232E-05  0.53620723E-06
     atom   73 type  2   force =  -0.27008240E-05  0.11025675E-05 -0.56226708E-05
     atom   74 type  1   force =  -0.16257577E-05 -0.17876030E-05 -0.11039338E-05
     atom   75 type  1   force =  -0.14559708E-05 -0.11920136E-05 -0.11824791E-05
     atom   76 type  1   force =  -0.57511939E-06  0.94155875E-07 -0.92097089E-07
     atom   77 type  2   force =   0.45112620E-05  0.46052864E-05  0.13494630E-05
     atom   78 type  1   force =   0.14442865E-05  0.26635212E-05  0.31947915E-06
     atom   79 type  1   force =   0.40869392E-06  0.23121650E-05 -0.44933024E-06
     atom   80 type  2   force =  -0.84228761E-05 -0.33339901E-07 -0.33218829E-05
     atom   81 type  1   force =  -0.12758628E-05 -0.21957869E-05 -0.27967563E-06
     atom   82 type  2   force =  -0.27977833E-05 -0.86487272E-05 -0.69669620E-07
     atom   83 type  1   force =   0.25803239E-06  0.62500446E-06  0.14828699E-05
     atom   84 type  1   force =   0.20903442E-05  0.26843024E-06  0.14857432E-05
     atom   85 type  1   force =   0.75024932E-06  0.12151346E-05  0.11368233E-05
     atom   86 type  2   force =   0.29632109E-05  0.41083250E-06 -0.36405013E-05
     atom   87 type  2   force =   0.96725172E-05 -0.53706971E-05 -0.36992571E-05
     atom   88 type  1   force =  -0.13587240E-06 -0.15270673E-05 -0.13585328E-05
     atom   89 type  1   force =   0.13643982E-05 -0.76296706E-06  0.21141829E-05
     atom   90 type  1   force =   0.22233212E-05 -0.73808914E-06  0.21396872E-05
     atom   91 type  1   force =   0.12542310E-05 -0.61006809E-06  0.17934266E-05
     atom   92 type  1   force =   0.32775600E-07 -0.14789887E-05 -0.18443596E-06
     atom   93 type  2   force =   0.14999128E-05 -0.80044942E-05 -0.63515168E-06
     atom   94 type  1   force =   0.39515255E-06 -0.10821866E-05 -0.22589621E-05
     atom   95 type  2   force =   0.10454432E-05 -0.36527737E-05 -0.94455395E-05
     atom   96 type  2   force =   0.24884832E-05  0.16119148E-05  0.17486360E-05
     atom   97 type  2   force =  -0.50289805E-05 -0.96265627E-05 -0.31285344E-05
     atom   98 type  2   force =  -0.10230082E-04 -0.88592300E-05  0.63436402E-07
     atom   99 type  2   force =  -0.57388306E-05 -0.23267251E-05  0.52749926E-06
     atom  100 type  2   force =   0.11765285E-05  0.42604303E-05  0.37026961E-05
     atom  101 type  1   force =   0.69610494E-06  0.18080224E-05 -0.55197918E-06
     atom  102 type  2   force =   0.99643164E-05  0.50990854E-05 -0.12175687E-05
     atom  103 type  2   force =   0.12724470E-04  0.18454312E-05 -0.36061389E-05
     atom  104 type  2   force =  -0.26690129E-05  0.11453092E-05  0.11173163E-06
     atom  105 type  1   force =  -0.22611620E-05 -0.13825858E-05 -0.78049162E-06
     atom  106 type  2   force =  -0.33036034E-05  0.66131964E-06 -0.41571277E-05
     atom  107 type  1   force =  -0.89735802E-07  0.10049378E-05 -0.52686755E-07
     atom  108 type  1   force =   0.99193506E-06  0.15290568E-05 -0.24908912E-06
     atom  109 type  1   force =   0.16795233E-05  0.21366770E-05 -0.46752196E-08
     atom  110 type  1   force =  -0.16911133E-06  0.15387939E-05 -0.17776385E-05
     atom  111 type  2   force =  -0.68333910E-05  0.12601892E-05 -0.15861791E-05
     atom  112 type  1   force =  -0.20307860E-05 -0.76731373E-06 -0.14387472E-05
     atom  113 type  1   force =  -0.60750552E-06 -0.16924897E-05  0.10231645E-05
     atom  114 type  2   force =   0.90783587E-06 -0.19590481E-05  0.81106025E-05
     atom  115 type  2   force =   0.74341079E-05  0.36966097E-05 -0.81008465E-05
     atom  116 type  2   force =   0.31107999E-05  0.11037175E-05  0.46688865E-05
     atom  117 type  2   force =  -0.58516958E-05  0.90928294E-06 -0.11849291E-04
     atom  118 type  2   force =  -0.17614991E-05  0.33242021E-05 -0.70451977E-05
     atom  119 type  2   force =   0.29092321E-05  0.32378098E-05 -0.71684974E-05
     atom  120 type  1   force =  -0.13299811E-06 -0.52689464E-06  0.10919597E-05
     atom  121 type  2   force =   0.12216080E-04 -0.12553505E-04  0.63450991E-05
     atom  122 type  2   force =   0.12626895E-05 -0.37857362E-05  0.84320782E-05
     atom  123 type  2   force =   0.78148375E-06 -0.10298503E-04 -0.20313835E-05
     atom  124 type  1   force =  -0.14212411E-05 -0.14812071E-05 -0.19147961E-06
     atom  125 type  2   force =   0.63338318E-05 -0.16494756E-05  0.67265932E-06
     atom  126 type  2   force =   0.50367913E-05  0.77267672E-05  0.66314131E-05
     atom  127 type  2   force =   0.27310467E-05  0.28000863E-05  0.42070830E-05
     atom  128 type  1   force =   0.15556449E-05 -0.84653485E-06  0.14381207E-05

     Total force =     0.738429     Total SCF correction =     0.000080


     entering subroutine stress ...

          total   stress  (Ry/bohr**3)                   (kbar)     P=   13.38
   0.0000814152   0.0000188147   0.0000287167         11.98      2.77      4.22
   0.0000188147   0.0001047121  -0.0000344423          2.77     15.40     -5.07
   0.0000287167  -0.0000344423   0.0000868224          4.22     -5.07     12.77

     kinetic stress (kbar)   6445.17     -4.55     -5.19
                               -4.55   6446.56      4.30
                               -5.19      4.30   6444.57

     local   stress (kbar)  -5642.40  -4217.53   -445.90
                            -4217.53  -6525.63   4531.78
                             -445.90   4531.78  -5137.53

     nonloc. stress (kbar)   2513.56      2.46      2.66
                                2.46   2513.79     -2.92
                                2.66     -2.92   2513.89

     hartree stress (kbar)  17510.93   2036.26    139.89
                             2036.26  17930.00  -2147.94
                              139.89  -2147.94  17238.35

     exc-cor stress (kbar)  10982.06      0.11      0.20
                                0.11  10982.08     -0.20
                                0.20     -0.20  10982.10

     corecor stress (kbar) -16674.51     -0.23     -0.10
                               -0.23 -16674.52      0.16
                               -0.10      0.16 -16674.51

     ewald   stress (kbar) -15122.82   2186.24    312.65
                             2186.24 -14656.86  -2390.24
                              312.65  -2390.24 -15354.10

     hubbard stress (kbar)      0.00      0.00      0.00
                                0.00      0.00      0.00
                                0.00      0.00      0.00

     london  stress (kbar)      0.00      0.00      0.00
                                0.00      0.00      0.00
                                0.00      0.00      0.00

     XDM     stress (kbar)      0.00      0.00      0.00
                                0.00      0.00      0.00
                                0.00      0.00      0.00

     dft-nl  stress (kbar)      0.00      0.00      0.00
                                0.00      0.00      0.00
                                0.00      0.00      0.00



     Writing output data file SiGe_zns.scf.in.super.444.c.044.save

     init_run     :   1046.19s CPU    800.46s WALL (       1 calls)
     electrons    :  55600.87s CPU  42831.15s WALL (       1 calls)
     forces       :    763.22s CPU    516.38s WALL (       1 calls)
     stress       :   3472.28s CPU   3394.01s WALL (       1 calls)

     Called by init_run:
     wfcinit      :    992.89s CPU    746.82s WALL (       1 calls)
     potinit      :      5.46s CPU      5.48s WALL (       1 calls)

     Called by electrons:
     c_bands      :  49752.77s CPU  37905.82s WALL (      17 calls)
     sum_band     :   5122.88s CPU   4192.73s WALL (      17 calls)
     v_of_rho     :     11.45s CPU     11.46s WALL (      17 calls)
     v_h          :      0.85s CPU      0.86s WALL (      17 calls)
     v_xc         :     11.62s CPU     11.65s WALL (      19 calls)
     newd         :    728.61s CPU    735.41s WALL (      17 calls)
     mix_rho      :     19.99s CPU     20.29s WALL (      17 calls)

     Called by c_bands:
     init_us_2    :     51.59s CPU     52.32s WALL (     296 calls)
     cegterg      :  49341.64s CPU  37466.29s WALL (     136 calls)

     Called by sum_band:
     sum_band:bec :     20.88s CPU     21.11s WALL (     136 calls)
     addusdens    :    489.54s CPU    499.94s WALL (      17 calls)

     Called by *egterg:
     h_psi        :  19666.90s CPU  15296.65s WALL (     534 calls)
     s_psi        :   5740.48s CPU   3450.00s WALL (     534 calls)
     g_psi        :      8.06s CPU      8.69s WALL (     390 calls)
     cdiaghg      :  13551.11s CPU  11688.78s WALL (     518 calls)
     cegterg:over :   4909.56s CPU   3339.48s WALL (     390 calls)
     cegterg:upda :   2264.25s CPU   1377.76s WALL (     390 calls)
     cegterg:last :   1604.11s CPU    975.65s WALL (     136 calls)

     Called by h_psi:
     h_psi:vloc   :   7858.98s CPU   7983.06s WALL (     534 calls)
     h_psi:vnl    :  11791.88s CPU   7296.81s WALL (     534 calls)
     add_vuspsi   :   5685.56s CPU   3398.92s WALL (     534 calls)

     General routines
     calbec       :  10021.62s CPU   6698.15s WALL (     686 calls)
     fft          :    365.77s CPU    368.06s WALL (     297 calls)
     ffts         :     12.31s CPU     12.46s WALL (     499 calls)
     fftw         :   8639.18s CPU   8776.35s WALL (  535830 calls)
     interpolate  :      3.48s CPU      3.54s WALL (      34 calls)

     Parallel routines
     fft_scatter  :   5374.94s CPU   5470.11s WALL (  536626 calls)

     PWSCF        :    16h55m CPU       13h13m WALL


   This run was terminated on:  19:56:19   4Feb2017            

=------------------------------------------------------------------------------=
   JOB DONE.
=------------------------------------------------------------------------------=
