
     Program PWSCF v.5.1 starts on  5Oct2017 at 13:35:11 

     This program is part of the open-source Quantum ESPRESSO suite
     for quantum simulation of materials; please cite
         "P. Giannozzi et al., J. Phys.:Condens. Matter 21 395502 (2009);
          URL http://www.quantum-espresso.org", 
     in publications or presentations arising from this work. More details at
     http://www.quantum-espresso.org/quote

     Parallel version (MPI), running on     4 processors
     R & G space division:  proc/nbgrp/npool/nimage =       4
     Reading input from /tmp/SiGe_zns.scf.in.super.222.a.04.9902/SiGe_zns.scf.in.super.222.a.04.t
Warning: card &IONS ignored
Warning: card   ION_DYNAMICS='BFGS', ignored
Warning: card / ignored
Warning: card &CELL ignored
Warning: card  CELL_DYNAMICS = 'BFGS' ignored
Warning: card / ignored
     Message from routine read_cards :
     DEPRECATED: no units specified in CELL_PARAMETERS card

     Current dimensions of program PWSCF are:
     Max number of different atomic species (ntypx) = 10
     Max number of k-points (npk) =  40000
     Max angular momentum in pseudopotentials (lmaxx) =  3
 kfg - two_fermi_energies  F

     Subspace diagonalization in iterative solution of the eigenvalue problem:
     a serial algorithm will be used


     Parallelization info
     --------------------
     sticks:   dense  smooth     PW     G-vecs:    dense   smooth      PW
     Min         754     526    148                27309    16002    2429
     Max         755     527    149                27310    16016    2431
     Sum        3019    2107    595               109239    64045    9721



     bravais-lattice index     =            0
     lattice parameter (alat)  =    14.790322810  a.u.
     unit-cell volume          =    2288.4273 (a.u.)^3
     number of atoms/cell      =           16
     number of atomic types    =            2
     number of electrons       =       144.00
     number of Kohn-Sham states=           86
     kinetic-energy cutoff     =      35.0000  Ry
     charge density cutoff     =     200.0000  Ry
     convergence threshold     =      1.0E-09
     mixing beta               =       0.3000
     number of iterations used =            8  local-TF  mixing
     Exchange-correlation      = SLA  PW   PSX  PSC ( 1  4 10  8 0)
     A smooth kinetic-energy cutoff is imposed at      34.5000 Ry
     height of the smooth step-function =             800.0000 Ry
     width of the smooth step-function  =               1.0000 Ry


     celldm(1)=  14.790323  celldm(2)=   0.000000  celldm(3)=   0.000000
     celldm(4)=   0.000000  celldm(5)=   0.000000  celldm(6)=   0.000000

     crystal axes: (cart. coord. in units of alat)
               a(1) = (   0.000199459130   0.707055107240   0.707158423227 )  
               a(2) = (   0.707101468480  -0.000029220640   0.707010971449 )  
               a(3) = (   0.707758875233   0.707516648769   0.000402381594 )  

     reciprocal axes: (cart. coord. in units 2 pi/alat)
               b(1) = ( -0.707227  0.707067  0.707346 )  
               b(2) = (  0.706972 -0.707616  0.707313 )  
               b(3) = (  0.706795  0.706760 -0.706856 )  


     PseudoPot. # 1 for Si read from file:
     /users/kfg/psuedo/gbrv_1.5/si.pbesol.UPF
     MD5 check sum: ef58ba74faed4df802eb8a9742fc00a8
     Pseudo is Ultrasoft + core correction, Zval =  4.0
     Generated by new atomic code, or converted to UPF format
     Using radial grid of  899 points,  6 beta functions with: 
                l(1) =   0
                l(2) =   0
                l(3) =   1
                l(4) =   1
                l(5) =   2
                l(6) =   2
     Q(r) pseudized with  8 coefficients,  rinner =    0.900   0.900   0.900
                                                       0.900   0.900

     PseudoPot. # 2 for Ge read from file:
     /users/kfg/psuedo/gbrv_1.5/ge.pbesol.UPF
     MD5 check sum: 7bed0412183f5e553a4d27ec7023354d
     Pseudo is Ultrasoft + core correction, Zval = 14.0
     Generated by new atomic code, or converted to UPF format
     Using radial grid of  873 points,  6 beta functions with: 
                l(1) =   0
                l(2) =   0
                l(3) =   1
                l(4) =   1
                l(5) =   2
                l(6) =   2
     Q(r) pseudized with  8 coefficients,  rinner =    1.400   1.400   1.400
                                                       1.400   1.400

     atomic species   valence    mass     pseudopotential
        Si             4.00    28.08550     Si( 1.00)
        Ge            14.00    72.64000     Ge( 1.00)

     No symmetry found


                                    s                        frac. trans.

      isym =  1     identity                                     

 cryst.   s( 1) = (     1          0          0      )
                  (     0          1          0      )
                  (     0          0          1      )

 cart.    s( 1) = (  1.0000000  0.0000000  0.0000000 )
                  (  0.0000000  1.0000000 -0.0000000 )
                  ( -0.0000000  0.0000000  1.0000000 )


     point group C_1 (1)    
     there are  1 classes
     the character table:

       E    
A      1.00

     the symmetry operations in each class:
     E        1

   Cartesian axes

     site n.     atom                  positions (alat units)
         1           Si  tau(   1) = (    0.00872005973    0.00836987813    0.00897492746  )
         2           Ge  tau(   2) = (    0.19006097747    0.17963754759    0.18283490702  )
         3           Si  tau(   3) = (    0.35971083873    0.36618778428    0.00209364683  )
         4           Ge  tau(   4) = (    0.53946196009    0.52399442845    0.17765513984  )
         5           Si  tau(   5) = (    0.35902603629   -0.00957918497    0.35330580945  )
         6           Ge  tau(   6) = (    0.53739753765    0.18187842796    0.54366635730  )
         7           Si  tau(   7) = (    0.70792166379    0.36294587884    0.35130285448  )
         8           Ge  tau(   8) = (    0.89064293599    0.52094995162    0.53333435815  )
         9           Si  tau(   9) = (    0.00922841178    0.35532252613    0.36539791456  )
        10           Ge  tau(  10) = (    0.17161779219    0.52369200178    0.52220983861  )
        11           Si  tau(  11) = (    0.36349565660    0.71930538894    0.35479168441  )
        12           Ge  tau(  12) = (    0.54053255480    0.87276415927    0.53045033680  )
        13           Si  tau(  13) = (    0.36236699934    0.35324708920    0.70667470436  )
        14           Ge  tau(  14) = (    0.52773468527    0.52676234102    0.88380291425  )
        15           Si  tau(  15) = (    0.69982605929    0.70777987078    0.72016079615  )
        16           Ge  tau(  16) = (    0.87276273905    0.89112829676    0.89506765483  )

   Crystallographic axes

     site n.     atom                  positions (cryst. coord.)
         1           Si  tau(   1) = (    0.00609938511    0.00659026311    0.00573480400  )
         2           Ge  tau(   2) = (    0.12192713036    0.13657492807    0.13205673439  )
         3           Si  tau(   3) = (    0.00600295504   -0.00333409135    0.51156855102  )
         4           Ge  tau(   4) = (    0.11464076524    0.13625537622    0.62605038642  )
         5           Si  tau(   5) = (   -0.01077631142    0.51049770015   -0.00274880016  )
         6           Ge  tau(   6) = (    0.13309873779    0.63576741279    0.12408027899  )
         7           Si  tau(   7) = (    0.00445861187    0.49213561362    0.50855025912  )
         8           Ge  tau(   8) = (    0.11571198645    0.63826151674    0.62069755080  )
         9           Si  tau(   9) = (    0.50317303492    0.01354309880   -0.00063340177  )
        10           Ge  tau(  10) = (    0.61829571596    0.12012204738    0.12229587561  )
        11           Si  tau(  11) = (    0.50248360549   -0.00106201690    0.51450627907  )
        12           Ge  tau(  12) = (    0.61003547594    0.13975391941    0.62392813636  )
        13           Si  tau(  13) = (    0.49335744936    0.50606047548    0.00626271106  )
        14           Ge  tau(  14) = (    0.62438285286    0.62547375070    0.12057318075  )
        15           Si  tau(  15) = (    0.51491500034    0.50330029983    0.48581372234  )
        16           Ge  tau(  16) = (    0.64596885288    0.61953533576    0.61399378260  )

     number of k points=    36  gaussian smearing, width (Ry)=  0.0150
                       cart. coord. in units 2pi/alat
        k(    1) = (   0.0000000   0.0000000   0.0000000), wk =   0.0312500
        k(    2) = (   0.1766986   0.1766899  -0.1767140), wk =   0.0625000
        k(    3) = (  -0.3533973  -0.3533799   0.3534279), wk =   0.0312500
        k(    4) = (   0.1767430  -0.1769041   0.1768284), wk =   0.0625000
        k(    5) = (   0.3534416  -0.0002141   0.0001144), wk =   0.0625000
        k(    6) = (  -0.1766543  -0.5302839   0.5302563), wk =   0.0625000
        k(    7) = (   0.0000443  -0.3535940   0.3535423), wk =   0.0625000
        k(    8) = (  -0.3534860   0.3538081  -0.3536567), wk =   0.0312500
        k(    9) = (  -0.1767873   0.5304981  -0.5303707), wk =   0.0625000
        k(   10) = (  -0.7068833   0.0004283  -0.0002288), wk =   0.0312500
        k(   11) = (  -0.1768067   0.1767666   0.1768366), wk =   0.0625000
        k(   12) = (  -0.0001080   0.3534566   0.0001227), wk =   0.0625000
        k(   13) = (  -0.5302040  -0.1766132   0.5302645), wk =   0.0625000
        k(   14) = (  -0.3535053   0.0000767   0.3535506), wk =   0.0625000
        k(   15) = (  -0.0000637  -0.0001374   0.3536650), wk =   0.0625000
        k(   16) = (   0.1766350   0.1765525   0.1769510), wk =   0.0625000
        k(   17) = (  -0.3534610  -0.3535173   0.7070929), wk =   0.0625000
        k(   18) = (  -0.1767623  -0.1768274   0.5303790), wk =   0.0625000
        k(   19) = (  -0.5302927   0.5305748  -0.1768201), wk =   0.0625000
        k(   20) = (  -0.3535940   0.7072647  -0.3535341), wk =   0.0625000
        k(   21) = (  -0.8836900   0.1771949   0.1766078), wk =   0.0625000
        k(   22) = (  -0.7069913   0.3538849  -0.0001062), wk =   0.0625000
        k(   23) = (  -0.3535497   0.3536707   0.0000082), wk =   0.0625000
        k(   24) = (  -0.1768510   0.5303607  -0.1767057), wk =   0.0625000
        k(   25) = (  -0.7069470   0.0002908   0.3534362), wk =   0.0625000
        k(   26) = (  -0.5302483   0.1769808   0.1767222), wk =   0.0625000
        k(   27) = (   0.3536134  -0.3535333  -0.3536732), wk =   0.0312500
        k(   28) = (   0.5303120  -0.1768434  -0.5303872), wk =   0.0625000
        k(   29) = (   0.0002161  -0.7069132  -0.0002453), wk =   0.0312500
        k(   30) = (   0.5303564  -0.5304374  -0.1768449), wk =   0.0625000
        k(   31) = (   0.7070550  -0.3537474  -0.3535588), wk =   0.0625000
        k(   32) = (   0.1769591  -0.8838172   0.1765831), wk =   0.0625000
        k(   33) = (   0.3536577  -0.7071273  -0.0001309), wk =   0.0625000
        k(   34) = (   0.0001274   0.0002749  -0.7073300), wk =   0.0312500
        k(   35) = (   0.1768260   0.1769648  -0.8840440), wk =   0.0625000
        k(   36) = (  -0.3532699  -0.3531050  -0.3539021), wk =   0.0312500

                       cryst. coord.
        k(    1) = (   0.0000000   0.0000000   0.0000000), wk =   0.0312500
        k(    2) = (   0.0000000   0.0000000   0.2500000), wk =   0.0625000
        k(    3) = (   0.0000000   0.0000000  -0.5000000), wk =   0.0312500
        k(    4) = (   0.0000000   0.2500000   0.0000000), wk =   0.0625000
        k(    5) = (   0.0000000   0.2500000   0.2500000), wk =   0.0625000
        k(    6) = (   0.0000000   0.2500000  -0.5000000), wk =   0.0625000
        k(    7) = (  -0.0000000   0.2500000  -0.2500000), wk =   0.0625000
        k(    8) = (   0.0000000  -0.5000000  -0.0000000), wk =   0.0312500
        k(    9) = (   0.0000000  -0.5000000   0.2500000), wk =   0.0625000
        k(   10) = (  -0.0000000  -0.5000000  -0.5000000), wk =   0.0312500
        k(   11) = (   0.2500000  -0.0000000  -0.0000000), wk =   0.0625000
        k(   12) = (   0.2500000  -0.0000000   0.2500000), wk =   0.0625000
        k(   13) = (   0.2500000  -0.0000000  -0.5000000), wk =   0.0625000
        k(   14) = (   0.2500000  -0.0000000  -0.2500000), wk =   0.0625000
        k(   15) = (   0.2500000   0.2500000  -0.0000000), wk =   0.0625000
        k(   16) = (   0.2500000   0.2500000   0.2500000), wk =   0.0625000
        k(   17) = (   0.2500000   0.2500000  -0.5000000), wk =   0.0625000
        k(   18) = (   0.2500000   0.2500000  -0.2500000), wk =   0.0625000
        k(   19) = (   0.2500000  -0.5000000   0.0000000), wk =   0.0625000
        k(   20) = (   0.2500000  -0.5000000   0.2500000), wk =   0.0625000
        k(   21) = (   0.2500000  -0.5000000  -0.5000000), wk =   0.0625000
        k(   22) = (   0.2500000  -0.5000000  -0.2500000), wk =   0.0625000
        k(   23) = (   0.2500000  -0.2500000   0.0000000), wk =   0.0625000
        k(   24) = (   0.2500000  -0.2500000   0.2500000), wk =   0.0625000
        k(   25) = (   0.2500000  -0.2500000  -0.5000000), wk =   0.0625000
        k(   26) = (   0.2500000  -0.2500000  -0.2500000), wk =   0.0625000
        k(   27) = (  -0.5000000   0.0000000   0.0000000), wk =   0.0312500
        k(   28) = (  -0.5000000   0.0000000   0.2500000), wk =   0.0625000
        k(   29) = (  -0.5000000   0.0000000  -0.5000000), wk =   0.0312500
        k(   30) = (  -0.5000000   0.2500000  -0.0000000), wk =   0.0625000
        k(   31) = (  -0.5000000   0.2500000   0.2500000), wk =   0.0625000
        k(   32) = (  -0.5000000   0.2500000  -0.5000000), wk =   0.0625000
        k(   33) = (  -0.5000000   0.2500000  -0.2500000), wk =   0.0625000
        k(   34) = (  -0.5000000  -0.5000000   0.0000000), wk =   0.0312500
        k(   35) = (  -0.5000000  -0.5000000   0.2500000), wk =   0.0625000
        k(   36) = (  -0.5000000  -0.5000000  -0.5000000), wk =   0.0312500

     Dense  grid:   109239 G-vectors     FFT dimensions: (  72,  72,  72)

     Smooth grid:    64045 G-vectors     FFT dimensions: (  60,  60,  60)

     Largest allocated arrays     est. size (Mb)     dimensions
        Kohn-Sham Wavefunctions         2.66 Mb     (    2027,   86)
        NL pseudopotentials             8.91 Mb     (    2027,  288)
        Each V/rho on FFT grid          1.42 Mb     (   93312)
        Each G-vector array             0.21 Mb     (   27310)
        G-vector shells                 0.20 Mb     (   26773)
     Largest temporary arrays     est. size (Mb)     dimensions
        Auxiliary wavefunctions        10.64 Mb     (    2027,  344)
        Each subspace H/S matrix        1.81 Mb     (     344,  344)
        Each <psi_i|beta_j> matrix      0.38 Mb     (     288,   86)
        Arrays for rho mixing          11.39 Mb     (   93312,    8)

     Check: negative/imaginary core charge=   -0.000001    0.000000

     Initial potential from superposition of free atoms

     starting charge  143.98835, renormalised to  144.00000
     Starting wfc are  104 randomized atomic wfcs

     total cpu time spent up to now is       53.7 secs

     Self-consistent Calculation

     iteration #  1     ecut=    35.00 Ry     beta=0.30
     Davidson diagonalization with overlap
     ethr =  1.00E-02,  avg # of iterations =  3.0

     Threshold (ethr) on eigenvalues was too large:
     Diagonalizing with lowered threshold

     Davidson diagonalization with overlap
     ethr =  2.43E-04,  avg # of iterations =  5.3

     total cpu time spent up to now is      331.0 secs

     total energy              =   -1781.93076356 Ry
     Harris-Foulkes estimate   =   -1781.96767345 Ry
     estimated scf accuracy    <       0.34895210 Ry

     iteration #  2     ecut=    35.00 Ry     beta=0.30
     Davidson diagonalization with overlap
     ethr =  2.42E-04,  avg # of iterations =  1.0

     total cpu time spent up to now is      439.0 secs

     total energy              =   -1781.86159122 Ry
     Harris-Foulkes estimate   =   -1781.93267361 Ry
     estimated scf accuracy    <       0.21454473 Ry

     iteration #  3     ecut=    35.00 Ry     beta=0.30
     Davidson diagonalization with overlap
     ethr =  1.49E-04,  avg # of iterations =  2.4

     total cpu time spent up to now is      583.4 secs

     total energy              =   -1781.87483991 Ry
     Harris-Foulkes estimate   =   -1781.87478245 Ry
     estimated scf accuracy    <       0.00326577 Ry

     iteration #  4     ecut=    35.00 Ry     beta=0.30
     Davidson diagonalization with overlap
     ethr =  2.27E-06,  avg # of iterations =  7.8

     total cpu time spent up to now is      901.1 secs

     total energy              =   -1781.87544712 Ry
     Harris-Foulkes estimate   =   -1781.87573688 Ry
     estimated scf accuracy    <       0.00152734 Ry

     iteration #  5     ecut=    35.00 Ry     beta=0.30
     Davidson diagonalization with overlap
     ethr =  1.06E-06,  avg # of iterations =  2.0

     total cpu time spent up to now is     1068.3 secs

     total energy              =   -1781.87547385 Ry
     Harris-Foulkes estimate   =   -1781.87551892 Ry
     estimated scf accuracy    <       0.00013564 Ry

     iteration #  6     ecut=    35.00 Ry     beta=0.30
     Davidson diagonalization with overlap
     ethr =  9.42E-08,  avg # of iterations =  2.1

     total cpu time spent up to now is     1239.3 secs

     total energy              =   -1781.87548466 Ry
     Harris-Foulkes estimate   =   -1781.87549055 Ry
     estimated scf accuracy    <       0.00001981 Ry

     iteration #  7     ecut=    35.00 Ry     beta=0.30
     Davidson diagonalization with overlap
     ethr =  1.38E-08,  avg # of iterations =  2.0

     total cpu time spent up to now is     1423.7 secs

     total energy              =   -1781.87548612 Ry
     Harris-Foulkes estimate   =   -1781.87548641 Ry
     estimated scf accuracy    <       0.00000199 Ry

     iteration #  8     ecut=    35.00 Ry     beta=0.30
     Davidson diagonalization with overlap
     ethr =  1.38E-09,  avg # of iterations =  2.0

     total cpu time spent up to now is     1616.9 secs

     total energy              =   -1781.87548631 Ry
     Harris-Foulkes estimate   =   -1781.87548630 Ry
     estimated scf accuracy    <       0.00000071 Ry

     iteration #  9     ecut=    35.00 Ry     beta=0.30
     Davidson diagonalization with overlap
     ethr =  4.91E-10,  avg # of iterations =  2.0

     total cpu time spent up to now is     1788.4 secs

     total energy              =   -1781.87548648 Ry
     Harris-Foulkes estimate   =   -1781.87548640 Ry
     estimated scf accuracy    <       0.00000008 Ry

     iteration # 10     ecut=    35.00 Ry     beta=0.30
     Davidson diagonalization with overlap
     ethr =  5.30E-11,  avg # of iterations =  2.2

     total cpu time spent up to now is     1983.6 secs

     total energy              =   -1781.87548651 Ry
     Harris-Foulkes estimate   =   -1781.87548650 Ry
     estimated scf accuracy    <       0.00000006 Ry

     iteration # 11     ecut=    35.00 Ry     beta=0.30
     Davidson diagonalization with overlap
     ethr =  4.03E-11,  avg # of iterations =  2.0

     total cpu time spent up to now is     2138.0 secs

     total energy              =   -1781.87548653 Ry
     Harris-Foulkes estimate   =   -1781.87548651 Ry
     estimated scf accuracy    <          2.1E-09 Ry

     iteration # 12     ecut=    35.00 Ry     beta=0.30
     Davidson diagonalization with overlap
     ethr =  1.49E-12,  avg # of iterations =  3.0

     total cpu time spent up to now is     2288.6 secs

     total energy              =   -1781.87548654 Ry
     Harris-Foulkes estimate   =   -1781.87548653 Ry
     estimated scf accuracy    <          1.4E-09 Ry

     iteration # 13     ecut=    35.00 Ry     beta=0.30
     Davidson diagonalization with overlap
     ethr =  9.44E-13,  avg # of iterations =  2.0

     total cpu time spent up to now is     2417.0 secs

     End of self-consistent calculation

          k = 0.0000 0.0000 0.0000 (  7965 PWs)   bands (ev):

   -17.1117 -17.1008 -17.0834 -17.0709 -17.0690 -17.0647 -17.0630 -17.0605
   -17.0580 -17.0543 -17.0524 -17.0453 -17.0420 -17.0375 -17.0330 -17.0300
   -17.0296 -17.0237 -17.0220 -17.0201 -17.0200 -17.0188 -17.0108 -16.9961
   -16.9935 -16.9784 -16.9754 -16.9656 -16.9608 -16.9574 -16.9533 -16.9519
   -16.9414 -16.9397 -16.9389 -16.9369 -16.9333 -16.9315 -16.9179 -16.9166
    -5.1210  -3.1518  -2.9197  -2.8854  -2.7988  -1.6082  -1.5516  -1.4479
    -0.7211  -0.5834  -0.5163  -0.0336   0.0771   0.2255   0.3543   4.2336
     4.2791   4.3291   4.3729   4.3927   4.5005   5.6800   5.8600   5.8822
     5.9856   6.0706   6.1467   6.2506   6.3493   7.2072   7.4540   7.6768
     7.7390   7.8417   7.9231   8.0266   8.0907   8.1154   8.2215   8.2552
     8.3249   8.4431   9.0178   9.6298   9.7820   9.9431

     occupation numbers 
     1.0000   1.0000   1.0000   1.0000   1.0000   1.0000   1.0000   1.0000
     1.0000   1.0000   1.0000   1.0000   1.0000   1.0000   1.0000   1.0000
     1.0000   1.0000   1.0000   1.0000   1.0000   1.0000   1.0000   1.0000
     1.0000   1.0000   1.0000   1.0000   1.0000   1.0000   1.0000   1.0000
     1.0000   1.0000   1.0000   1.0000   1.0000   1.0000   1.0000   1.0000
     1.0000   1.0000   1.0000   1.0000   1.0000   1.0000   1.0000   1.0000
     1.0000   1.0000   1.0000   1.0000   1.0000   1.0000   1.0000   1.0000
     1.0000   1.0000   1.0000   1.0000   1.0000   1.0000   1.0000   1.0000
     1.0000   1.0000   1.0000   1.0000   1.0000   0.9984   0.8912   0.3782
     0.2293   0.0731   0.0218   0.0031   0.0007   0.0004   0.0000   0.0000
     0.0000   0.0000   0.0000   0.0000   0.0000   0.0000

          k = 0.1767 0.1767-0.1767 (  7994 PWs)   bands (ev):

   -17.1114 -17.1006 -17.0830 -17.0705 -17.0688 -17.0645 -17.0623 -17.0597
   -17.0577 -17.0544 -17.0524 -17.0450 -17.0414 -17.0375 -17.0329 -17.0298
   -17.0296 -17.0233 -17.0219 -17.0208 -17.0199 -17.0190 -17.0105 -16.9961
   -16.9934 -16.9785 -16.9754 -16.9654 -16.9607 -16.9573 -16.9532 -16.9519
   -16.9414 -16.9397 -16.9388 -16.9370 -16.9335 -16.9316 -16.9179 -16.9166
    -4.9288  -3.5675  -2.9612  -2.7929  -2.7151  -2.1183  -1.9485  -1.9051
    -0.1823  -0.1104   0.0416   0.1852   0.3319   0.5117   1.1970   3.7607
     3.8682   3.9217   4.3948   4.4772   4.5798   4.8528   4.9980   5.0376
     5.3495   5.5350   5.6975   5.8372   6.0235   6.3321   6.9389   7.2159
     7.9639   8.1116   8.1731   8.2704   9.0149   9.1002   9.1276   9.1738
     9.2498   9.3752   9.4727  10.1584  10.3522  10.7007

     occupation numbers 
     1.0000   1.0000   1.0000   1.0000   1.0000   1.0000   1.0000   1.0000
     1.0000   1.0000   1.0000   1.0000   1.0000   1.0000   1.0000   1.0000
     1.0000   1.0000   1.0000   1.0000   1.0000   1.0000   1.0000   1.0000
     1.0000   1.0000   1.0000   1.0000   1.0000   1.0000   1.0000   1.0000
     1.0000   1.0000   1.0000   1.0000   1.0000   1.0000   1.0000   1.0000
     1.0000   1.0000   1.0000   1.0000   1.0000   1.0000   1.0000   1.0000
     1.0000   1.0000   1.0000   1.0000   1.0000   1.0000   1.0000   1.0000
     1.0000   1.0000   1.0000   1.0000   1.0000   1.0000   1.0000   1.0000
     1.0000   1.0000   1.0000   1.0000   1.0000   1.0000   1.0000   0.9980
     0.0107   0.0004   0.0001   0.0000   0.0000   0.0000   0.0000   0.0000
     0.0000   0.0000   0.0000   0.0000   0.0000   0.0000

          k =-0.3534-0.3534 0.3534 (  8026 PWs)   bands (ev):

   -17.1112 -17.1004 -17.0829 -17.0702 -17.0687 -17.0643 -17.0615 -17.0590
   -17.0575 -17.0547 -17.0525 -17.0447 -17.0407 -17.0376 -17.0328 -17.0296
   -17.0295 -17.0225 -17.0221 -17.0217 -17.0198 -17.0192 -17.0103 -16.9961
   -16.9933 -16.9785 -16.9754 -16.9654 -16.9606 -16.9573 -16.9532 -16.9518
   -16.9414 -16.9397 -16.9387 -16.9371 -16.9335 -16.9317 -16.9180 -16.9165
    -4.4275  -4.3102  -2.8240  -2.5385  -2.5215  -2.4950  -2.3986  -2.3470
     0.1976   0.2564   0.4536   0.4825   0.5625   0.8594   3.1034   3.1234
     3.5100   3.7526   3.7784   3.8175   3.8684   3.9585   4.7541   4.9092
     4.9975   5.0688   5.0875   5.1226   6.1651   6.5014   6.7214   6.7806
     8.3934   8.4955   8.6258   8.6652   8.7503   8.7918   8.8205   8.8882
    10.5149  10.7593  11.0807  11.1447  11.5427  11.5808

     occupation numbers 
     1.0000   1.0000   1.0000   1.0000   1.0000   1.0000   1.0000   1.0000
     1.0000   1.0000   1.0000   1.0000   1.0000   1.0000   1.0000   1.0000
     1.0000   1.0000   1.0000   1.0000   1.0000   1.0000   1.0000   1.0000
     1.0000   1.0000   1.0000   1.0000   1.0000   1.0000   1.0000   1.0000
     1.0000   1.0000   1.0000   1.0000   1.0000   1.0000   1.0000   1.0000
     1.0000   1.0000   1.0000   1.0000   1.0000   1.0000   1.0000   1.0000
     1.0000   1.0000   1.0000   1.0000   1.0000   1.0000   1.0000   1.0000
     1.0000   1.0000   1.0000   1.0000   1.0000   1.0000   1.0000   1.0000
     1.0000   1.0000   1.0000   1.0000   1.0000   1.0000   1.0000   1.0000
     0.0000   0.0000   0.0000   0.0000   0.0000   0.0000   0.0000   0.0000
     0.0000   0.0000   0.0000   0.0000   0.0000   0.0000

          k = 0.1767-0.1769 0.1768 (  7990 PWs)   bands (ev):

   -17.1113 -17.1001 -17.0830 -17.0707 -17.0688 -17.0646 -17.0621 -17.0604
   -17.0580 -17.0541 -17.0521 -17.0451 -17.0415 -17.0377 -17.0329 -17.0300
   -17.0296 -17.0233 -17.0218 -17.0208 -17.0200 -17.0189 -17.0108 -16.9962
   -16.9934 -16.9781 -16.9751 -16.9649 -16.9611 -16.9566 -16.9534 -16.9524
   -16.9413 -16.9397 -16.9387 -16.9371 -16.9336 -16.9318 -16.9181 -16.9166
    -4.9243  -3.5012  -3.0571  -2.8007  -2.7394  -2.1662  -1.9444  -1.8661
    -0.2160  -0.0708   0.1253   0.2784   0.4092   0.5763   1.0371   3.6709
     3.7501   3.8124   4.4520   4.5076   4.6182   4.7067   4.8598   4.9310
     5.3945   5.6751   5.7043   5.9284   6.0267   6.3293   6.9954   7.3515
     8.0454   8.1146   8.2918   8.3961   8.9698   9.0301   9.1540   9.1985
     9.2799   9.3472   9.5338  10.0796  10.2967  10.6584

     occupation numbers 
     1.0000   1.0000   1.0000   1.0000   1.0000   1.0000   1.0000   1.0000
     1.0000   1.0000   1.0000   1.0000   1.0000   1.0000   1.0000   1.0000
     1.0000   1.0000   1.0000   1.0000   1.0000   1.0000   1.0000   1.0000
     1.0000   1.0000   1.0000   1.0000   1.0000   1.0000   1.0000   1.0000
     1.0000   1.0000   1.0000   1.0000   1.0000   1.0000   1.0000   1.0000
     1.0000   1.0000   1.0000   1.0000   1.0000   1.0000   1.0000   1.0000
     1.0000   1.0000   1.0000   1.0000   1.0000   1.0000   1.0000   1.0000
     1.0000   1.0000   1.0000   1.0000   1.0000   1.0000   1.0000   1.0000
     1.0000   1.0000   1.0000   1.0000   1.0000   1.0000   1.0000   0.9740
     0.0021   0.0004   0.0000   0.0000   0.0000   0.0000   0.0000   0.0000
     0.0000   0.0000   0.0000   0.0000   0.0000   0.0000

          k = 0.3534-0.0002 0.0001 (  7977 PWs)   bands (ev):

   -17.1113 -17.1000 -17.0830 -17.0705 -17.0688 -17.0644 -17.0625 -17.0600
   -17.0574 -17.0543 -17.0518 -17.0451 -17.0415 -17.0372 -17.0330 -17.0299
   -17.0294 -17.0236 -17.0220 -17.0205 -17.0197 -17.0189 -17.0106 -16.9961
   -16.9935 -16.9781 -16.9751 -16.9649 -16.9611 -16.9566 -16.9533 -16.9523
   -16.9413 -16.9397 -16.9386 -16.9369 -16.9335 -16.9316 -16.9179 -16.9166
    -4.8607  -3.2645  -3.0947  -3.0172  -2.9239  -2.7830  -1.5014  -1.4120
    -0.5638  -0.4761   0.4424   0.5301   0.7090   0.8440   1.1428   3.6901
     3.7791   3.8478   3.9058   4.4477   4.5857   4.6243   4.7193   4.7604
     4.8858   5.5007   5.9059   5.9789   6.0552   6.1668   6.5481   6.6908
     7.8424   8.7743   8.9312   9.0482   9.0983   9.1595   9.2369   9.2879
     9.4060   9.4398   9.6366  10.5713  10.6820  10.8292

     occupation numbers 
     1.0000   1.0000   1.0000   1.0000   1.0000   1.0000   1.0000   1.0000
     1.0000   1.0000   1.0000   1.0000   1.0000   1.0000   1.0000   1.0000
     1.0000   1.0000   1.0000   1.0000   1.0000   1.0000   1.0000   1.0000
     1.0000   1.0000   1.0000   1.0000   1.0000   1.0000   1.0000   1.0000
     1.0000   1.0000   1.0000   1.0000   1.0000   1.0000   1.0000   1.0000
     1.0000   1.0000   1.0000   1.0000   1.0000   1.0000   1.0000   1.0000
     1.0000   1.0000   1.0000   1.0000   1.0000   1.0000   1.0000   1.0000
     1.0000   1.0000   1.0000   1.0000   1.0000   1.0000   1.0000   1.0000
     1.0000   1.0000   1.0000   1.0000   1.0000   1.0000   1.0000   1.0000
     0.0724   0.0000   0.0000   0.0000   0.0000   0.0000   0.0000   0.0000
     0.0000   0.0000   0.0000   0.0000   0.0000   0.0000

          k =-0.1767-0.5303 0.5303 (  8008 PWs)   bands (ev):

   -17.1111 -17.0999 -17.0828 -17.0702 -17.0686 -17.0642 -17.0618 -17.0594
   -17.0572 -17.0545 -17.0519 -17.0448 -17.0410 -17.0373 -17.0329 -17.0296
   -17.0294 -17.0232 -17.0219 -17.0211 -17.0196 -17.0192 -17.0104 -16.9961
   -16.9934 -16.9782 -16.9752 -16.9648 -16.9610 -16.9566 -16.9532 -16.9523
   -16.9413 -16.9397 -16.9385 -16.9371 -16.9336 -16.9317 -16.9180 -16.9166
    -4.4283  -3.9429  -3.4001  -3.0809  -2.9056  -2.3570  -1.9276  -1.7645
    -0.1845   0.0451   0.2722   0.9178   1.1220   1.8481   2.3900   3.1739
     3.2541   3.3519   3.7228   3.8618   3.9883   4.1952   4.3344   4.6544
     4.7661   5.0795   5.2282   5.3583   5.4769   5.9143   6.0500   6.5546
     8.5317   8.9643   9.2495   9.3809   9.5088   9.6267   9.9299  10.1301
    10.1688  10.5872  10.6990  10.8730  10.9561  11.2903

     occupation numbers 
     1.0000   1.0000   1.0000   1.0000   1.0000   1.0000   1.0000   1.0000
     1.0000   1.0000   1.0000   1.0000   1.0000   1.0000   1.0000   1.0000
     1.0000   1.0000   1.0000   1.0000   1.0000   1.0000   1.0000   1.0000
     1.0000   1.0000   1.0000   1.0000   1.0000   1.0000   1.0000   1.0000
     1.0000   1.0000   1.0000   1.0000   1.0000   1.0000   1.0000   1.0000
     1.0000   1.0000   1.0000   1.0000   1.0000   1.0000   1.0000   1.0000
     1.0000   1.0000   1.0000   1.0000   1.0000   1.0000   1.0000   1.0000
     1.0000   1.0000   1.0000   1.0000   1.0000   1.0000   1.0000   1.0000
     1.0000   1.0000   1.0000   1.0000   1.0000   1.0000   1.0000   1.0000
     0.0000   0.0000   0.0000   0.0000   0.0000   0.0000   0.0000   0.0000
     0.0000   0.0000   0.0000   0.0000   0.0000   0.0000

          k = 0.0000-0.3536 0.3535 (  8024 PWs)   bands (ev):

   -17.1111 -17.1000 -17.0828 -17.0704 -17.0687 -17.0645 -17.0614 -17.0596
   -17.0579 -17.0543 -17.0521 -17.0448 -17.0409 -17.0378 -17.0327 -17.0298
   -17.0296 -17.0225 -17.0219 -17.0216 -17.0199 -17.0191 -17.0105 -16.9963
   -16.9932 -16.9782 -16.9752 -16.9649 -16.9611 -16.9566 -16.9532 -16.9524
   -16.9413 -16.9396 -16.9386 -16.9372 -16.9336 -16.9318 -16.9181 -16.9165
    -4.6086  -3.7226  -3.5619  -2.7812  -2.6280  -2.4135  -2.2312  -1.7133
    -0.2159  -0.0192   0.2342   0.8559   0.9152   1.5997   1.8025   2.9703
     3.5797   3.7161   3.8627   4.0030   4.3274   4.4356   4.6077   4.7935
     4.9718   5.1445   5.2576   5.4073   5.5301   5.7669   5.8920   7.0513
     8.3961   9.0528   9.1469   9.2518   9.2776   9.6618   9.7818   9.9994
    10.0774  10.2440  10.3344  10.4705  10.6354  10.6883

     occupation numbers 
     1.0000   1.0000   1.0000   1.0000   1.0000   1.0000   1.0000   1.0000
     1.0000   1.0000   1.0000   1.0000   1.0000   1.0000   1.0000   1.0000
     1.0000   1.0000   1.0000   1.0000   1.0000   1.0000   1.0000   1.0000
     1.0000   1.0000   1.0000   1.0000   1.0000   1.0000   1.0000   1.0000
     1.0000   1.0000   1.0000   1.0000   1.0000   1.0000   1.0000   1.0000
     1.0000   1.0000   1.0000   1.0000   1.0000   1.0000   1.0000   1.0000
     1.0000   1.0000   1.0000   1.0000   1.0000   1.0000   1.0000   1.0000
     1.0000   1.0000   1.0000   1.0000   1.0000   1.0000   1.0000   1.0000
     1.0000   1.0000   1.0000   1.0000   1.0000   1.0000   1.0000   1.0000
     0.0000   0.0000   0.0000   0.0000   0.0000   0.0000   0.0000   0.0000
     0.0000   0.0000   0.0000   0.0000   0.0000   0.0000

          k =-0.3535 0.3538-0.3537 (  8026 PWs)   bands (ev):

   -17.1111 -17.0994 -17.0827 -17.0707 -17.0687 -17.0646 -17.0610 -17.0603
   -17.0581 -17.0538 -17.0518 -17.0448 -17.0410 -17.0380 -17.0328 -17.0299
   -17.0297 -17.0227 -17.0217 -17.0216 -17.0202 -17.0190 -17.0108 -16.9963
   -16.9933 -16.9779 -16.9748 -16.9642 -16.9616 -16.9556 -16.9533 -16.9530
   -16.9413 -16.9397 -16.9384 -16.9373 -16.9337 -16.9320 -16.9182 -16.9167
    -4.3902  -4.3096  -2.8412  -2.7004  -2.5709  -2.5534  -2.3760  -2.2160
     0.1195   0.3666   0.5722   0.6624   0.7063   0.9166   2.8473   3.0102
     3.4114   3.5207   3.5796   3.6332   3.7497   3.9371   4.9233   4.9673
     5.0092   5.1287   5.1597   5.2673   6.2408   6.4554   6.6804   6.9727
     8.5791   8.6114   8.6347   8.6701   8.7215   8.8077   9.0256   9.0889
    10.4842  10.7625  11.0624  11.3570  11.4804  11.5540

     occupation numbers 
     1.0000   1.0000   1.0000   1.0000   1.0000   1.0000   1.0000   1.0000
     1.0000   1.0000   1.0000   1.0000   1.0000   1.0000   1.0000   1.0000
     1.0000   1.0000   1.0000   1.0000   1.0000   1.0000   1.0000   1.0000
     1.0000   1.0000   1.0000   1.0000   1.0000   1.0000   1.0000   1.0000
     1.0000   1.0000   1.0000   1.0000   1.0000   1.0000   1.0000   1.0000
     1.0000   1.0000   1.0000   1.0000   1.0000   1.0000   1.0000   1.0000
     1.0000   1.0000   1.0000   1.0000   1.0000   1.0000   1.0000   1.0000
     1.0000   1.0000   1.0000   1.0000   1.0000   1.0000   1.0000   1.0000
     1.0000   1.0000   1.0000   1.0000   1.0000   1.0000   1.0000   1.0000
     0.0000   0.0000   0.0000   0.0000   0.0000   0.0000   0.0000   0.0000
     0.0000   0.0000   0.0000   0.0000   0.0000   0.0000

          k =-0.1768 0.5305-0.5304 (  8010 PWs)   bands (ev):

   -17.1111 -17.0993 -17.0827 -17.0704 -17.0687 -17.0644 -17.0615 -17.0601
   -17.0575 -17.0541 -17.0515 -17.0450 -17.0411 -17.0375 -17.0329 -17.0298
   -17.0295 -17.0232 -17.0219 -17.0211 -17.0197 -17.0191 -17.0107 -16.9962
   -16.9934 -16.9779 -16.9749 -16.9641 -16.9616 -16.9556 -16.9534 -16.9530
   -16.9412 -16.9397 -16.9384 -16.9372 -16.9337 -16.9319 -16.9181 -16.9167
    -4.4127  -3.9281  -3.4221  -3.1006  -2.9136  -2.4079  -1.9306  -1.7389
    -0.1791   0.0223   0.4496   0.9643   1.1650   1.9490   2.2957   3.0346
     3.1720   3.2250   3.6311   3.7875   3.9305   4.1981   4.3807   4.5257
     4.9005   5.0779   5.2942   5.3901   5.5366   5.9492   6.1361   6.5651
     8.5439   8.9644   9.2865   9.5069   9.5688   9.7266   9.9642  10.1424
    10.2718  10.4429  10.7784  10.9889  11.0948  11.2302

     occupation numbers 
     1.0000   1.0000   1.0000   1.0000   1.0000   1.0000   1.0000   1.0000
     1.0000   1.0000   1.0000   1.0000   1.0000   1.0000   1.0000   1.0000
     1.0000   1.0000   1.0000   1.0000   1.0000   1.0000   1.0000   1.0000
     1.0000   1.0000   1.0000   1.0000   1.0000   1.0000   1.0000   1.0000
     1.0000   1.0000   1.0000   1.0000   1.0000   1.0000   1.0000   1.0000
     1.0000   1.0000   1.0000   1.0000   1.0000   1.0000   1.0000   1.0000
     1.0000   1.0000   1.0000   1.0000   1.0000   1.0000   1.0000   1.0000
     1.0000   1.0000   1.0000   1.0000   1.0000   1.0000   1.0000   1.0000
     1.0000   1.0000   1.0000   1.0000   1.0000   1.0000   1.0000   1.0000
     0.0000   0.0000   0.0000   0.0000   0.0000   0.0000   0.0000   0.0000
     0.0000   0.0000   0.0000   0.0000   0.0000   0.0000

          k =-0.7069 0.0004-0.0002 (  7992 PWs)   bands (ev):

   -17.1109 -17.0992 -17.0826 -17.0701 -17.0686 -17.0641 -17.0619 -17.0596
   -17.0568 -17.0543 -17.0512 -17.0449 -17.0410 -17.0369 -17.0329 -17.0297
   -17.0292 -17.0234 -17.0219 -17.0207 -17.0195 -17.0189 -17.0104 -16.9960
   -16.9935 -16.9778 -16.9749 -16.9640 -16.9615 -16.9555 -16.9533 -16.9529
   -16.9411 -16.9397 -16.9382 -16.9370 -16.9336 -16.9317 -16.9179 -16.9166
    -4.1764  -3.9943  -3.3532  -3.2224  -3.0783  -3.0165  -1.4427  -1.3522
    -0.4632  -0.3765   1.2774   1.3684   1.4196   1.4851   3.1202   3.2292
     3.2697   3.3390   3.4435   3.5029   3.5261   3.5578   3.5841   3.6333
     5.2723   5.3246   5.4522   5.4750   5.8582   5.9451   5.9667   6.2090
     8.2962   8.3535   9.4552   9.4845   9.4978   9.6662  10.2460  10.4108
    11.4426  11.5442  11.6133  11.6707  11.7691  11.8941

     occupation numbers 
     1.0000   1.0000   1.0000   1.0000   1.0000   1.0000   1.0000   1.0000
     1.0000   1.0000   1.0000   1.0000   1.0000   1.0000   1.0000   1.0000
     1.0000   1.0000   1.0000   1.0000   1.0000   1.0000   1.0000   1.0000
     1.0000   1.0000   1.0000   1.0000   1.0000   1.0000   1.0000   1.0000
     1.0000   1.0000   1.0000   1.0000   1.0000   1.0000   1.0000   1.0000
     1.0000   1.0000   1.0000   1.0000   1.0000   1.0000   1.0000   1.0000
     1.0000   1.0000   1.0000   1.0000   1.0000   1.0000   1.0000   1.0000
     1.0000   1.0000   1.0000   1.0000   1.0000   1.0000   1.0000   1.0000
     1.0000   1.0000   1.0000   1.0000   1.0000   1.0000   1.0000   1.0000
     0.0000   0.0000   0.0000   0.0000   0.0000   0.0000   0.0000   0.0000
     0.0000   0.0000   0.0000   0.0000   0.0000   0.0000

          k =-0.1768 0.1768 0.1768 (  7996 PWs)   bands (ev):

   -17.1114 -17.1006 -17.0829 -17.0704 -17.0687 -17.0645 -17.0629 -17.0598
   -17.0577 -17.0545 -17.0521 -17.0451 -17.0418 -17.0374 -17.0326 -17.0299
   -17.0296 -17.0238 -17.0222 -17.0205 -17.0199 -17.0189 -17.0105 -16.9961
   -16.9935 -16.9778 -16.9754 -16.9652 -16.9607 -16.9573 -16.9533 -16.9518
   -16.9413 -16.9398 -16.9386 -16.9371 -16.9336 -16.9317 -16.9181 -16.9166
    -4.9279  -3.5684  -2.9140  -2.8379  -2.7290  -2.0689  -2.0195  -1.8773
    -0.2133  -0.1178   0.0385   0.2017   0.4114   0.4837   1.1961   3.7599
     3.8430   3.9122   4.3967   4.5112   4.5421   4.8499   4.9316   5.0845
     5.4488   5.5289   5.6877   5.7606   6.0423   6.2880   6.9394   7.2459
     7.9765   8.0766   8.1675   8.3370   8.9776   9.0455   9.1210   9.2161
     9.2943   9.4214   9.4838  10.1525  10.3405  10.6375

     occupation numbers 
     1.0000   1.0000   1.0000   1.0000   1.0000   1.0000   1.0000   1.0000
     1.0000   1.0000   1.0000   1.0000   1.0000   1.0000   1.0000   1.0000
     1.0000   1.0000   1.0000   1.0000   1.0000   1.0000   1.0000   1.0000
     1.0000   1.0000   1.0000   1.0000   1.0000   1.0000   1.0000   1.0000
     1.0000   1.0000   1.0000   1.0000   1.0000   1.0000   1.0000   1.0000
     1.0000   1.0000   1.0000   1.0000   1.0000   1.0000   1.0000   1.0000
     1.0000   1.0000   1.0000   1.0000   1.0000   1.0000   1.0000   1.0000
     1.0000   1.0000   1.0000   1.0000   1.0000   1.0000   1.0000   1.0000
     1.0000   1.0000   1.0000   1.0000   1.0000   1.0000   1.0000   0.9963
     0.0085   0.0010   0.0001   0.0000   0.0000   0.0000   0.0000   0.0000
     0.0000   0.0000   0.0000   0.0000   0.0000   0.0000

          k =-0.0001 0.3535 0.0001 (  7977 PWs)   bands (ev):

   -17.1112 -17.1006 -17.0827 -17.0704 -17.0685 -17.0645 -17.0622 -17.0601
   -17.0578 -17.0541 -17.0522 -17.0449 -17.0413 -17.0376 -17.0325 -17.0299
   -17.0294 -17.0233 -17.0217 -17.0208 -17.0200 -17.0192 -17.0108 -16.9962
   -16.9933 -16.9780 -16.9753 -16.9651 -16.9607 -16.9572 -16.9532 -16.9519
   -16.9413 -16.9397 -16.9385 -16.9371 -16.9335 -16.9317 -16.9181 -16.9166
    -4.8614  -3.2869  -3.1039  -2.9949  -2.9069  -2.7715  -1.5207  -1.4023
    -0.6306  -0.4433   0.3833   0.5941   0.7194   0.8642   1.1308   3.7446
     3.8005   3.8503   3.8829   4.4426   4.5412   4.6490   4.7037   4.7905
     4.9162   5.4662   5.7511   5.9559   6.1402   6.2270   6.4723   6.7445
     7.8188   8.7488   8.9577   9.0259   9.0988   9.1660   9.2443   9.3548
     9.3839   9.4265   9.6389  10.5925  10.6960  10.8340

     occupation numbers 
     1.0000   1.0000   1.0000   1.0000   1.0000   1.0000   1.0000   1.0000
     1.0000   1.0000   1.0000   1.0000   1.0000   1.0000   1.0000   1.0000
     1.0000   1.0000   1.0000   1.0000   1.0000   1.0000   1.0000   1.0000
     1.0000   1.0000   1.0000   1.0000   1.0000   1.0000   1.0000   1.0000
     1.0000   1.0000   1.0000   1.0000   1.0000   1.0000   1.0000   1.0000
     1.0000   1.0000   1.0000   1.0000   1.0000   1.0000   1.0000   1.0000
     1.0000   1.0000   1.0000   1.0000   1.0000   1.0000   1.0000   1.0000
     1.0000   1.0000   1.0000   1.0000   1.0000   1.0000   1.0000   1.0000
     1.0000   1.0000   1.0000   1.0000   1.0000   1.0000   1.0000   1.0000
     0.0978   0.0000   0.0000   0.0000   0.0000   0.0000   0.0000   0.0000
     0.0000   0.0000   0.0000   0.0000   0.0000   0.0000

          k =-0.5302-0.1766 0.5303 (  8008 PWs)   bands (ev):

   -17.1110 -17.1004 -17.0825 -17.0701 -17.0684 -17.0644 -17.0614 -17.0594
   -17.0576 -17.0543 -17.0524 -17.0446 -17.0407 -17.0378 -17.0324 -17.0298
   -17.0294 -17.0225 -17.0219 -17.0214 -17.0200 -17.0194 -17.0106 -16.9962
   -16.9932 -16.9780 -16.9754 -16.9651 -16.9606 -16.9572 -16.9531 -16.9519
   -16.9413 -16.9397 -16.9385 -16.9372 -16.9336 -16.9317 -16.9181 -16.9166
    -4.4282  -3.9516  -3.4132  -3.0278  -2.8945  -2.4194  -1.8751  -1.7957
    -0.2018  -0.0397   0.4768   0.7940   1.0665   1.9057   2.4545   3.1666
     3.2730   3.3388   3.6884   3.8493   3.9998   4.2196   4.2959   4.6883
     4.7840   4.9481   5.3233   5.3660   5.5624   5.8194   6.1268   6.4530
     8.4287   8.8812   9.2117   9.4251   9.5829   9.6720   9.9599  10.1132
    10.2231  10.5225  10.7836  10.9832  11.0883  11.2588

     occupation numbers 
     1.0000   1.0000   1.0000   1.0000   1.0000   1.0000   1.0000   1.0000
     1.0000   1.0000   1.0000   1.0000   1.0000   1.0000   1.0000   1.0000
     1.0000   1.0000   1.0000   1.0000   1.0000   1.0000   1.0000   1.0000
     1.0000   1.0000   1.0000   1.0000   1.0000   1.0000   1.0000   1.0000
     1.0000   1.0000   1.0000   1.0000   1.0000   1.0000   1.0000   1.0000
     1.0000   1.0000   1.0000   1.0000   1.0000   1.0000   1.0000   1.0000
     1.0000   1.0000   1.0000   1.0000   1.0000   1.0000   1.0000   1.0000
     1.0000   1.0000   1.0000   1.0000   1.0000   1.0000   1.0000   1.0000
     1.0000   1.0000   1.0000   1.0000   1.0000   1.0000   1.0000   1.0000
     0.0000   0.0000   0.0000   0.0000   0.0000   0.0000   0.0000   0.0000
     0.0000   0.0000   0.0000   0.0000   0.0000   0.0000

          k =-0.3535 0.0001 0.3536 (  8024 PWs)   bands (ev):

   -17.1112 -17.1004 -17.0827 -17.0701 -17.0686 -17.0642 -17.0622 -17.0591
   -17.0574 -17.0547 -17.0522 -17.0448 -17.0412 -17.0375 -17.0325 -17.0297
   -17.0295 -17.0234 -17.0221 -17.0212 -17.0198 -17.0191 -17.0102 -16.9960
   -16.9935 -16.9780 -16.9754 -16.9652 -16.9607 -16.9572 -16.9532 -16.9518
   -16.9413 -16.9398 -16.9385 -16.9372 -16.9338 -16.9316 -16.9181 -16.9166
    -4.6158  -3.7616  -3.5407  -2.7115  -2.5880  -2.3723  -2.2846  -1.7618
    -0.1473  -0.0065   0.0985   0.6292   0.9481   1.6603   1.8463   3.0284
     3.7300   3.8400   3.8943   3.9656   4.4514   4.5132   4.6272   4.6891
     5.0044   5.0450   5.2969   5.4664   5.5014   5.6330   5.8194   6.8874
     8.2795   8.9922   9.1003   9.1902   9.3360   9.6801   9.8527   9.9923
    10.1523  10.1975  10.3597  10.5078  10.5230  10.6015

     occupation numbers 
     1.0000   1.0000   1.0000   1.0000   1.0000   1.0000   1.0000   1.0000
     1.0000   1.0000   1.0000   1.0000   1.0000   1.0000   1.0000   1.0000
     1.0000   1.0000   1.0000   1.0000   1.0000   1.0000   1.0000   1.0000
     1.0000   1.0000   1.0000   1.0000   1.0000   1.0000   1.0000   1.0000
     1.0000   1.0000   1.0000   1.0000   1.0000   1.0000   1.0000   1.0000
     1.0000   1.0000   1.0000   1.0000   1.0000   1.0000   1.0000   1.0000
     1.0000   1.0000   1.0000   1.0000   1.0000   1.0000   1.0000   1.0000
     1.0000   1.0000   1.0000   1.0000   1.0000   1.0000   1.0000   1.0000
     1.0000   1.0000   1.0000   1.0000   1.0000   1.0000   1.0000   1.0000
     0.0000   0.0000   0.0000   0.0000   0.0000   0.0000   0.0000   0.0000
     0.0000   0.0000   0.0000   0.0000   0.0000   0.0000

          k =-0.0001-0.0001 0.3537 (  7976 PWs)   bands (ev):

   -17.1113 -17.1000 -17.0829 -17.0707 -17.0686 -17.0643 -17.0623 -17.0599
   -17.0577 -17.0544 -17.0522 -17.0450 -17.0414 -17.0376 -17.0325 -17.0300
   -17.0296 -17.0233 -17.0220 -17.0207 -17.0199 -17.0190 -17.0106 -16.9961
   -16.9933 -16.9784 -16.9750 -16.9648 -16.9611 -16.9566 -16.9532 -16.9523
   -16.9413 -16.9396 -16.9386 -16.9371 -16.9337 -16.9318 -16.9180 -16.9165
    -4.8593  -3.2625  -3.1275  -3.0199  -2.8888  -2.7827  -1.4834  -1.4480
    -0.5547  -0.4529   0.4456   0.5410   0.6658   0.8198   1.1812   3.6768
     3.7638   3.8498   3.9297   4.4654   4.5568   4.5961   4.7093   4.8147
     4.8833   5.4987   5.9017   5.9754   6.0448   6.2354   6.5609   6.6215
     7.8437   8.7261   8.9242   9.0609   9.1378   9.2228   9.2477   9.2903
     9.3528   9.4998   9.5432  10.5773  10.7727  10.8125

     occupation numbers 
     1.0000   1.0000   1.0000   1.0000   1.0000   1.0000   1.0000   1.0000
     1.0000   1.0000   1.0000   1.0000   1.0000   1.0000   1.0000   1.0000
     1.0000   1.0000   1.0000   1.0000   1.0000   1.0000   1.0000   1.0000
     1.0000   1.0000   1.0000   1.0000   1.0000   1.0000   1.0000   1.0000
     1.0000   1.0000   1.0000   1.0000   1.0000   1.0000   1.0000   1.0000
     1.0000   1.0000   1.0000   1.0000   1.0000   1.0000   1.0000   1.0000
     1.0000   1.0000   1.0000   1.0000   1.0000   1.0000   1.0000   1.0000
     1.0000   1.0000   1.0000   1.0000   1.0000   1.0000   1.0000   1.0000
     1.0000   1.0000   1.0000   1.0000   1.0000   1.0000   1.0000   1.0000
     0.0712   0.0000   0.0000   0.0000   0.0000   0.0000   0.0000   0.0000
     0.0000   0.0000   0.0000   0.0000   0.0000   0.0000

          k = 0.1766 0.1766 0.1770 (  7994 PWs)   bands (ev):

   -17.1113 -17.1001 -17.0830 -17.0709 -17.0687 -17.0645 -17.0629 -17.0604
   -17.0576 -17.0540 -17.0520 -17.0451 -17.0416 -17.0372 -17.0327 -17.0302
   -17.0295 -17.0237 -17.0221 -17.0202 -17.0200 -17.0190 -17.0109 -16.9963
   -16.9936 -16.9783 -16.9749 -16.9648 -16.9611 -16.9566 -16.9532 -16.9523
   -16.9414 -16.9397 -16.9386 -16.9371 -16.9337 -16.9318 -16.9180 -16.9166
    -4.9233  -3.4999  -3.0043  -2.8310  -2.7665  -2.1514  -2.0090  -1.8669
    -0.2188   0.0244   0.1486   0.3229   0.4646   0.5516   0.9415   3.6398
     3.7132   3.7998   4.4797   4.5421   4.5721   4.6888   4.7694   4.8706
     5.3278   5.7039   5.7722   5.8354   6.1582   6.3423   7.1042   7.3259
     8.1241   8.1370   8.2953   8.4904   8.9952   9.0519   9.1338   9.2025
     9.2651   9.3014   9.4875  10.1694  10.3212  10.7867

     occupation numbers 
     1.0000   1.0000   1.0000   1.0000   1.0000   1.0000   1.0000   1.0000
     1.0000   1.0000   1.0000   1.0000   1.0000   1.0000   1.0000   1.0000
     1.0000   1.0000   1.0000   1.0000   1.0000   1.0000   1.0000   1.0000
     1.0000   1.0000   1.0000   1.0000   1.0000   1.0000   1.0000   1.0000
     1.0000   1.0000   1.0000   1.0000   1.0000   1.0000   1.0000   1.0000
     1.0000   1.0000   1.0000   1.0000   1.0000   1.0000   1.0000   1.0000
     1.0000   1.0000   1.0000   1.0000   1.0000   1.0000   1.0000   1.0000
     1.0000   1.0000   1.0000   1.0000   1.0000   1.0000   1.0000   1.0000
     1.0000   1.0000   1.0000   1.0000   1.0000   1.0000   0.9999   0.9831
     0.0003   0.0002   0.0000   0.0000   0.0000   0.0000   0.0000   0.0000
     0.0000   0.0000   0.0000   0.0000   0.0000   0.0000

          k =-0.3535-0.3535 0.7071 (  8024 PWs)   bands (ev):

   -17.1111 -17.1000 -17.0827 -17.0705 -17.0685 -17.0644 -17.0621 -17.0598
   -17.0573 -17.0542 -17.0521 -17.0448 -17.0411 -17.0372 -17.0327 -17.0300
   -17.0294 -17.0233 -17.0218 -17.0208 -17.0198 -17.0194 -17.0107 -16.9962
   -16.9934 -16.9784 -16.9750 -16.9647 -16.9610 -16.9567 -16.9531 -16.9523
   -16.9414 -16.9398 -16.9384 -16.9371 -16.9337 -16.9319 -16.9179 -16.9167
    -4.6077  -3.7062  -3.5709  -2.7948  -2.5636  -2.4084  -2.3631  -1.6664
    -0.3053   0.0990   0.3125   0.7785   1.0360   1.5118   1.8186   2.9703
     3.6015   3.6631   3.8236   3.9251   4.2785   4.4388   4.5209   4.8123
     4.9589   5.1531   5.2414   5.4332   5.6279   5.7561   5.9267   7.1290
     8.4481   9.0397   9.1505   9.2631   9.4137   9.7014   9.8384   9.9246
    10.0559  10.1765  10.3802  10.4538  10.6337  10.7639

     occupation numbers 
     1.0000   1.0000   1.0000   1.0000   1.0000   1.0000   1.0000   1.0000
     1.0000   1.0000   1.0000   1.0000   1.0000   1.0000   1.0000   1.0000
     1.0000   1.0000   1.0000   1.0000   1.0000   1.0000   1.0000   1.0000
     1.0000   1.0000   1.0000   1.0000   1.0000   1.0000   1.0000   1.0000
     1.0000   1.0000   1.0000   1.0000   1.0000   1.0000   1.0000   1.0000
     1.0000   1.0000   1.0000   1.0000   1.0000   1.0000   1.0000   1.0000
     1.0000   1.0000   1.0000   1.0000   1.0000   1.0000   1.0000   1.0000
     1.0000   1.0000   1.0000   1.0000   1.0000   1.0000   1.0000   1.0000
     1.0000   1.0000   1.0000   1.0000   1.0000   1.0000   1.0000   0.9998
     0.0000   0.0000   0.0000   0.0000   0.0000   0.0000   0.0000   0.0000
     0.0000   0.0000   0.0000   0.0000   0.0000   0.0000

          k =-0.1768-0.1768 0.5304 (  8007 PWs)   bands (ev):

   -17.1111 -17.0999 -17.0827 -17.0704 -17.0685 -17.0642 -17.0615 -17.0592
   -17.0575 -17.0547 -17.0522 -17.0447 -17.0408 -17.0378 -17.0325 -17.0298
   -17.0295 -17.0224 -17.0220 -17.0217 -17.0197 -17.0192 -17.0103 -16.9961
   -16.9932 -16.9785 -16.9750 -16.9648 -16.9611 -16.9566 -16.9531 -16.9523
   -16.9413 -16.9397 -16.9385 -16.9371 -16.9338 -16.9318 -16.9179 -16.9165
    -4.4255  -3.9423  -3.3963  -3.1005  -2.9181  -2.3235  -1.8855  -1.8120
    -0.1718   0.0142   0.2436   0.9506   1.2062   1.7806   2.3749   3.1568
     3.2214   3.3062   3.7301   3.9244   4.0836   4.2141   4.3312   4.6766
     4.8026   5.0472   5.2117   5.2855   5.4096   5.8519   6.0805   6.6355
     8.5573   9.0151   9.2671   9.4011   9.4893   9.6472   9.9757  10.0779
    10.1251  10.5971  10.6562  10.7311  10.9500  11.2035

     occupation numbers 
     1.0000   1.0000   1.0000   1.0000   1.0000   1.0000   1.0000   1.0000
     1.0000   1.0000   1.0000   1.0000   1.0000   1.0000   1.0000   1.0000
     1.0000   1.0000   1.0000   1.0000   1.0000   1.0000   1.0000   1.0000
     1.0000   1.0000   1.0000   1.0000   1.0000   1.0000   1.0000   1.0000
     1.0000   1.0000   1.0000   1.0000   1.0000   1.0000   1.0000   1.0000
     1.0000   1.0000   1.0000   1.0000   1.0000   1.0000   1.0000   1.0000
     1.0000   1.0000   1.0000   1.0000   1.0000   1.0000   1.0000   1.0000
     1.0000   1.0000   1.0000   1.0000   1.0000   1.0000   1.0000   1.0000
     1.0000   1.0000   1.0000   1.0000   1.0000   1.0000   1.0000   1.0000
     0.0000   0.0000   0.0000   0.0000   0.0000   0.0000   0.0000   0.0000
     0.0000   0.0000   0.0000   0.0000   0.0000   0.0000

          k =-0.5303 0.5306-0.1768 (  8001 PWs)   bands (ev):

   -17.1110 -17.0993 -17.0826 -17.0706 -17.0685 -17.0643 -17.0613 -17.0598
   -17.0579 -17.0542 -17.0519 -17.0448 -17.0409 -17.0380 -17.0325 -17.0300
   -17.0295 -17.0225 -17.0218 -17.0217 -17.0199 -17.0191 -17.0106 -16.9961
   -16.9932 -16.9781 -16.9748 -16.9640 -16.9617 -16.9556 -16.9532 -16.9531
   -16.9413 -16.9396 -16.9383 -16.9372 -16.9339 -16.9320 -16.9181 -16.9166
    -4.4087  -3.9308  -3.4291  -3.0804  -2.9436  -2.3858  -1.9431  -1.7313
    -0.2087   0.0909   0.3927   0.9971   1.1497   1.9625   2.2832   3.0035
     3.1574   3.2703   3.5454   3.8653   3.9521   4.2111   4.3509   4.5725
     4.8774   5.0677   5.3286   5.3739   5.5039   5.9087   6.1877   6.5466
     8.5414   8.9795   9.3188   9.4768   9.6019   9.7247   9.9333  10.1388
    10.2731  10.4484  10.7368  11.0034  11.0619  11.2118

     occupation numbers 
     1.0000   1.0000   1.0000   1.0000   1.0000   1.0000   1.0000   1.0000
     1.0000   1.0000   1.0000   1.0000   1.0000   1.0000   1.0000   1.0000
     1.0000   1.0000   1.0000   1.0000   1.0000   1.0000   1.0000   1.0000
     1.0000   1.0000   1.0000   1.0000   1.0000   1.0000   1.0000   1.0000
     1.0000   1.0000   1.0000   1.0000   1.0000   1.0000   1.0000   1.0000
     1.0000   1.0000   1.0000   1.0000   1.0000   1.0000   1.0000   1.0000
     1.0000   1.0000   1.0000   1.0000   1.0000   1.0000   1.0000   1.0000
     1.0000   1.0000   1.0000   1.0000   1.0000   1.0000   1.0000   1.0000
     1.0000   1.0000   1.0000   1.0000   1.0000   1.0000   1.0000   1.0000
     0.0000   0.0000   0.0000   0.0000   0.0000   0.0000   0.0000   0.0000
     0.0000   0.0000   0.0000   0.0000   0.0000   0.0000

          k =-0.3536 0.7073-0.3535 (  8024 PWs)   bands (ev):

   -17.1110 -17.0994 -17.0828 -17.0707 -17.0686 -17.0644 -17.0619 -17.0604
   -17.0576 -17.0538 -17.0517 -17.0449 -17.0411 -17.0375 -17.0326 -17.0301
   -17.0295 -17.0233 -17.0219 -17.0208 -17.0198 -17.0193 -17.0110 -16.9963
   -16.9935 -16.9781 -16.9747 -16.9640 -16.9617 -16.9556 -16.9532 -16.9530
   -16.9412 -16.9397 -16.9384 -16.9372 -16.9340 -16.9319 -16.9181 -16.9167
    -4.5965  -3.7259  -3.5203  -2.8051  -2.6496  -2.5362  -2.2952  -1.5502
    -0.4096   0.1889   0.3542   0.9462   1.1040   1.5305   1.7019   2.8617
     3.4599   3.5875   3.8290   3.9683   4.1399   4.2580   4.5077   4.8592
     5.1334   5.1825   5.2380   5.4125   5.5605   5.8584   5.9508   7.3142
     8.5502   9.0948   9.2113   9.3627   9.4246   9.7512   9.7941   9.9130
     9.9594  10.1739  10.2958  10.5728  10.7072  10.7586

     occupation numbers 
     1.0000   1.0000   1.0000   1.0000   1.0000   1.0000   1.0000   1.0000
     1.0000   1.0000   1.0000   1.0000   1.0000   1.0000   1.0000   1.0000
     1.0000   1.0000   1.0000   1.0000   1.0000   1.0000   1.0000   1.0000
     1.0000   1.0000   1.0000   1.0000   1.0000   1.0000   1.0000   1.0000
     1.0000   1.0000   1.0000   1.0000   1.0000   1.0000   1.0000   1.0000
     1.0000   1.0000   1.0000   1.0000   1.0000   1.0000   1.0000   1.0000
     1.0000   1.0000   1.0000   1.0000   1.0000   1.0000   1.0000   1.0000
     1.0000   1.0000   1.0000   1.0000   1.0000   1.0000   1.0000   1.0000
     1.0000   1.0000   1.0000   1.0000   1.0000   1.0000   1.0000   0.9862
     0.0000   0.0000   0.0000   0.0000   0.0000   0.0000   0.0000   0.0000
     0.0000   0.0000   0.0000   0.0000   0.0000   0.0000

          k =-0.8837 0.1772 0.1766 (  8008 PWs)   bands (ev):

   -17.1110 -17.0994 -17.0827 -17.0705 -17.0685 -17.0643 -17.0624 -17.0602
   -17.0570 -17.0540 -17.0514 -17.0450 -17.0412 -17.0369 -17.0327 -17.0300
   -17.0294 -17.0236 -17.0221 -17.0205 -17.0198 -17.0191 -17.0108 -16.9962
   -16.9936 -16.9781 -16.9748 -16.9640 -16.9617 -16.9556 -16.9533 -16.9530
   -16.9412 -16.9397 -16.9383 -16.9372 -16.9338 -16.9320 -16.9181 -16.9166
    -4.4101  -3.9262  -3.4163  -3.0600  -2.9782  -2.4028  -1.8873  -1.8146
    -0.0896  -0.0190   0.4379   1.0581   1.2137   1.9949   2.1862   3.0230
     3.1261   3.1875   3.4912   3.8126   3.9269   4.2282   4.3801   4.5253
     4.9067   5.0687   5.3058   5.3853   5.4744   5.9766   6.1806   6.6392
     8.5874   9.0366   9.3248   9.5391   9.6552   9.8205   9.9215  10.1429
    10.1833  10.4984  10.8155  10.8726  11.0178  11.3039

     occupation numbers 
     1.0000   1.0000   1.0000   1.0000   1.0000   1.0000   1.0000   1.0000
     1.0000   1.0000   1.0000   1.0000   1.0000   1.0000   1.0000   1.0000
     1.0000   1.0000   1.0000   1.0000   1.0000   1.0000   1.0000   1.0000
     1.0000   1.0000   1.0000   1.0000   1.0000   1.0000   1.0000   1.0000
     1.0000   1.0000   1.0000   1.0000   1.0000   1.0000   1.0000   1.0000
     1.0000   1.0000   1.0000   1.0000   1.0000   1.0000   1.0000   1.0000
     1.0000   1.0000   1.0000   1.0000   1.0000   1.0000   1.0000   1.0000
     1.0000   1.0000   1.0000   1.0000   1.0000   1.0000   1.0000   1.0000
     1.0000   1.0000   1.0000   1.0000   1.0000   1.0000   1.0000   1.0000
     0.0000   0.0000   0.0000   0.0000   0.0000   0.0000   0.0000   0.0000
     0.0000   0.0000   0.0000   0.0000   0.0000   0.0000

          k =-0.7070 0.3539-0.0001 (  8004 PWs)   bands (ev):

   -17.1111 -17.0993 -17.0828 -17.0705 -17.0684 -17.0642 -17.0619 -17.0596
   -17.0573 -17.0545 -17.0517 -17.0449 -17.0411 -17.0374 -17.0326 -17.0299
   -17.0295 -17.0231 -17.0220 -17.0211 -17.0197 -17.0191 -17.0105 -16.9961
   -16.9933 -16.9782 -16.9749 -16.9641 -16.9618 -16.9556 -16.9533 -16.9531
   -16.9413 -16.9397 -16.9383 -16.9372 -16.9338 -16.9320 -16.9180 -16.9166
    -3.9724  -3.8935  -3.7973  -3.7339  -2.3680  -2.2068  -2.1463  -1.9586
     0.0842   0.2778   0.3813   0.4782   2.3866   2.5005   2.5777   2.6388
     2.9710   3.0556   3.0664   3.1720   4.3372   4.3770   4.5144   4.5759
     4.6316   4.7417   4.8027   4.8759   5.6943   5.8584   5.9471   6.0076
     9.4641   9.5761   9.6375   9.8513   9.9718  10.0674  10.1007  10.1765
    10.6457  10.7079  10.7656  10.8236  11.6021  11.6159

     occupation numbers 
     1.0000   1.0000   1.0000   1.0000   1.0000   1.0000   1.0000   1.0000
     1.0000   1.0000   1.0000   1.0000   1.0000   1.0000   1.0000   1.0000
     1.0000   1.0000   1.0000   1.0000   1.0000   1.0000   1.0000   1.0000
     1.0000   1.0000   1.0000   1.0000   1.0000   1.0000   1.0000   1.0000
     1.0000   1.0000   1.0000   1.0000   1.0000   1.0000   1.0000   1.0000
     1.0000   1.0000   1.0000   1.0000   1.0000   1.0000   1.0000   1.0000
     1.0000   1.0000   1.0000   1.0000   1.0000   1.0000   1.0000   1.0000
     1.0000   1.0000   1.0000   1.0000   1.0000   1.0000   1.0000   1.0000
     1.0000   1.0000   1.0000   1.0000   1.0000   1.0000   1.0000   1.0000
     0.0000   0.0000   0.0000   0.0000   0.0000   0.0000   0.0000   0.0000
     0.0000   0.0000   0.0000   0.0000   0.0000   0.0000

          k =-0.3535 0.3537 0.0000 (  8024 PWs)   bands (ev):

   -17.1111 -17.1000 -17.0826 -17.0702 -17.0685 -17.0644 -17.0619 -17.0599
   -17.0577 -17.0543 -17.0518 -17.0449 -17.0413 -17.0377 -17.0325 -17.0299
   -17.0295 -17.0234 -17.0219 -17.0211 -17.0199 -17.0190 -17.0106 -16.9962
   -16.9934 -16.9776 -16.9751 -16.9646 -16.9610 -16.9566 -16.9533 -16.9523
   -16.9412 -16.9398 -16.9383 -16.9372 -16.9337 -16.9319 -16.9181 -16.9167
    -4.6081  -3.6958  -3.5911  -2.7532  -2.6256  -2.4765  -2.2316  -1.6605
    -0.2868  -0.0694   0.3704   0.8490   0.8916   1.6226   1.8054   2.9763
     3.5746   3.6973   3.9084   3.9854   4.2767   4.4138   4.5790   4.7794
     4.9705   5.1526   5.3567   5.4052   5.5054   5.7044   5.9129   7.0718
     8.3973   9.0519   9.1391   9.2960   9.3209   9.6724   9.8516   9.9525
    10.0599  10.2102  10.3306  10.5219  10.5504  10.6559

     occupation numbers 
     1.0000   1.0000   1.0000   1.0000   1.0000   1.0000   1.0000   1.0000
     1.0000   1.0000   1.0000   1.0000   1.0000   1.0000   1.0000   1.0000
     1.0000   1.0000   1.0000   1.0000   1.0000   1.0000   1.0000   1.0000
     1.0000   1.0000   1.0000   1.0000   1.0000   1.0000   1.0000   1.0000
     1.0000   1.0000   1.0000   1.0000   1.0000   1.0000   1.0000   1.0000
     1.0000   1.0000   1.0000   1.0000   1.0000   1.0000   1.0000   1.0000
     1.0000   1.0000   1.0000   1.0000   1.0000   1.0000   1.0000   1.0000
     1.0000   1.0000   1.0000   1.0000   1.0000   1.0000   1.0000   1.0000
     1.0000   1.0000   1.0000   1.0000   1.0000   1.0000   1.0000   0.9999
     0.0000   0.0000   0.0000   0.0000   0.0000   0.0000   0.0000   0.0000
     0.0000   0.0000   0.0000   0.0000   0.0000   0.0000

          k =-0.1769 0.5304-0.1767 (  8010 PWs)   bands (ev):

   -17.1110 -17.1000 -17.0824 -17.0704 -17.0685 -17.0644 -17.0612 -17.0601
   -17.0579 -17.0539 -17.0520 -17.0446 -17.0408 -17.0380 -17.0324 -17.0300
   -17.0295 -17.0226 -17.0217 -17.0214 -17.0201 -17.0193 -17.0108 -16.9963
   -16.9933 -16.9777 -16.9751 -16.9646 -16.9611 -16.9566 -16.9531 -16.9524
   -16.9413 -16.9397 -16.9383 -16.9373 -16.9337 -16.9318 -16.9182 -16.9166
    -4.4201  -3.9102  -3.4153  -3.1417  -2.9315  -2.3080  -1.9275  -1.7941
    -0.1102  -0.0053   0.2027   1.1414   1.3302   1.8584   2.1812   3.0693
     3.1628   3.2528   3.6482   3.8368   4.0128   4.2855   4.3343   4.5334
     4.8157   5.0627   5.1765   5.3265   5.5151   5.8735   6.1074   6.7783
     8.6105   9.1768   9.3220   9.4577   9.5582   9.6669   9.9636  10.0483
    10.2619  10.3479  10.6692  10.7905  10.8596  11.3413

     occupation numbers 
     1.0000   1.0000   1.0000   1.0000   1.0000   1.0000   1.0000   1.0000
     1.0000   1.0000   1.0000   1.0000   1.0000   1.0000   1.0000   1.0000
     1.0000   1.0000   1.0000   1.0000   1.0000   1.0000   1.0000   1.0000
     1.0000   1.0000   1.0000   1.0000   1.0000   1.0000   1.0000   1.0000
     1.0000   1.0000   1.0000   1.0000   1.0000   1.0000   1.0000   1.0000
     1.0000   1.0000   1.0000   1.0000   1.0000   1.0000   1.0000   1.0000
     1.0000   1.0000   1.0000   1.0000   1.0000   1.0000   1.0000   1.0000
     1.0000   1.0000   1.0000   1.0000   1.0000   1.0000   1.0000   1.0000
     1.0000   1.0000   1.0000   1.0000   1.0000   1.0000   1.0000   1.0000
     0.0000   0.0000   0.0000   0.0000   0.0000   0.0000   0.0000   0.0000
     0.0000   0.0000   0.0000   0.0000   0.0000   0.0000

          k =-0.7069 0.0003 0.3534 (  8004 PWs)   bands (ev):

   -17.1110 -17.1000 -17.0825 -17.0701 -17.0684 -17.0643 -17.0618 -17.0598
   -17.0574 -17.0541 -17.0517 -17.0448 -17.0410 -17.0374 -17.0325 -17.0299
   -17.0294 -17.0232 -17.0218 -17.0211 -17.0197 -17.0194 -17.0107 -16.9962
   -16.9934 -16.9778 -16.9752 -16.9646 -16.9610 -16.9566 -16.9532 -16.9524
   -16.9413 -16.9397 -16.9383 -16.9373 -16.9337 -16.9318 -16.9182 -16.9166
    -4.0037  -3.9191  -3.7567  -3.7039  -2.4066  -2.2389  -2.0270  -2.0067
     0.0310   0.1544   0.3931   0.6221   2.3386   2.5027   2.6002   2.7340
     2.9865   3.0367   3.0990   3.1164   4.3450   4.3948   4.4799   4.5931
     4.6671   4.7280   4.7659   4.8588   5.6380   5.7480   5.9221   6.1807
     9.4100   9.5880   9.6949   9.7942   9.9497  10.0179  10.1197  10.2352
    10.6679  10.7037  10.7843  10.7963  11.5058  11.6242

     occupation numbers 
     1.0000   1.0000   1.0000   1.0000   1.0000   1.0000   1.0000   1.0000
     1.0000   1.0000   1.0000   1.0000   1.0000   1.0000   1.0000   1.0000
     1.0000   1.0000   1.0000   1.0000   1.0000   1.0000   1.0000   1.0000
     1.0000   1.0000   1.0000   1.0000   1.0000   1.0000   1.0000   1.0000
     1.0000   1.0000   1.0000   1.0000   1.0000   1.0000   1.0000   1.0000
     1.0000   1.0000   1.0000   1.0000   1.0000   1.0000   1.0000   1.0000
     1.0000   1.0000   1.0000   1.0000   1.0000   1.0000   1.0000   1.0000
     1.0000   1.0000   1.0000   1.0000   1.0000   1.0000   1.0000   1.0000
     1.0000   1.0000   1.0000   1.0000   1.0000   1.0000   1.0000   1.0000
     0.0000   0.0000   0.0000   0.0000   0.0000   0.0000   0.0000   0.0000
     0.0000   0.0000   0.0000   0.0000   0.0000   0.0000

          k =-0.5302 0.1770 0.1767 (  8010 PWs)   bands (ev):

   -17.1111 -17.0999 -17.0826 -17.0700 -17.0685 -17.0643 -17.0624 -17.0594
   -17.0572 -17.0546 -17.0515 -17.0450 -17.0414 -17.0372 -17.0326 -17.0298
   -17.0294 -17.0237 -17.0222 -17.0207 -17.0198 -17.0189 -17.0104 -16.9961
   -16.9935 -16.9776 -16.9753 -16.9646 -16.9610 -16.9566 -16.9533 -16.9523
   -16.9412 -16.9397 -16.9383 -16.9373 -16.9338 -16.9318 -16.9181 -16.9166
    -4.4262  -3.9431  -3.3923  -3.0382  -2.9863  -2.3337  -1.8813  -1.8019
    -0.1529  -0.0537   0.2617   1.0330   1.1620   1.8199   2.3614   3.1448
     3.1893   3.3501   3.7701   3.8582   4.0673   4.1756   4.3417   4.6738
     4.8102   5.0338   5.2353   5.3015   5.3946   5.8263   6.0707   6.6743
     8.5700   9.0315   9.3025   9.4396   9.4900   9.6317   9.8883  10.0621
    10.2625  10.4452  10.6322  10.8243  10.8749  11.3040

     occupation numbers 
     1.0000   1.0000   1.0000   1.0000   1.0000   1.0000   1.0000   1.0000
     1.0000   1.0000   1.0000   1.0000   1.0000   1.0000   1.0000   1.0000
     1.0000   1.0000   1.0000   1.0000   1.0000   1.0000   1.0000   1.0000
     1.0000   1.0000   1.0000   1.0000   1.0000   1.0000   1.0000   1.0000
     1.0000   1.0000   1.0000   1.0000   1.0000   1.0000   1.0000   1.0000
     1.0000   1.0000   1.0000   1.0000   1.0000   1.0000   1.0000   1.0000
     1.0000   1.0000   1.0000   1.0000   1.0000   1.0000   1.0000   1.0000
     1.0000   1.0000   1.0000   1.0000   1.0000   1.0000   1.0000   1.0000
     1.0000   1.0000   1.0000   1.0000   1.0000   1.0000   1.0000   1.0000
     0.0000   0.0000   0.0000   0.0000   0.0000   0.0000   0.0000   0.0000
     0.0000   0.0000   0.0000   0.0000   0.0000   0.0000

          k = 0.3536-0.3535-0.3537 (  8026 PWs)   bands (ev):

   -17.1111 -17.1004 -17.0825 -17.0699 -17.0685 -17.0642 -17.0628 -17.0591
   -17.0575 -17.0548 -17.0518 -17.0450 -17.0417 -17.0374 -17.0322 -17.0299
   -17.0295 -17.0239 -17.0223 -17.0209 -17.0199 -17.0189 -17.0102 -16.9961
   -16.9936 -16.9773 -16.9756 -16.9649 -16.9605 -16.9572 -16.9532 -16.9517
   -16.9413 -16.9399 -16.9382 -16.9376 -16.9339 -16.9318 -16.9182 -16.9167
    -4.4066  -4.3305  -2.7353  -2.6384  -2.5775  -2.4989  -2.4235  -2.2577
     0.1071   0.2249   0.3880   0.6231   0.6849   0.8504   3.0413   3.1611
     3.5367   3.6166   3.7496   3.8334   3.8945   3.9817   4.8245   4.9251
     4.9616   5.0223   5.0570   5.1362   6.2610   6.3507   6.7031   6.8540
     8.4333   8.5203   8.6047   8.6603   8.6837   8.7358   8.8769   9.0165
    10.5386  10.6501  11.0912  11.2115  11.5040  11.5344

     occupation numbers 
     1.0000   1.0000   1.0000   1.0000   1.0000   1.0000   1.0000   1.0000
     1.0000   1.0000   1.0000   1.0000   1.0000   1.0000   1.0000   1.0000
     1.0000   1.0000   1.0000   1.0000   1.0000   1.0000   1.0000   1.0000
     1.0000   1.0000   1.0000   1.0000   1.0000   1.0000   1.0000   1.0000
     1.0000   1.0000   1.0000   1.0000   1.0000   1.0000   1.0000   1.0000
     1.0000   1.0000   1.0000   1.0000   1.0000   1.0000   1.0000   1.0000
     1.0000   1.0000   1.0000   1.0000   1.0000   1.0000   1.0000   1.0000
     1.0000   1.0000   1.0000   1.0000   1.0000   1.0000   1.0000   1.0000
     1.0000   1.0000   1.0000   1.0000   1.0000   1.0000   1.0000   1.0000
     0.0000   0.0000   0.0000   0.0000   0.0000   0.0000   0.0000   0.0000
     0.0000   0.0000   0.0000   0.0000   0.0000   0.0000

          k = 0.5303-0.1768-0.5304 (  8010 PWs)   bands (ev):

   -17.1110 -17.1004 -17.0823 -17.0700 -17.0683 -17.0643 -17.0621 -17.0595
   -17.0576 -17.0544 -17.0520 -17.0447 -17.0412 -17.0376 -17.0322 -17.0299
   -17.0294 -17.0233 -17.0219 -17.0211 -17.0199 -17.0192 -17.0106 -16.9962
   -16.9934 -16.9774 -16.9755 -16.9649 -16.9606 -16.9572 -16.9531 -16.9518
   -16.9412 -16.9398 -16.9382 -16.9375 -16.9337 -16.9318 -16.9182 -16.9167
    -4.4239  -3.9602  -3.3988  -3.0310  -2.8973  -2.4410  -1.8838  -1.7677
    -0.1946  -0.0809   0.5013   0.7934   1.0917   1.9260   2.4557   3.1794
     3.2660   3.3242   3.7072   3.8318   3.9478   4.2216   4.2722   4.6618
     4.8380   4.9542   5.2114   5.4273   5.5422   5.9231   6.0933   6.4480
     8.4524   8.8336   9.2908   9.4752   9.5347   9.6730   9.9390  10.0784
    10.2645  10.4675  10.8570  10.9824  11.0540  11.2223

     occupation numbers 
     1.0000   1.0000   1.0000   1.0000   1.0000   1.0000   1.0000   1.0000
     1.0000   1.0000   1.0000   1.0000   1.0000   1.0000   1.0000   1.0000
     1.0000   1.0000   1.0000   1.0000   1.0000   1.0000   1.0000   1.0000
     1.0000   1.0000   1.0000   1.0000   1.0000   1.0000   1.0000   1.0000
     1.0000   1.0000   1.0000   1.0000   1.0000   1.0000   1.0000   1.0000
     1.0000   1.0000   1.0000   1.0000   1.0000   1.0000   1.0000   1.0000
     1.0000   1.0000   1.0000   1.0000   1.0000   1.0000   1.0000   1.0000
     1.0000   1.0000   1.0000   1.0000   1.0000   1.0000   1.0000   1.0000
     1.0000   1.0000   1.0000   1.0000   1.0000   1.0000   1.0000   1.0000
     0.0000   0.0000   0.0000   0.0000   0.0000   0.0000   0.0000   0.0000
     0.0000   0.0000   0.0000   0.0000   0.0000   0.0000

          k = 0.0002-0.7069-0.0002 (  7992 PWs)   bands (ev):

   -17.1108 -17.1003 -17.0820 -17.0700 -17.0680 -17.0643 -17.0613 -17.0597
   -17.0576 -17.0538 -17.0521 -17.0443 -17.0405 -17.0379 -17.0320 -17.0298
   -17.0292 -17.0224 -17.0217 -17.0211 -17.0200 -17.0195 -17.0107 -16.9962
   -16.9931 -16.9774 -16.9752 -16.9648 -16.9605 -16.9571 -16.9529 -16.9518
   -16.9411 -16.9396 -16.9380 -16.9373 -16.9335 -16.9317 -16.9181 -16.9165
    -4.1976  -3.9734  -3.3724  -3.2053  -3.0890  -2.9850  -1.4627  -1.3333
    -0.5412  -0.3382   1.0739   1.3412   1.4829   1.6921   3.1636   3.2955
     3.3612   3.3942   3.4166   3.4541   3.4710   3.5285   3.5810   3.6157
     5.0628   5.3574   5.3926   5.5731   5.7436   5.9834   6.0593   6.2242
     8.2244   8.3972   9.2552   9.5260   9.6015   9.7241  10.2617  10.4423
    11.4152  11.5010  11.6438  11.7347  11.7589  11.8374

     occupation numbers 
     1.0000   1.0000   1.0000   1.0000   1.0000   1.0000   1.0000   1.0000
     1.0000   1.0000   1.0000   1.0000   1.0000   1.0000   1.0000   1.0000
     1.0000   1.0000   1.0000   1.0000   1.0000   1.0000   1.0000   1.0000
     1.0000   1.0000   1.0000   1.0000   1.0000   1.0000   1.0000   1.0000
     1.0000   1.0000   1.0000   1.0000   1.0000   1.0000   1.0000   1.0000
     1.0000   1.0000   1.0000   1.0000   1.0000   1.0000   1.0000   1.0000
     1.0000   1.0000   1.0000   1.0000   1.0000   1.0000   1.0000   1.0000
     1.0000   1.0000   1.0000   1.0000   1.0000   1.0000   1.0000   1.0000
     1.0000   1.0000   1.0000   1.0000   1.0000   1.0000   1.0000   1.0000
     0.0000   0.0000   0.0000   0.0000   0.0000   0.0000   0.0000   0.0000
     0.0000   0.0000   0.0000   0.0000   0.0000   0.0000

          k = 0.5304-0.5304-0.1768 (  8003 PWs)   bands (ev):

   -17.1111 -17.0998 -17.0826 -17.0703 -17.0684 -17.0641 -17.0622 -17.0593
   -17.0575 -17.0547 -17.0519 -17.0449 -17.0413 -17.0376 -17.0322 -17.0299
   -17.0295 -17.0233 -17.0221 -17.0211 -17.0198 -17.0190 -17.0103 -16.9961
   -16.9933 -16.9779 -16.9751 -16.9645 -16.9611 -16.9566 -16.9531 -16.9522
   -16.9413 -16.9397 -16.9382 -16.9373 -16.9339 -16.9319 -16.9181 -16.9166
    -4.4211  -3.9499  -3.3961  -3.0636  -2.9502  -2.3288  -1.9496  -1.7445
    -0.2471   0.0918   0.2756   0.9498   1.1294   1.8523   2.3966   3.1655
     3.2343   3.2967   3.7858   3.8469   3.9822   4.1834   4.3208   4.6638
     4.8084   5.0592   5.2791   5.3195   5.4262   5.8739   6.0793   6.5721
     8.5348   8.9828   9.2963   9.4095   9.5477   9.6216   9.8713  10.0367
    10.2653  10.5626  10.7280  10.7799  10.9749  11.2492

     occupation numbers 
     1.0000   1.0000   1.0000   1.0000   1.0000   1.0000   1.0000   1.0000
     1.0000   1.0000   1.0000   1.0000   1.0000   1.0000   1.0000   1.0000
     1.0000   1.0000   1.0000   1.0000   1.0000   1.0000   1.0000   1.0000
     1.0000   1.0000   1.0000   1.0000   1.0000   1.0000   1.0000   1.0000
     1.0000   1.0000   1.0000   1.0000   1.0000   1.0000   1.0000   1.0000
     1.0000   1.0000   1.0000   1.0000   1.0000   1.0000   1.0000   1.0000
     1.0000   1.0000   1.0000   1.0000   1.0000   1.0000   1.0000   1.0000
     1.0000   1.0000   1.0000   1.0000   1.0000   1.0000   1.0000   1.0000
     1.0000   1.0000   1.0000   1.0000   1.0000   1.0000   1.0000   1.0000
     0.0000   0.0000   0.0000   0.0000   0.0000   0.0000   0.0000   0.0000
     0.0000   0.0000   0.0000   0.0000   0.0000   0.0000

          k = 0.7071-0.3537-0.3536 (  8024 PWs)   bands (ev):

   -17.1111 -17.0999 -17.0826 -17.0704 -17.0684 -17.0643 -17.0628 -17.0598
   -17.0573 -17.0542 -17.0518 -17.0450 -17.0414 -17.0371 -17.0323 -17.0299
   -17.0296 -17.0236 -17.0222 -17.0205 -17.0199 -17.0191 -17.0107 -16.9963
   -16.9935 -16.9779 -16.9749 -16.9646 -16.9611 -16.9566 -16.9531 -16.9522
   -16.9413 -16.9397 -16.9382 -16.9374 -16.9339 -16.9320 -16.9182 -16.9166
    -4.6047  -3.7374  -3.5384  -2.7179  -2.6365  -2.4828  -2.3285  -1.6201
    -0.3557   0.0853   0.3321   0.9002   0.9478   1.5318   1.8311   2.9555
     3.6074   3.6612   3.8354   3.9325   4.1995   4.4373   4.4921   4.7676
     5.0105   5.1871   5.2886   5.4692   5.5691   5.7615   5.8659   7.1693
     8.4739   9.0688   9.1353   9.2349   9.4539   9.7101   9.8264   9.9742
    10.0515  10.1360  10.3816  10.4665  10.6605  10.7434

     occupation numbers 
     1.0000   1.0000   1.0000   1.0000   1.0000   1.0000   1.0000   1.0000
     1.0000   1.0000   1.0000   1.0000   1.0000   1.0000   1.0000   1.0000
     1.0000   1.0000   1.0000   1.0000   1.0000   1.0000   1.0000   1.0000
     1.0000   1.0000   1.0000   1.0000   1.0000   1.0000   1.0000   1.0000
     1.0000   1.0000   1.0000   1.0000   1.0000   1.0000   1.0000   1.0000
     1.0000   1.0000   1.0000   1.0000   1.0000   1.0000   1.0000   1.0000
     1.0000   1.0000   1.0000   1.0000   1.0000   1.0000   1.0000   1.0000
     1.0000   1.0000   1.0000   1.0000   1.0000   1.0000   1.0000   1.0000
     1.0000   1.0000   1.0000   1.0000   1.0000   1.0000   1.0000   0.9993
     0.0000   0.0000   0.0000   0.0000   0.0000   0.0000   0.0000   0.0000
     0.0000   0.0000   0.0000   0.0000   0.0000   0.0000

          k = 0.1770-0.8838 0.1766 (  8008 PWs)   bands (ev):

   -17.1109 -17.1000 -17.0824 -17.0705 -17.0682 -17.0643 -17.0622 -17.0601
   -17.0574 -17.0538 -17.0519 -17.0447 -17.0410 -17.0373 -17.0323 -17.0300
   -17.0294 -17.0233 -17.0218 -17.0208 -17.0198 -17.0195 -17.0109 -16.9963
   -16.9934 -16.9780 -16.9749 -16.9645 -16.9611 -16.9566 -16.9530 -16.9523
   -16.9413 -16.9397 -16.9381 -16.9373 -16.9338 -16.9319 -16.9181 -16.9167
    -4.4163  -3.9139  -3.3971  -3.1537  -2.9296  -2.3280  -1.9658  -1.7780
    -0.1737   0.0719   0.2923   1.1677   1.3265   1.8979   2.1429   3.0684
     3.1012   3.2293   3.5703   3.8050   3.9328   4.3042   4.3789   4.4444
     4.8737   5.0689   5.1428   5.3598   5.5040   6.0031   6.1476   6.7429
     8.6427   9.0708   9.4109   9.5154   9.6258   9.7530   9.9564  10.0767
    10.1857  10.4985  10.6950  10.8001  10.9478  11.3148

     occupation numbers 
     1.0000   1.0000   1.0000   1.0000   1.0000   1.0000   1.0000   1.0000
     1.0000   1.0000   1.0000   1.0000   1.0000   1.0000   1.0000   1.0000
     1.0000   1.0000   1.0000   1.0000   1.0000   1.0000   1.0000   1.0000
     1.0000   1.0000   1.0000   1.0000   1.0000   1.0000   1.0000   1.0000
     1.0000   1.0000   1.0000   1.0000   1.0000   1.0000   1.0000   1.0000
     1.0000   1.0000   1.0000   1.0000   1.0000   1.0000   1.0000   1.0000
     1.0000   1.0000   1.0000   1.0000   1.0000   1.0000   1.0000   1.0000
     1.0000   1.0000   1.0000   1.0000   1.0000   1.0000   1.0000   1.0000
     1.0000   1.0000   1.0000   1.0000   1.0000   1.0000   1.0000   1.0000
     0.0000   0.0000   0.0000   0.0000   0.0000   0.0000   0.0000   0.0000
     0.0000   0.0000   0.0000   0.0000   0.0000   0.0000

          k = 0.3537-0.7071-0.0001 (  8004 PWs)   bands (ev):

   -17.1110 -17.1000 -17.0824 -17.0704 -17.0683 -17.0642 -17.0615 -17.0596
   -17.0577 -17.0543 -17.0522 -17.0446 -17.0408 -17.0380 -17.0322 -17.0300
   -17.0294 -17.0225 -17.0218 -17.0216 -17.0199 -17.0194 -17.0107 -16.9961
   -16.9933 -16.9781 -16.9750 -16.9646 -16.9611 -16.9566 -16.9530 -16.9523
   -16.9413 -16.9397 -16.9382 -16.9373 -16.9339 -16.9319 -16.9181 -16.9166
    -3.9968  -3.8750  -3.8236  -3.6945  -2.3536  -2.2959  -2.0569  -1.9662
    -0.0295   0.2883   0.3906   0.5475   2.3400   2.4771   2.6058   2.7425
     3.0129   3.0327   3.0685   3.1534   4.3455   4.4110   4.4502   4.5787
     4.5975   4.7068   4.8178   4.9050   5.6025   5.8419   5.9743   6.0742
     9.4390   9.5317   9.6990   9.7785   9.9560  10.0470  10.1177  10.2264
    10.6645  10.7302  10.7575  10.8009  11.5429  11.6149

     occupation numbers 
     1.0000   1.0000   1.0000   1.0000   1.0000   1.0000   1.0000   1.0000
     1.0000   1.0000   1.0000   1.0000   1.0000   1.0000   1.0000   1.0000
     1.0000   1.0000   1.0000   1.0000   1.0000   1.0000   1.0000   1.0000
     1.0000   1.0000   1.0000   1.0000   1.0000   1.0000   1.0000   1.0000
     1.0000   1.0000   1.0000   1.0000   1.0000   1.0000   1.0000   1.0000
     1.0000   1.0000   1.0000   1.0000   1.0000   1.0000   1.0000   1.0000
     1.0000   1.0000   1.0000   1.0000   1.0000   1.0000   1.0000   1.0000
     1.0000   1.0000   1.0000   1.0000   1.0000   1.0000   1.0000   1.0000
     1.0000   1.0000   1.0000   1.0000   1.0000   1.0000   1.0000   1.0000
     0.0000   0.0000   0.0000   0.0000   0.0000   0.0000   0.0000   0.0000
     0.0000   0.0000   0.0000   0.0000   0.0000   0.0000

          k = 0.0001 0.0003-0.7073 (  7992 PWs)   bands (ev):

   -17.1109 -17.0992 -17.0825 -17.0705 -17.0683 -17.0639 -17.0615 -17.0593
   -17.0575 -17.0545 -17.0518 -17.0446 -17.0407 -17.0378 -17.0321 -17.0298
   -17.0294 -17.0223 -17.0219 -17.0217 -17.0196 -17.0190 -17.0103 -16.9960
   -16.9931 -16.9783 -16.9746 -16.9638 -16.9616 -16.9555 -16.9531 -16.9529
   -16.9412 -16.9394 -16.9382 -16.9371 -16.9339 -16.9319 -16.9179 -16.9164
    -4.1396  -4.0295  -3.3493  -3.2656  -3.1187  -2.9331  -1.4315  -1.3863
    -0.4486  -0.3558   1.2476   1.3513   1.4018   1.5306   3.1129   3.1863
     3.3221   3.3889   3.4079   3.4391   3.5071   3.5706   3.6176   3.6525
     5.3077   5.3378   5.4050   5.5180   5.8814   5.9136   5.9806   6.1526
     8.2996   8.3607   9.4311   9.5038   9.5385   9.6053  10.3055  10.3163
    11.4127  11.5846  11.6320  11.6933  11.8388  11.8504

     occupation numbers 
     1.0000   1.0000   1.0000   1.0000   1.0000   1.0000   1.0000   1.0000
     1.0000   1.0000   1.0000   1.0000   1.0000   1.0000   1.0000   1.0000
     1.0000   1.0000   1.0000   1.0000   1.0000   1.0000   1.0000   1.0000
     1.0000   1.0000   1.0000   1.0000   1.0000   1.0000   1.0000   1.0000
     1.0000   1.0000   1.0000   1.0000   1.0000   1.0000   1.0000   1.0000
     1.0000   1.0000   1.0000   1.0000   1.0000   1.0000   1.0000   1.0000
     1.0000   1.0000   1.0000   1.0000   1.0000   1.0000   1.0000   1.0000
     1.0000   1.0000   1.0000   1.0000   1.0000   1.0000   1.0000   1.0000
     1.0000   1.0000   1.0000   1.0000   1.0000   1.0000   1.0000   1.0000
     0.0000   0.0000   0.0000   0.0000   0.0000   0.0000   0.0000   0.0000
     0.0000   0.0000   0.0000   0.0000   0.0000   0.0000

          k = 0.1768 0.1770-0.8840 (  8008 PWs)   bands (ev):

   -17.1110 -17.0994 -17.0826 -17.0707 -17.0683 -17.0642 -17.0623 -17.0600
   -17.0573 -17.0541 -17.0518 -17.0448 -17.0411 -17.0373 -17.0324 -17.0301
   -17.0295 -17.0232 -17.0220 -17.0208 -17.0199 -17.0192 -17.0108 -16.9962
   -16.9934 -16.9784 -16.9746 -16.9639 -16.9617 -16.9556 -16.9532 -16.9530
   -16.9412 -16.9397 -16.9383 -16.9372 -16.9340 -16.9320 -16.9180 -16.9166
    -4.4048  -3.9322  -3.4204  -3.1036  -2.9204  -2.4002  -1.9150  -1.8110
    -0.1038   0.0751   0.4141   0.9599   1.2220   2.0291   2.2077   3.0681
     3.1139   3.1657   3.5843   3.7563   3.8570   4.2020   4.3623   4.4894
     4.9016   5.1175   5.3372   5.4186   5.4967   6.0074   6.1797   6.5747
     8.5861   9.0131   9.3706   9.5611   9.6294   9.7007   9.9105  10.1319
    10.2622  10.4140  10.8406  10.9406  11.1097  11.2787

     occupation numbers 
     1.0000   1.0000   1.0000   1.0000   1.0000   1.0000   1.0000   1.0000
     1.0000   1.0000   1.0000   1.0000   1.0000   1.0000   1.0000   1.0000
     1.0000   1.0000   1.0000   1.0000   1.0000   1.0000   1.0000   1.0000
     1.0000   1.0000   1.0000   1.0000   1.0000   1.0000   1.0000   1.0000
     1.0000   1.0000   1.0000   1.0000   1.0000   1.0000   1.0000   1.0000
     1.0000   1.0000   1.0000   1.0000   1.0000   1.0000   1.0000   1.0000
     1.0000   1.0000   1.0000   1.0000   1.0000   1.0000   1.0000   1.0000
     1.0000   1.0000   1.0000   1.0000   1.0000   1.0000   1.0000   1.0000
     1.0000   1.0000   1.0000   1.0000   1.0000   1.0000   1.0000   1.0000
     0.0000   0.0000   0.0000   0.0000   0.0000   0.0000   0.0000   0.0000
     0.0000   0.0000   0.0000   0.0000   0.0000   0.0000

          k =-0.3533-0.3531-0.3539 (  8026 PWs)   bands (ev):

   -17.1110 -17.0995 -17.0826 -17.0708 -17.0684 -17.0644 -17.0629 -17.0605
   -17.0571 -17.0538 -17.0516 -17.0449 -17.0411 -17.0368 -17.0324 -17.0303
   -17.0295 -17.0236 -17.0222 -17.0203 -17.0199 -17.0193 -17.0111 -16.9964
   -16.9937 -16.9784 -16.9745 -16.9639 -16.9617 -16.9556 -16.9532 -16.9529
   -16.9413 -16.9397 -16.9382 -16.9372 -16.9341 -16.9321 -16.9181 -16.9167
    -4.3728  -4.3209  -2.7569  -2.7392  -2.6095  -2.4835  -2.4378  -2.3097
     0.1914   0.4614   0.5416   0.7295   0.7930   0.9019   2.8632   2.8793
     3.3622   3.4158   3.4741   3.6306   3.6740   3.8633   4.9441   5.0262
     5.0720   5.1336   5.1743   5.1899   6.4008   6.4828   6.7677   6.8648
     8.6036   8.6676   8.7081   8.7263   8.8057   8.9421   8.9762   9.0979
    10.6934  10.7908  11.1011  11.1600  11.4587  11.5808

     occupation numbers 
     1.0000   1.0000   1.0000   1.0000   1.0000   1.0000   1.0000   1.0000
     1.0000   1.0000   1.0000   1.0000   1.0000   1.0000   1.0000   1.0000
     1.0000   1.0000   1.0000   1.0000   1.0000   1.0000   1.0000   1.0000
     1.0000   1.0000   1.0000   1.0000   1.0000   1.0000   1.0000   1.0000
     1.0000   1.0000   1.0000   1.0000   1.0000   1.0000   1.0000   1.0000
     1.0000   1.0000   1.0000   1.0000   1.0000   1.0000   1.0000   1.0000
     1.0000   1.0000   1.0000   1.0000   1.0000   1.0000   1.0000   1.0000
     1.0000   1.0000   1.0000   1.0000   1.0000   1.0000   1.0000   1.0000
     1.0000   1.0000   1.0000   1.0000   1.0000   1.0000   1.0000   1.0000
     0.0000   0.0000   0.0000   0.0000   0.0000   0.0000   0.0000   0.0000
     0.0000   0.0000   0.0000   0.0000   0.0000   0.0000

     the Fermi energy is     7.6320 ev

!    total energy              =   -1781.87548655 Ry
     Harris-Foulkes estimate   =   -1781.87548654 Ry
     estimated scf accuracy    <          9.6E-11 Ry

     The total energy is the sum of the following terms:

     one-electron contribution =   -1182.41124027 Ry
     hartree contribution      =     706.82990649 Ry
     xc contribution           =    -495.20841889 Ry
     ewald contribution        =    -811.08492972 Ry
     smearing contrib. (-TS)   =      -0.00080416 Ry

     convergence has been achieved in  13 iterations

     Forces acting on atoms (Ry/au):

     atom    1 type  1   force =   0.75227630E-02 -0.29539417E-01 -0.13168044E-01
     atom    2 type  2   force =  -0.22781101E-02  0.11300953E-01  0.35682016E-02
     atom    3 type  1   force =   0.17862949E-01 -0.70097947E-01 -0.47210914E-02
     atom    4 type  2   force =  -0.20164181E-01  0.73244650E-01 -0.70288153E-02
     atom    5 type  1   force =   0.22350175E-02  0.34650657E-01  0.36028490E-01
     atom    6 type  2   force =   0.36058317E-02 -0.28164365E-01 -0.50532253E-01
     atom    7 type  1   force =  -0.52337195E-02 -0.27589482E-01  0.58715348E-01
     atom    8 type  2   force =  -0.32056983E-01  0.56239489E-01 -0.20921930E-03
     atom    9 type  1   force =  -0.50863348E-01 -0.48779691E-01 -0.67394724E-01
     atom   10 type  2   force =   0.72287690E-01  0.76507616E-01  0.63290444E-01
     atom   11 type  1   force =  -0.42131928E-01 -0.53655357E-01 -0.22416119E-01
     atom   12 type  2   force =  -0.91428270E-02  0.57828844E-01  0.27982182E-01
     atom   13 type  1   force =  -0.66467707E-01  0.17083504E-02  0.79435160E-02
     atom   14 type  2   force =   0.24157391E-01 -0.18193359E-01  0.24202709E-01
     atom   15 type  1   force =   0.47367166E-01 -0.19389310E-01 -0.20108756E-01
     atom   16 type  2   force =   0.53299996E-01 -0.16071633E-01 -0.36151868E-01
     The non-local contrib.  to forces
     atom    1 type  1   force =   0.70434411E-02 -0.27830421E-01 -0.92575395E-02
     atom    2 type  2   force =  -0.53399708E-02 -0.23257392E-02 -0.12709672E-01
     atom    3 type  1   force =   0.17790199E-01 -0.46534779E-01  0.23592912E-03
     atom    4 type  2   force =  -0.12330877E-01 -0.10397694E-01  0.84793452E-02
     atom    5 type  1   force =   0.54077625E-02  0.35974386E-01  0.38078274E-01
     atom    6 type  2   force =  -0.67175104E-02 -0.10676426E-01 -0.38110000E-01
     atom    7 type  1   force =  -0.11418026E-01 -0.72819576E-02  0.52307140E-01
     atom    8 type  2   force =  -0.14610236E-01  0.31994370E-02  0.10632924E-01
     atom    9 type  1   force =  -0.60444142E-01 -0.38892212E-01 -0.63513631E-01
     atom   10 type  2   force =   0.17595475E-01  0.14110342E-01  0.23948439E-01
     atom   11 type  1   force =  -0.33036647E-01 -0.38786088E-01 -0.22495521E-01
     atom   12 type  2   force =  -0.79274385E-02  0.22484195E-01 -0.31304000E-02
     atom   13 type  1   force =  -0.57796454E-01  0.51546234E-02  0.16873990E-01
     atom   14 type  2   force =   0.28656444E-01 -0.18274664E-01  0.14065265E-01
     atom   15 type  1   force =   0.53501618E-01 -0.14372493E-01 -0.19850643E-01
     atom   16 type  2   force =   0.20243846E-01 -0.40681841E-01 -0.23233217E-01
     The ionic contribution  to forces
     atom    1 type  1   force =   0.22749915E+00 -0.18682309E+00  0.22007474E-01
     atom    2 type  2   force =  -0.42882736E-02 -0.24814457E+00 -0.66105225E-01
     atom    3 type  1   force =   0.19956110E+00 -0.37350906E+00 -0.20841838E+00
     atom    4 type  2   force =  -0.86019513E+00  0.15281748E+01 -0.32719689E+00
     atom    5 type  1   force =   0.10298074E+00  0.34988200E+00  0.61662309E+00
     atom    6 type  2   force =  -0.64320415E+00 -0.11250884E+01 -0.19389010E+00
     atom    7 type  1   force =  -0.27555754E+00  0.23786573E-01  0.61900976E+00
     atom    8 type  2   force =   0.41725421E-01  0.14028676E+01  0.73593178E+00
     atom    9 type  1   force =  -0.67023326E+00 -0.41545154E+00 -0.63639423E+00
     atom   10 type  2   force =   0.87161111E+00  0.12651240E+01  0.63478040E+00
     atom   11 type  1   force =  -0.32922585E+00 -0.30529149E+00 -0.46423241E+00
     atom   12 type  2   force =  -0.36129816E+00  0.19230766E+00 -0.14845746E+00
     atom   13 type  1   force =  -0.74608896E+00 -0.15366389E+00  0.50383819E-01
     atom   14 type  2   force =   0.24988895E+00 -0.44287613E+00  0.39410658E+00
     atom   15 type  1   force =   0.77935121E+00 -0.29696626E+00 -0.96127682E-01
     atom   16 type  2   force =   0.14174737E+01 -0.12143282E+01 -0.93202052E+00
     The local contribution  to forces
     atom    1 type  1   force =  -0.22608460E+00  0.18256674E+00 -0.26585460E-01
     atom    2 type  2   force =   0.81693644E-02  0.26353119E+00  0.82584586E-01
     atom    3 type  1   force =  -0.19767151E+00  0.34553488E+00  0.20322523E+00
     atom    4 type  2   force =   0.85017613E+00 -0.14398351E+01  0.31114276E+00
     atom    5 type  1   force =  -0.10553639E+00 -0.34790680E+00 -0.61493140E+00
     atom    6 type  2   force =   0.65392021E+00  0.11045815E+01  0.17550720E+00
     atom    7 type  1   force =   0.28041805E+00 -0.44638906E-01 -0.60756741E+00
     atom    8 type  2   force =  -0.63286848E-01 -0.13454040E+01 -0.74585732E+00
     atom    9 type  1   force =   0.67397133E+00  0.40182363E+00  0.62649655E+00
     atom   10 type  2   force =  -0.81086513E+00 -0.11956745E+01 -0.59031135E+00
     atom   11 type  1   force =   0.31704330E+00  0.28683941E+00  0.46193260E+00
     atom   12 type  2   force =   0.35954990E+00 -0.15221877E+00  0.18176668E+00
     atom   13 type  1   force =   0.73173798E+00  0.15059130E+00 -0.57864887E-01
     atom   14 type  2   force =  -0.25143981E+00  0.43923121E+00 -0.38146423E+00
     atom   15 type  1   force =  -0.78034201E+00  0.29039081E+00  0.94215388E-01
     atom   16 type  2   force =  -0.13802356E+01  0.12366260E+01  0.91550558E+00
     The core correction contribution to forces
     atom    1 type  1   force =  -0.93476287E-03  0.25469671E-02  0.66640450E-03
     atom    2 type  2   force =  -0.81927686E-03 -0.17603222E-02 -0.20066217E-03
     atom    3 type  1   force =  -0.18172246E-02  0.44100065E-02  0.23620154E-03
     atom    4 type  2   force =   0.21877929E-02 -0.46971103E-02  0.54558692E-03
     atom    5 type  1   force =  -0.61682616E-03 -0.32988185E-02 -0.37410814E-02
     atom    6 type  2   force =  -0.39333695E-03  0.30205913E-02  0.59624328E-02
     atom    7 type  1   force =   0.13235560E-02  0.54370069E-03 -0.50331495E-02
     atom    8 type  2   force =   0.41172906E-02 -0.44226330E-02 -0.91771196E-03
     atom    9 type  1   force =   0.58437843E-02  0.37403747E-02  0.60169553E-02
     atom   10 type  2   force =  -0.60556779E-02 -0.70553687E-02 -0.51282307E-02
     atom   11 type  1   force =   0.30865813E-02  0.35814777E-02  0.23800896E-02
     atom   12 type  2   force =   0.53343783E-03 -0.47431591E-02 -0.21966953E-02
     atom   13 type  1   force =   0.56797251E-02 -0.37403235E-03 -0.14505759E-02
     atom   14 type  2   force =  -0.29504506E-02  0.37295009E-02 -0.25051157E-02
     atom   15 type  1   force =  -0.51436690E-02  0.15576769E-02  0.16540600E-02
     atom   16 type  2   force =  -0.41829327E-02  0.23159721E-02  0.35976022E-02
     The Hubbard contrib.    to forces
     atom    1 type  1   force =   0.00000000E+00  0.00000000E+00  0.00000000E+00
     atom    2 type  2   force =   0.00000000E+00  0.00000000E+00  0.00000000E+00
     atom    3 type  1   force =   0.00000000E+00  0.00000000E+00  0.00000000E+00
     atom    4 type  2   force =   0.00000000E+00  0.00000000E+00  0.00000000E+00
     atom    5 type  1   force =   0.00000000E+00  0.00000000E+00  0.00000000E+00
     atom    6 type  2   force =   0.00000000E+00  0.00000000E+00  0.00000000E+00
     atom    7 type  1   force =   0.00000000E+00  0.00000000E+00  0.00000000E+00
     atom    8 type  2   force =   0.00000000E+00  0.00000000E+00  0.00000000E+00
     atom    9 type  1   force =   0.00000000E+00  0.00000000E+00  0.00000000E+00
     atom   10 type  2   force =   0.00000000E+00  0.00000000E+00  0.00000000E+00
     atom   11 type  1   force =   0.00000000E+00  0.00000000E+00  0.00000000E+00
     atom   12 type  2   force =   0.00000000E+00  0.00000000E+00  0.00000000E+00
     atom   13 type  1   force =   0.00000000E+00  0.00000000E+00  0.00000000E+00
     atom   14 type  2   force =   0.00000000E+00  0.00000000E+00  0.00000000E+00
     atom   15 type  1   force =   0.00000000E+00  0.00000000E+00  0.00000000E+00
     atom   16 type  2   force =   0.00000000E+00  0.00000000E+00  0.00000000E+00
     The SCF correction term to forces
     atom    1 type  1   force =  -0.40176577E-06 -0.16551261E-06  0.11415801E-05
     atom    2 type  2   force =   0.10413417E-06 -0.15238092E-06 -0.76009180E-06
     atom    3 type  1   force =   0.44388628E-06  0.46065259E-06 -0.82777849E-08
     atom    4 type  2   force =  -0.20378042E-05 -0.78556179E-06  0.44665629E-06
     atom    5 type  1   force =  -0.21180345E-06 -0.65718063E-06 -0.32539921E-06
     atom    6 type  2   force =   0.67841595E-06 -0.21960014E-05 -0.17214212E-05
     atom    7 type  1   force =   0.29665333E-06  0.55620312E-06 -0.93055474E-06
     atom    8 type  2   force =  -0.25547898E-05 -0.14391096E-05  0.11716278E-05
     atom    9 type  1   force =  -0.99452055E-06 -0.48657826E-06 -0.30381424E-06
     atom   10 type  2   force =   0.19658010E-05  0.26025424E-05  0.12493355E-05
     atom   11 type  1   force =   0.74356207E-06  0.78211075E-06 -0.82121204E-06
     atom   12 type  2   force =  -0.51417645E-06 -0.16370871E-05  0.11199892E-06
     atom   13 type  1   force =   0.53271345E-07 -0.20983676E-06  0.12341587E-05
     atom   14 type  2   force =   0.23135494E-05 -0.38244998E-05  0.27558145E-06
     atom   15 type  1   force =   0.72618654E-07  0.40281990E-06  0.18564477E-06
     atom   16 type  2   force =   0.10623090E-05 -0.41975331E-05 -0.12399843E-05

     Total force =     0.272009     Total SCF correction =     0.000009


     entering subroutine stress ...

          total   stress  (Ry/bohr**3)                   (kbar)     P=    9.39
   0.0000659746   0.0000123385   0.0001397648          9.71      1.82     20.56
   0.0000123385   0.0000552868   0.0000571330          1.82      8.13      8.40
   0.0001397648   0.0000571330   0.0000701592         20.56      8.40     10.32

     kinetic stress (kbar)   6426.18     -3.22    -17.47
                               -3.22   6427.02     -3.78
                              -17.47     -3.78   6426.77

     local   stress (kbar)   -993.13    -78.60   -724.48
                              -78.60  -1000.41   -232.43
                             -724.48   -232.43  -1045.64

     nonloc. stress (kbar)   2506.96      2.06     16.76
                                2.06   2506.07      4.84
                               16.76      4.84   2506.84

     hartree stress (kbar)  15134.08     16.88    186.49
                               16.88  15143.57     65.52
                              186.49     65.52  15158.90

     exc-cor stress (kbar)  10954.32      0.07      0.55
                                0.07  10954.29      0.15
                                0.55      0.15  10954.31

     corecor stress (kbar) -16631.26     -0.18     -1.52
                               -0.18 -16631.18     -0.47
                               -1.52     -0.47 -16631.25

     ewald   stress (kbar) -17387.45     64.81    560.24
                               64.81 -17391.23    174.57
                              560.24    174.57 -17359.62

     hubbard stress (kbar)      0.00      0.00      0.00
                                0.00      0.00      0.00
                                0.00      0.00      0.00

     london  stress (kbar)      0.00      0.00      0.00
                                0.00      0.00      0.00
                                0.00      0.00      0.00

     XDM     stress (kbar)      0.00      0.00      0.00
                                0.00      0.00      0.00
                                0.00      0.00      0.00

     dft-nl  stress (kbar)      0.00      0.00      0.00
                                0.00      0.00      0.00
                                0.00      0.00      0.00



     Writing output data file SiGe_zns.scf.in.super.222.a.044.save

     init_run     :     52.74s CPU     53.50s WALL (       1 calls)
     electrons    :   2199.89s CPU   2363.34s WALL (       1 calls)
     forces       :     23.93s CPU     20.39s WALL (       1 calls)
     stress       :     59.72s CPU     59.90s WALL (       1 calls)

     Called by init_run:
     wfcinit      :     45.64s CPU     46.24s WALL (       1 calls)
     potinit      :      1.82s CPU      1.85s WALL (       1 calls)

     Called by electrons:
     c_bands      :   1866.01s CPU   2006.10s WALL (      14 calls)
     sum_band     :    305.34s CPU    326.07s WALL (      14 calls)
     v_of_rho     :      2.78s CPU      3.12s WALL (      14 calls)
     v_h          :      0.15s CPU      0.17s WALL (      14 calls)
     v_xc         :      2.93s CPU      3.28s WALL (      16 calls)
     newd         :     23.55s CPU     25.31s WALL (      14 calls)
     mix_rho      :      3.40s CPU      3.93s WALL (      14 calls)

     Called by c_bands:
     init_us_2    :     10.42s CPU     11.59s WALL (    1116 calls)
     cegterg      :   1816.77s CPU   1953.85s WALL (     504 calls)

     Called by sum_band:
     sum_band:bec :      1.02s CPU      0.98s WALL (     504 calls)
     addusdens    :     21.97s CPU     22.52s WALL (      14 calls)

     Called by *egterg:
     h_psi        :   1184.58s CPU   1281.57s WALL (    1936 calls)
     s_psi        :    144.62s CPU    110.82s WALL (    1936 calls)
     g_psi        :      1.77s CPU      1.80s WALL (    1396 calls)
     cdiaghg      :    164.13s CPU    254.53s WALL (    1864 calls)
     cegterg:over :    160.89s CPU    146.74s WALL (    1396 calls)
     cegterg:upda :     73.37s CPU     65.48s WALL (    1396 calls)
     cegterg:last :     39.85s CPU     31.59s WALL (     504 calls)

     Called by h_psi:
     h_psi:vloc   :    868.24s CPU   1022.54s WALL (    1936 calls)
     h_psi:vnl    :    313.64s CPU    256.13s WALL (    1936 calls)
     add_vuspsi   :    143.59s CPU    112.35s WALL (    1936 calls)

     General routines
     calbec       :    247.62s CPU    207.60s WALL (    2512 calls)
     fft          :      4.19s CPU      4.56s WALL (     249 calls)
     ffts         :      1.92s CPU      2.21s WALL (     386 calls)
     fftw         :    938.25s CPU   1105.37s WALL (  260632 calls)
     interpolate  :      0.42s CPU      0.51s WALL (      28 calls)

     Parallel routines
     fft_scatter  :    441.20s CPU    535.89s WALL (  261267 calls)

     PWSCF        : 38m59.09s CPU    41m40.50s WALL


   This run was terminated on:  14:16:52   5Oct2017            

=------------------------------------------------------------------------------=
   JOB DONE.
=------------------------------------------------------------------------------=
