
     Program PWSCF v.5.1 starts on  4Feb2017 at  5:52:54 

     This program is part of the open-source Quantum ESPRESSO suite
     for quantum simulation of materials; please cite
         "P. Giannozzi et al., J. Phys.:Condens. Matter 21 395502 (2009);
          URL http://www.quantum-espresso.org", 
     in publications or presentations arising from this work. More details at
     http://www.quantum-espresso.org/quote

     Parallel version (MPI), running on    16 processors
     R & G space division:  proc/nbgrp/npool/nimage =      16
     Reading input from /tmp/SiGe_zns.scf.in.super.444.c.03.21308/SiGe_zns.scf.in.super.444.c.03.t
Warning: card &IONS ignored
Warning: card   ION_DYNAMICS='BFGS', ignored
Warning: card / ignored
Warning: card &CELL ignored
Warning: card  CELL_DYNAMICS = 'BFGS' ignored
Warning: card / ignored
     Message from routine read_cards :
     DEPRECATED: no units specified in CELL_PARAMETERS card

     Current dimensions of program PWSCF are:
     Max number of different atomic species (ntypx) = 10
     Max number of k-points (npk) =  40000
     Max angular momentum in pseudopotentials (lmaxx) =  3

     Subspace diagonalization in iterative solution of the eigenvalue problem:
     a serial algorithm will be used


     Parallelization info
     --------------------
     sticks:   dense  smooth     PW     G-vecs:    dense   smooth      PW
     Min         756     529    139                54870    32121    4330
     Max         757     530    140                54873    32150    4331
     Sum       12109    8467   2231               877949   514185   69285



     bravais-lattice index     =            0
     lattice parameter (alat)  =    29.615056189  a.u.
     unit-cell volume          =   18376.7085 (a.u.)^3
     number of atoms/cell      =          128
     number of atomic types    =            2
     number of electrons       =      1122.00
     number of Kohn-Sham states=          673
     kinetic-energy cutoff     =      35.0000  Ry
     charge density cutoff     =     200.0000  Ry
     convergence threshold     =      1.0E-09
     mixing beta               =       0.3000
     number of iterations used =            8  local-TF  mixing
     Exchange-correlation      = SLA  PW   PSX  PSC ( 1  4 10  8 0)
     A smooth kinetic-energy cutoff is imposed at      34.5000 Ry
     height of the smooth step-function =             800.0000 Ry
     width of the smooth step-function  =               1.0000 Ry


     celldm(1)=  29.615056  celldm(2)=   0.000000  celldm(3)=   0.000000
     celldm(4)=   0.000000  celldm(5)=   0.000000  celldm(6)=   0.000000

     crystal axes: (cart. coord. in units of alat)
               a(1) = (   0.001621089133   0.708103148128   0.706107147451 )  
               a(2) = (   0.708056364529  -0.000198617564   0.707215068091 )  
               a(3) = (   0.708330434014   0.705574568786  -0.001466390862 )  

     reciprocal axes: (cart. coord. in units 2 pi/alat)
               b(1) = ( -0.705284  0.709507  0.706322 )  
               b(2) = (  0.705647 -0.706933  0.707312 )  
               b(3) = (  0.708010  0.705036 -0.708655 )  


     PseudoPot. # 1 for Si read from file:
     /users/kfg/psuedo/gbrv_1.5/si.pbesol.UPF
     MD5 check sum: ef58ba74faed4df802eb8a9742fc00a8
     Pseudo is Ultrasoft + core correction, Zval =  4.0
     Generated by new atomic code, or converted to UPF format
     Using radial grid of  899 points,  6 beta functions with: 
                l(1) =   0
                l(2) =   0
                l(3) =   1
                l(4) =   1
                l(5) =   2
                l(6) =   2
     Q(r) pseudized with  8 coefficients,  rinner =    0.900   0.900   0.900
                                                       0.900   0.900

     PseudoPot. # 2 for Ge read from file:
     /users/kfg/psuedo/gbrv_1.5/ge.pbesol.UPF
     MD5 check sum: 7bed0412183f5e553a4d27ec7023354d
     Pseudo is Ultrasoft + core correction, Zval = 14.0
     Generated by new atomic code, or converted to UPF format
     Using radial grid of  873 points,  6 beta functions with: 
                l(1) =   0
                l(2) =   0
                l(3) =   1
                l(4) =   1
                l(5) =   2
                l(6) =   2
     Q(r) pseudized with  8 coefficients,  rinner =    1.400   1.400   1.400
                                                       1.400   1.400

     atomic species   valence    mass     pseudopotential
        Si             4.00    28.08550     Si( 1.00)
        Ge            14.00    72.64000     Ge( 1.00)

     No symmetry found


                                    s                        frac. trans.

      isym =  1     identity                                     

 cryst.   s( 1) = (     1          0          0      )
                  (     0          1          0      )
                  (     0          0          1      )

 cart.    s( 1) = (  1.0000000 -0.0000000  0.0000000 )
                  ( -0.0000000  1.0000000  0.0000000 )
                  (  0.0000000 -0.0000000  1.0000000 )


     point group C_1 (1)    
     there are  1 classes
     the character table:

       E    
A      1.00

     the symmetry operations in each class:
     E        1

   Cartesian axes

     site n.     atom                  positions (alat units)
         1           Ge  tau(   1) = (    0.00160553207    0.00573526751    0.00193949128  )
         2           Si  tau(   2) = (    0.08593503808    0.08852177500    0.09076391570  )
         3           Ge  tau(   3) = (    0.17311007772    0.17501731333   -0.00492806672  )
         4           Si  tau(   4) = (    0.27231654546    0.27089983357    0.09232628955  )
         5           Si  tau(   5) = (    0.35148005114    0.34956106823    0.00548541981  )
         6           Ge  tau(   6) = (    0.43719429994    0.44771213874    0.09151438320  )
         7           Si  tau(   7) = (    0.53243924954    0.53017938668    0.00089973742  )
         8           Si  tau(   8) = (    0.62147954477    0.61915440747    0.08782563568  )
         9           Ge  tau(   9) = (    0.17440152183    0.00328504554    0.17700012445  )
        10           Ge  tau(  10) = (    0.27181078028    0.08758842218    0.26598370545  )
        11           Ge  tau(  11) = (    0.34975808956    0.17386007243    0.18272831585  )
        12           Ge  tau(  12) = (    0.44922046938    0.27041669754    0.27133175798  )
        13           Ge  tau(  13) = (    0.52985327278    0.34945106547    0.17960724308  )
        14           Ge  tau(  14) = (    0.61360595757    0.43668607077    0.26322159864  )
        15           Ge  tau(  15) = (    0.70484304590    0.52965084140    0.17351012577  )
        16           Ge  tau(  16) = (    0.79758860165    0.61420158174    0.26988208353  )
        17           Si  tau(  17) = (    0.35245515816   -0.00076902658    0.36018700987  )
        18           Ge  tau(  18) = (    0.43746728551    0.08297896121    0.43712127072  )
        19           Ge  tau(  19) = (    0.53500434582    0.18130334428    0.35370685438  )
        20           Ge  tau(  20) = (    0.61445292204    0.26460119985    0.43572048023  )
        21           Si  tau(  21) = (    0.71076510042    0.34651610336    0.34880937606  )
        22           Ge  tau(  22) = (    0.79275762174    0.44549327824    0.44669487922  )
        23           Ge  tau(  23) = (    0.88978136316    0.52550810933    0.35400785102  )
        24           Ge  tau(  24) = (    0.97774911038    0.61597391895    0.44258839212  )
        25           Si  tau(  25) = (    0.53274584056   -0.00307507089    0.53064515315  )
        26           Si  tau(  26) = (    0.62195177696    0.08201749092    0.61752170392  )
        27           Ge  tau(  27) = (    0.70156379343    0.18079066554    0.53253171144  )
        28           Ge  tau(  28) = (    0.79325750121    0.26900013245    0.62055060764  )
        29           Si  tau(  29) = (    0.88523203553    0.34873485977    0.52887500329  )
        30           Ge  tau(  30) = (    0.97380996229    0.43703295081    0.62365532937  )
        31           Si  tau(  31) = (    1.06494134945    0.52944803394    0.53175156336  )
        32           Si  tau(  32) = (    1.15308340559    0.61120940761    0.61280337760  )
        33           Si  tau(  33) = (   -0.00292124143    0.18191036586    0.17563476613  )
        34           Ge  tau(  34) = (    0.09366488299    0.25911708781    0.26954066687  )
        35           Si  tau(  35) = (    0.18152132951    0.34796203368    0.17938242499  )
        36           Si  tau(  36) = (    0.26607774928    0.44781733326    0.26603066972  )
        37           Ge  tau(  37) = (    0.35352432068    0.52417308195    0.17018260815  )
        38           Si  tau(  38) = (    0.44929439835    0.62334120582    0.27027476530  )
        39           Ge  tau(  39) = (    0.53702130337    0.71086295055    0.17597906358  )
        40           Ge  tau(  40) = (    0.61949831043    0.80020800393    0.25961229878  )
        41           Si  tau(  41) = (    0.17078094433    0.17364160161    0.34833163290  )
        42           Si  tau(  42) = (    0.26968542373    0.26548244452    0.44527453828  )
        43           Si  tau(  43) = (    0.35837371317    0.35246298506    0.35893211302  )
        44           Si  tau(  44) = (    0.44934365040    0.44401812795    0.43666813700  )
        45           Si  tau(  45) = (    0.52935257075    0.52902785498    0.35158331927  )
        46           Si  tau(  46) = (    0.62548401893    0.62403557221    0.44359918308  )
        47           Si  tau(  47) = (    0.70291438374    0.70535299293    0.34959146649  )
        48           Si  tau(  48) = (    0.79796726443    0.79332564571    0.44092423067  )
        49           Si  tau(  49) = (    0.34873839738    0.18059151569    0.53024184589  )
        50           Si  tau(  50) = (    0.44711272471    0.26206245916    0.61223291077  )
        51           Si  tau(  51) = (    0.52483864608    0.34667103214    0.52686467471  )
        52           Si  tau(  52) = (    0.61765019848    0.44168506477    0.62260730591  )
        53           Si  tau(  53) = (    0.70697714318    0.53495581648    0.52281895852  )
        54           Ge  tau(  54) = (    0.80280540885    0.62412775120    0.61505341869  )
        55           Ge  tau(  55) = (    0.89014640826    0.69978756167    0.53427239278  )
        56           Si  tau(  56) = (    0.97537223373    0.78817178337    0.61124262489  )
        57           Ge  tau(  57) = (    0.53281974344    0.18024729485    0.70437566259  )
        58           Si  tau(  58) = (    0.61672365963    0.26703306042    0.79576611373  )
        59           Si  tau(  59) = (    0.71078775694    0.35637907448    0.71203230024  )
        60           Ge  tau(  60) = (    0.79467305844    0.44360373631    0.79242866485  )
        61           Si  tau(  61) = (    0.89221697548    0.53312222517    0.70677358070  )
        62           Ge  tau(  62) = (    0.97752097660    0.61711863840    0.79806237802  )
        63           Si  tau(  63) = (    1.06609386225    0.70191768965    0.71118821134  )
        64           Ge  tau(  64) = (    1.15092358158    0.80074313410    0.78734729134  )
        65           Si  tau(  65) = (    0.00606306764    0.35898311033    0.35914607654  )
        66           Si  tau(  66) = (    0.09578166854    0.44564865347    0.44618308376  )
        67           Ge  tau(  67) = (    0.18073452615    0.52651116719    0.34952196881  )
        68           Si  tau(  68) = (    0.26068987149    0.61280309730    0.43929190209  )
        69           Si  tau(  69) = (    0.34996165450    0.71356189865    0.35011733999  )
        70           Ge  tau(  70) = (    0.44015481954    0.79770282163    0.44257026849  )
        71           Ge  tau(  71) = (    0.53417096610    0.88215570309    0.35277713801  )
        72           Si  tau(  72) = (    0.62441840616    0.97089290664    0.43629456701  )
        73           Si  tau(  73) = (    0.17372894138    0.35017322016    0.53330290566  )
        74           Ge  tau(  74) = (    0.27241635090    0.44373211966    0.62065909209  )
        75           Ge  tau(  75) = (    0.35537524300    0.52563178293    0.52404063744  )
        76           Ge  tau(  76) = (    0.44112909074    0.62371880200    0.61536313781  )
        77           Ge  tau(  77) = (    0.53758182235    0.71315227189    0.53222924209  )
        78           Ge  tau(  78) = (    0.62191691488    0.79914363567    0.62160275512  )
        79           Si  tau(  79) = (    0.71544333848    0.87875980062    0.52445737246  )
        80           Ge  tau(  80) = (    0.79507263803    0.97543228392    0.62142670046  )
        81           Ge  tau(  81) = (    0.34937400274    0.35907827646    0.71156739089  )
        82           Ge  tau(  82) = (    0.44735241600    0.44561177231    0.80052684326  )
        83           Si  tau(  83) = (    0.53847970128    0.53568821968    0.70638452657  )
        84           Si  tau(  84) = (    0.62443493925    0.61427915836    0.80012381799  )
        85           Si  tau(  85) = (    0.71234286727    0.70199611092    0.71122932060  )
        86           Ge  tau(  86) = (    0.79523392898    0.79882699583    0.78962688366  )
        87           Si  tau(  87) = (    0.89092205923    0.88323380097    0.70229276933  )
        88           Si  tau(  88) = (    0.98093916789    0.96569061419    0.78736741955  )
        89           Si  tau(  89) = (    0.52750137098    0.35066744679    0.88384465061  )
        90           Si  tau(  90) = (    0.62628016669    0.44603363454    0.97487121850  )
        91           Ge  tau(  91) = (    0.70431223084    0.52984019805    0.87898955891  )
        92           Si  tau(  92) = (    0.79691795998    0.61283580925    0.97718916597  )
        93           Si  tau(  93) = (    0.88611182649    0.70983717627    0.87606880477  )
        94           Ge  tau(  94) = (    0.97775410934    0.78934368665    0.97690358779  )
        95           Ge  tau(  95) = (    1.05898368084    0.87804452896    0.88841064925  )
        96           Si  tau(  96) = (    1.15281512454    0.96569203729    0.96605125128  )
        97           Ge  tau(  97) = (    0.00767303760    0.52596198691    0.53236901361  )
        98           Si  tau(  98) = (    0.08434172900    0.61609312304    0.61551663284  )
        99           Si  tau(  99) = (    0.17978235915    0.70828665585    0.53470437647  )
       100           Si  tau( 100) = (    0.26139350767    0.80033224813    0.62288378159  )
       101           Ge  tau( 101) = (    0.35763444246    0.89047388306    0.53512712147  )
       102           Ge  tau( 102) = (    0.43981209835    0.97599781311    0.61097358348  )
       103           Ge  tau( 103) = (    0.52945359062    1.05588389487    0.52573111436  )
       104           Ge  tau( 104) = (    0.61914140321    1.14812437325    0.61906532104  )
       105           Si  tau( 105) = (    0.18399233286    0.52676387474    0.71158543424  )
       106           Si  tau( 106) = (    0.26983375092    0.61607249965    0.79600842883  )
       107           Si  tau( 107) = (    0.36143035682    0.71035549692    0.70042933902  )
       108           Ge  tau( 108) = (    0.44644499114    0.79411811744    0.79498774024  )
       109           Ge  tau( 109) = (    0.52971595207    0.88428221129    0.71132032556  )
       110           Ge  tau( 110) = (    0.61715029651    0.97287272929    0.78770901551  )
       111           Ge  tau( 111) = (    0.71227409053    1.06496122018    0.70946233844  )
       112           Si  tau( 112) = (    0.79415929064    1.14878045730    0.78910974664  )
       113           Ge  tau( 113) = (    0.35445308411    0.52652038592    0.87964159201  )
       114           Ge  tau( 114) = (    0.44621310117    0.62494470275    0.96815937254  )
       115           Si  tau( 115) = (    0.53417664447    0.71075153600    0.87904947470  )
       116           Ge  tau( 116) = (    0.62752938873    0.79790778569    0.97232009487  )
       117           Si  tau( 117) = (    0.70920476206    0.89005509360    0.87927087582  )
       118           Ge  tau( 118) = (    0.79134557490    0.97119532487    0.96673243531  )
       119           Si  tau( 119) = (    0.89321622892    1.06536641041    0.88347107652  )
       120           Ge  tau( 120) = (    0.97981489338    1.14585086974    0.97039580734  )
       121           Si  tau( 121) = (    0.53081878654    0.52550384579    1.05614886841  )
       122           Ge  tau( 122) = (    0.62724910649    0.62328477417    1.14253799464  )
       123           Si  tau( 123) = (    0.70507427265    0.70722727081    1.05415242534  )
       124           Si  tau( 124) = (    0.79747475116    0.79534183895    1.15331930402  )
       125           Si  tau( 125) = (    0.88490601924    0.88559586035    1.05898425558  )
       126           Si  tau( 126) = (    0.97613181132    0.97471073355    1.14406016434  )
       127           Si  tau( 127) = (    1.06418674089    1.05599540568    1.05456892878  )
       128           Ge  tau( 128) = (    1.15456210689    1.14953329515    1.14432462502  )

   Crystallographic axes

     site n.     atom                  positions (cryst. coord.)
         1           Ge  tau(   1) = (    0.00430676132   -0.00154968810    0.00380587479  )
         2           Si  tau(   2) = (    0.06630677165    0.06225920815    0.05893368167  )
         3           Ge  tau(   3) = (   -0.00139661953   -0.00505661334    0.24944955142  )
         4           Si  tau(   4) = (    0.06535686576    0.06595475118    0.31836965345  )
         5           Si  tau(   5) = (    0.00399712988    0.00478443971    0.49141742573  )
         6           Ge  tau(   6) = (    0.07394726870    0.05673149001    0.56033923322  )
         7           Si  tau(   7) = (    0.00128043502    0.00154917179    0.75013051449  )
         8           Si  tau(   8) = (    0.06300782123    0.06296450681    0.81430213357  )
         9           Ge  tau(   9) = (    0.00434728778    0.24593792251    0.00036220831  )
        10           Ge  tau(  10) = (    0.05831100082    0.31801675855    0.06570727559  )
        11           Ge  tau(  11) = (    0.00574117584    0.25314423626    0.24071871939  )
        12           Ge  tau(  12) = (    0.06668211782    0.31774074394    0.31642578795  )
        13           Ge  tau(  13) = (    0.00110142209    0.25388919843    0.49423772808  )
        14           Ge  tau(  14) = (    0.06298450644    0.31046112751    0.55578563040  )
        15           Ge  tau(  15) = (    0.00123034917    0.24566844770    0.74950039973  )
        16           Ge  tau(  16) = (    0.06387738021    0.31950737053    0.80648211071  )
        17           Si  tau(  17) = (    0.00528149090    0.50401718627   -0.00624846818  )
        18           Ge  tau(  18) = (    0.05908394696    0.55921801742    0.05846653876  )
        19           Ge  tau(  19) = (    0.00113695310    0.49953598860    0.25595803593  )
        20           Ge  tau(  20) = (    0.06213159112    0.55472182298    0.31281711648  )
        21           Si  tau(  21) = (   -0.00906393978    0.50330262112    0.50035005230  )
        22           Ge  tau(  22) = (    0.07247174099    0.56042571357    0.55881708062  )
        23           Ge  tau(  23) = (   -0.00465342304    0.50676647005    0.74960732565  )
        24           Ge  tau(  24) = (    0.06005685046    0.56754142431    0.81289805945  )
        25           Si  tau(  25) = (   -0.00311241738    0.75343608731   -0.00102258887  )
        26           Si  tau(  26) = (    0.05570865832    0.81767804264    0.06056400230  )
        27           Ge  tau(  27) = (    0.00960946980    0.74391556576    0.24679733670  )
        28           Ge  tau(  28) = (    0.06969428941    0.80851756012    0.31153329814  )
        29           Si  tau(  29) = (   -0.00335409305    0.75220876393    0.49783441897  )
        30           Ge  tau(  30) = (    0.06376686647    0.81933190328    0.55563534028  )
        31           Si  tau(  31) = (    0.00014878573    0.75330259351    0.75044130110  )
        32           Si  tau(  32) = (    0.05324255660    0.81502884832    0.81305377218  )
        33           Si  tau(  33) = (    0.25518172523   -0.00643135433    0.00172073308  )
        34           Ge  tau(  34) = (    0.30816760145    0.07356511656    0.05799139057  )
        35           Si  tau(  35) = (    0.24555915050    0.00898333294    0.24672461013  )
        36           Si  tau(  36) = (    0.31797246225    0.05934661274    0.31558934923  )
        37           Ge  tau(  37) = (    0.24277307181   -0.00071984326    0.49925915436  )
        38           Si  tau(  38) = (    0.31628574916    0.06755114870    0.56605170544  )
        39           Ge  tau(  39) = (    0.24990746089    0.00088689565    0.75669233348  )
        40           Ge  tau(  40) = (    0.31420068917    0.05508033640    0.81881132380  )
        41           Si  tau(  41) = (    0.24878524930    0.24413711345   -0.00350852599  )
        42           Si  tau(  42) = (    0.31266413975    0.31757228475    0.06256894769  )
        43           Si  tau(  43) = (    0.25084139167    0.25759447126    0.24787255163  )
        44           Si  tau(  44) = (    0.30654743199    0.31204737227    0.32174190289  )
        45           Si  tau(  45) = (    0.25033607614    0.24822773999    0.49861971976  )
        46           Si  tau(  46) = (    0.31493758064    0.31398240550    0.56845819005  )
        47           Si  tau(  47) = (    0.25162267913    0.24464216607    0.74723040662  )
        48           Si  tau(  48) = (    0.31151096530    0.31412590133    0.81182934697  )
        49           Si  tau(  49) = (    0.25669294999    0.49346641441   -0.00152437354  )
        50           Si  tau(  50) = (    0.30302741368    0.56328270160    0.06746228323  )
        51           Si  tau(  51) = (    0.24794141459    0.49793520136    0.24264173082  )
        52           Si  tau(  52) = (    0.31752116914    0.56397871318    0.30749314244  )
        53           Si  tau(  53) = (    0.25021377921    0.49049434564    0.50721226125  )
        54           Ge  tau(  54) = (    0.31104298547    0.56031519686    0.57256672830  )
        55           Ge  tau(  55) = (    0.24606646540    0.51132331766    0.74499380210  )
        56           Si  tau(  56) = (    0.30303305052    0.56342287838    0.81310333078  )
        57           Ge  tau(  57) = (    0.24961368440    0.74677315541    0.00516370847  )
        58           Si  tau(  58) = (    0.31656379960    0.80926950689    0.06099138826  )
        59           Si  tau(  59) = (    0.25447042000    0.75325798712    0.24992025938  )
        60           Ge  tau(  60) = (    0.31397969397    0.80765468616    0.31383520716  )
        61           Si  tau(  61) = (    0.24819738815    0.75261782626    0.50671094480  )
        62           Ge  tau(  62) = (    0.31210918073    0.81800212941    0.56163534244  )
        63           Si  tau(  63) = (    0.24844446267    0.75910894235    0.74569603150  )
        64           Ge  tau(  64) = (    0.31252559914    0.80297400481    0.82146137894  )
        65           Si  tau(  65) = (    0.50409770868    0.00452945962    0.00287827194  )
        66           Si  tau(  66) = (    0.56378658522    0.06813467489    0.06582313535  )
        67           Ge  tau(  67) = (    0.49296927436    0.00254747133    0.25148097155  )
        68           Si  tau(  68) = (    0.56120926630    0.06146042193    0.30531323793  )
        69           Si  tau(  69) = (    0.50675035788   -0.00984916799    0.50275113984  )
        70           Ge  tau(  70) = (    0.56813868321    0.05970640538    0.56041403376  )
        71           Ge  tau(  71) = (    0.49832758008    0.00283434228    0.75015308261  )
        72           Si  tau(  72) = (    0.55662737496    0.06285876640    0.81742713027  )
        73           Si  tau(  73) = (    0.50260581958    0.25225360866   -0.00804088074  )
        74           Ge  tau(  74) = (    0.56108546437    0.31754025454    0.06588786940  )
        75           Ge  tau(  75) = (    0.49244046241    0.24984299302    0.25083495391  )
        76           Ge  tau(  76) = (    0.56605617162    0.30560744723    0.31598835011  )
        77           Ge  tau(  77) = (    0.50276391196    0.25164396424    0.50624492404  )
        78           Ge  tau(  78) = (    0.56742168323    0.31357955931    0.56324711157  )
        79           Si  tau(  79) = (    0.48933123000    0.25458082685    0.75443957869  )
        80           Ge  tau(  80) = (    0.57025134416    0.31101756033    0.81025778244  )
        81           Ge  tau(  81) = (    0.51095654103    0.49599035514   -0.00373191796  )
        82           Ge  tau(  82) = (    0.56608408043    0.56687720139    0.06360553032  )
        83           Si  tau(  83) = (    0.49922847609    0.50091490378    0.25834612340  )
        84           Si  tau(  84) = (    0.56057657943    0.57231332450    0.30818399471  )
        85           Si  tau(  85) = (    0.49802411150    0.50945914618    0.49526282936  )
        86           Ge  tau(  86) = (    0.56363848960    0.55494952636    0.56666303938  )
        87           Si  tau(  87) = (    0.49435232963    0.50102915795    0.75581079145  )
        88           Si  tau(  88) = (    0.54945849401    0.56643230820    0.81739032802  )
        89           Si  tau(  89) = (    0.50104187976    0.74948507879   -0.00563090690  )
        90           Si  tau(  90) = (    0.56333182737    0.81615468251    0.06703571655  )
        91           Ge  tau(  91) = (    0.50003501271    0.74415391040    0.24931685635  )
        92           Si  tau(  92) = (    0.56296819616    0.82028625560    0.30380797437  )
        93           Si  tau(  93) = (    0.49746073001    0.74312853603    0.50700702872  )
        94           Ge  tau(  94) = (    0.56045915984    0.82291148096    0.55648864516  )
        95           Ge  tau(  95) = (    0.50359853747    0.75493322111    0.73924824570  )
        96           Si  tau(  96) = (    0.55444651054    0.81410028094    0.81245617074  )
        97           Ge  tau(  97) = (    0.74378611972    0.01014519656   -0.00101093636  )
        98           Si  tau(  98) = (    0.81239059066    0.05934082498    0.05789405716  )
        99           Si  tau(  99) = (    0.75341025954    0.00435409732    0.24773475657  )
       100           Si  tau( 100) = (    0.82344127666    0.05924300547    0.30792302351  )
       101           Ge  tau( 101) = (    0.75753567974    0.00135970749    0.50180486817  )
       102           Ge  tau( 102) = (    0.81382895010    0.05253551561    0.56653601713  )
       103           Ge  tau( 103) = (    0.74707727986   -0.00097635076    0.74673315974  )
       104           Ge  tau( 104) = (    0.81519117870    0.06312011380    0.80912421636  )
       105           Si  tau( 105) = (    0.74658443459    0.26075943030   -0.00261222898  )
       106           Si  tau( 106) = (    0.80903677561    0.31791131719    0.06130344909  )
       107           Si  tau( 107) = (    0.74381991772    0.24829019707    0.26036027156  )
       108           Ge  tau( 108) = (    0.81007931312    0.31594821447    0.31259794245  )
       109           Ge  tau( 109) = (    0.75622549376    0.25178918384    0.49441488348  )
       110           Ge  tau( 110) = (    0.81137005781    0.30489001065    0.56464562527  )
       111           Ge  tau( 111) = (    0.75435078442    0.25156863047    0.75236983357  )
       112           Si  tau( 112) = (    0.81232552142    0.30643162632    0.81299849280  )
       113           Ge  tau( 113) = (    0.74489024202    0.50008482492   -0.00118968834  )
       114           Ge  tau( 114) = (    0.81252817374    0.55786525791    0.07044152244  )
       115           Si  tau( 115) = (    0.74842909637    0.49624829633    0.25636567465  )
       116           Ge  tau( 116) = (    0.81030596938    0.56648014586    0.31781203667  )
       117           Si  tau( 117) = (    0.75235801788    0.49315733232    0.50654598131  )
       118           Ge  tau( 118) = (    0.81377101253    0.55562162048    0.55992928704  )
       119           Si  tau( 119) = (    0.74992891869    0.50204194472    0.75745232355  )
       120           Ge  tau( 120) = (    0.80735341244    0.56773578573    0.81390991745  )
       121           Si  tau( 121) = (    0.74445211029    0.75010110375   -0.00212033419  )
       122           Ge  tau( 122) = (    0.80683614663    0.81012633399    0.07387236778  )
       123           Si  tau( 123) = (    0.74907635593    0.74318554194    0.25079072080  )
       124           Si  tau( 124) = (    0.81646943995    0.81623845328    0.30806010744  )
       125           Si  tau( 125) = (    0.75221043724    0.74740621665    0.50044565849  )
       126           Si  tau( 126) = (    0.81118896431    0.80895635597    0.56757423644  )
       127           Si  tau( 127) = (    0.74354758207    0.75033102316    0.75064504078  )
       128           Ge  tau( 128) = (    0.80956950026    0.81146435215    0.81697354180  )

     number of k points=     8  gaussian smearing, width (Ry)=  0.0150
                       cart. coord. in units 2pi/alat
        k(    1) = (   0.0000000   0.0000000   0.0000000), wk =   0.2500000
        k(    2) = (  -0.3540052  -0.3525181   0.3543273), wk =   0.2500000
        k(    3) = (  -0.3528237   0.3534667  -0.3536559), wk =   0.2500000
        k(    4) = (  -0.7068288   0.0009487   0.0006714), wk =   0.2500000
        k(    5) = (   0.3526421  -0.3547534  -0.3531612), wk =   0.2500000
        k(    6) = (  -0.0013631  -0.7072715   0.0011661), wk =   0.2500000
        k(    7) = (  -0.0001816  -0.0012867  -0.7068171), wk =   0.2500000
        k(    8) = (  -0.3541867  -0.3538048  -0.3524898), wk =   0.2500000

                       cryst. coord.
        k(    1) = (   0.0000000   0.0000000   0.0000000), wk =   0.2500000
        k(    2) = (   0.0000000   0.0000000  -0.5000000), wk =   0.2500000
        k(    3) = (   0.0000000  -0.5000000   0.0000000), wk =   0.2500000
        k(    4) = (   0.0000000  -0.5000000  -0.5000000), wk =   0.2500000
        k(    5) = (  -0.5000000  -0.0000000   0.0000000), wk =   0.2500000
        k(    6) = (  -0.5000000  -0.0000000  -0.5000000), wk =   0.2500000
        k(    7) = (  -0.5000000  -0.5000000   0.0000000), wk =   0.2500000
        k(    8) = (  -0.5000000  -0.5000000  -0.5000000), wk =   0.2500000

     Dense  grid:   877949 G-vectors     FFT dimensions: ( 135, 135, 135)

     Smooth grid:   514185 G-vectors     FFT dimensions: ( 120, 120, 120)

     Largest allocated arrays     est. size (Mb)     dimensions
        Kohn-Sham Wavefunctions        41.30 Mb     (    4022,  673)
        NL pseudopotentials           141.40 Mb     (    4022, 2304)
        Each V/rho on FFT grid          2.50 Mb     (  164025)
        Each G-vector array             0.42 Mb     (   54870)
        G-vector shells                 0.42 Mb     (   54660)
     Largest temporary arrays     est. size (Mb)     dimensions
        Auxiliary wavefunctions       165.21 Mb     (    4022, 2692)
        Each subspace H/S matrix      110.58 Mb     (    2692, 2692)
        Each <psi_i|beta_j> matrix     23.66 Mb     (    2304,  673)
        Arrays for rho mixing          20.02 Mb     (  164025,    8)

     Check: negative/imaginary core charge=   -0.000001    0.000000

     Initial potential from superposition of free atoms

     starting charge 1121.90728, renormalised to 1122.00000
     Starting wfc are  817 randomized atomic wfcs

     total cpu time spent up to now is      764.6 secs

     per-process dynamical memory:   575.9 Mb

     Self-consistent Calculation

     iteration #  1     ecut=    35.00 Ry     beta=0.30
     Davidson diagonalization with overlap
     ethr =  1.00E-02,  avg # of iterations =  3.0

     Threshold (ethr) on eigenvalues was too large:
     Diagonalizing with lowered threshold

     Davidson diagonalization with overlap
     ethr =  2.57E-04,  avg # of iterations =  5.3

     total cpu time spent up to now is     5883.2 secs

     total energy              =  -13644.42620681 Ry
     Harris-Foulkes estimate   =  -13644.72953261 Ry
     estimated scf accuracy    <       2.87988815 Ry

     iteration #  2     ecut=    35.00 Ry     beta=0.30
     Davidson diagonalization with overlap
     ethr =  2.57E-04,  avg # of iterations =  1.0

     total cpu time spent up to now is     7561.7 secs

     total energy              =  -13643.84628769 Ry
     Harris-Foulkes estimate   =  -13644.44041902 Ry
     estimated scf accuracy    <       1.77693827 Ry

     iteration #  3     ecut=    35.00 Ry     beta=0.30
     Davidson diagonalization with overlap
     ethr =  1.58E-04,  avg # of iterations =  3.8

     total cpu time spent up to now is     9910.0 secs

     total energy              =  -13643.96266362 Ry
     Harris-Foulkes estimate   =  -13643.96240185 Ry
     estimated scf accuracy    <       0.02772632 Ry

     iteration #  4     ecut=    35.00 Ry     beta=0.30
     Davidson diagonalization with overlap
     ethr =  2.47E-06,  avg # of iterations = 10.4

     total cpu time spent up to now is    15821.0 secs

     total energy              =  -13643.96660214 Ry
     Harris-Foulkes estimate   =  -13643.96729921 Ry
     estimated scf accuracy    <       0.01284363 Ry

     iteration #  5     ecut=    35.00 Ry     beta=0.30
     Davidson diagonalization with overlap
     ethr =  1.14E-06,  avg # of iterations =  2.0

     total cpu time spent up to now is    18206.8 secs

     total energy              =  -13643.96763402 Ry
     Harris-Foulkes estimate   =  -13643.96776159 Ry
     estimated scf accuracy    <       0.00093687 Ry

     iteration #  6     ecut=    35.00 Ry     beta=0.30
     Davidson diagonalization with overlap
     ethr =  8.35E-08,  avg # of iterations =  1.9

     total cpu time spent up to now is    20007.1 secs

     total energy              =  -13643.96755625 Ry
     Harris-Foulkes estimate   =  -13643.96767484 Ry
     estimated scf accuracy    <       0.00045497 Ry

     iteration #  7     ecut=    35.00 Ry     beta=0.30
     Davidson diagonalization with overlap
     ethr =  4.05E-08,  avg # of iterations =  2.1

     total cpu time spent up to now is    22057.4 secs

     total energy              =  -13643.96760296 Ry
     Harris-Foulkes estimate   =  -13643.96759757 Ry
     estimated scf accuracy    <       0.00010081 Ry

     iteration #  8     ecut=    35.00 Ry     beta=0.30
     Davidson diagonalization with overlap
     ethr =  8.98E-09,  avg # of iterations =  1.6

     total cpu time spent up to now is    23897.2 secs

     total energy              =  -13643.96759422 Ry
     Harris-Foulkes estimate   =  -13643.96760708 Ry
     estimated scf accuracy    <       0.00005384 Ry

     iteration #  9     ecut=    35.00 Ry     beta=0.30
     Davidson diagonalization with overlap
     ethr =  4.80E-09,  avg # of iterations =  2.9

     total cpu time spent up to now is    26429.0 secs

     total energy              =  -13643.96760191 Ry
     Harris-Foulkes estimate   =  -13643.96760695 Ry
     estimated scf accuracy    <       0.00001456 Ry

     iteration # 10     ecut=    35.00 Ry     beta=0.30
     Davidson diagonalization with overlap
     ethr =  1.30E-09,  avg # of iterations =  2.0

     total cpu time spent up to now is    28429.6 secs

     total energy              =  -13643.96760189 Ry
     Harris-Foulkes estimate   =  -13643.96760323 Ry
     estimated scf accuracy    <       0.00000342 Ry

     iteration # 11     ecut=    35.00 Ry     beta=0.30
     Davidson diagonalization with overlap
     ethr =  3.05E-10,  avg # of iterations =  2.0

     total cpu time spent up to now is    30897.1 secs

     total energy              =  -13643.96760256 Ry
     Harris-Foulkes estimate   =  -13643.96760244 Ry
     estimated scf accuracy    <       0.00000017 Ry

     iteration # 12     ecut=    35.00 Ry     beta=0.30
     Davidson diagonalization with overlap
     ethr =  1.48E-11,  avg # of iterations =  3.0

     total cpu time spent up to now is    33350.5 secs

     total energy              =  -13643.96760265 Ry
     Harris-Foulkes estimate   =  -13643.96760260 Ry
     estimated scf accuracy    <       0.00000010 Ry

     iteration # 13     ecut=    35.00 Ry     beta=0.30
     Davidson diagonalization with overlap
     ethr =  8.61E-12,  avg # of iterations =  2.4

     total cpu time spent up to now is    35508.8 secs

     total energy              =  -13643.96760270 Ry
     Harris-Foulkes estimate   =  -13643.96760266 Ry
     estimated scf accuracy    <          4.6E-09 Ry

     iteration # 14     ecut=    35.00 Ry     beta=0.30
     Davidson diagonalization with overlap
     ethr =  4.07E-13,  avg # of iterations =  3.0

     total cpu time spent up to now is    38368.1 secs

     total energy              =  -13643.96760272 Ry
     Harris-Foulkes estimate   =  -13643.96760270 Ry
     estimated scf accuracy    <          2.5E-09 Ry

     iteration # 15     ecut=    35.00 Ry     beta=0.30
     Davidson diagonalization with overlap
     ethr =  2.23E-13,  avg # of iterations =  2.3

     total cpu time spent up to now is    40390.9 secs

     End of self-consistent calculation

          k = 0.0000 0.0000 0.0000 ( 64227 PWs)   bands (ev):

   -17.6996 -17.6712 -17.6169 -17.6081 -17.5864 -17.5857 -17.5656 -17.5639
   -17.5392 -17.5352 -17.5325 -17.5117 -17.5093 -17.4961 -17.4931 -17.4851
   -17.4774 -17.4732 -17.4714 -17.4697 -17.4635 -17.4536 -17.4477 -17.4445
   -17.4346 -17.4317 -17.4252 -17.4240 -17.4225 -17.4196 -17.4182 -17.4174
   -17.4129 -17.4105 -17.4104 -17.4043 -17.4006 -17.3969 -17.3964 -17.3934
   -17.3925 -17.3861 -17.3860 -17.3848 -17.3834 -17.3827 -17.3811 -17.3798
   -17.3775 -17.3764 -17.3739 -17.3726 -17.3709 -17.3691 -17.3653 -17.3650
   -17.3629 -17.3576 -17.3568 -17.3527 -17.3518 -17.3505 -17.3424 -17.3408
   -17.3375 -17.3373 -17.3317 -17.3246 -17.3191 -17.3176 -17.3169 -17.3152
   -17.3135 -17.3100 -17.3096 -17.3067 -17.3037 -17.3027 -17.3020 -17.3008
   -17.3004 -17.2977 -17.2953 -17.2947 -17.2885 -17.2866 -17.2864 -17.2812
   -17.2804 -17.2780 -17.2772 -17.2754 -17.2746 -17.2741 -17.2730 -17.2728
   -17.2723 -17.2704 -17.2702 -17.2685 -17.2681 -17.2659 -17.2639 -17.2636
   -17.2610 -17.2605 -17.2598 -17.2563 -17.2555 -17.2515 -17.2510 -17.2508
   -17.2497 -17.2488 -17.2469 -17.2461 -17.2459 -17.2448 -17.2442 -17.2433
   -17.2429 -17.2423 -17.2415 -17.2398 -17.2393 -17.2383 -17.2366 -17.2359
   -17.2352 -17.2344 -17.2305 -17.2298 -17.2285 -17.2264 -17.2259 -17.2236
   -17.2216 -17.2210 -17.2179 -17.2170 -17.2164 -17.2161 -17.2154 -17.2146
   -17.2100 -17.2094 -17.2088 -17.2082 -17.2068 -17.2060 -17.2052 -17.2022
   -17.2016 -17.2010 -17.1994 -17.1990 -17.1976 -17.1942 -17.1933 -17.1927
   -17.1904 -17.1897 -17.1896 -17.1888 -17.1862 -17.1855 -17.1845 -17.1833
   -17.1810 -17.1804 -17.1781 -17.1766 -17.1758 -17.1748 -17.1747 -17.1733
   -17.1714 -17.1698 -17.1692 -17.1677 -17.1676 -17.1662 -17.1657 -17.1649
   -17.1639 -17.1623 -17.1614 -17.1595 -17.1590 -17.1586 -17.1573 -17.1567
   -17.1548 -17.1528 -17.1522 -17.1520 -17.1507 -17.1486 -17.1485 -17.1483
   -17.1479 -17.1478 -17.1470 -17.1461 -17.1453 -17.1447 -17.1442 -17.1431
   -17.1419 -17.1409 -17.1388 -17.1378 -17.1363 -17.1356 -17.1337 -17.1329
   -17.1324 -17.1299 -17.1296 -17.1281 -17.1264 -17.1260 -17.1249 -17.1245
   -17.1243 -17.1238 -17.1232 -17.1230 -17.1215 -17.1211 -17.1204 -17.1197
   -17.1193 -17.1155 -17.1129 -17.1112 -17.1108 -17.1098 -17.1090 -17.1067
   -17.1055 -17.1052 -17.1030 -17.1020 -17.1011 -17.0984 -17.0978 -17.0976
   -17.0951 -17.0943 -17.0942 -17.0925 -17.0914 -17.0896 -17.0893 -17.0890
   -17.0887 -17.0883 -17.0876 -17.0857 -17.0856 -17.0851 -17.0850 -17.0836
   -17.0821 -17.0791 -17.0744 -17.0720 -17.0711 -17.0689 -17.0679 -17.0674
   -17.0639 -17.0612 -17.0605 -17.0588 -17.0570 -17.0539 -17.0528 -17.0502
   -17.0460 -17.0422 -17.0417 -17.0415 -17.0389 -17.0383 -17.0370 -17.0365
   -17.0295 -17.0279 -17.0186 -17.0181 -17.0174 -17.0164 -17.0119 -17.0063
   -17.0062 -17.0014 -16.9957 -16.9902 -16.9897 -16.9881 -16.9819 -16.9781
   -16.9703  -5.3197  -4.7929  -4.7372  -4.6507  -4.5913  -4.5382  -4.4988
    -4.4423  -4.3920  -4.3666  -4.2641  -4.2431  -4.1721  -4.0959  -4.0192
    -3.6640  -3.6252  -3.5347  -3.4992  -3.4353  -3.4270  -3.3651  -3.2625
    -3.2234  -3.1806  -3.1381  -3.0981  -3.0436  -3.0303  -3.0108  -2.9832
    -2.9220  -2.8542  -2.7974  -2.7695  -2.7515  -2.7383  -2.7197  -2.6564
    -2.6196  -2.5929  -2.5831  -2.5031  -2.4422  -2.4325  -2.3795  -2.3713
    -2.3333  -2.2890  -2.2523  -2.1937  -2.1878  -2.1415  -2.1192  -2.0230
    -1.4192  -1.3897  -1.2974  -1.2814  -1.1659  -1.1557  -1.1010  -1.0703
    -1.0691  -1.0339  -0.9575  -0.8930  -0.8569  -0.8087  -0.7823  -0.7362
    -0.6911  -0.5898  -0.1608  -0.1219  -0.0781  -0.0049   0.0102   0.0698
     0.0974   0.1630   0.1929   0.2204   0.2460   0.3010   0.3040   0.3576
     0.3891   0.4052   0.4484   0.4777   0.4915   0.5096   0.5479   0.5576
     0.6014   0.6437   0.6821   0.7138   0.7419   0.8225   1.0946   1.1581
     1.2220   1.2365   1.2783   1.3291   1.3572   1.3640   1.4092   1.4835
     1.5127   1.6192   2.6780   2.7643   2.7946   2.8495   2.8766   2.9365
     2.9671   2.9959   3.0364   3.0652   3.1191   3.1241   3.1593   3.1697
     3.1985   3.2129   3.2224   3.2302   3.2482   3.2530   3.2659   3.2915
     3.3038   3.3078   3.3132   3.3257   3.3502   3.3587   3.3783   3.3863
     3.3902   3.4026   3.4143   3.4267   3.4405   3.4570   3.4715   3.4838
     3.4897   3.5062   3.5159   3.5263   3.5339   3.5485   3.5588   3.5792
     3.5887   3.6000   3.6075   3.6200   3.6376   3.6449   3.6606   3.6741
     3.6942   3.7094   3.7401   3.7477   3.7682   3.7895   3.8150   3.8830
     4.2206   4.2329   4.2558   4.2807   4.3099   4.3169   4.7405   4.7586
     4.7762   4.7892   4.8013   4.8172   4.8252   4.8302   4.8597   4.8732
     4.8907   4.9074   4.9233   4.9326   4.9489   4.9555   4.9602   4.9955
     5.0114   5.0227   5.0317   5.0435   5.0644   5.1269   5.1674   5.1851
     5.1909   5.2228   5.2682   5.2895   5.2996   5.3157   5.3406   5.3627
     5.3841   5.4412   5.6581   5.6841   5.6944   5.7246   5.7425   5.7796
     5.7953   5.8306   5.8573   5.8822   5.9001   5.9230   5.9468   5.9552
     5.9822   6.0289   6.0511   6.0594   6.0963   6.1873   6.2258   6.2796
     6.3624   6.3829   6.3985   6.4237   6.4391   6.4569   6.5326   6.5360
     6.5535   6.5710   6.6017   6.6591   6.6913   6.7791   7.2850   7.3600
     7.3969   7.7022   7.7314   7.7798   7.8130   7.8861   7.9136   7.9386
     7.9466   8.0062   8.0329   8.0859   8.1207   8.1269   8.1806   8.2013
     8.2758   8.2903   8.3319   8.3553   8.3812   8.4189   8.4370   8.4498
     8.4755   8.4797   8.5021   8.5117   8.5364   8.5475   8.5630   8.5828
     8.5948   8.6096   8.6198   8.6272   8.6714   8.7007   8.7143   8.7286
     8.7466   8.7476   8.7572   8.7779   8.8074   8.8316   8.8602   8.8716
     8.9463   8.9865   9.2445   9.2931   9.3031   9.3489   9.3684   9.4206
     9.4276   9.4683   9.5165   9.5414   9.5843   9.6178   9.7239   9.7504
     9.7794  10.0514  10.0972  10.1064  10.1705  10.1945  10.2414  10.4167
    10.4613  10.4924  10.5095  10.5316  10.5659  10.5970  10.6037  10.6270
    10.6621  10.6737  10.6840  10.7108  10.7167  10.7478  10.7681  10.7869
    10.8036  10.8428  10.8680  10.8942  10.9342  10.9564  10.9671  11.2596
    11.3159  11.3266  11.3306  11.3384  11.3602  11.3782  11.3954  11.4148
    11.4341  11.4457  11.4639  11.4726  11.4861  11.4964  11.4991  11.5237
    11.5315

     occupation numbers 
     1.0000   1.0000   1.0000   1.0000   1.0000   1.0000   1.0000   1.0000
     1.0000   1.0000   1.0000   1.0000   1.0000   1.0000   1.0000   1.0000
     1.0000   1.0000   1.0000   1.0000   1.0000   1.0000   1.0000   1.0000
     1.0000   1.0000   1.0000   1.0000   1.0000   1.0000   1.0000   1.0000
     1.0000   1.0000   1.0000   1.0000   1.0000   1.0000   1.0000   1.0000
     1.0000   1.0000   1.0000   1.0000   1.0000   1.0000   1.0000   1.0000
     1.0000   1.0000   1.0000   1.0000   1.0000   1.0000   1.0000   1.0000
     1.0000   1.0000   1.0000   1.0000   1.0000   1.0000   1.0000   1.0000
     1.0000   1.0000   1.0000   1.0000   1.0000   1.0000   1.0000   1.0000
     1.0000   1.0000   1.0000   1.0000   1.0000   1.0000   1.0000   1.0000
     1.0000   1.0000   1.0000   1.0000   1.0000   1.0000   1.0000   1.0000
     1.0000   1.0000   1.0000   1.0000   1.0000   1.0000   1.0000   1.0000
     1.0000   1.0000   1.0000   1.0000   1.0000   1.0000   1.0000   1.0000
     1.0000   1.0000   1.0000   1.0000   1.0000   1.0000   1.0000   1.0000
     1.0000   1.0000   1.0000   1.0000   1.0000   1.0000   1.0000   1.0000
     1.0000   1.0000   1.0000   1.0000   1.0000   1.0000   1.0000   1.0000
     1.0000   1.0000   1.0000   1.0000   1.0000   1.0000   1.0000   1.0000
     1.0000   1.0000   1.0000   1.0000   1.0000   1.0000   1.0000   1.0000
     1.0000   1.0000   1.0000   1.0000   1.0000   1.0000   1.0000   1.0000
     1.0000   1.0000   1.0000   1.0000   1.0000   1.0000   1.0000   1.0000
     1.0000   1.0000   1.0000   1.0000   1.0000   1.0000   1.0000   1.0000
     1.0000   1.0000   1.0000   1.0000   1.0000   1.0000   1.0000   1.0000
     1.0000   1.0000   1.0000   1.0000   1.0000   1.0000   1.0000   1.0000
     1.0000   1.0000   1.0000   1.0000   1.0000   1.0000   1.0000   1.0000
     1.0000   1.0000   1.0000   1.0000   1.0000   1.0000   1.0000   1.0000
     1.0000   1.0000   1.0000   1.0000   1.0000   1.0000   1.0000   1.0000
     1.0000   1.0000   1.0000   1.0000   1.0000   1.0000   1.0000   1.0000
     1.0000   1.0000   1.0000   1.0000   1.0000   1.0000   1.0000   1.0000
     1.0000   1.0000   1.0000   1.0000   1.0000   1.0000   1.0000   1.0000
     1.0000   1.0000   1.0000   1.0000   1.0000   1.0000   1.0000   1.0000
     1.0000   1.0000   1.0000   1.0000   1.0000   1.0000   1.0000   1.0000
     1.0000   1.0000   1.0000   1.0000   1.0000   1.0000   1.0000   1.0000
     1.0000   1.0000   1.0000   1.0000   1.0000   1.0000   1.0000   1.0000
     1.0000   1.0000   1.0000   1.0000   1.0000   1.0000   1.0000   1.0000
     1.0000   1.0000   1.0000   1.0000   1.0000   1.0000   1.0000   1.0000
     1.0000   1.0000   1.0000   1.0000   1.0000   1.0000   1.0000   1.0000
     1.0000   1.0000   1.0000   1.0000   1.0000   1.0000   1.0000   1.0000
     1.0000   1.0000   1.0000   1.0000   1.0000   1.0000   1.0000   1.0000
     1.0000   1.0000   1.0000   1.0000   1.0000   1.0000   1.0000   1.0000
     1.0000   1.0000   1.0000   1.0000   1.0000   1.0000   1.0000   1.0000
     1.0000   1.0000   1.0000   1.0000   1.0000   1.0000   1.0000   1.0000
     1.0000   1.0000   1.0000   1.0000   1.0000   1.0000   1.0000   1.0000
     1.0000   1.0000   1.0000   1.0000   1.0000   1.0000   1.0000   1.0000
     1.0000   1.0000   1.0000   1.0000   1.0000   1.0000   1.0000   1.0000
     1.0000   1.0000   1.0000   1.0000   1.0000   1.0000   1.0000   1.0000
     1.0000   1.0000   1.0000   1.0000   1.0000   1.0000   1.0000   1.0000
     1.0000   1.0000   1.0000   1.0000   1.0000   1.0000   1.0000   1.0000
     1.0000   1.0000   1.0000   1.0000   1.0000   1.0000   1.0000   1.0000
     1.0000   1.0000   1.0000   1.0000   1.0000   1.0000   1.0000   1.0000
     1.0000   1.0000   1.0000   1.0000   1.0000   1.0000   1.0000   1.0000
     1.0000   1.0000   1.0000   1.0000   1.0000   1.0000   1.0000   1.0000
     1.0000   1.0000   1.0000   1.0000   1.0000   1.0000   1.0000   1.0000
     1.0000   1.0000   1.0000   1.0000   1.0000   1.0000   1.0000   1.0000
     1.0000   1.0000   1.0000   1.0000   1.0000   1.0000   1.0000   1.0000
     1.0000   1.0000   1.0000   1.0000   1.0000   1.0000   1.0000   1.0000
     1.0000   1.0000   1.0000   1.0000   1.0000   1.0000   1.0000   1.0000
     1.0000   1.0000   1.0000   1.0000   1.0000   1.0000   1.0000   1.0000
     1.0000   1.0000   1.0000   1.0000   1.0000   1.0000   1.0000   1.0000
     1.0000   1.0000   1.0000   1.0000   1.0000   1.0000   1.0000   1.0000
     1.0000   1.0000   1.0000   1.0000   1.0000   1.0000   1.0000   1.0000
     1.0000   1.0000   1.0000   1.0000   1.0000   1.0000   1.0000   1.0000
     1.0000   1.0000   1.0000   1.0000   1.0000   1.0000   1.0000   1.0000
     1.0000   1.0000   1.0000   1.0000   1.0000   1.0000   1.0000   1.0000
     1.0000   1.0000   1.0000   1.0000   1.0000   1.0000   1.0000   1.0000
     1.0000   1.0000   1.0000   1.0000   1.0000   1.0000   1.0000   1.0000
     1.0000   1.0000   1.0000   1.0000   1.0000   1.0000   1.0000   1.0000
     1.0000   1.0000   1.0000   1.0000   1.0000   1.0000   1.0000   1.0000
     1.0000   1.0000   1.0000   1.0000   1.0000   1.0000   1.0000   1.0000
     1.0000   1.0000   1.0000   1.0000   1.0000   1.0000   1.0000   1.0000
     1.0000   1.0000   1.0000   1.0000   1.0000   1.0000   0.9170   0.8066
     0.7290   0.0662   0.0439   0.0205   0.0115   0.0027   0.0015   0.0008
     0.0007   0.0002   0.0001   0.0000   0.0000   0.0000   0.0000   0.0000
     0.0000   0.0000   0.0000   0.0000   0.0000   0.0000   0.0000   0.0000
     0.0000   0.0000   0.0000   0.0000   0.0000   0.0000   0.0000   0.0000
     0.0000   0.0000   0.0000   0.0000   0.0000   0.0000   0.0000   0.0000
     0.0000   0.0000   0.0000   0.0000   0.0000   0.0000   0.0000   0.0000
     0.0000   0.0000   0.0000   0.0000   0.0000   0.0000   0.0000   0.0000
     0.0000   0.0000   0.0000   0.0000   0.0000   0.0000   0.0000   0.0000
     0.0000   0.0000   0.0000   0.0000   0.0000   0.0000   0.0000   0.0000
     0.0000   0.0000   0.0000   0.0000   0.0000   0.0000   0.0000   0.0000
     0.0000   0.0000   0.0000   0.0000   0.0000   0.0000   0.0000   0.0000
     0.0000   0.0000   0.0000   0.0000   0.0000   0.0000   0.0000   0.0000
     0.0000   0.0000   0.0000   0.0000   0.0000   0.0000   0.0000   0.0000
     0.0000   0.0000   0.0000   0.0000   0.0000   0.0000   0.0000   0.0000
     0.0000

          k =-0.3540-0.3525 0.3543 ( 64242 PWs)   bands (ev):

   -17.6996 -17.6712 -17.6169 -17.6082 -17.5865 -17.5857 -17.5656 -17.5639
   -17.5392 -17.5352 -17.5325 -17.5117 -17.5094 -17.4961 -17.4932 -17.4851
   -17.4775 -17.4732 -17.4714 -17.4697 -17.4636 -17.4536 -17.4477 -17.4445
   -17.4347 -17.4317 -17.4253 -17.4240 -17.4225 -17.4196 -17.4182 -17.4175
   -17.4129 -17.4105 -17.4105 -17.4043 -17.4006 -17.3969 -17.3964 -17.3934
   -17.3925 -17.3862 -17.3861 -17.3848 -17.3833 -17.3828 -17.3812 -17.3798
   -17.3775 -17.3764 -17.3740 -17.3726 -17.3709 -17.3692 -17.3653 -17.3650
   -17.3630 -17.3576 -17.3568 -17.3527 -17.3518 -17.3505 -17.3424 -17.3408
   -17.3375 -17.3373 -17.3317 -17.3246 -17.3192 -17.3176 -17.3168 -17.3153
   -17.3136 -17.3100 -17.3097 -17.3067 -17.3037 -17.3026 -17.3020 -17.3008
   -17.3004 -17.2977 -17.2955 -17.2947 -17.2884 -17.2865 -17.2860 -17.2811
   -17.2802 -17.2786 -17.2777 -17.2750 -17.2746 -17.2745 -17.2729 -17.2728
   -17.2723 -17.2707 -17.2702 -17.2685 -17.2682 -17.2660 -17.2637 -17.2636
   -17.2622 -17.2601 -17.2595 -17.2564 -17.2558 -17.2515 -17.2510 -17.2509
   -17.2495 -17.2488 -17.2468 -17.2459 -17.2453 -17.2448 -17.2437 -17.2434
   -17.2430 -17.2422 -17.2415 -17.2397 -17.2390 -17.2384 -17.2367 -17.2361
   -17.2353 -17.2344 -17.2321 -17.2304 -17.2286 -17.2266 -17.2259 -17.2249
   -17.2214 -17.2205 -17.2172 -17.2169 -17.2164 -17.2161 -17.2151 -17.2143
   -17.2100 -17.2094 -17.2089 -17.2083 -17.2068 -17.2060 -17.2054 -17.2048
   -17.2017 -17.2013 -17.1990 -17.1982 -17.1977 -17.1947 -17.1935 -17.1916
   -17.1911 -17.1899 -17.1897 -17.1888 -17.1857 -17.1849 -17.1846 -17.1833
   -17.1810 -17.1795 -17.1782 -17.1767 -17.1758 -17.1748 -17.1748 -17.1733
   -17.1713 -17.1701 -17.1692 -17.1676 -17.1668 -17.1663 -17.1662 -17.1649
   -17.1634 -17.1619 -17.1615 -17.1595 -17.1593 -17.1588 -17.1574 -17.1569
   -17.1549 -17.1527 -17.1523 -17.1520 -17.1509 -17.1486 -17.1485 -17.1482
   -17.1480 -17.1478 -17.1471 -17.1458 -17.1451 -17.1450 -17.1447 -17.1431
   -17.1422 -17.1410 -17.1389 -17.1378 -17.1364 -17.1358 -17.1338 -17.1332
   -17.1325 -17.1299 -17.1296 -17.1281 -17.1264 -17.1260 -17.1252 -17.1247
   -17.1243 -17.1240 -17.1232 -17.1231 -17.1219 -17.1211 -17.1204 -17.1197
   -17.1192 -17.1156 -17.1130 -17.1113 -17.1110 -17.1092 -17.1070 -17.1066
   -17.1055 -17.1052 -17.1033 -17.1031 -17.1011 -17.0987 -17.0978 -17.0976
   -17.0952 -17.0948 -17.0942 -17.0925 -17.0915 -17.0897 -17.0893 -17.0890
   -17.0888 -17.0884 -17.0873 -17.0861 -17.0857 -17.0853 -17.0845 -17.0835
   -17.0822 -17.0792 -17.0749 -17.0729 -17.0712 -17.0688 -17.0679 -17.0674
   -17.0640 -17.0614 -17.0606 -17.0585 -17.0570 -17.0540 -17.0529 -17.0502
   -17.0461 -17.0419 -17.0415 -17.0413 -17.0389 -17.0382 -17.0371 -17.0363
   -17.0296 -17.0280 -17.0190 -17.0180 -17.0174 -17.0164 -17.0120 -17.0064
   -17.0063 -17.0015 -16.9957 -16.9902 -16.9898 -16.9881 -16.9820 -16.9782
   -16.9704  -5.2108  -5.0480  -4.7640  -4.7135  -4.6349  -4.5787  -4.5442
    -4.4579  -4.2405  -4.2393  -4.1235  -4.0658  -4.0162  -3.9483  -3.8318
    -3.7515  -3.7237  -3.6562  -3.5991  -3.5448  -3.4641  -3.4458  -3.3793
    -3.3169  -3.2627  -3.2045  -3.1798  -3.1024  -3.0803  -3.0697  -3.0279
    -2.9663  -2.9069  -2.8695  -2.8380  -2.8001  -2.7808  -2.7299  -2.6903
    -2.6335  -2.5374  -2.4673  -2.4563  -2.3892  -2.3053  -2.1989  -2.1650
    -2.1408  -2.0493  -1.9933  -1.9619  -1.9248  -1.8983  -1.8403  -1.8158
    -1.7938  -1.7692  -1.7219  -1.6419  -1.6147  -1.5562  -1.5136  -1.4800
    -1.4318  -0.6008  -0.5898  -0.4997  -0.4285  -0.3822  -0.3504  -0.3336
    -0.3056  -0.2648  -0.2415  -0.2173  -0.1722  -0.1120  -0.0754  -0.0152
    -0.0012   0.0128   0.0314   0.0476   0.0957   0.1291   0.1564   0.1766
     0.2347   0.2543   0.3014   0.3288   0.3598   0.4420   0.4483   0.7161
     0.7893   0.8209   0.8346   0.8905   0.9332   0.9752   1.0183   1.0591
     1.0985   1.1483   1.1734   1.2184   1.3063   1.6080   1.6781   1.7698
     1.8463   1.8643   1.9419   2.1326   2.1764   2.2275   2.2763   2.3322
     2.3436   2.9657   2.9878   2.9947   3.0039   3.0248   3.0346   3.0433
     3.0726   3.0850   3.0952   3.1002   3.1189   3.1423   3.1674   3.1714
     3.2000   3.2258   3.2625   3.4104   3.4670   3.5486   3.5707   3.5921
     3.6122   3.6215   3.6312   3.6576   3.6715   3.6777   3.7149   3.7252
     3.7488   3.7740   3.7803   3.7991   3.8099   3.8221   3.8494   3.8704
     3.8831   3.9112   3.9193   4.0742   4.0876   4.1184   4.1295   4.1568
     4.1708   4.1806   4.2088   4.2367   4.2470   4.2609   4.2953   4.3334
     4.3519   4.3857   4.4059   4.4177   4.4276   4.4659   4.4786   4.5014
     4.5205   4.5494   4.5691   4.6194   4.6485   4.6621   4.6938   4.7340
     4.7385   4.7761   4.7809   4.7987   4.8141   4.8436   4.8596   4.8839
     4.9059   4.9555   4.9754   4.9958   4.9966   5.0664   5.1028   5.1064
     5.1374   5.1551   5.1793   5.1901   5.2140   5.2270   5.2317   5.2499
     5.2806   5.2935   5.3057   5.3247   5.3414   5.3788   5.4207   5.4300
     5.4836   5.5690   5.5716   5.6073   5.6356   5.6752   5.7217   5.7551
     5.7879   5.8020   5.8428   5.8674   5.8724   5.8960   5.9037   5.9398
     5.9566   5.9609   6.0381   6.0653   6.1177   6.1966   6.2293   6.4109
     6.4392   6.4680   6.5138   6.5498   6.6123   6.8974   7.0615   7.0833
     7.1639   7.9114   7.9368   7.9597   8.0044   8.0251   8.1143   8.1546
     8.1921   8.2885   8.3433   8.3643   8.4133   8.4391   8.5524   8.7291
     8.7666   8.8024   8.8044   8.8470   8.8681   8.8902   8.8946   8.9125
     8.9371   8.9746   8.9809   9.0150   9.0242   9.0572   9.0698   9.0806
     9.1047   9.1214   9.1468   9.1673   9.1807   9.1886   9.2395   9.2490
     9.2720   9.2965   9.3464   9.3595   9.3945   9.4037   9.4227   9.4281
     9.4476   9.4521   9.4735   9.5050   9.5157   9.5218   9.5506   9.5658
     9.5894   9.6145   9.6337   9.7370   9.7632   9.7761   9.8261   9.8497
     9.8642   9.8814   9.9153   9.9307   9.9399   9.9760   9.9843  10.0093
    10.0290  10.0556  10.0840  10.0978  10.1237  10.1347  10.1772  10.2083
    10.2499  10.2874  10.3303  10.3638  10.3778  10.3964  10.4125  10.4686
    10.4801  10.5076  10.5174  10.5500  10.5640  10.5828  10.5914  10.6035
    10.6136  10.6439  10.6634  10.6756  10.7059  10.7341  10.7454  10.7612
    10.7834  10.8012  10.8294  10.8449  10.8522  10.8631  10.9122  10.9197
    10.9726

     occupation numbers 
     1.0000   1.0000   1.0000   1.0000   1.0000   1.0000   1.0000   1.0000
     1.0000   1.0000   1.0000   1.0000   1.0000   1.0000   1.0000   1.0000
     1.0000   1.0000   1.0000   1.0000   1.0000   1.0000   1.0000   1.0000
     1.0000   1.0000   1.0000   1.0000   1.0000   1.0000   1.0000   1.0000
     1.0000   1.0000   1.0000   1.0000   1.0000   1.0000   1.0000   1.0000
     1.0000   1.0000   1.0000   1.0000   1.0000   1.0000   1.0000   1.0000
     1.0000   1.0000   1.0000   1.0000   1.0000   1.0000   1.0000   1.0000
     1.0000   1.0000   1.0000   1.0000   1.0000   1.0000   1.0000   1.0000
     1.0000   1.0000   1.0000   1.0000   1.0000   1.0000   1.0000   1.0000
     1.0000   1.0000   1.0000   1.0000   1.0000   1.0000   1.0000   1.0000
     1.0000   1.0000   1.0000   1.0000   1.0000   1.0000   1.0000   1.0000
     1.0000   1.0000   1.0000   1.0000   1.0000   1.0000   1.0000   1.0000
     1.0000   1.0000   1.0000   1.0000   1.0000   1.0000   1.0000   1.0000
     1.0000   1.0000   1.0000   1.0000   1.0000   1.0000   1.0000   1.0000
     1.0000   1.0000   1.0000   1.0000   1.0000   1.0000   1.0000   1.0000
     1.0000   1.0000   1.0000   1.0000   1.0000   1.0000   1.0000   1.0000
     1.0000   1.0000   1.0000   1.0000   1.0000   1.0000   1.0000   1.0000
     1.0000   1.0000   1.0000   1.0000   1.0000   1.0000   1.0000   1.0000
     1.0000   1.0000   1.0000   1.0000   1.0000   1.0000   1.0000   1.0000
     1.0000   1.0000   1.0000   1.0000   1.0000   1.0000   1.0000   1.0000
     1.0000   1.0000   1.0000   1.0000   1.0000   1.0000   1.0000   1.0000
     1.0000   1.0000   1.0000   1.0000   1.0000   1.0000   1.0000   1.0000
     1.0000   1.0000   1.0000   1.0000   1.0000   1.0000   1.0000   1.0000
     1.0000   1.0000   1.0000   1.0000   1.0000   1.0000   1.0000   1.0000
     1.0000   1.0000   1.0000   1.0000   1.0000   1.0000   1.0000   1.0000
     1.0000   1.0000   1.0000   1.0000   1.0000   1.0000   1.0000   1.0000
     1.0000   1.0000   1.0000   1.0000   1.0000   1.0000   1.0000   1.0000
     1.0000   1.0000   1.0000   1.0000   1.0000   1.0000   1.0000   1.0000
     1.0000   1.0000   1.0000   1.0000   1.0000   1.0000   1.0000   1.0000
     1.0000   1.0000   1.0000   1.0000   1.0000   1.0000   1.0000   1.0000
     1.0000   1.0000   1.0000   1.0000   1.0000   1.0000   1.0000   1.0000
     1.0000   1.0000   1.0000   1.0000   1.0000   1.0000   1.0000   1.0000
     1.0000   1.0000   1.0000   1.0000   1.0000   1.0000   1.0000   1.0000
     1.0000   1.0000   1.0000   1.0000   1.0000   1.0000   1.0000   1.0000
     1.0000   1.0000   1.0000   1.0000   1.0000   1.0000   1.0000   1.0000
     1.0000   1.0000   1.0000   1.0000   1.0000   1.0000   1.0000   1.0000
     1.0000   1.0000   1.0000   1.0000   1.0000   1.0000   1.0000   1.0000
     1.0000   1.0000   1.0000   1.0000   1.0000   1.0000   1.0000   1.0000
     1.0000   1.0000   1.0000   1.0000   1.0000   1.0000   1.0000   1.0000
     1.0000   1.0000   1.0000   1.0000   1.0000   1.0000   1.0000   1.0000
     1.0000   1.0000   1.0000   1.0000   1.0000   1.0000   1.0000   1.0000
     1.0000   1.0000   1.0000   1.0000   1.0000   1.0000   1.0000   1.0000
     1.0000   1.0000   1.0000   1.0000   1.0000   1.0000   1.0000   1.0000
     1.0000   1.0000   1.0000   1.0000   1.0000   1.0000   1.0000   1.0000
     1.0000   1.0000   1.0000   1.0000   1.0000   1.0000   1.0000   1.0000
     1.0000   1.0000   1.0000   1.0000   1.0000   1.0000   1.0000   1.0000
     1.0000   1.0000   1.0000   1.0000   1.0000   1.0000   1.0000   1.0000
     1.0000   1.0000   1.0000   1.0000   1.0000   1.0000   1.0000   1.0000
     1.0000   1.0000   1.0000   1.0000   1.0000   1.0000   1.0000   1.0000
     1.0000   1.0000   1.0000   1.0000   1.0000   1.0000   1.0000   1.0000
     1.0000   1.0000   1.0000   1.0000   1.0000   1.0000   1.0000   1.0000
     1.0000   1.0000   1.0000   1.0000   1.0000   1.0000   1.0000   1.0000
     1.0000   1.0000   1.0000   1.0000   1.0000   1.0000   1.0000   1.0000
     1.0000   1.0000   1.0000   1.0000   1.0000   1.0000   1.0000   1.0000
     1.0000   1.0000   1.0000   1.0000   1.0000   1.0000   1.0000   1.0000
     1.0000   1.0000   1.0000   1.0000   1.0000   1.0000   1.0000   1.0000
     1.0000   1.0000   1.0000   1.0000   1.0000   1.0000   1.0000   1.0000
     1.0000   1.0000   1.0000   1.0000   1.0000   1.0000   1.0000   1.0000
     1.0000   1.0000   1.0000   1.0000   1.0000   1.0000   1.0000   1.0000
     1.0000   1.0000   1.0000   1.0000   1.0000   1.0000   1.0000   1.0000
     1.0000   1.0000   1.0000   1.0000   1.0000   1.0000   1.0000   1.0000
     1.0000   1.0000   1.0000   1.0000   1.0000   1.0000   1.0000   1.0000
     1.0000   1.0000   1.0000   1.0000   1.0000   1.0000   1.0000   1.0000
     1.0000   1.0000   1.0000   1.0000   1.0000   1.0000   1.0000   1.0000
     1.0000   1.0000   1.0000   1.0000   1.0000   1.0000   1.0000   1.0000
     1.0000   1.0000   1.0000   1.0000   1.0000   1.0000   1.0000   1.0000
     1.0000   1.0000   1.0000   1.0000   1.0000   1.0000   1.0000   1.0000
     1.0000   1.0000   1.0000   1.0000   1.0000   1.0000   1.0000   1.0000
     1.0000   1.0000   1.0000   1.0000   1.0000   1.0000   1.0000   1.0000
     1.0000   1.0000   1.0000   1.0000   1.0000   1.0000   0.9983   0.9973
     0.9869   0.0016   0.0009   0.0005   0.0002   0.0001   0.0000   0.0000
     0.0000   0.0000   0.0000   0.0000   0.0000   0.0000   0.0000   0.0000
     0.0000   0.0000   0.0000   0.0000   0.0000   0.0000   0.0000   0.0000
     0.0000   0.0000   0.0000   0.0000   0.0000   0.0000   0.0000   0.0000
     0.0000   0.0000   0.0000   0.0000   0.0000   0.0000   0.0000   0.0000
     0.0000   0.0000   0.0000   0.0000   0.0000   0.0000   0.0000   0.0000
     0.0000   0.0000   0.0000   0.0000   0.0000   0.0000   0.0000   0.0000
     0.0000   0.0000   0.0000   0.0000   0.0000   0.0000   0.0000   0.0000
     0.0000   0.0000   0.0000   0.0000   0.0000   0.0000   0.0000   0.0000
     0.0000   0.0000   0.0000   0.0000   0.0000   0.0000   0.0000   0.0000
     0.0000   0.0000   0.0000   0.0000   0.0000   0.0000   0.0000   0.0000
     0.0000   0.0000   0.0000   0.0000   0.0000   0.0000   0.0000   0.0000
     0.0000   0.0000   0.0000   0.0000   0.0000   0.0000   0.0000   0.0000
     0.0000   0.0000   0.0000   0.0000   0.0000   0.0000   0.0000   0.0000
     0.0000

          k =-0.3528 0.3535-0.3537 ( 64272 PWs)   bands (ev):

   -17.6996 -17.6712 -17.6169 -17.6082 -17.5865 -17.5857 -17.5656 -17.5639
   -17.5393 -17.5352 -17.5325 -17.5117 -17.5094 -17.4961 -17.4932 -17.4851
   -17.4775 -17.4732 -17.4714 -17.4697 -17.4636 -17.4536 -17.4477 -17.4445
   -17.4347 -17.4317 -17.4253 -17.4241 -17.4225 -17.4196 -17.4182 -17.4175
   -17.4129 -17.4105 -17.4105 -17.4043 -17.4006 -17.3969 -17.3964 -17.3934
   -17.3925 -17.3862 -17.3860 -17.3848 -17.3834 -17.3827 -17.3812 -17.3798
   -17.3775 -17.3764 -17.3739 -17.3726 -17.3709 -17.3691 -17.3654 -17.3650
   -17.3629 -17.3576 -17.3569 -17.3528 -17.3518 -17.3505 -17.3424 -17.3408
   -17.3375 -17.3373 -17.3317 -17.3246 -17.3192 -17.3176 -17.3169 -17.3153
   -17.3135 -17.3100 -17.3097 -17.3067 -17.3037 -17.3027 -17.3020 -17.3009
   -17.3004 -17.2978 -17.2954 -17.2948 -17.2886 -17.2866 -17.2864 -17.2813
   -17.2804 -17.2780 -17.2773 -17.2753 -17.2745 -17.2742 -17.2731 -17.2728
   -17.2722 -17.2704 -17.2703 -17.2684 -17.2682 -17.2659 -17.2638 -17.2637
   -17.2609 -17.2607 -17.2598 -17.2563 -17.2555 -17.2515 -17.2510 -17.2509
   -17.2498 -17.2489 -17.2469 -17.2461 -17.2460 -17.2448 -17.2440 -17.2434
   -17.2430 -17.2422 -17.2417 -17.2398 -17.2393 -17.2384 -17.2367 -17.2362
   -17.2353 -17.2345 -17.2305 -17.2298 -17.2285 -17.2265 -17.2260 -17.2236
   -17.2217 -17.2211 -17.2178 -17.2170 -17.2164 -17.2161 -17.2155 -17.2147
   -17.2099 -17.2094 -17.2088 -17.2083 -17.2068 -17.2061 -17.2052 -17.2022
   -17.2016 -17.2011 -17.1994 -17.1990 -17.1977 -17.1941 -17.1934 -17.1928
   -17.1904 -17.1898 -17.1897 -17.1888 -17.1862 -17.1855 -17.1846 -17.1833
   -17.1811 -17.1804 -17.1782 -17.1766 -17.1758 -17.1748 -17.1747 -17.1733
   -17.1714 -17.1699 -17.1693 -17.1678 -17.1677 -17.1663 -17.1657 -17.1649
   -17.1639 -17.1623 -17.1614 -17.1595 -17.1592 -17.1586 -17.1574 -17.1568
   -17.1549 -17.1529 -17.1523 -17.1521 -17.1509 -17.1485 -17.1485 -17.1484
   -17.1480 -17.1477 -17.1471 -17.1461 -17.1451 -17.1447 -17.1442 -17.1431
   -17.1419 -17.1410 -17.1388 -17.1378 -17.1365 -17.1358 -17.1338 -17.1330
   -17.1324 -17.1299 -17.1296 -17.1281 -17.1264 -17.1260 -17.1250 -17.1246
   -17.1243 -17.1238 -17.1233 -17.1231 -17.1216 -17.1211 -17.1204 -17.1197
   -17.1193 -17.1155 -17.1129 -17.1112 -17.1109 -17.1097 -17.1090 -17.1067
   -17.1055 -17.1051 -17.1031 -17.1023 -17.1011 -17.0984 -17.0978 -17.0976
   -17.0952 -17.0943 -17.0943 -17.0925 -17.0914 -17.0897 -17.0893 -17.0890
   -17.0888 -17.0884 -17.0876 -17.0859 -17.0854 -17.0853 -17.0850 -17.0837
   -17.0821 -17.0792 -17.0745 -17.0721 -17.0711 -17.0689 -17.0679 -17.0674
   -17.0640 -17.0612 -17.0605 -17.0588 -17.0570 -17.0540 -17.0529 -17.0502
   -17.0461 -17.0423 -17.0419 -17.0415 -17.0389 -17.0383 -17.0370 -17.0366
   -17.0296 -17.0280 -17.0186 -17.0180 -17.0174 -17.0164 -17.0120 -17.0064
   -17.0063 -17.0015 -16.9957 -16.9902 -16.9898 -16.9881 -16.9820 -16.9782
   -16.9704  -5.2066  -5.0615  -4.7777  -4.7168  -4.6308  -4.5483  -4.4849
    -4.4471  -4.3040  -4.1992  -4.1212  -4.1008  -4.0725  -4.0083  -3.8950
    -3.7130  -3.7040  -3.6196  -3.5743  -3.5127  -3.4743  -3.3948  -3.3384
    -3.2983  -3.2448  -3.2045  -3.1549  -3.1320  -3.1089  -3.0504  -3.0326
    -2.9419  -2.9207  -2.9028  -2.8906  -2.8373  -2.8078  -2.7250  -2.6966
    -2.6418  -2.5701  -2.5193  -2.3690  -2.3275  -2.3195  -2.2004  -2.1502
    -2.0766  -2.0341  -2.0118  -2.0038  -1.9314  -1.9124  -1.8619  -1.8112
    -1.7660  -1.7464  -1.7089  -1.7044  -1.6231  -1.5503  -1.5423  -1.4461
    -1.4208  -0.6207  -0.5632  -0.5363  -0.4948  -0.4218  -0.3512  -0.3327
    -0.3060  -0.2431  -0.2020  -0.1838  -0.1555  -0.0988  -0.0856  -0.0118
    -0.0057   0.0365   0.0530   0.0938   0.1117   0.1306   0.1318   0.1844
     0.2322   0.2732   0.2987   0.3383   0.3431   0.3778   0.4029   0.7220
     0.8046   0.8677   0.9162   0.9357   0.9503   0.9822   0.9973   1.0201
     1.0797   1.1007   1.1293   1.1792   1.2170   1.6436   1.6894   1.8079
     1.8449   1.8835   2.0002   2.1330   2.1809   2.1968   2.2601   2.3273
     2.4263   2.9315   2.9630   2.9993   3.0066   3.0336   3.0380   3.0420
     3.0579   3.0755   3.1013   3.1174   3.1238   3.1500   3.1615   3.1781
     3.2168   3.2332   3.2691   3.3741   3.4652   3.5143   3.5583   3.5719
     3.6109   3.6258   3.6302   3.6647   3.6740   3.6911   3.7160   3.7334
     3.7450   3.7507   3.7565   3.7825   3.7926   3.7997   3.8334   3.8409
     3.8722   3.8875   3.9557   4.0919   4.1040   4.1194   4.1280   4.1618
     4.1675   4.1802   4.1907   4.2138   4.2251   4.2600   4.2812   4.3482
     4.3691   4.3819   4.4023   4.4089   4.4266   4.4569   4.4617   4.4867
     4.4926   4.5120   4.5300   4.6428   4.6608   4.6700   4.7386   4.7459
     4.7719   4.7838   4.7854   4.8306   4.8388   4.8591   4.8805   4.8856
     4.9076   4.9506   4.9691   4.9978   5.0222   5.0687   5.0823   5.1156
     5.1220   5.1426   5.1907   5.2014   5.2236   5.2302   5.2604   5.2692
     5.2775   5.2867   5.3075   5.3394   5.3589   5.3772   5.3975   5.4896
     5.5133   5.5491   5.5917   5.6117   5.6269   5.6284   5.6682   5.7565
     5.8022   5.8227   5.8510   5.8872   5.8946   5.9184   5.9420   5.9758
     6.0128   6.0274   6.0555   6.0886   6.1243   6.1715   6.2015   6.3233
     6.4165   6.4353   6.5091   6.5382   6.5840   6.9381   6.9914   7.0513
     7.1349   7.8885   7.9421   7.9824   7.9842   8.0367   8.0585   8.1283
     8.1785   8.2606   8.3249   8.3739   8.4529   8.4979   8.5543   8.6811
     8.7345   8.7860   8.8196   8.8400   8.8702   8.8810   8.9152   8.9325
     8.9402   8.9719   8.9819   9.0033   9.0293   9.0351   9.0519   9.0735
     9.0898   9.1327   9.1402   9.1679   9.1718   9.2010   9.2560   9.2676
     9.2980   9.3062   9.3409   9.3575   9.3676   9.3844   9.3959   9.4254
     9.4447   9.4664   9.4963   9.5059   9.5291   9.5317   9.5518   9.5827
     9.6017   9.6276   9.6559   9.7406   9.7639   9.7712   9.8132   9.8308
     9.8609   9.8955   9.9251   9.9340   9.9555   9.9806   9.9832  10.0080
    10.0280  10.0400  10.0718  10.1111  10.1276  10.1541  10.1622  10.1803
    10.2220  10.2731  10.2927  10.3001  10.3675  10.4062  10.4119  10.4380
    10.4614  10.4922  10.5197  10.5460  10.5761  10.5880  10.5981  10.6207
    10.6290  10.6517  10.6824  10.6964  10.7031  10.7400  10.7498  10.7537
    10.7689  10.7963  10.8070  10.8336  10.8514  10.9075  10.9243  10.9565
    10.9757

     occupation numbers 
     1.0000   1.0000   1.0000   1.0000   1.0000   1.0000   1.0000   1.0000
     1.0000   1.0000   1.0000   1.0000   1.0000   1.0000   1.0000   1.0000
     1.0000   1.0000   1.0000   1.0000   1.0000   1.0000   1.0000   1.0000
     1.0000   1.0000   1.0000   1.0000   1.0000   1.0000   1.0000   1.0000
     1.0000   1.0000   1.0000   1.0000   1.0000   1.0000   1.0000   1.0000
     1.0000   1.0000   1.0000   1.0000   1.0000   1.0000   1.0000   1.0000
     1.0000   1.0000   1.0000   1.0000   1.0000   1.0000   1.0000   1.0000
     1.0000   1.0000   1.0000   1.0000   1.0000   1.0000   1.0000   1.0000
     1.0000   1.0000   1.0000   1.0000   1.0000   1.0000   1.0000   1.0000
     1.0000   1.0000   1.0000   1.0000   1.0000   1.0000   1.0000   1.0000
     1.0000   1.0000   1.0000   1.0000   1.0000   1.0000   1.0000   1.0000
     1.0000   1.0000   1.0000   1.0000   1.0000   1.0000   1.0000   1.0000
     1.0000   1.0000   1.0000   1.0000   1.0000   1.0000   1.0000   1.0000
     1.0000   1.0000   1.0000   1.0000   1.0000   1.0000   1.0000   1.0000
     1.0000   1.0000   1.0000   1.0000   1.0000   1.0000   1.0000   1.0000
     1.0000   1.0000   1.0000   1.0000   1.0000   1.0000   1.0000   1.0000
     1.0000   1.0000   1.0000   1.0000   1.0000   1.0000   1.0000   1.0000
     1.0000   1.0000   1.0000   1.0000   1.0000   1.0000   1.0000   1.0000
     1.0000   1.0000   1.0000   1.0000   1.0000   1.0000   1.0000   1.0000
     1.0000   1.0000   1.0000   1.0000   1.0000   1.0000   1.0000   1.0000
     1.0000   1.0000   1.0000   1.0000   1.0000   1.0000   1.0000   1.0000
     1.0000   1.0000   1.0000   1.0000   1.0000   1.0000   1.0000   1.0000
     1.0000   1.0000   1.0000   1.0000   1.0000   1.0000   1.0000   1.0000
     1.0000   1.0000   1.0000   1.0000   1.0000   1.0000   1.0000   1.0000
     1.0000   1.0000   1.0000   1.0000   1.0000   1.0000   1.0000   1.0000
     1.0000   1.0000   1.0000   1.0000   1.0000   1.0000   1.0000   1.0000
     1.0000   1.0000   1.0000   1.0000   1.0000   1.0000   1.0000   1.0000
     1.0000   1.0000   1.0000   1.0000   1.0000   1.0000   1.0000   1.0000
     1.0000   1.0000   1.0000   1.0000   1.0000   1.0000   1.0000   1.0000
     1.0000   1.0000   1.0000   1.0000   1.0000   1.0000   1.0000   1.0000
     1.0000   1.0000   1.0000   1.0000   1.0000   1.0000   1.0000   1.0000
     1.0000   1.0000   1.0000   1.0000   1.0000   1.0000   1.0000   1.0000
     1.0000   1.0000   1.0000   1.0000   1.0000   1.0000   1.0000   1.0000
     1.0000   1.0000   1.0000   1.0000   1.0000   1.0000   1.0000   1.0000
     1.0000   1.0000   1.0000   1.0000   1.0000   1.0000   1.0000   1.0000
     1.0000   1.0000   1.0000   1.0000   1.0000   1.0000   1.0000   1.0000
     1.0000   1.0000   1.0000   1.0000   1.0000   1.0000   1.0000   1.0000
     1.0000   1.0000   1.0000   1.0000   1.0000   1.0000   1.0000   1.0000
     1.0000   1.0000   1.0000   1.0000   1.0000   1.0000   1.0000   1.0000
     1.0000   1.0000   1.0000   1.0000   1.0000   1.0000   1.0000   1.0000
     1.0000   1.0000   1.0000   1.0000   1.0000   1.0000   1.0000   1.0000
     1.0000   1.0000   1.0000   1.0000   1.0000   1.0000   1.0000   1.0000
     1.0000   1.0000   1.0000   1.0000   1.0000   1.0000   1.0000   1.0000
     1.0000   1.0000   1.0000   1.0000   1.0000   1.0000   1.0000   1.0000
     1.0000   1.0000   1.0000   1.0000   1.0000   1.0000   1.0000   1.0000
     1.0000   1.0000   1.0000   1.0000   1.0000   1.0000   1.0000   1.0000
     1.0000   1.0000   1.0000   1.0000   1.0000   1.0000   1.0000   1.0000
     1.0000   1.0000   1.0000   1.0000   1.0000   1.0000   1.0000   1.0000
     1.0000   1.0000   1.0000   1.0000   1.0000   1.0000   1.0000   1.0000
     1.0000   1.0000   1.0000   1.0000   1.0000   1.0000   1.0000   1.0000
     1.0000   1.0000   1.0000   1.0000   1.0000   1.0000   1.0000   1.0000
     1.0000   1.0000   1.0000   1.0000   1.0000   1.0000   1.0000   1.0000
     1.0000   1.0000   1.0000   1.0000   1.0000   1.0000   1.0000   1.0000
     1.0000   1.0000   1.0000   1.0000   1.0000   1.0000   1.0000   1.0000
     1.0000   1.0000   1.0000   1.0000   1.0000   1.0000   1.0000   1.0000
     1.0000   1.0000   1.0000   1.0000   1.0000   1.0000   1.0000   1.0000
     1.0000   1.0000   1.0000   1.0000   1.0000   1.0000   1.0000   1.0000
     1.0000   1.0000   1.0000   1.0000   1.0000   1.0000   1.0000   1.0000
     1.0000   1.0000   1.0000   1.0000   1.0000   1.0000   1.0000   1.0000
     1.0000   1.0000   1.0000   1.0000   1.0000   1.0000   1.0000   1.0000
     1.0000   1.0000   1.0000   1.0000   1.0000   1.0000   1.0000   1.0000
     1.0000   1.0000   1.0000   1.0000   1.0000   1.0000   1.0000   1.0000
     1.0000   1.0000   1.0000   1.0000   1.0000   1.0000   1.0000   1.0000
     1.0000   1.0000   1.0000   1.0000   1.0000   1.0000   1.0000   1.0000
     1.0000   1.0000   1.0000   1.0000   1.0000   1.0000   1.0000   1.0000
     1.0000   1.0000   1.0000   1.0000   1.0000   1.0000   1.0000   1.0000
     1.0000   1.0000   1.0000   1.0000   1.0000   1.0000   1.0000   1.0000
     1.0000   1.0000   1.0000   1.0000   1.0000   1.0000   1.0000   1.0000
     1.0000   1.0000   1.0000   1.0000   1.0000   1.0000   1.0000   1.0000
     1.0000   1.0000   1.0000   1.0000   1.0000   0.9999   0.9997   0.9987
     0.9924   0.0026   0.0008   0.0003   0.0003   0.0001   0.0000   0.0000
     0.0000   0.0000   0.0000   0.0000   0.0000   0.0000   0.0000   0.0000
     0.0000   0.0000   0.0000   0.0000   0.0000   0.0000   0.0000   0.0000
     0.0000   0.0000   0.0000   0.0000   0.0000   0.0000   0.0000   0.0000
     0.0000   0.0000   0.0000   0.0000   0.0000   0.0000   0.0000   0.0000
     0.0000   0.0000   0.0000   0.0000   0.0000   0.0000   0.0000   0.0000
     0.0000   0.0000   0.0000   0.0000   0.0000   0.0000   0.0000   0.0000
     0.0000   0.0000   0.0000   0.0000   0.0000   0.0000   0.0000   0.0000
     0.0000   0.0000   0.0000   0.0000   0.0000   0.0000   0.0000   0.0000
     0.0000   0.0000   0.0000   0.0000   0.0000   0.0000   0.0000   0.0000
     0.0000   0.0000   0.0000   0.0000   0.0000   0.0000   0.0000   0.0000
     0.0000   0.0000   0.0000   0.0000   0.0000   0.0000   0.0000   0.0000
     0.0000   0.0000   0.0000   0.0000   0.0000   0.0000   0.0000   0.0000
     0.0000   0.0000   0.0000   0.0000   0.0000   0.0000   0.0000   0.0000
     0.0000

          k =-0.7068 0.0009 0.0007 ( 64306 PWs)   bands (ev):

   -17.6996 -17.6713 -17.6169 -17.6082 -17.5865 -17.5857 -17.5656 -17.5639
   -17.5393 -17.5353 -17.5325 -17.5117 -17.5094 -17.4961 -17.4932 -17.4851
   -17.4775 -17.4733 -17.4714 -17.4697 -17.4636 -17.4536 -17.4478 -17.4445
   -17.4347 -17.4317 -17.4253 -17.4241 -17.4225 -17.4196 -17.4182 -17.4175
   -17.4129 -17.4105 -17.4105 -17.4043 -17.4005 -17.3969 -17.3964 -17.3935
   -17.3925 -17.3862 -17.3861 -17.3848 -17.3833 -17.3828 -17.3812 -17.3799
   -17.3775 -17.3764 -17.3740 -17.3726 -17.3709 -17.3692 -17.3654 -17.3650
   -17.3630 -17.3576 -17.3568 -17.3527 -17.3518 -17.3506 -17.3424 -17.3408
   -17.3375 -17.3374 -17.3318 -17.3246 -17.3192 -17.3176 -17.3168 -17.3153
   -17.3136 -17.3099 -17.3097 -17.3068 -17.3037 -17.3027 -17.3020 -17.3009
   -17.3004 -17.2977 -17.2955 -17.2947 -17.2884 -17.2865 -17.2860 -17.2811
   -17.2802 -17.2786 -17.2778 -17.2751 -17.2747 -17.2744 -17.2730 -17.2728
   -17.2723 -17.2706 -17.2703 -17.2685 -17.2681 -17.2659 -17.2638 -17.2636
   -17.2621 -17.2602 -17.2595 -17.2565 -17.2558 -17.2515 -17.2510 -17.2509
   -17.2496 -17.2488 -17.2468 -17.2460 -17.2452 -17.2448 -17.2437 -17.2434
   -17.2430 -17.2422 -17.2416 -17.2398 -17.2390 -17.2384 -17.2367 -17.2362
   -17.2353 -17.2345 -17.2320 -17.2304 -17.2286 -17.2266 -17.2260 -17.2249
   -17.2215 -17.2206 -17.2171 -17.2169 -17.2164 -17.2161 -17.2151 -17.2143
   -17.2100 -17.2096 -17.2090 -17.2083 -17.2068 -17.2061 -17.2054 -17.2048
   -17.2018 -17.2011 -17.1991 -17.1982 -17.1976 -17.1947 -17.1935 -17.1917
   -17.1912 -17.1899 -17.1897 -17.1888 -17.1858 -17.1848 -17.1846 -17.1833
   -17.1810 -17.1795 -17.1782 -17.1767 -17.1758 -17.1749 -17.1747 -17.1733
   -17.1712 -17.1701 -17.1692 -17.1676 -17.1668 -17.1663 -17.1662 -17.1650
   -17.1635 -17.1619 -17.1615 -17.1595 -17.1593 -17.1589 -17.1575 -17.1569
   -17.1549 -17.1527 -17.1523 -17.1520 -17.1508 -17.1485 -17.1485 -17.1483
   -17.1480 -17.1478 -17.1472 -17.1458 -17.1454 -17.1450 -17.1447 -17.1431
   -17.1422 -17.1410 -17.1388 -17.1379 -17.1363 -17.1359 -17.1338 -17.1331
   -17.1325 -17.1299 -17.1296 -17.1281 -17.1264 -17.1260 -17.1253 -17.1247
   -17.1243 -17.1239 -17.1232 -17.1231 -17.1219 -17.1211 -17.1204 -17.1197
   -17.1192 -17.1157 -17.1130 -17.1113 -17.1110 -17.1092 -17.1070 -17.1067
   -17.1055 -17.1050 -17.1035 -17.1029 -17.1011 -17.0988 -17.0978 -17.0976
   -17.0954 -17.0947 -17.0942 -17.0925 -17.0915 -17.0897 -17.0893 -17.0890
   -17.0888 -17.0884 -17.0874 -17.0861 -17.0857 -17.0853 -17.0845 -17.0836
   -17.0823 -17.0792 -17.0749 -17.0728 -17.0712 -17.0687 -17.0679 -17.0674
   -17.0640 -17.0616 -17.0605 -17.0585 -17.0570 -17.0539 -17.0529 -17.0503
   -17.0461 -17.0418 -17.0415 -17.0411 -17.0389 -17.0383 -17.0371 -17.0363
   -17.0296 -17.0280 -17.0190 -17.0181 -17.0174 -17.0164 -17.0120 -17.0064
   -17.0063 -17.0015 -16.9958 -16.9902 -16.9897 -16.9881 -16.9820 -16.9782
   -16.9704  -5.1786  -4.9928  -4.8476  -4.7967  -4.7846  -4.7017  -4.3044
    -4.1740  -4.1674  -4.1269  -4.0887  -4.0315  -4.0055  -3.9714  -3.9363
    -3.8539  -3.7879  -3.7798  -3.7103  -3.6333  -3.6072  -3.4769  -3.3492
    -3.3330  -3.2479  -3.1451  -3.1164  -3.0998  -3.0583  -3.0360  -2.9564
    -2.9341  -2.9098  -2.8147  -2.7838  -2.7272  -2.6973  -2.6616  -2.5990
    -2.5812  -2.5399  -2.4794  -2.4479  -2.4002  -2.3565  -2.3159  -2.2845
    -2.2296  -2.2130  -2.1780  -2.0848  -2.0283  -2.0106  -1.9504  -1.9067
    -1.8401  -1.6570  -1.5813  -1.4946  -1.3836  -1.2179  -1.1165  -1.0846
    -1.0626  -1.0496  -1.0098  -0.9364  -0.8249  -0.5818  -0.5389  -0.5083
    -0.4524  -0.1970  -0.1621  -0.1171  -0.0687  -0.0403   0.0051   0.0573
     0.0784   0.1076   0.1178   0.1579   0.1785   0.2146   0.2827   0.3110
     0.3181   0.3870   0.4144   0.4951   0.5179   0.5664   0.5934   0.6115
     0.6511   0.6914   0.7473   0.7831   0.7894   0.8282   0.8818   0.9687
     0.9834   1.0460   1.1257   1.4426   1.5172   1.5563   1.5743   1.5989
     1.6354   1.7042   1.8339   2.2947   2.3754   2.4189   2.4522   2.4631
     2.5172   2.6001   2.6209   2.8209   2.8233   2.8492   2.8823   2.9072
     2.9111   2.9202   2.9502   2.9678   2.9770   3.0080   3.0127   3.4795
     3.5177   3.5428   3.5485   3.5604   3.6026   3.6057   3.6487   3.6598
     3.6752   3.6789   3.6840   3.7008   3.7220   3.7333   3.7541   3.7583
     3.7747   3.7787   3.7829   3.7994   3.8232   3.8278   3.8658   4.0498
[...]
     atom   77 type  2   force =   0.00000000E+00  0.00000000E+00  0.00000000E+00
     atom   78 type  2   force =   0.00000000E+00  0.00000000E+00  0.00000000E+00
     atom   79 type  1   force =   0.00000000E+00  0.00000000E+00  0.00000000E+00
     atom   80 type  2   force =   0.00000000E+00  0.00000000E+00  0.00000000E+00
     atom   81 type  2   force =   0.00000000E+00  0.00000000E+00  0.00000000E+00
     atom   82 type  2   force =   0.00000000E+00  0.00000000E+00  0.00000000E+00
     atom   83 type  1   force =   0.00000000E+00  0.00000000E+00  0.00000000E+00
     atom   84 type  1   force =   0.00000000E+00  0.00000000E+00  0.00000000E+00
     atom   85 type  1   force =   0.00000000E+00  0.00000000E+00  0.00000000E+00
     atom   86 type  2   force =   0.00000000E+00  0.00000000E+00  0.00000000E+00
     atom   87 type  1   force =   0.00000000E+00  0.00000000E+00  0.00000000E+00
     atom   88 type  1   force =   0.00000000E+00  0.00000000E+00  0.00000000E+00
     atom   89 type  1   force =   0.00000000E+00  0.00000000E+00  0.00000000E+00
     atom   90 type  1   force =   0.00000000E+00  0.00000000E+00  0.00000000E+00
     atom   91 type  2   force =   0.00000000E+00  0.00000000E+00  0.00000000E+00
     atom   92 type  1   force =   0.00000000E+00  0.00000000E+00  0.00000000E+00
     atom   93 type  1   force =   0.00000000E+00  0.00000000E+00  0.00000000E+00
     atom   94 type  2   force =   0.00000000E+00  0.00000000E+00  0.00000000E+00
     atom   95 type  2   force =   0.00000000E+00  0.00000000E+00  0.00000000E+00
     atom   96 type  1   force =   0.00000000E+00  0.00000000E+00  0.00000000E+00
     atom   97 type  2   force =   0.00000000E+00  0.00000000E+00  0.00000000E+00
     atom   98 type  1   force =   0.00000000E+00  0.00000000E+00  0.00000000E+00
     atom   99 type  1   force =   0.00000000E+00  0.00000000E+00  0.00000000E+00
     atom  100 type  1   force =   0.00000000E+00  0.00000000E+00  0.00000000E+00
     atom  101 type  2   force =   0.00000000E+00  0.00000000E+00  0.00000000E+00
     atom  102 type  2   force =   0.00000000E+00  0.00000000E+00  0.00000000E+00
     atom  103 type  2   force =   0.00000000E+00  0.00000000E+00  0.00000000E+00
     atom  104 type  2   force =   0.00000000E+00  0.00000000E+00  0.00000000E+00
     atom  105 type  1   force =   0.00000000E+00  0.00000000E+00  0.00000000E+00
     atom  106 type  1   force =   0.00000000E+00  0.00000000E+00  0.00000000E+00
     atom  107 type  1   force =   0.00000000E+00  0.00000000E+00  0.00000000E+00
     atom  108 type  2   force =   0.00000000E+00  0.00000000E+00  0.00000000E+00
     atom  109 type  2   force =   0.00000000E+00  0.00000000E+00  0.00000000E+00
     atom  110 type  2   force =   0.00000000E+00  0.00000000E+00  0.00000000E+00
     atom  111 type  2   force =   0.00000000E+00  0.00000000E+00  0.00000000E+00
     atom  112 type  1   force =   0.00000000E+00  0.00000000E+00  0.00000000E+00
     atom  113 type  2   force =   0.00000000E+00  0.00000000E+00  0.00000000E+00
     atom  114 type  2   force =   0.00000000E+00  0.00000000E+00  0.00000000E+00
     atom  115 type  1   force =   0.00000000E+00  0.00000000E+00  0.00000000E+00
     atom  116 type  2   force =   0.00000000E+00  0.00000000E+00  0.00000000E+00
     atom  117 type  1   force =   0.00000000E+00  0.00000000E+00  0.00000000E+00
     atom  118 type  2   force =   0.00000000E+00  0.00000000E+00  0.00000000E+00
     atom  119 type  1   force =   0.00000000E+00  0.00000000E+00  0.00000000E+00
     atom  120 type  2   force =   0.00000000E+00  0.00000000E+00  0.00000000E+00
     atom  121 type  1   force =   0.00000000E+00  0.00000000E+00  0.00000000E+00
     atom  122 type  2   force =   0.00000000E+00  0.00000000E+00  0.00000000E+00
     atom  123 type  1   force =   0.00000000E+00  0.00000000E+00  0.00000000E+00
     atom  124 type  1   force =   0.00000000E+00  0.00000000E+00  0.00000000E+00
     atom  125 type  1   force =   0.00000000E+00  0.00000000E+00  0.00000000E+00
     atom  126 type  1   force =   0.00000000E+00  0.00000000E+00  0.00000000E+00
     atom  127 type  1   force =   0.00000000E+00  0.00000000E+00  0.00000000E+00
     atom  128 type  2   force =   0.00000000E+00  0.00000000E+00  0.00000000E+00
     The SCF correction term to forces
     atom    1 type  2   force =  -0.60614013E-05 -0.88214087E-05 -0.23950240E-05
     atom    2 type  1   force =  -0.11263273E-05 -0.38375401E-05  0.13184396E-05
     atom    3 type  2   force =   0.21710018E-05 -0.69371624E-05  0.40692102E-05
     atom    4 type  1   force =   0.33816290E-05  0.69171674E-07  0.83430720E-06
     atom    5 type  1   force =   0.21484005E-05 -0.17647645E-06  0.58733415E-06
     atom    6 type  2   force =   0.11167608E-04 -0.62579374E-05  0.46219943E-05
     atom    7 type  1   force =   0.19541124E-05  0.38532834E-06  0.15299374E-05
     atom    8 type  1   force =   0.13885116E-05 -0.97550696E-06  0.11676337E-05
     atom    9 type  2   force =   0.50867252E-05 -0.96858485E-05  0.27312979E-05
     atom   10 type  2   force =   0.31364251E-05 -0.39517323E-05  0.56660938E-05
     atom   11 type  2   force =   0.59681051E-05 -0.55890714E-05  0.76196666E-05
     atom   12 type  2   force =   0.93823882E-05  0.33214715E-05 -0.34319488E-05
     atom   13 type  2   force =   0.14740791E-04 -0.25776605E-05  0.48668868E-05
     atom   14 type  2   force =  -0.23042065E-07 -0.22557247E-05 -0.40817382E-05
     atom   15 type  2   force =   0.17480953E-06 -0.80370243E-05 -0.35391022E-05
     atom   16 type  2   force =  -0.45252490E-05 -0.28844980E-05 -0.61086688E-05
     atom   17 type  1   force =   0.18250940E-06  0.35594715E-06 -0.97755948E-06
     atom   18 type  2   force =  -0.37350784E-05 -0.36649839E-05 -0.19976358E-05
     atom   19 type  2   force =  -0.10500565E-07  0.60280987E-05  0.27358075E-06
     atom   20 type  2   force =  -0.88324328E-06  0.43605405E-06 -0.78297181E-05
     atom   21 type  1   force =  -0.11903462E-05 -0.22099810E-07 -0.34824613E-05
     atom   22 type  2   force =  -0.26937880E-05 -0.13451121E-05 -0.99119718E-05
     atom   23 type  2   force =  -0.15024703E-05  0.37712689E-05 -0.61120091E-05
     atom   24 type  2   force =   0.56522971E-05  0.58773966E-05 -0.66888387E-05
     atom   25 type  1   force =   0.39666285E-06  0.11686782E-05 -0.14580816E-06
     atom   26 type  1   force =  -0.15841587E-05 -0.37259787E-06  0.11819573E-06
     atom   27 type  2   force =  -0.11941902E-04 -0.10303041E-04 -0.77099458E-05
     atom   28 type  2   force =  -0.57171086E-05  0.30161729E-06 -0.11790581E-04
     atom   29 type  1   force =   0.50800753E-06  0.77551755E-06 -0.23160592E-05
     atom   30 type  2   force =   0.26671786E-05  0.30583744E-05  0.81656136E-06
     atom   31 type  1   force =   0.31303149E-06  0.12986292E-05 -0.81004645E-06
     atom   32 type  1   force =   0.62552458E-06  0.11695951E-05 -0.55060979E-06
     atom   33 type  1   force =  -0.95200020E-06 -0.20045615E-05  0.45764556E-06
     atom   34 type  2   force =   0.16537217E-05 -0.71204364E-05  0.11407227E-04
     atom   35 type  1   force =   0.12740815E-05 -0.68741564E-06  0.60414377E-06
     atom   36 type  1   force =   0.24012678E-05 -0.49554767E-07  0.87286064E-06
     atom   37 type  2   force =   0.97476367E-05  0.71367322E-05  0.63785611E-06
     atom   38 type  1   force =   0.12280991E-05  0.23355197E-06  0.41463892E-06
     atom   39 type  2   force =  -0.32900899E-05 -0.61973962E-05 -0.40706143E-05
     atom   40 type  2   force =  -0.18823564E-05 -0.90274115E-05 -0.53872683E-06
     atom   41 type  1   force =   0.10088510E-05 -0.19607142E-05  0.14869155E-05
     atom   42 type  1   force =   0.43484792E-06 -0.55516963E-06  0.24990638E-05
     atom   43 type  1   force =   0.24177757E-05 -0.64695622E-06  0.17335218E-05
     atom   44 type  1   force =  -0.15182696E-07  0.76211428E-07 -0.65637499E-06
     atom   45 type  1   force =   0.84725028E-06 -0.94759839E-06 -0.13642361E-05
     atom   46 type  1   force =  -0.42814795E-06  0.78684123E-06 -0.10918586E-05
     atom   47 type  1   force =   0.13769751E-06 -0.11776033E-05  0.56685350E-06
     atom   48 type  1   force =  -0.18182617E-06  0.33177348E-06  0.72828663E-06
     atom   49 type  1   force =   0.24779196E-06  0.11960319E-05  0.49648425E-06
     atom   50 type  1   force =  -0.20021654E-05 -0.44779307E-06  0.64733167E-06
     atom   51 type  1   force =  -0.26602975E-05 -0.16109019E-05 -0.11950030E-05
     atom   52 type  1   force =  -0.18958507E-05  0.34119684E-06 -0.97173026E-06
     atom   53 type  1   force =  -0.35171545E-06  0.22847945E-05 -0.22075784E-05
     atom   54 type  2   force =  -0.88432819E-06  0.85913422E-05  0.28348247E-05
     atom   55 type  2   force =  -0.96929334E-06  0.55789022E-05 -0.14627754E-05
     atom   56 type  1   force =  -0.45272889E-07  0.17839555E-05  0.38362600E-07
     atom   57 type  2   force =  -0.74090071E-05 -0.54695917E-05 -0.33484587E-05
     atom   58 type  1   force =  -0.34753672E-05 -0.18556325E-05 -0.38743828E-06
     atom   59 type  1   force =  -0.15838419E-05 -0.84251842E-07  0.23891286E-07
     atom   60 type  2   force =   0.17786345E-05  0.57371593E-05 -0.37234112E-05
     atom   61 type  1   force =   0.76434208E-06  0.20567368E-05 -0.63173634E-06
     atom   62 type  2   force =  -0.16013271E-06  0.86574904E-05 -0.38815079E-05
     atom   63 type  1   force =   0.49733241E-06  0.18832658E-05  0.87595182E-06
     atom   64 type  2   force =  -0.21314445E-05  0.45476931E-05 -0.43515999E-07
     atom   65 type  1   force =  -0.46591837E-06 -0.12353141E-06  0.21200782E-05
     atom   66 type  1   force =   0.34502547E-06 -0.11229200E-05  0.35439154E-05
     atom   67 type  2   force =   0.21210617E-05  0.31616846E-05  0.10546526E-04
     atom   68 type  1   force =   0.17238726E-05 -0.38739541E-07  0.10026249E-05
     atom   69 type  1   force =   0.24367589E-06  0.58596027E-06 -0.15396664E-05
     atom   70 type  2   force =   0.22141530E-05 -0.96192716E-05 -0.37890327E-05
     atom   71 type  2   force =  -0.20961311E-05  0.14947591E-05  0.11115532E-05
     atom   72 type  1   force =   0.87925509E-06 -0.10777238E-05  0.16056229E-05
     atom   73 type  1   force =   0.12370698E-05  0.54426379E-06  0.30900922E-05
     atom   74 type  2   force =  -0.58430706E-05 -0.38119953E-05  0.10186821E-04
     atom   75 type  2   force =  -0.49925656E-05 -0.11069274E-04  0.40347025E-05
     atom   76 type  2   force =  -0.14656135E-05  0.31291131E-05 -0.29234937E-05
     atom   77 type  2   force =   0.91689764E-05  0.26743134E-05  0.10613754E-05
     atom   78 type  2   force =   0.16720030E-05  0.31651031E-05  0.32350995E-05
     atom   79 type  1   force =   0.87729710E-07 -0.92789927E-06  0.16921950E-05
     atom   80 type  2   force =   0.22111608E-05  0.13651024E-05  0.27982278E-05
     atom   81 type  2   force =  -0.12794175E-04  0.49894736E-06 -0.48435714E-05
     atom   82 type  2   force =  -0.12602989E-04 -0.65649661E-05  0.88917502E-06
     atom   83 type  1   force =  -0.18735588E-05  0.10135435E-05  0.74663898E-06
     atom   84 type  1   force =  -0.77710381E-06  0.25272845E-05  0.14663459E-06
     atom   85 type  1   force =  -0.78113709E-06  0.29139224E-05 -0.74088218E-06
     atom   86 type  2   force =  -0.40206029E-05  0.58882101E-05 -0.25273410E-05
     atom   87 type  1   force =  -0.89182736E-07  0.20095181E-05  0.73339536E-06
     atom   88 type  1   force =  -0.16425972E-06  0.11130353E-05 -0.39225166E-06
     atom   89 type  1   force =  -0.29161839E-05 -0.13852149E-06  0.69087798E-07
     atom   90 type  1   force =  -0.25571912E-05  0.12472182E-05  0.12404903E-05
     atom   91 type  2   force =  -0.10907458E-04  0.72092938E-05  0.25967607E-05
     atom   92 type  1   force =  -0.91209508E-06  0.25944007E-05  0.41875341E-08
     atom   93 type  1   force =   0.89602871E-06  0.28158809E-05 -0.61939247E-07
     atom   94 type  2   force =   0.47790240E-05  0.30399659E-05 -0.14704708E-05
     atom   95 type  2   force =  -0.35449895E-05  0.30967135E-06 -0.38985489E-05
     atom   96 type  1   force =  -0.18984376E-05 -0.61477598E-06 -0.18220567E-05
     atom   97 type  2   force =   0.71236346E-05  0.22784005E-05  0.60659252E-05
     atom   98 type  1   force =   0.28111344E-06 -0.20854290E-05  0.21435787E-05
     atom   99 type  1   force =  -0.98395382E-06 -0.19709290E-05 -0.19731508E-06
     atom  100 type  1   force =   0.12899853E-05 -0.22087091E-05 -0.44936613E-06
     atom  101 type  2   force =   0.75511263E-05  0.28718444E-05 -0.29023478E-05
     atom  102 type  2   force =   0.85525351E-05 -0.36362634E-05  0.77756782E-05
     atom  103 type  2   force =   0.38492749E-05 -0.54366906E-05  0.26895042E-05
     atom  104 type  2   force =   0.61970137E-05 -0.18925375E-05  0.80208997E-05
     atom  105 type  1   force =  -0.10596356E-07 -0.25482318E-05  0.54283289E-06
     atom  106 type  1   force =  -0.14309626E-05 -0.27059697E-05  0.24575319E-06
     atom  107 type  1   force =   0.95219986E-06 -0.15065364E-05  0.14456029E-05
     atom  108 type  2   force =   0.92928077E-05  0.28196260E-05  0.10139802E-05
     atom  109 type  2   force =   0.12727863E-04  0.11069359E-05  0.39798741E-05
     atom  110 type  2   force =   0.12131733E-06 -0.17603963E-05  0.28836235E-05
     atom  111 type  2   force =   0.55688107E-05  0.33342388E-06  0.14147231E-04
     atom  112 type  1   force =   0.59833264E-06 -0.23009848E-07  0.16749503E-06
     atom  113 type  2   force =  -0.37688223E-05  0.44544303E-05 -0.50431789E-05
     atom  114 type  2   force =  -0.23965094E-05  0.26973497E-05  0.31980802E-05
     atom  115 type  1   force =  -0.80156744E-06  0.86948418E-06  0.29044287E-06
     atom  116 type  2   force =  -0.49429265E-06  0.38681807E-05 -0.42908473E-05
     atom  117 type  1   force =  -0.23090659E-06  0.24724133E-05 -0.97589524E-06
     atom  118 type  2   force =  -0.27400980E-05  0.39276143E-05 -0.61404592E-05
     atom  119 type  1   force =  -0.15343535E-05 -0.87248609E-07 -0.20412148E-05
     atom  120 type  2   force =  -0.33017089E-05 -0.36451350E-05 -0.97297316E-05
     atom  121 type  1   force =  -0.65527061E-06  0.15008195E-05 -0.61225256E-06
     atom  122 type  2   force =  -0.58172303E-05  0.29775985E-05 -0.25599521E-06
     atom  123 type  1   force =  -0.10392056E-05  0.10203120E-05  0.28389093E-06
     atom  124 type  1   force =  -0.11265621E-05  0.36545247E-06 -0.14174587E-05
     atom  125 type  1   force =  -0.42111256E-06  0.83940141E-07 -0.27925969E-05
     atom  126 type  1   force =  -0.43609731E-06 -0.30362577E-06 -0.24959947E-05
     atom  127 type  1   force =  -0.34849601E-06 -0.19140942E-06 -0.20295404E-05
     atom  128 type  2   force =   0.82227520E-06  0.48152624E-05 -0.53396373E-05

     Total force =     0.829920     Total SCF correction =     0.000078


     entering subroutine stress ...

          total   stress  (Ry/bohr**3)                   (kbar)     P=    8.01
   0.0000504911   0.0000149820  -0.0000154374          7.43      2.20     -2.27
   0.0000149820   0.0000600380  -0.0000096920          2.20      8.83     -1.43
  -0.0000154374  -0.0000096920   0.0000527718         -2.27     -1.43      7.76

     kinetic stress (kbar)   6194.90      0.17      3.16
                                0.17   6195.48      2.31
                                3.16      2.31   6194.63

     local   stress (kbar)  -4333.07  -3032.97  -1558.23
                            -3032.97  -5435.66   1642.32
                            -1558.23   1642.32  -6015.33

     nonloc. stress (kbar)   2463.89      0.35     -2.43
                                0.35   2464.40     -1.98
                               -2.43     -1.98   2463.99

     hartree stress (kbar)  16059.59   1464.05    822.70
                             1464.05  16617.08   -796.10
                              822.70   -796.10  16881.24

     exc-cor stress (kbar)  10446.08      0.04     -0.11
                                0.04  10446.07     -0.03
                               -0.11     -0.03  10446.09

     corecor stress (kbar) -15879.50     -0.03      0.20
                               -0.03 -15879.60      0.26
                                0.20      0.26 -15879.51

     ewald   stress (kbar) -14944.46   1570.60    732.44
                             1570.60 -14398.94   -848.21
                              732.44   -848.21 -14083.34

     hubbard stress (kbar)      0.00      0.00      0.00
                                0.00      0.00      0.00
                                0.00      0.00      0.00

     london  stress (kbar)      0.00      0.00      0.00
                                0.00      0.00      0.00
                                0.00      0.00      0.00

     XDM     stress (kbar)      0.00      0.00      0.00
                                0.00      0.00      0.00
                                0.00      0.00      0.00

     dft-nl  stress (kbar)      0.00      0.00      0.00
                                0.00      0.00      0.00
                                0.00      0.00      0.00



     Writing output data file SiGe_zns.scf.in.super.444.c.033.save

     init_run     :    993.91s CPU    763.45s WALL (       1 calls)
     electrons    :  50377.90s CPU  39626.57s WALL (       1 calls)
     forces       :    713.20s CPU    521.57s WALL (       1 calls)
     stress       :   3565.15s CPU   3522.05s WALL (       1 calls)

     Called by init_run:
     wfcinit      :    930.99s CPU    700.39s WALL (       1 calls)
     potinit      :      5.20s CPU      5.22s WALL (       1 calls)

     Called by electrons:
     c_bands      :  44656.28s CPU  34654.23s WALL (      16 calls)
     sum_band     :   4885.54s CPU   4135.48s WALL (      16 calls)
     v_of_rho     :     11.04s CPU     11.06s WALL (      16 calls)
     v_h          :      0.80s CPU      0.81s WALL (      16 calls)
     v_xc         :     11.39s CPU     11.41s WALL (      18 calls)
     newd         :    847.92s CPU    848.47s WALL (      16 calls)
     mix_rho      :     21.78s CPU     21.85s WALL (      16 calls)

     Called by c_bands:
     init_us_2    :     61.32s CPU     61.56s WALL (     280 calls)
     cegterg      :  44337.86s CPU  34330.32s WALL (     128 calls)

     Called by sum_band:
     sum_band:bec :     18.73s CPU     18.72s WALL (     128 calls)
     addusdens    :    619.03s CPU    619.64s WALL (      16 calls)

     Called by *egterg:
     h_psi        :  17986.08s CPU  14385.20s WALL (     524 calls)
     s_psi        :   4789.93s CPU   2931.65s WALL (     524 calls)
     g_psi        :      7.57s CPU      8.91s WALL (     388 calls)
     cdiaghg      :  13155.63s CPU  11249.47s WALL (     508 calls)
     cegterg:over :   4036.22s CPU   2771.98s WALL (     388 calls)
     cegterg:upda :   1949.61s CPU   1225.94s WALL (     388 calls)
     cegterg:last :   1309.67s CPU    810.37s WALL (     128 calls)

     Called by h_psi:
     h_psi:vloc   :   8148.11s CPU   8183.51s WALL (     524 calls)
     h_psi:vnl    :   9819.97s CPU   6183.28s WALL (     524 calls)
     add_vuspsi   :   4758.08s CPU   2927.34s WALL (     524 calls)

     General routines
     calbec       :   8011.96s CPU   5356.10s WALL (     668 calls)
     fft          :    342.84s CPU    343.06s WALL (     281 calls)
     ffts         :     12.84s CPU     12.91s WALL (     470 calls)
     fftw         :   9096.93s CPU   9134.19s WALL (  500882 calls)
     interpolate  :      2.68s CPU      2.67s WALL (      32 calls)

     Parallel routines
     fft_scatter  :   6227.84s CPU   6262.23s WALL (  501633 calls)

     PWSCF        :    15h28m CPU       12h21m WALL


   This run was terminated on:  18:14: 6   4Feb2017            

=------------------------------------------------------------------------------=
   JOB DONE.
=------------------------------------------------------------------------------=
