
     Program PWSCF v.5.1 starts on  4Feb2017 at  7:51:39 

     This program is part of the open-source Quantum ESPRESSO suite
     for quantum simulation of materials; please cite
         "P. Giannozzi et al., J. Phys.:Condens. Matter 21 395502 (2009);
          URL http://www.quantum-espresso.org", 
     in publications or presentations arising from this work. More details at
     http://www.quantum-espresso.org/quote

     Parallel version (MPI), running on    16 processors
     R & G space division:  proc/nbgrp/npool/nimage =      16
     Reading input from /tmp/SiGe_zns.scf.in.super.444.c.05.17244/SiGe_zns.scf.in.super.444.c.05.t
Warning: card &IONS ignored
Warning: card   ION_DYNAMICS='BFGS', ignored
Warning: card / ignored
Warning: card &CELL ignored
Warning: card  CELL_DYNAMICS = 'BFGS' ignored
Warning: card / ignored
     Message from routine read_cards :
     DEPRECATED: no units specified in CELL_PARAMETERS card

     Current dimensions of program PWSCF are:
     Max number of different atomic species (ntypx) = 10
     Max number of k-points (npk) =  40000
     Max angular momentum in pseudopotentials (lmaxx) =  3

     Subspace diagonalization in iterative solution of the eigenvalue problem:
     a serial algorithm will be used


     Parallelization info
     --------------------
     sticks:   dense  smooth     PW     G-vecs:    dense   smooth      PW
     Min         754     528    138                54769    32070    4321
     Max         755     529    139                54772    32093    4325
     Sum       12079    8449   2223               876337   513251   69181



     bravais-lattice index     =            0
     lattice parameter (alat)  =    29.604993568  a.u.
     unit-cell volume          =   18344.0971 (a.u.)^3
     number of atoms/cell      =          128
     number of atomic types    =            2
     number of electrons       =      1082.00
     number of Kohn-Sham states=          649
     kinetic-energy cutoff     =      35.0000  Ry
     charge density cutoff     =     200.0000  Ry
     convergence threshold     =      1.0E-09
     mixing beta               =       0.3000
     number of iterations used =            8  local-TF  mixing
     Exchange-correlation      = SLA  PW   PSX  PSC ( 1  4 10  8 0)
     A smooth kinetic-energy cutoff is imposed at      34.5000 Ry
     height of the smooth step-function =             800.0000 Ry
     width of the smooth step-function  =               1.0000 Ry


     celldm(1)=  29.604994  celldm(2)=   0.000000  celldm(3)=   0.000000
     celldm(4)=   0.000000  celldm(5)=   0.000000  celldm(6)=   0.000000

     crystal axes: (cart. coord. in units of alat)
               a(1) = (  -0.001070674989   0.706785912616   0.707426693999 )  
               a(2) = (   0.706188798837  -0.000301271173   0.706095673824 )  
               a(3) = (   0.706999547005   0.708143159941   0.000643788372 )  

     reciprocal axes: (cart. coord. in units 2 pi/alat)
               b(1) = ( -0.707267  0.705481  0.707661 )  
               b(2) = (  0.707956 -0.707457  0.707887 )  
               b(3) = (  0.706213  0.707714 -0.706004 )  


     PseudoPot. # 1 for Si read from file:
     /users/kfg/psuedo/gbrv_1.5/si.pbesol.UPF
     MD5 check sum: ef58ba74faed4df802eb8a9742fc00a8
     Pseudo is Ultrasoft + core correction, Zval =  4.0
     Generated by new atomic code, or converted to UPF format
     Using radial grid of  899 points,  6 beta functions with: 
                l(1) =   0
                l(2) =   0
                l(3) =   1
                l(4) =   1
                l(5) =   2
                l(6) =   2
     Q(r) pseudized with  8 coefficients,  rinner =    0.900   0.900   0.900
                                                       0.900   0.900

     PseudoPot. # 2 for Ge read from file:
     /users/kfg/psuedo/gbrv_1.5/ge.pbesol.UPF
     MD5 check sum: 7bed0412183f5e553a4d27ec7023354d
     Pseudo is Ultrasoft + core correction, Zval = 14.0
     Generated by new atomic code, or converted to UPF format
     Using radial grid of  873 points,  6 beta functions with: 
                l(1) =   0
                l(2) =   0
                l(3) =   1
                l(4) =   1
                l(5) =   2
                l(6) =   2
     Q(r) pseudized with  8 coefficients,  rinner =    1.400   1.400   1.400
                                                       1.400   1.400

     atomic species   valence    mass     pseudopotential
        Si             4.00    28.08550     Si( 1.00)
        Ge            14.00    72.64000     Ge( 1.00)

     No symmetry found


                                    s                        frac. trans.

      isym =  1     identity                                     

 cryst.   s( 1) = (     1          0          0      )
                  (     0          1          0      )
                  (     0          0          1      )

 cart.    s( 1) = (  1.0000000  0.0000000  0.0000000 )
                  ( -0.0000000  1.0000000 -0.0000000 )
                  ( -0.0000000  0.0000000  1.0000000 )


     point group C_1 (1)    
     there are  1 classes
     the character table:

       E    
A      1.00

     the symmetry operations in each class:
     E        1

   Cartesian axes

     site n.     atom                  positions (alat units)
         1           Si  tau(   1) = (   -0.00384417170   -0.00076784698    0.00612420910  )
         2           Si  tau(   2) = (    0.08964648896    0.08851139398    0.09482568523  )
         3           Si  tau(   3) = (    0.18080939977    0.17504600025   -0.00160121452  )
         4           Si  tau(   4) = (    0.26886855143    0.25938452275    0.09350839967  )
         5           Si  tau(   5) = (    0.35976020582    0.35232077540   -0.00220380547  )
         6           Ge  tau(   6) = (    0.44773622773    0.43649526147    0.09286674704  )
         7           Si  tau(   7) = (    0.52352375749    0.52536232501    0.00455049288  )
         8           Ge  tau(   8) = (    0.61592058220    0.61948600528    0.08478661791  )
         9           Si  tau(   9) = (    0.17827038783    0.00215154981    0.18107482735  )
        10           Ge  tau(  10) = (    0.26348615853    0.08452842218    0.27137344871  )
        11           Ge  tau(  11) = (    0.34806401647    0.17945363732    0.18138756419  )
        12           Si  tau(  12) = (    0.44084460415    0.26894984897    0.26747875342  )
        13           Ge  tau(  13) = (    0.53382327746    0.35277757090    0.18003608770  )
        14           Ge  tau(  14) = (    0.61222291441    0.44248494095    0.26129476273  )
        15           Si  tau(  15) = (    0.70540387962    0.52699501328    0.17794963972  )
        16           Ge  tau(  16) = (    0.79235885492    0.61814707499    0.26602363027  )
        17           Si  tau(  17) = (    0.35701436142    0.00088108211    0.35293420821  )
        18           Si  tau(  18) = (    0.44549990163    0.08797492090    0.43593536763  )
        19           Ge  tau(  19) = (    0.52526221587    0.17389344269    0.34882792099  )
        20           Ge  tau(  20) = (    0.61731006815    0.26860684258    0.44603729389  )
        21           Ge  tau(  21) = (    0.71263653033    0.34736909426    0.35015700792  )
        22           Si  tau(  22) = (    0.80114860403    0.43926143083    0.44503661103  )
        23           Ge  tau(  23) = (    0.88216900190    0.53209397376    0.35916559488  )
        24           Si  tau(  24) = (    0.97251345030    0.62013526093    0.44795623380  )
        25           Ge  tau(  25) = (    0.53423110251    0.00408262604    0.52490103824  )
        26           Si  tau(  26) = (    0.62040989440    0.09416574627    0.61347951137  )
        27           Si  tau(  27) = (    0.70429989721    0.17939253589    0.52985428524  )
        28           Ge  tau(  28) = (    0.79039855092    0.26774059994    0.61316088945  )
        29           Si  tau(  29) = (    0.88905153127    0.35034572595    0.52635178903  )
        30           Si  tau(  30) = (    0.96928914565    0.44765983086    0.62072070421  )
        31           Ge  tau(  31) = (    1.05565619176    0.52762243361    0.53629201557  )
        32           Si  tau(  32) = (    1.14271314787    0.61452735181    0.62509298547  )
        33           Ge  tau(  33) = (   -0.00519978006    0.18008596694    0.17611671092  )
        34           Si  tau(  34) = (    0.08960275041    0.26881404624    0.26536415856  )
        35           Si  tau(  35) = (    0.17721511302    0.34995228920    0.17519369985  )
        36           Si  tau(  36) = (    0.26553651695    0.44588826629    0.27213196846  )
        37           Si  tau(  37) = (    0.35552661334    0.53321376640    0.17490403838  )
        38           Si  tau(  38) = (    0.44340875838    0.61413217237    0.26889779365  )
        39           Si  tau(  39) = (    0.53553326298    0.70608319175    0.17360522584  )
        40           Ge  tau(  40) = (    0.61889811333    0.79480843604    0.26717859211  )
        41           Ge  tau(  41) = (    0.17088493607    0.17107273896    0.35082285550  )
        42           Si  tau(  42) = (    0.26258458388    0.26407572673    0.44231696752  )
        43           Si  tau(  43) = (    0.35517717397    0.34852696841    0.35101164040  )
        44           Ge  tau(  44) = (    0.44521026148    0.44078679729    0.44718266924  )
        45           Si  tau(  45) = (    0.53013670663    0.53247939613    0.34845585807  )
        46           Ge  tau(  46) = (    0.61294529274    0.62088568003    0.43622009343  )
        47           Si  tau(  47) = (    0.70689042178    0.70823843383    0.35981779189  )
        48           Si  tau(  48) = (    0.79454012716    0.79069801652    0.44745380520  )
        49           Ge  tau(  49) = (    0.34949970198    0.17170903981    0.52656480080  )
        50           Si  tau(  50) = (    0.43909780667    0.27153180000    0.61434734879  )
        51           Ge  tau(  51) = (    0.52978804124    0.34847335273    0.52474548105  )
        52           Ge  tau(  52) = (    0.61661641092    0.44427501334    0.62515263985  )
        53           Ge  tau(  53) = (    0.70213767268    0.52746339128    0.53693034186  )
        54           Ge  tau(  54) = (    0.79536669315    0.61516872602    0.61589906029  )
        55           Si  tau(  55) = (    0.88530115970    0.70290365946    0.52676013768  )
        56           Si  tau(  56) = (    0.97471753454    0.79639454699    0.62074920011  )
        57           Si  tau(  57) = (    0.52689194396    0.17323733514    0.71118780230  )
        58           Ge  tau(  58) = (    0.61815067991    0.26450859342    0.79767318362  )
        59           Si  tau(  59) = (    0.71077881386    0.35419930874    0.71268802210  )
        60           Ge  tau(  60) = (    0.78823976264    0.44533313619    0.78847361728  )
        61           Si  tau(  61) = (    0.88450378136    0.53204419509    0.70828903129  )
        62           Ge  tau(  62) = (    0.96756934679    0.62496296726    0.79815952902  )
        63           Si  tau(  63) = (    1.06031171039    0.70273861197    0.70387007738  )
        64           Si  tau(  64) = (    1.14365912459    0.79308450104    0.79510956235  )
        65           Ge  tau(  65) = (    0.00521741378    0.35977926562    0.35601151702  )
        66           Si  tau(  66) = (    0.09202985066    0.44644433180    0.44483832505  )
        67           Ge  tau(  67) = (    0.18115178756    0.53647627994    0.35126986603  )
        68           Si  tau(  68) = (    0.26389511111    0.62410236946    0.44042305655  )
        69           Si  tau(  69) = (    0.34726208583    0.71227345223    0.35350108231  )
        70           Ge  tau(  70) = (    0.44269913119    0.79063216278    0.44600339213  )
        71           Si  tau(  71) = (    0.52792901229    0.87778049904    0.35212009620  )
        72           Si  tau(  72) = (    0.61709030849    0.97112585649    0.44424718571  )
        73           Si  tau(  73) = (    0.17789191354    0.35802644125    0.53461397782  )
        74           Ge  tau(  74) = (    0.26583995074    0.43817844422    0.61381738298  )
        75           Si  tau(  75) = (    0.34975599699    0.53141477538    0.53200623835  )
        76           Si  tau(  76) = (    0.43519139806    0.61393987364    0.61440480615  )
        77           Ge  tau(  77) = (    0.53482746282    0.70744388482    0.52970379215  )
        78           Ge  tau(  78) = (    0.62011014796    0.79852267606    0.61599778497  )
        79           Si  tau(  79) = (    0.70254569055    0.87867762759    0.52453390644  )
        80           Si  tau(  80) = (    0.79682104707    0.97610167360    0.62115013837  )
        81           Si  tau(  81) = (    0.35558556412    0.35658825447    0.70191088900  )
        82           Ge  tau(  82) = (    0.44071128772    0.44825511521    0.79562195742  )
        83           Si  tau(  83) = (    0.52715561289    0.53240755209    0.71178330766  )
        84           Ge  tau(  84) = (    0.61732433998    0.61215526607    0.79864693259  )
        85           Si  tau(  85) = (    0.71146947136    0.71233104866    0.70116914620  )
        86           Si  tau(  86) = (    0.80100255963    0.79401664299    0.78937615346  )
        87           Ge  tau(  87) = (    0.87892802931    0.88267645428    0.70729201775  )
        88           Si  tau(  88) = (    0.97045848796    0.96723714156    0.80040528404  )
        89           Ge  tau(  89) = (    0.53144577434    0.34779827604    0.88480756736  )
        90           Ge  tau(  90) = (    0.61841818895    0.44429971323    0.97673098952  )
        91           Si  tau(  91) = (    0.71115826933    0.52556665007    0.87830215799  )
        92           Ge  tau(  92) = (    0.79275671647    0.62246422065    0.96980118181  )
        93           Ge  tau(  93) = (    0.88358552699    0.70425352623    0.88721735102  )
        94           Si  tau(  94) = (    0.96946944173    0.79007134813    0.97621521929  )
        95           Si  tau(  95) = (    1.05620375967    0.89000621808    0.88449234112  )
        96           Ge  tau(  96) = (    1.14969238392    0.96911267694    0.97577031127  )
        97           Ge  tau(  97) = (    0.00252136867    0.53093603345    0.52384232872  )
        98           Si  tau(  98) = (    0.08336577322    0.61299682196    0.61731829363  )
        99           Si  tau(  99) = (    0.17101655268    0.71306794291    0.52757662403  )
       100           Si  tau( 100) = (    0.25865805564    0.79044504684    0.61970095847  )
       101           Si  tau( 101) = (    0.35173227959    0.88015896146    0.53730946733  )
       102           Si  tau( 102) = (    0.43946580230    0.97060791442    0.62281405019  )
       103           Si  tau( 103) = (    0.52293481255    1.06262877970    0.53187800404  )
       104           Si  tau( 104) = (    0.61961587008    1.15592275039    0.62449560118  )
       105           Si  tau( 105) = (    0.17574169060    0.52988528999    0.70720504663  )
       106           Ge  tau( 106) = (    0.26166946026    0.61296542684    0.79936293658  )
       107           Si  tau( 107) = (    0.34699176793    0.70286871638    0.70324628012  )
       108           Ge  tau( 108) = (    0.43408916095    0.79259018688    0.79503079305  )
       109           Ge  tau( 109) = (    0.53214994555    0.88177752841    0.70274320933  )
       110           Si  tau( 110) = (    0.61754008509    0.97765712540    0.80079581172  )
       111           Ge  tau( 111) = (    0.71243509688    1.06432274357    0.71159731921  )
       112           Si  tau( 112) = (    0.79638109187    1.15176044721    0.79616108337  )
       113           Si  tau( 113) = (    0.35506547491    0.52601579397    0.88306568603  )
       114           Ge  tau( 114) = (    0.44122279660    0.62168282269    0.97771452144  )
       115           Ge  tau( 115) = (    0.53267830864    0.70127826861    0.87759842827  )
       116           Si  tau( 116) = (    0.62203773071    0.80006283544    0.97383435011  )
       117           Si  tau( 117) = (    0.70508394249    0.88740057089    0.87903831526  )
       118           Ge  tau( 118) = (    0.79624529325    0.97653254564    0.96653110746  )
       119           Ge  tau( 119) = (    0.87816266271    1.05648835156    0.88892798230  )
       120           Ge  tau( 120) = (    0.97650342738    1.14306124906    0.97061904214  )
       121           Ge  tau( 121) = (    0.52304357809    0.52857811483    1.05441966430  )
       122           Ge  tau( 122) = (    0.61151814478    0.62074093246    1.15105454210  )
       123           Ge  tau( 123) = (    0.70832678044    0.70267285854    1.06163150088  )
       124           Ge  tau( 124) = (    0.78812959824    0.80035619924    1.15427342521  )
       125           Ge  tau( 125) = (    0.88130209337    0.87815104712    1.05885775557  )
       126           Si  tau( 126) = (    0.96934557153    0.96730205463    1.14213957430  )
       127           Ge  tau( 127) = (    1.06469238035    1.05712095753    1.05857903085  )
       128           Si  tau( 128) = (    1.14594739659    1.14642767385    1.14297578098  )

   Crystallographic axes

     site n.     atom                  positions (cryst. coord.)
         1           Si  tau(   1) = (    0.00651101910    0.00215696201   -0.00758193262  )
         2           Si  tau(   2) = (    0.06614360401    0.06797371872    0.05900290696  )
         3           Si  tau(   3) = (   -0.00552193240    0.00303423578    0.25270277048  )
         4           Si  tau(   4) = (    0.05900138516    0.07303730389    0.30743102701  )
         5           Si  tau(   5) = (   -0.00745029653    0.00388281999    0.50496528110  )
         6           Ge  tau(   6) = (    0.05698844887    0.07391543326    0.55954631723  )
         7           Si  tau(   7) = (    0.00358250567    0.00218216287    0.73831245922  )
         8           Ge  tau(   8) = (    0.06141578563    0.05780478788    0.81352986329  )
         9           Si  tau(   9) = (    0.00357276143    0.25286605991   -0.00042003708  )
        10           Ge  tau(  10) = (    0.06531864758    0.31883828066    0.05430848053  )
        11           Ge  tau(  11) = (    0.00878797645    0.24786038947    0.24474866434  )
        12           Si  tau(  12) = (    0.06722864247    0.31117315961    0.31282846687  )
        13           Ge  tau(  13) = (   -0.00127298519    0.25579398416    0.49955204296  )
        14           Ge  tau(  14) = (    0.06406803719    0.30535540983    0.56103705024  )
        15           Si  tau(  15) = (   -0.00119560725    0.25253731294    0.74549351560  )
        16           Ge  tau(  16) = (    0.06393664480    0.31195796199    0.80923120000  )
        17           Si  tau(  17) = (   -0.00212501251    0.50196482997    0.00357870935  )
        18           Si  tau(  18) = (    0.05547187496    0.56174907615    0.06910667603  )
        19           Ge  tau(  19) = (   -0.00197001699    0.49577144377    0.24773971496  )
        20           Ge  tau(  20) = (    0.06853742522    0.56274495518    0.31114484647  )
        21           Ge  tau(  21) = (   -0.01116928755    0.50663862830    0.50189854971  )
        22           Si  tau(  22) = (    0.05819999854    0.57145552855    0.56245499124  )
        23           Ge  tau(  23) = (    0.00562099278    0.50235244836    0.74599672700  )
        24           Si  tau(  24) = (    0.06666853329    0.56688074005    0.80942060594  )
        25           Ge  tau(  25) = (   -0.00351166681    0.74689469433    0.00958794901  )
        26           Si  tau(  26) = (    0.06177243855    0.80687918583    0.07166481190  )
        27           Si  tau(  27) = (    0.00338739720    0.74677816615    0.25026486737  )
        28           Ge  tau(  28) = (    0.06377343459    0.80420151169    0.31477917195  )
        29           Si  tau(  29) = (   -0.00915561191    0.75415292370    0.50419746769  )
        30           Si  tau(  30) = (    0.06952948827    0.80891469384    0.56310798900  )
        31           Ge  tau(  31) = (    0.00511015098    0.75372273496    0.74029907436  )
        32           Si  tau(  32) = (    0.06768844978    0.81673487067    0.80058976744  )
        33           Ge  tau(  33) = (    0.25535589768   -0.00641344507   -0.00056191523  )
        34           Si  tau(  34) = (    0.31405816904    0.06110846724    0.06617386073  )
        35           Si  tau(  35) = (    0.24552422482    0.00190189823    0.24913013196  )
        36           Si  tau(  36) = (    0.31933791620    0.06518041572    0.31096023402  )
        37           Si  tau(  37) = (    0.24849297542   -0.00171593066    0.50495709802  )
        38           Si  tau(  38) = (    0.30993900526    0.06979150600    0.55792768779  )
        39           Si  tau(  39) = (    0.24221726672    0.00250389171    0.75533906765  )
        40           Ge  tau(  40) = (    0.31206831587    0.06499269467    0.81094128917  )
        41           Ge  tau(  41) = (    0.24809109966    0.24829554074   -0.00593065255  )
        42           Si  tau(  42) = (    0.31359368295    0.31218682088    0.06005308620  )
        43           Si  tau(  43) = (    0.24307154507    0.25335887382    0.24967233227  )
        44           Ge  tau(  44) = (    0.31253821927    0.31990678422    0.31065126078  )
        45           Si  tau(  45) = (    0.24729483843    0.24527502307    0.50522098157  )
        46           Ge  tau(  46) = (    0.31320339758    0.30348345656    0.56430589782  )
        47           Si  tau(  47) = (    0.25431790974    0.25411001504    0.74641217175  )
        48           Si  tau(  48) = (    0.31251648051    0.31986201504    0.80479791105  )
        49           Ge  tau(  49) = (    0.24657744007    0.49870229918   -0.00341481315  )
        50           Si  tau(  50) = (    0.31575106789    0.55365371767    0.06853161334  )
        51           Ge  tau(  51) = (    0.24248192954    0.49999762151    0.25029003423  )
        52           Ge  tau(  52) = (    0.31971163598    0.56476974200    0.30852162971  )
        53           Ge  tau(  53) = (    0.25548162812    0.50401146170    0.49007663895  )
        54           Ge  tau(  54) = (    0.30730140572    0.56386676439    0.56223419339  )
        55           Si  tau(  55) = (    0.24250893462    0.50236748295    0.75077066292  )
        56           Si  tau(  56) = (    0.31173618525    0.56606328124    0.81372577461  )
        57           Si  tau(  57) = (    0.25284249585    0.75389930267   -0.00740111775  )
        58           Ge  tau(  58) = (    0.31389073409    0.81515794355    0.06058185756  )
        59           Si  tau(  59) = (    0.25151234448    0.75712242444    0.24947219146  )
        60           Ge  tau(  60) = (    0.31465052273    0.80113582028    0.31516782352  )
        61           Si  tau(  61) = (    0.25099568103    0.75118059181    0.50112789721  )
        62           Ge  tau(  62) = (    0.32139648390    0.80786956234    0.56210081577  )
        63           Si  tau(  63) = (    0.24394715754    0.75175791943    0.74920822596  )
        64           Si  tau(  64) = (    0.31330227613    0.81143571799    0.80759281516  )
        65           Ge  tau(  65) = (    0.50206301740    0.00118150531    0.00695982664  )
        66           Si  tau(  66) = (    0.56466333007    0.06420850745    0.06688984882  )
        67           Ge  tau(  67) = (    0.49893142427   -0.00262665950    0.25960539756  )
        68           Si  tau(  68) = (    0.56531863857    0.05707074811    0.31711146284  )
        69           Si  tau(  69) = (    0.50704768092   -0.00781723770    0.49975338215  )
        70           Ge  tau(  70) = (    0.56028912396    0.06979383609    0.55730077216  )
        71           Si  tau(  71) = (    0.49505280817    0.00202042484    0.74544920686  )
        72           Si  tau(  72) = (    0.56304015269    0.06432052804    0.80943574503  )
        73           Si  tau(  73) = (    0.50508950418    0.25109793954    0.00157022439  )
        74           Ge  tau(  74) = (    0.55548169036    0.31272432250    0.06448699665  )
        75           Si  tau(  75) = (    0.50401256697    0.24825950313    0.24749315762  )
        76           Si  tau(  76) = (    0.56011712487    0.30869000255    0.30805914977  )
        77           Ge  tau(  77) = (    0.49567354693    0.25311919539    0.50439668462  )
        78           Ge  tau(  78) = (    0.56067722818    0.31014773423    0.56815820725  )
        79           Si  tau(  79) = (    0.49419568074    0.24705624365    0.74767581365  )
        80           Si  tau(  80) = (    0.56462025038    0.31326918951    0.81499115755  )
        81           Si  tau(  81) = (    0.49678758341    0.49634206699    0.00792964308  )
        82           Ge  tau(  82) = (    0.56756592727    0.55809390307    0.06676001919  )
        83           Si  tau(  83) = (    0.50646533069    0.50041020989    0.24655431300  )
        84           Ge  tau(  84) = (    0.56042251848    0.56931733245    0.30534509974  )
        85           Si  tau(  85) = (    0.49552768032    0.49609468303    0.51154702102  )
        86           Si  tau(  86) = (    0.55225223254    0.56413179816    0.57031194301  )
        87           Ge  tau(  87) = (    0.50159821109    0.49847035446    0.74604135085  )
        88           Si  tau(  88) = (    0.56241038311    0.56936059511    0.80478774609  )
        89           Ge  tau(  89) = (    0.49563519256    0.75653214694   -0.00322219384  )
        90           Ge  tau(  90) = (    0.56725308869    0.81490565503    0.06159591918  )
        91           Si  tau(  91) = (    0.48933914014    0.75339224438    0.25409496960  )
        92           Ge  tau(  92) = (    0.56473700026    0.80738054522    0.31569789509  )
        93           Ge  tau(  93) = (    0.49975624374    0.75536095883    0.49603024044  )
        94           Si  tau(  94) = (    0.56253660704    0.81845108774    0.55458415315  )
        95           Si  tau(  95) = (    0.50678575823    0.74422616746    0.75131898102  )
        96           Ge  tau(  96) = (    0.56106635990    0.81906215053    0.80888395163  )
        97           Ge  tau(  97) = (    0.74348511277   -0.00300786668    0.00769664050  )
        98           Si  tau(  98) = (    0.81034821322    0.06234243435    0.05687113115  )
        99           Si  tau(  99) = (    0.75544732850   -0.00992759076    0.25295086169  )
       100           Si  tau( 100) = (    0.81324231722    0.06259145998    0.30456509742  )
       101           Si  tau( 101) = (    0.75240022952    0.00669136660    0.49195574315  )
       102           Si  tau( 102) = (    0.81466754040    0.06534176127    0.55755965930  )
       103           Si  tau( 103) = (    0.75619976325   -0.00503905160    0.74583213066  )
       104           Si  tau( 104) = (    0.81917949004    0.06296829175    0.81474655139  )
       105           Si  tau( 105) = (    0.74998951196    0.25016801905   -0.00017138238  )
       106           Ge  tau( 106) = (    0.81304369710    0.31746292728    0.05424501710  )
       107           Si  tau( 107) = (    0.74810511666    0.24622497306    0.24598520343  )
       108           Ge  tau( 108) = (    0.81475317870    0.30938515993    0.30619137346  )
       109           Ge  tau( 109) = (    0.74300969302    0.25038254390    0.50371760636  )
       110           Si  tau( 110) = (    0.81964536649    0.31241456345    0.56265098792  )
       111           Ge  tau( 111) = (    0.75054792841    0.25514145640    0.75397594440  )
       112           Si  tau( 112) = (    0.81270387116    0.31257478152    0.81543818027  )
       113           Si  tau( 113) = (    0.74487962650    0.50434840889   -0.00042743758  )
       114           Ge  tau( 114) = (    0.81841402052    0.56466445963    0.06130037241  )
       115           Ge  tau( 115) = (    0.73903538932    0.50222974702    0.25290052068  )
       116           Si  tau( 116) = (    0.81362752826    0.56373070032    0.31797552938  )
       117           Si  tau( 117) = (    0.74942335723    0.49363123880    0.50536026685  )
       118           Ge  tau( 118) = (    0.80974415371    0.55704751855    0.57104923158  )
       119           Ge  tau( 119) = (    0.75329731717    0.50354192055    0.74027421586  )
       120           Ge  tau( 120) = (    0.80262930916    0.56974437528    0.81331832378  )
       121           Ge  tau( 121) = (    0.74914250391    0.74275611424   -0.00096235127  )
       122           Ge  tau( 122) = (    0.81997127666    0.80859764403    0.05851979497  )
       123           Ge  tau( 123) = (    0.74602195961    0.75586922515    0.24800461055  )
       124           Ge  tau( 124) = (    0.82405294156    0.80883944537    0.30808864823  )
       125           Ge  tau( 125) = (    0.74551596405    0.75222149608    0.49630852719  )
       126           Si  tau( 126) = (    0.80507541335    0.81043609937    0.56278204389  )
       127           Ge  tau( 127) = (    0.74187277580    0.75524306491    0.75267727453  )
       128           Si  tau( 128) = (    0.80713232314    0.80933082247    0.81367974568  )

     number of k points=     8  gaussian smearing, width (Ry)=  0.0150
                       cart. coord. in units 2pi/alat
        k(    1) = (   0.0000000   0.0000000   0.0000000), wk =   0.2500000
        k(    2) = (  -0.3531063  -0.3538568   0.3530019), wk =   0.2500000
        k(    3) = (  -0.3539781   0.3537283  -0.3539436), wk =   0.2500000
        k(    4) = (  -0.7070844  -0.0001286  -0.0009417), wk =   0.2500000
        k(    5) = (   0.3536335  -0.3527407  -0.3538306), wk =   0.2500000
        k(    6) = (   0.0005272  -0.7065975  -0.0008287), wk =   0.2500000
        k(    7) = (  -0.0003447   0.0009876  -0.7077742), wk =   0.2500000
        k(    8) = (  -0.3534509  -0.3528692  -0.3547723), wk =   0.2500000

                       cryst. coord.
        k(    1) = (   0.0000000   0.0000000   0.0000000), wk =   0.2500000
        k(    2) = (   0.0000000   0.0000000  -0.5000000), wk =   0.2500000
        k(    3) = (   0.0000000  -0.5000000  -0.0000000), wk =   0.2500000
        k(    4) = (   0.0000000  -0.5000000  -0.5000000), wk =   0.2500000
        k(    5) = (  -0.5000000   0.0000000   0.0000000), wk =   0.2500000
        k(    6) = (  -0.5000000   0.0000000  -0.5000000), wk =   0.2500000
        k(    7) = (  -0.5000000  -0.5000000  -0.0000000), wk =   0.2500000
        k(    8) = (  -0.5000000  -0.5000000  -0.5000000), wk =   0.2500000

     Dense  grid:   876337 G-vectors     FFT dimensions: ( 135, 135, 135)

     Smooth grid:   513251 G-vectors     FFT dimensions: ( 120, 120, 120)

     Largest allocated arrays     est. size (Mb)     dimensions
        Kohn-Sham Wavefunctions        39.77 Mb     (    4016,  649)
        NL pseudopotentials           141.19 Mb     (    4016, 2304)
        Each V/rho on FFT grid          2.50 Mb     (  164025)
        Each G-vector array             0.42 Mb     (   54772)
        G-vector shells                 0.41 Mb     (   53897)
     Largest temporary arrays     est. size (Mb)     dimensions
        Auxiliary wavefunctions       159.08 Mb     (    4016, 2596)
        Each subspace H/S matrix      102.83 Mb     (    2596, 2596)
        Each <psi_i|beta_j> matrix     22.82 Mb     (    2304,  649)
        Arrays for rho mixing          20.02 Mb     (  164025,    8)

     Initial potential from superposition of free atoms

     starting charge 1081.90792, renormalised to 1082.00000
     Starting wfc are  797 randomized atomic wfcs

     total cpu time spent up to now is      663.4 secs

     Self-consistent Calculation

     iteration #  1     ecut=    35.00 Ry     beta=0.30
     Davidson diagonalization with overlap
     ethr =  1.00E-02,  avg # of iterations =  3.0

     Threshold (ethr) on eigenvalues was too large:
     Diagonalizing with lowered threshold

     Davidson diagonalization with overlap
     ethr =  2.71E-04,  avg # of iterations =  6.8

     total cpu time spent up to now is     4734.6 secs

     total energy              =  -12830.03382192 Ry
     Harris-Foulkes estimate   =  -12830.34144633 Ry
     estimated scf accuracy    <       2.92526952 Ry

     iteration #  2     ecut=    35.00 Ry     beta=0.30
     Davidson diagonalization with overlap
     ethr =  2.70E-04,  avg # of iterations =  1.5

     total cpu time spent up to now is     6092.4 secs

     total energy              =  -12829.44300274 Ry
     Harris-Foulkes estimate   =  -12830.04899149 Ry
     estimated scf accuracy    <       1.80850836 Ry

     iteration #  3     ecut=    35.00 Ry     beta=0.30
     Davidson diagonalization with overlap
     ethr =  1.67E-04,  avg # of iterations =  2.8

     total cpu time spent up to now is     7767.4 secs

     total energy              =  -12829.56303807 Ry
     Harris-Foulkes estimate   =  -12829.56281415 Ry
     estimated scf accuracy    <       0.02968334 Ry

     iteration #  4     ecut=    35.00 Ry     beta=0.30
     Davidson diagonalization with overlap
     ethr =  2.74E-06,  avg # of iterations = 10.3

     total cpu time spent up to now is    12169.0 secs

     total energy              =  -12829.56707269 Ry
     Harris-Foulkes estimate   =  -12829.56809246 Ry
     estimated scf accuracy    <       0.01426132 Ry

     iteration #  5     ecut=    35.00 Ry     beta=0.30
     Davidson diagonalization with overlap
     ethr =  1.32E-06,  avg # of iterations =  2.0

     total cpu time spent up to now is    13952.6 secs

     total energy              =  -12829.56824041 Ry
     Harris-Foulkes estimate   =  -12829.56836446 Ry
     estimated scf accuracy    <       0.00105615 Ry

     iteration #  6     ecut=    35.00 Ry     beta=0.30
     Davidson diagonalization with overlap
     ethr =  9.76E-08,  avg # of iterations =  1.5

     total cpu time spent up to now is    15359.1 secs

     total energy              =  -12829.56813277 Ry
     Harris-Foulkes estimate   =  -12829.56828299 Ry
     estimated scf accuracy    <       0.00058437 Ry

     iteration #  7     ecut=    35.00 Ry     beta=0.30
     Davidson diagonalization with overlap
     ethr =  5.40E-08,  avg # of iterations =  2.4

     total cpu time spent up to now is    17052.2 secs

     total energy              =  -12829.56819137 Ry
     Harris-Foulkes estimate   =  -12829.56818530 Ry
     estimated scf accuracy    <       0.00011991 Ry

     iteration #  8     ecut=    35.00 Ry     beta=0.30
     Davidson diagonalization with overlap
     ethr =  1.11E-08,  avg # of iterations =  2.0

     total cpu time spent up to now is    18491.5 secs

     total energy              =  -12829.56818074 Ry
     Harris-Foulkes estimate   =  -12829.56819632 Ry
     estimated scf accuracy    <       0.00006125 Ry

     iteration #  9     ecut=    35.00 Ry     beta=0.30
     Davidson diagonalization with overlap
     ethr =  5.66E-09,  avg # of iterations =  3.0

     total cpu time spent up to now is    20539.5 secs

     total energy              =  -12829.56819073 Ry
     Harris-Foulkes estimate   =  -12829.56819609 Ry
     estimated scf accuracy    <       0.00001763 Ry

     iteration # 10     ecut=    35.00 Ry     beta=0.30
     Davidson diagonalization with overlap
     ethr =  1.63E-09,  avg # of iterations =  2.0

     total cpu time spent up to now is    22023.9 secs

     total energy              =  -12829.56819020 Ry
     Harris-Foulkes estimate   =  -12829.56819203 Ry
     estimated scf accuracy    <       0.00000415 Ry

     iteration # 11     ecut=    35.00 Ry     beta=0.30
     Davidson diagonalization with overlap
     ethr =  3.84E-10,  avg # of iterations =  2.0

     total cpu time spent up to now is    24094.9 secs

     total energy              =  -12829.56819102 Ry
     Harris-Foulkes estimate   =  -12829.56819093 Ry
     estimated scf accuracy    <       0.00000030 Ry

     iteration # 12     ecut=    35.00 Ry     beta=0.30
     Davidson diagonalization with overlap
     ethr =  2.73E-11,  avg # of iterations =  2.4

     total cpu time spent up to now is    25708.0 secs

     total energy              =  -12829.56819111 Ry
     Harris-Foulkes estimate   =  -12829.56819106 Ry
     estimated scf accuracy    <       0.00000012 Ry

     iteration # 13     ecut=    35.00 Ry     beta=0.30
     Davidson diagonalization with overlap
     ethr =  1.09E-11,  avg # of iterations =  2.0

     total cpu time spent up to now is    27357.7 secs

     total energy              =  -12829.56819116 Ry
     Harris-Foulkes estimate   =  -12829.56819112 Ry
     estimated scf accuracy    <       0.00000001 Ry

     iteration # 14     ecut=    35.00 Ry     beta=0.30
     Davidson diagonalization with overlap
     ethr =  1.25E-12,  avg # of iterations =  2.9

     total cpu time spent up to now is    29091.9 secs

     total energy              =  -12829.56819117 Ry
     Harris-Foulkes estimate   =  -12829.56819116 Ry
     estimated scf accuracy    <          8.2E-09 Ry

     iteration # 15     ecut=    35.00 Ry     beta=0.30
     Davidson diagonalization with overlap
     ethr =  7.58E-13,  avg # of iterations =  3.0

     total cpu time spent up to now is    31023.8 secs

     total energy              =  -12829.56819118 Ry
     Harris-Foulkes estimate   =  -12829.56819118 Ry
     estimated scf accuracy    <          1.9E-09 Ry

     iteration # 16     ecut=    35.00 Ry     beta=0.30
     Davidson diagonalization with overlap
     ethr =  1.72E-13,  avg # of iterations =  2.5

     total cpu time spent up to now is    32754.7 secs

     End of self-consistent calculation

          k = 0.0000 0.0000 0.0000 ( 64125 PWs)   bands (ev):

   -17.7812 -17.7428 -17.7387 -17.7173 -17.6942 -17.6778 -17.6665 -17.6363
   -17.6313 -17.6294 -17.6201 -17.6147 -17.6134 -17.6117 -17.6020 -17.5748
   -17.5700 -17.5698 -17.5604 -17.5585 -17.5496 -17.5463 -17.5449 -17.5406
   -17.5359 -17.5341 -17.5329 -17.5295 -17.5278 -17.5234 -17.5147 -17.5075
   -17.5049 -17.4999 -17.4927 -17.4911 -17.4890 -17.4859 -17.4804 -17.4799
   -17.4794 -17.4790 -17.4770 -17.4693 -17.4621 -17.4614 -17.4585 -17.4517
   -17.4496 -17.4474 -17.4435 -17.4382 -17.4370 -17.4340 -17.4332 -17.4278
   -17.4244 -17.4193 -17.4186 -17.4167 -17.4155 -17.4146 -17.4134 -17.4104
   -17.4096 -17.4054 -17.4038 -17.4029 -17.3943 -17.3914 -17.3892 -17.3882
   -17.3872 -17.3868 -17.3848 -17.3838 -17.3820 -17.3795 -17.3785 -17.3757
   -17.3754 -17.3725 -17.3724 -17.3716 -17.3706 -17.3682 -17.3640 -17.3630
   -17.3607 -17.3554 -17.3522 -17.3511 -17.3460 -17.3451 -17.3442 -17.3433
   -17.3425 -17.3416 -17.3382 -17.3378 -17.3350 -17.3344 -17.3281 -17.3275
   -17.3268 -17.3251 -17.3244 -17.3226 -17.3214 -17.3166 -17.3142 -17.3132
   -17.3130 -17.3091 -17.3083 -17.3066 -17.3053 -17.3046 -17.3040 -17.3033
   -17.3016 -17.3008 -17.2992 -17.2972 -17.2964 -17.2933 -17.2932 -17.2931
   -17.2924 -17.2908 -17.2892 -17.2885 -17.2883 -17.2845 -17.2843 -17.2839
   -17.2823 -17.2816 -17.2802 -17.2758 -17.2755 -17.2741 -17.2729 -17.2714
   -17.2712 -17.2698 -17.2691 -17.2680 -17.2677 -17.2673 -17.2659 -17.2653
   -17.2649 -17.2638 -17.2634 -17.2629 -17.2618 -17.2612 -17.2606 -17.2594
   -17.2581 -17.2571 -17.2563 -17.2552 -17.2519 -17.2514 -17.2504 -17.2498
   -17.2491 -17.2486 -17.2483 -17.2467 -17.2466 -17.2450 -17.2420 -17.2407
   -17.2394 -17.2381 -17.2351 -17.2337 -17.2302 -17.2292 -17.2284 -17.2279
   -17.2272 -17.2248 -17.2213 -17.2210 -17.2206 -17.2181 -17.2167 -17.2142
   -17.2131 -17.2107 -17.2104 -17.2095 -17.2083 -17.2071 -17.2061 -17.2053
   -17.2049 -17.2038 -17.2018 -17.2001 -17.1993 -17.1988 -17.1976 -17.1973
   -17.1960 -17.1941 -17.1938 -17.1935 -17.1912 -17.1911 -17.1813 -17.1803
   -17.1801 -17.1795 -17.1794 -17.1784 -17.1782 -17.1775 -17.1759 -17.1751
   -17.1744 -17.1729 -17.1708 -17.1703 -17.1690 -17.1689 -17.1680 -17.1646
   -17.1642 -17.1637 -17.1624 -17.1616 -17.1608 -17.1587 -17.1578 -17.1505
   -17.1468 -17.1461 -17.1458 -17.1438 -17.1407 -17.1399 -17.1394 -17.1374
   -17.1362 -17.1352 -17.1350 -17.1336 -17.1328 -17.1320 -17.1266 -17.1258
   -17.1253 -17.1249 -17.1230 -17.1188 -17.1187 -17.1138 -17.1131 -17.1128
   -17.1080 -17.1053 -17.1048 -17.1011 -17.1005 -17.0999 -17.0917 -17.0912
   -17.0910 -17.0877 -17.0875 -17.0843 -17.0832 -17.0734 -17.0659 -17.0590
   -17.0588 -17.0540 -17.0233 -17.0172 -17.0114  -5.3849  -4.9029  -4.8083
    -4.7373  -4.7141  -4.6353  -4.5251  -4.4717  -4.4196  -4.4091  -4.3514
    -4.2308  -4.1918  -4.1477  -4.0658  -3.6607  -3.6355  -3.5994  -3.5165
    -3.4771  -3.4552  -3.3903  -3.3261  -3.2981  -3.2642  -3.2045  -3.1764
    -3.1215  -3.0806  -3.0621  -3.0017  -2.9784  -2.9458  -2.8606  -2.8526
    -2.7797  -2.7590  -2.7112  -2.6737  -2.6417  -2.6311  -2.6057  -2.5494
    -2.5353  -2.4767  -2.4236  -2.3799  -2.3757  -2.3508  -2.3080  -2.2404
    -2.2153  -2.1999  -2.1270  -2.0825  -1.5088  -1.3869  -1.2962  -1.2578
    -1.2238  -1.1718  -1.1692  -1.0719  -1.0163  -0.9996  -0.9795  -0.9558
    -0.9218  -0.8848  -0.8553  -0.8187  -0.7551  -0.6694  -0.3304  -0.2165
    -0.1403  -0.0563  -0.0336   0.0239   0.0588   0.0993   0.1239   0.1729
     0.2118   0.2269   0.2591   0.2879   0.3253   0.3635   0.3837   0.3960
     0.4379   0.4480   0.4818   0.5410   0.5582   0.5883   0.6259   0.6410
     0.6934   0.7157   1.0828   1.1524   1.1880   1.2076   1.2463   1.2618
     1.2907   1.3075   1.3641   1.3767   1.4120   1.4591   2.6464   2.6987
     2.7501   2.8238   2.8336   2.8875   2.9110   2.9321   2.9948   2.9960
     3.0302   3.0403   3.0833   3.0894   3.1088   3.1195   3.1291   3.1499
     3.1707   3.1758   3.1792   3.1926   3.2063   3.2256   3.2365   3.2511
     3.2561   3.2581   3.2799   3.2993   3.3082   3.3271   3.3445   3.3498
     3.3617   3.3772   3.3903   3.4049   3.4225   3.4308   3.4406   3.4618
     3.4790   3.4824   3.4901   3.4950   3.5206   3.5259   3.5314   3.5654
     3.5734   3.5951   3.5966   3.6081   3.6247   3.6363   3.6476   3.6662
     3.6789   3.6894   3.7234   3.7546   4.1243   4.1544   4.1731   4.1837
     4.2076   4.2391   4.6289   4.6401   4.6525   4.6785   4.6951   4.7299
     4.7534   4.7626   4.7932   4.7997   4.8154   4.8277   4.8431   4.8546
     4.8637   4.8901   4.9081   4.9153   4.9321   4.9436   4.9679   4.9862
     5.0089   5.0314   5.0849   5.1149   5.1521   5.1738   5.1812   5.1992
     5.2045   5.2179   5.2338   5.2516   5.3037   5.3165   5.5927   5.6175
     5.6326   5.6710   5.7026   5.7140   5.7548   5.7647   5.7733   5.7915
     5.7998   5.8191   5.8536   5.8983   5.9016   5.9452   5.9524   5.9646
     5.9955   6.0463   6.1869   6.2079   6.2484   6.2900   6.3098   6.3168
     6.3561   6.3690   6.4228   6.4381   6.4544   6.4880   6.5008   6.5092
     6.5933   6.6034   7.1050   7.2460   7.3130   7.6284   7.6569   7.6978
     7.7137   7.7695   7.7864   7.8674   7.8964   7.9421   7.9714   8.0261
     8.0609   8.0843   8.1274   8.1471   8.1662   8.2002   8.2147   8.2822
     8.2996   8.3189   8.3398   8.3599   8.3774   8.4040   8.4284   8.4391
     8.4582   8.4732   8.5001   8.5045   8.5274   8.5483   8.5812   8.5973
     8.6123   8.6219   8.6559   8.6629   8.6728   8.6916   8.7155   8.7463
     8.7568   8.7705   8.7832   8.8241   8.8546   8.9911   9.2170   9.2497
     9.2837   9.2976   9.3177   9.3469   9.3697   9.3970   9.4037   9.4377
     9.4516   9.4598   9.5786   9.6175   9.7138  10.0210  10.0335  10.0816
    10.0882  10.1193  10.1443  10.3243  10.3607  10.4005  10.4307  10.4609
    10.4935  10.5159  10.5252  10.5314  10.5643  10.6002  10.6077  10.6189
    10.6417  10.6465  10.6599  10.6765  10.6909  10.6977  10.7563  10.7820
    10.7947  10.8384  10.9170  11.1870  11.2103  11.2562  11.2594  11.2687
    11.2757  11.2935  11.3216  11.3299  11.3508  11.3621  11.3644  11.3818
    11.3980

     occupation numbers 
     1.0000   1.0000   1.0000   1.0000   1.0000   1.0000   1.0000   1.0000
     1.0000   1.0000   1.0000   1.0000   1.0000   1.0000   1.0000   1.0000
     1.0000   1.0000   1.0000   1.0000   1.0000   1.0000   1.0000   1.0000
     1.0000   1.0000   1.0000   1.0000   1.0000   1.0000   1.0000   1.0000
     1.0000   1.0000   1.0000   1.0000   1.0000   1.0000   1.0000   1.0000
     1.0000   1.0000   1.0000   1.0000   1.0000   1.0000   1.0000   1.0000
     1.0000   1.0000   1.0000   1.0000   1.0000   1.0000   1.0000   1.0000
     1.0000   1.0000   1.0000   1.0000   1.0000   1.0000   1.0000   1.0000
     1.0000   1.0000   1.0000   1.0000   1.0000   1.0000   1.0000   1.0000
     1.0000   1.0000   1.0000   1.0000   1.0000   1.0000   1.0000   1.0000
     1.0000   1.0000   1.0000   1.0000   1.0000   1.0000   1.0000   1.0000
     1.0000   1.0000   1.0000   1.0000   1.0000   1.0000   1.0000   1.0000
     1.0000   1.0000   1.0000   1.0000   1.0000   1.0000   1.0000   1.0000
     1.0000   1.0000   1.0000   1.0000   1.0000   1.0000   1.0000   1.0000
     1.0000   1.0000   1.0000   1.0000   1.0000   1.0000   1.0000   1.0000
     1.0000   1.0000   1.0000   1.0000   1.0000   1.0000   1.0000   1.0000
     1.0000   1.0000   1.0000   1.0000   1.0000   1.0000   1.0000   1.0000
     1.0000   1.0000   1.0000   1.0000   1.0000   1.0000   1.0000   1.0000
     1.0000   1.0000   1.0000   1.0000   1.0000   1.0000   1.0000   1.0000
     1.0000   1.0000   1.0000   1.0000   1.0000   1.0000   1.0000   1.0000
     1.0000   1.0000   1.0000   1.0000   1.0000   1.0000   1.0000   1.0000
     1.0000   1.0000   1.0000   1.0000   1.0000   1.0000   1.0000   1.0000
     1.0000   1.0000   1.0000   1.0000   1.0000   1.0000   1.0000   1.0000
     1.0000   1.0000   1.0000   1.0000   1.0000   1.0000   1.0000   1.0000
     1.0000   1.0000   1.0000   1.0000   1.0000   1.0000   1.0000   1.0000
     1.0000   1.0000   1.0000   1.0000   1.0000   1.0000   1.0000   1.0000
     1.0000   1.0000   1.0000   1.0000   1.0000   1.0000   1.0000   1.0000
     1.0000   1.0000   1.0000   1.0000   1.0000   1.0000   1.0000   1.0000
     1.0000   1.0000   1.0000   1.0000   1.0000   1.0000   1.0000   1.0000
     1.0000   1.0000   1.0000   1.0000   1.0000   1.0000   1.0000   1.0000
     1.0000   1.0000   1.0000   1.0000   1.0000   1.0000   1.0000   1.0000
     1.0000   1.0000   1.0000   1.0000   1.0000   1.0000   1.0000   1.0000
     1.0000   1.0000   1.0000   1.0000   1.0000   1.0000   1.0000   1.0000
     1.0000   1.0000   1.0000   1.0000   1.0000   1.0000   1.0000   1.0000
     1.0000   1.0000   1.0000   1.0000   1.0000   1.0000   1.0000   1.0000
     1.0000   1.0000   1.0000   1.0000   1.0000   1.0000   1.0000   1.0000
     1.0000   1.0000   1.0000   1.0000   1.0000   1.0000   1.0000   1.0000
     1.0000   1.0000   1.0000   1.0000   1.0000   1.0000   1.0000   1.0000
     1.0000   1.0000   1.0000   1.0000   1.0000   1.0000   1.0000   1.0000
     1.0000   1.0000   1.0000   1.0000   1.0000   1.0000   1.0000   1.0000
     1.0000   1.0000   1.0000   1.0000   1.0000   1.0000   1.0000   1.0000
     1.0000   1.0000   1.0000   1.0000   1.0000   1.0000   1.0000   1.0000
     1.0000   1.0000   1.0000   1.0000   1.0000   1.0000   1.0000   1.0000
     1.0000   1.0000   1.0000   1.0000   1.0000   1.0000   1.0000   1.0000
     1.0000   1.0000   1.0000   1.0000   1.0000   1.0000   1.0000   1.0000
     1.0000   1.0000   1.0000   1.0000   1.0000   1.0000   1.0000   1.0000
     1.0000   1.0000   1.0000   1.0000   1.0000   1.0000   1.0000   1.0000
     1.0000   1.0000   1.0000   1.0000   1.0000   1.0000   1.0000   1.0000
     1.0000   1.0000   1.0000   1.0000   1.0000   1.0000   1.0000   1.0000
     1.0000   1.0000   1.0000   1.0000   1.0000   1.0000   1.0000   1.0000
     1.0000   1.0000   1.0000   1.0000   1.0000   1.0000   1.0000   1.0000
     1.0000   1.0000   1.0000   1.0000   1.0000   1.0000   1.0000   1.0000
     1.0000   1.0000   1.0000   1.0000   1.0000   1.0000   1.0000   1.0000
     1.0000   1.0000   1.0000   1.0000   1.0000   1.0000   1.0000   1.0000
     1.0000   1.0000   1.0000   1.0000   1.0000   1.0000   1.0000   1.0000
     1.0000   1.0000   1.0000   1.0000   1.0000   1.0000   1.0000   1.0000
     1.0000   1.0000   1.0000   1.0000   1.0000   1.0000   1.0000   1.0000
     1.0000   1.0000   1.0000   1.0000   1.0000   1.0000   1.0000   1.0000
     1.0000   1.0000   1.0000   1.0000   1.0000   1.0000   1.0000   1.0000
     1.0000   1.0000   1.0000   1.0000   1.0000   1.0000   1.0000   1.0000
     1.0000   1.0000   1.0000   1.0000   1.0000   1.0000   1.0000   1.0000
     1.0000   1.0000   1.0000   1.0000   1.0000   1.0000   1.0000   1.0000
     1.0000   1.0000   1.0000   1.0000   1.0000   1.0000   1.0000   1.0000
     1.0000   1.0000   1.0000   1.0000   1.0000   1.0000   1.0000   1.0000
     1.0000   1.0000   1.0000   1.0000   1.0000   1.0000   1.0000   1.0000
     1.0000   1.0000   1.0000   1.0000   1.0000   1.0000   1.0000   1.0000
     1.0000   1.0000   1.0000   1.0000   1.0000   1.0000   1.0000   1.0000
     1.0000   1.0000   0.9757   0.8403   0.7024   0.0490   0.0320   0.0164
     0.0124   0.0042   0.0030   0.0005   0.0002   0.0001   0.0000   0.0000
     0.0000   0.0000   0.0000   0.0000   0.0000   0.0000   0.0000   0.0000
     0.0000   0.0000   0.0000   0.0000   0.0000   0.0000   0.0000   0.0000
     0.0000   0.0000   0.0000   0.0000   0.0000   0.0000   0.0000   0.0000
     0.0000   0.0000   0.0000   0.0000   0.0000   0.0000   0.0000   0.0000
     0.0000   0.0000   0.0000   0.0000   0.0000   0.0000   0.0000   0.0000
     0.0000   0.0000   0.0000   0.0000   0.0000   0.0000   0.0000   0.0000
     0.0000   0.0000   0.0000   0.0000   0.0000   0.0000   0.0000   0.0000
     0.0000   0.0000   0.0000   0.0000   0.0000   0.0000   0.0000   0.0000
     0.0000   0.0000   0.0000   0.0000   0.0000   0.0000   0.0000   0.0000
     0.0000   0.0000   0.0000   0.0000   0.0000   0.0000   0.0000   0.0000
     0.0000   0.0000   0.0000   0.0000   0.0000   0.0000   0.0000   0.0000
     0.0000   0.0000   0.0000   0.0000   0.0000   0.0000   0.0000   0.0000
     0.0000

          k =-0.3531-0.3539 0.3530 ( 64150 PWs)   bands (ev):

   -17.7813 -17.7429 -17.7387 -17.7174 -17.6942 -17.6778 -17.6666 -17.6364
   -17.6313 -17.6294 -17.6201 -17.6147 -17.6134 -17.6118 -17.6020 -17.5748
   -17.5700 -17.5698 -17.5604 -17.5585 -17.5496 -17.5463 -17.5450 -17.5407
   -17.5359 -17.5341 -17.5332 -17.5293 -17.5277 -17.5234 -17.5147 -17.5076
   -17.5049 -17.4999 -17.4928 -17.4909 -17.4891 -17.4859 -17.4802 -17.4800
   -17.4794 -17.4793 -17.4770 -17.4695 -17.4619 -17.4614 -17.4587 -17.4518
   -17.4496 -17.4475 -17.4435 -17.4382 -17.4371 -17.4338 -17.4331 -17.4279
   -17.4244 -17.4194 -17.4186 -17.4167 -17.4156 -17.4146 -17.4134 -17.4104
   -17.4096 -17.4054 -17.4038 -17.4030 -17.3942 -17.3915 -17.3893 -17.3883
   -17.3873 -17.3869 -17.3848 -17.3838 -17.3821 -17.3795 -17.3785 -17.3757
   -17.3754 -17.3726 -17.3725 -17.3716 -17.3706 -17.3683 -17.3640 -17.3629
   -17.3607 -17.3551 -17.3522 -17.3511 -17.3468 -17.3452 -17.3442 -17.3432
   -17.3423 -17.3418 -17.3382 -17.3377 -17.3351 -17.3347 -17.3279 -17.3276
   -17.3267 -17.3252 -17.3240 -17.3229 -17.3216 -17.3167 -17.3143 -17.3135
   -17.3127 -17.3093 -17.3081 -17.3067 -17.3053 -17.3049 -17.3039 -17.3031
   -17.3014 -17.3004 -17.3000 -17.2974 -17.2965 -17.2936 -17.2933 -17.2930
   -17.2924 -17.2909 -17.2892 -17.2885 -17.2883 -17.2847 -17.2844 -17.2839
   -17.2823 -17.2816 -17.2801 -17.2759 -17.2755 -17.2741 -17.2730 -17.2715
   -17.2713 -17.2698 -17.2691 -17.2680 -17.2677 -17.2673 -17.2660 -17.2653
   -17.2649 -17.2638 -17.2634 -17.2629 -17.2619 -17.2613 -17.2607 -17.2594
   -17.2582 -17.2572 -17.2563 -17.2552 -17.2520 -17.2514 -17.2505 -17.2497
   -17.2492 -17.2486 -17.2484 -17.2468 -17.2466 -17.2451 -17.2421 -17.2408
   -17.2395 -17.2378 -17.2351 -17.2339 -17.2302 -17.2292 -17.2284 -17.2280
   -17.2272 -17.2248 -17.2213 -17.2211 -17.2206 -17.2181 -17.2167 -17.2143
   -17.2131 -17.2108 -17.2104 -17.2096 -17.2083 -17.2072 -17.2060 -17.2054
   -17.2050 -17.2039 -17.2018 -17.2001 -17.1993 -17.1989 -17.1977 -17.1973
   -17.1960 -17.1941 -17.1938 -17.1936 -17.1913 -17.1910 -17.1814 -17.1803
   -17.1802 -17.1795 -17.1794 -17.1784 -17.1782 -17.1775 -17.1760 -17.1751
   -17.1744 -17.1730 -17.1709 -17.1704 -17.1691 -17.1689 -17.1681 -17.1647
   -17.1642 -17.1638 -17.1624 -17.1617 -17.1609 -17.1587 -17.1579 -17.1506
   -17.1468 -17.1462 -17.1458 -17.1438 -17.1404 -17.1402 -17.1394 -17.1375
   -17.1362 -17.1352 -17.1350 -17.1336 -17.1327 -17.1320 -17.1267 -17.1258
   -17.1253 -17.1249 -17.1230 -17.1188 -17.1188 -17.1138 -17.1130 -17.1128
   -17.1081 -17.1054 -17.1049 -17.1011 -17.1005 -17.0999 -17.0917 -17.0912
   -17.0911 -17.0877 -17.0874 -17.0844 -17.0832 -17.0734 -17.0659 -17.0591
   -17.0588 -17.0540 -17.0233 -17.0172 -17.0114  -5.2651  -5.1495  -4.8599
    -4.8065  -4.6764  -4.6611  -4.5679  -4.5197  -4.2786  -4.2461  -4.2363
    -4.1403  -4.0377  -4.0011  -3.8452  -3.8253  -3.7619  -3.6821  -3.6373
    -3.5925  -3.4876  -3.4323  -3.4020  -3.3747  -3.3449  -3.2715  -3.2229
    -3.1553  -3.1113  -3.0817  -3.0658  -3.0332  -2.9775  -2.9662  -2.9083
    -2.8522  -2.8283  -2.7857  -2.7124  -2.7054  -2.5169  -2.4895  -2.4790
    -2.4164  -2.3666  -2.2487  -2.2033  -2.1820  -2.1262  -2.0847  -2.0293
    -2.0198  -1.9213  -1.8915  -1.8499  -1.8075  -1.7212  -1.7008  -1.6568
    -1.6411  -1.6196  -1.5485  -1.5334  -1.4578  -0.6864  -0.5369  -0.5197
    -0.4984  -0.4604  -0.4357  -0.4005  -0.3561  -0.3209  -0.2630  -0.2506
    -0.2194  -0.2063  -0.1568  -0.1371  -0.0969  -0.0698  -0.0520   0.0417
     0.0528   0.0846   0.1277   0.1463   0.1625   0.2096   0.2198   0.2436
     0.3051   0.3946   0.4542   0.6750   0.7318   0.7621   0.8268   0.8634
     0.9012   0.9165   0.9576   1.0017   1.0136   1.0603   1.0692   1.0999
     1.1488   1.6237   1.6929   1.6993   1.7485   1.8623   1.9044   2.1079
     2.1187   2.1871   2.2044   2.2743   2.3267   2.7982   2.8477   2.8509
     2.8848   2.9198   2.9270   2.9491   2.9769   3.0012   3.0269   3.0436
     3.0520   3.0788   3.1058   3.1319   3.1509   3.1662   3.2181   3.2860
     3.3561   3.4102   3.4649   3.4830   3.5188   3.5323   3.5537   3.5969
     3.6024   3.6212   3.6271   3.6465   3.6696   3.6818   3.6900   3.7071
     3.7186   3.7498   3.7721   3.7805   3.7933   3.8334   3.8674   3.9660
     4.0218   4.0332   4.0602   4.0708   4.0912   4.1062   4.1270   4.1548
     4.1695   4.1773   4.1975   4.2448   4.2846   4.2909   4.2982   4.3113
     4.3330   4.3611   4.3888   4.3942   4.4348   4.4404   4.4542   4.5644
     4.5880   4.6298   4.6562   4.6865   4.6934   4.7142   4.7214   4.7558
     4.7720   4.7945   4.8022   4.8166   4.8270   4.8441   4.8967   4.9256
     4.9465   5.0234   5.0426   5.0802   5.0912   5.1005   5.1233   5.1356
     5.1410   5.1564   5.1654   5.2004   5.2155   5.2452   5.2621   5.2680
     5.2807   5.3052   5.3399   5.3637   5.4268   5.4429   5.4648   5.4758
     5.5137   5.5595   5.5951   5.6664   5.6958   5.7621   5.7712   5.7888
     5.8146   5.8208   5.8567   5.8861   5.9080   5.9203   5.9563   5.9879
     5.9945   6.0717   6.1401   6.2356   6.2912   6.3013   6.3590   6.4359
     6.4982   6.7667   6.8796   6.9450   7.0064   7.7725   7.8296   7.8548
     7.9017   7.9273   8.0051   8.0762   8.1215   8.1997   8.2343   8.2906
     8.3289   8.4155   8.4601   8.6527   8.6593   8.6810   8.7401   8.7476
     8.7602   8.8017   8.8211   8.8496   8.8593   8.8862   8.9040   8.9138
     8.9505   8.9728   8.9908   9.0137   9.0161   9.0376   9.0741   9.0827
     9.0955   9.1222   9.1430   9.1916   9.2345   9.2636   9.2884   9.3079
     9.3215   9.3446   9.3650   9.3840   9.3942   9.4250   9.4329   9.4516
     9.4572   9.4771   9.4872   9.5048   9.5281   9.5445   9.5557   9.6675
     9.6752   9.7324   9.7448   9.7669   9.7734   9.7943   9.8265   9.8428
     9.8637   9.8849   9.9350   9.9499   9.9670   9.9959  10.0050  10.0132
    10.0465  10.0861  10.1024  10.1123  10.1941  10.2046  10.2525  10.2990
    10.3125  10.3368  10.3630  10.3779  10.4018  10.4219  10.4473  10.4781
    10.4863  10.4949  10.5189  10.5349  10.5508  10.5731  10.5916  10.5998
    10.6195  10.6498  10.6643  10.6766  10.6975  10.7187  10.7276  10.7637
    10.7974

     occupation numbers 
     1.0000   1.0000   1.0000   1.0000   1.0000   1.0000   1.0000   1.0000
     1.0000   1.0000   1.0000   1.0000   1.0000   1.0000   1.0000   1.0000
     1.0000   1.0000   1.0000   1.0000   1.0000   1.0000   1.0000   1.0000
     1.0000   1.0000   1.0000   1.0000   1.0000   1.0000   1.0000   1.0000
     1.0000   1.0000   1.0000   1.0000   1.0000   1.0000   1.0000   1.0000
     1.0000   1.0000   1.0000   1.0000   1.0000   1.0000   1.0000   1.0000
     1.0000   1.0000   1.0000   1.0000   1.0000   1.0000   1.0000   1.0000
     1.0000   1.0000   1.0000   1.0000   1.0000   1.0000   1.0000   1.0000
     1.0000   1.0000   1.0000   1.0000   1.0000   1.0000   1.0000   1.0000
     1.0000   1.0000   1.0000   1.0000   1.0000   1.0000   1.0000   1.0000
     1.0000   1.0000   1.0000   1.0000   1.0000   1.0000   1.0000   1.0000
     1.0000   1.0000   1.0000   1.0000   1.0000   1.0000   1.0000   1.0000
     1.0000   1.0000   1.0000   1.0000   1.0000   1.0000   1.0000   1.0000
     1.0000   1.0000   1.0000   1.0000   1.0000   1.0000   1.0000   1.0000
     1.0000   1.0000   1.0000   1.0000   1.0000   1.0000   1.0000   1.0000
     1.0000   1.0000   1.0000   1.0000   1.0000   1.0000   1.0000   1.0000
     1.0000   1.0000   1.0000   1.0000   1.0000   1.0000   1.0000   1.0000
     1.0000   1.0000   1.0000   1.0000   1.0000   1.0000   1.0000   1.0000
     1.0000   1.0000   1.0000   1.0000   1.0000   1.0000   1.0000   1.0000
     1.0000   1.0000   1.0000   1.0000   1.0000   1.0000   1.0000   1.0000
     1.0000   1.0000   1.0000   1.0000   1.0000   1.0000   1.0000   1.0000
     1.0000   1.0000   1.0000   1.0000   1.0000   1.0000   1.0000   1.0000
     1.0000   1.0000   1.0000   1.0000   1.0000   1.0000   1.0000   1.0000
     1.0000   1.0000   1.0000   1.0000   1.0000   1.0000   1.0000   1.0000
     1.0000   1.0000   1.0000   1.0000   1.0000   1.0000   1.0000   1.0000
     1.0000   1.0000   1.0000   1.0000   1.0000   1.0000   1.0000   1.0000
     1.0000   1.0000   1.0000   1.0000   1.0000   1.0000   1.0000   1.0000
     1.0000   1.0000   1.0000   1.0000   1.0000   1.0000   1.0000   1.0000
     1.0000   1.0000   1.0000   1.0000   1.0000   1.0000   1.0000   1.0000
     1.0000   1.0000   1.0000   1.0000   1.0000   1.0000   1.0000   1.0000
     1.0000   1.0000   1.0000   1.0000   1.0000   1.0000   1.0000   1.0000
     1.0000   1.0000   1.0000   1.0000   1.0000   1.0000   1.0000   1.0000
     1.0000   1.0000   1.0000   1.0000   1.0000   1.0000   1.0000   1.0000
     1.0000   1.0000   1.0000   1.0000   1.0000   1.0000   1.0000   1.0000
     1.0000   1.0000   1.0000   1.0000   1.0000   1.0000   1.0000   1.0000
     1.0000   1.0000   1.0000   1.0000   1.0000   1.0000   1.0000   1.0000
     1.0000   1.0000   1.0000   1.0000   1.0000   1.0000   1.0000   1.0000
     1.0000   1.0000   1.0000   1.0000   1.0000   1.0000   1.0000   1.0000
     1.0000   1.0000   1.0000   1.0000   1.0000   1.0000   1.0000   1.0000
     1.0000   1.0000   1.0000   1.0000   1.0000   1.0000   1.0000   1.0000
     1.0000   1.0000   1.0000   1.0000   1.0000   1.0000   1.0000   1.0000
     1.0000   1.0000   1.0000   1.0000   1.0000   1.0000   1.0000   1.0000
     1.0000   1.0000   1.0000   1.0000   1.0000   1.0000   1.0000   1.0000
     1.0000   1.0000   1.0000   1.0000   1.0000   1.0000   1.0000   1.0000
     1.0000   1.0000   1.0000   1.0000   1.0000   1.0000   1.0000   1.0000
     1.0000   1.0000   1.0000   1.0000   1.0000   1.0000   1.0000   1.0000
     1.0000   1.0000   1.0000   1.0000   1.0000   1.0000   1.0000   1.0000
     1.0000   1.0000   1.0000   1.0000   1.0000   1.0000   1.0000   1.0000
     1.0000   1.0000   1.0000   1.0000   1.0000   1.0000   1.0000   1.0000
     1.0000   1.0000   1.0000   1.0000   1.0000   1.0000   1.0000   1.0000
     1.0000   1.0000   1.0000   1.0000   1.0000   1.0000   1.0000   1.0000
     1.0000   1.0000   1.0000   1.0000   1.0000   1.0000   1.0000   1.0000
     1.0000   1.0000   1.0000   1.0000   1.0000   1.0000   1.0000   1.0000
     1.0000   1.0000   1.0000   1.0000   1.0000   1.0000   1.0000   1.0000
     1.0000   1.0000   1.0000   1.0000   1.0000   1.0000   1.0000   1.0000
     1.0000   1.0000   1.0000   1.0000   1.0000   1.0000   1.0000   1.0000
     1.0000   1.0000   1.0000   1.0000   1.0000   1.0000   1.0000   1.0000
     1.0000   1.0000   1.0000   1.0000   1.0000   1.0000   1.0000   1.0000
     1.0000   1.0000   1.0000   1.0000   1.0000   1.0000   1.0000   1.0000
     1.0000   1.0000   1.0000   1.0000   1.0000   1.0000   1.0000   1.0000
     1.0000   1.0000   1.0000   1.0000   1.0000   1.0000   1.0000   1.0000
     1.0000   1.0000   1.0000   1.0000   1.0000   1.0000   1.0000   1.0000
     1.0000   1.0000   1.0000   1.0000   1.0000   1.0000   1.0000   1.0000
     1.0000   1.0000   1.0000   1.0000   1.0000   1.0000   1.0000   1.0000
     1.0000   1.0000   1.0000   1.0000   1.0000   1.0000   1.0000   1.0000
     1.0000   1.0000   1.0000   1.0000   1.0000   1.0000   1.0000   1.0000
     1.0000   1.0000   1.0000   1.0000   1.0000   1.0000   1.0000   1.0000
     1.0000   1.0000   0.9998   0.9990   0.9960   0.0040   0.0011   0.0006
     0.0002   0.0001   0.0000   0.0000   0.0000   0.0000   0.0000   0.0000
     0.0000   0.0000   0.0000   0.0000   0.0000   0.0000   0.0000   0.0000
     0.0000   0.0000   0.0000   0.0000   0.0000   0.0000   0.0000   0.0000
     0.0000   0.0000   0.0000   0.0000   0.0000   0.0000   0.0000   0.0000
     0.0000   0.0000   0.0000   0.0000   0.0000   0.0000   0.0000   0.0000
     0.0000   0.0000   0.0000   0.0000   0.0000   0.0000   0.0000   0.0000
     0.0000   0.0000   0.0000   0.0000   0.0000   0.0000   0.0000   0.0000
     0.0000   0.0000   0.0000   0.0000   0.0000   0.0000   0.0000   0.0000
     0.0000   0.0000   0.0000   0.0000   0.0000   0.0000   0.0000   0.0000
     0.0000   0.0000   0.0000   0.0000   0.0000   0.0000   0.0000   0.0000
     0.0000   0.0000   0.0000   0.0000   0.0000   0.0000   0.0000   0.0000
     0.0000   0.0000   0.0000   0.0000   0.0000   0.0000   0.0000   0.0000
     0.0000   0.0000   0.0000   0.0000   0.0000   0.0000   0.0000   0.0000
     0.0000

          k =-0.3540 0.3537-0.3539 ( 64132 PWs)   bands (ev):

   -17.7813 -17.7429 -17.7387 -17.7174 -17.6943 -17.6778 -17.6666 -17.6364
   -17.6313 -17.6294 -17.6201 -17.6147 -17.6135 -17.6118 -17.6021 -17.5748
   -17.5700 -17.5698 -17.5604 -17.5585 -17.5496 -17.5463 -17.5449 -17.5407
   -17.5359 -17.5341 -17.5329 -17.5296 -17.5278 -17.5234 -17.5147 -17.5075
   -17.5049 -17.4999 -17.4927 -17.4911 -17.4891 -17.4859 -17.4804 -17.4800
   -17.4794 -17.4790 -17.4770 -17.4693 -17.4621 -17.4614 -17.4586 -17.4518
   -17.4496 -17.4475 -17.4435 -17.4382 -17.4370 -17.4340 -17.4332 -17.4279
   -17.4244 -17.4193 -17.4187 -17.4167 -17.4155 -17.4147 -17.4134 -17.4105
   -17.4096 -17.4054 -17.4038 -17.4030 -17.3943 -17.3915 -17.3892 -17.3883
   -17.3873 -17.3868 -17.3848 -17.3838 -17.3820 -17.3796 -17.3785 -17.3758
   -17.3755 -17.3726 -17.3725 -17.3716 -17.3706 -17.3682 -17.3640 -17.3630
   -17.3607 -17.3554 -17.3522 -17.3512 -17.3461 -17.3452 -17.3443 -17.3433
   -17.3425 -17.3416 -17.3383 -17.3379 -17.3351 -17.3344 -17.3282 -17.3275
   -17.3268 -17.3252 -17.3244 -17.3226 -17.3214 -17.3166 -17.3143 -17.3133
   -17.3130 -17.3091 -17.3083 -17.3066 -17.3053 -17.3047 -17.3040 -17.3034
   -17.3016 -17.3007 -17.2992 -17.2972 -17.2965 -17.2934 -17.2933 -17.2932
   -17.2924 -17.2909 -17.2892 -17.2885 -17.2883 -17.2846 -17.2843 -17.2839
   -17.2823 -17.2817 -17.2802 -17.2759 -17.2754 -17.2741 -17.2730 -17.2715
   -17.2713 -17.2698 -17.2691 -17.2680 -17.2677 -17.2673 -17.2661 -17.2653
   -17.2649 -17.2638 -17.2634 -17.2629 -17.2618 -17.2612 -17.2607 -17.2594
   -17.2582 -17.2571 -17.2563 -17.2552 -17.2520 -17.2515 -17.2504 -17.2498
   -17.2492 -17.2486 -17.2484 -17.2468 -17.2467 -17.2450 -17.2420 -17.2407
   -17.2394 -17.2381 -17.2352 -17.2337 -17.2302 -17.2292 -17.2285 -17.2279
   -17.2272 -17.2248 -17.2213 -17.2210 -17.2204 -17.2180 -17.2171 -17.2143
   -17.2131 -17.2108 -17.2104 -17.2096 -17.2083 -17.2072 -17.2061 -17.2053
   -17.2049 -17.2038 -17.2018 -17.2001 -17.1993 -17.1989 -17.1977 -17.1972
   -17.1961 -17.1941 -17.1938 -17.1936 -17.1912 -17.1912 -17.1814 -17.1803
   -17.1800 -17.1796 -17.1794 -17.1786 -17.1782 -17.1775 -17.1760 -17.1752
   -17.1745 -17.1729 -17.1709 -17.1704 -17.1690 -17.1688 -17.1681 -17.1647
   -17.1643 -17.1637 -17.1625 -17.1617 -17.1608 -17.1589 -17.1578 -17.1505
   -17.1468 -17.1462 -17.1458 -17.1439 -17.1404 -17.1400 -17.1394 -17.1374
   -17.1362 -17.1353 -17.1349 -17.1337 -17.1329 -17.1319 -17.1267 -17.1258
   -17.1254 -17.1249 -17.1232 -17.1188 -17.1186 -17.1139 -17.1130 -17.1128
   -17.1081 -17.1054 -17.1049 -17.1011 -17.1005 -17.0999 -17.0918 -17.0913
   -17.0911 -17.0877 -17.0874 -17.0843 -17.0833 -17.0734 -17.0659 -17.0590
   -17.0588 -17.0540 -17.0233 -17.0172 -17.0114  -5.2888  -5.1089  -4.8238
    -4.7886  -4.7332  -4.6862  -4.6108  -4.4691  -4.3599  -4.2795  -4.1994
    -4.1140  -4.0378  -3.9559  -3.8449  -3.7563  -3.7352  -3.6531  -3.5952
    -3.5600  -3.5216  -3.4639  -3.4541  -3.3681  -3.3577  -3.2958  -3.2749
    -3.2253  -3.1683  -3.1115  -3.0644  -3.0304  -2.9617  -2.9000  -2.8931
    -2.8505  -2.8030  -2.7707  -2.6553  -2.6338  -2.5887  -2.5290  -2.4585
    -2.4179  -2.3358  -2.2672  -2.2340  -2.1822  -2.1532  -2.0904  -2.0358
    -1.9821  -1.9586  -1.9172  -1.8350  -1.7707  -1.7626  -1.7206  -1.6860
    -1.6065  -1.5579  -1.5329  -1.4942  -1.4752  -0.6173  -0.5701  -0.5343
    -0.5017  -0.4981  -0.4446  -0.4015  -0.3521  -0.3274  -0.2972  -0.2583
    -0.2295  -0.1997  -0.1497  -0.1055  -0.0783  -0.0501  -0.0005   0.0328
     0.0662   0.0814   0.0999   0.1139   0.1572   0.1863   0.2299   0.2495
     0.3182   0.3814   0.4250   0.6083   0.7370   0.8011   0.8426   0.8679
     0.8846   0.9474   0.9588   0.9745   1.0080   1.0629   1.1082   1.1660
     1.1785   1.5599   1.5989   1.7475   1.7670   1.8064   1.9423   2.0576
     2.1557   2.1790   2.2064   2.2487   2.3002   2.8223   2.8476   2.8811
     2.8874   2.9326   2.9386   2.9581   2.9744   2.9957   3.0025   3.0332
     3.0365   3.0653   3.0962   3.0972   3.1108   3.1366   3.1581   3.3791
     3.4526   3.4964   3.5062   3.5186   3.5305   3.5444   3.5724   3.6026
     3.6089   3.6315   3.6356   3.6424   3.6604   3.6809   3.6986   3.7090
     3.7216   3.7351   3.7541   3.7667   3.7894   3.8254   3.8583   3.9638
     4.0115   4.0477   4.0584   4.0828   4.1009   4.1142   4.1318   4.1601
     4.1735   4.1973   4.2116   4.2493   4.2637   4.2928   4.3070   4.3328
     4.3445   4.3726   4.3922   4.4130   4.4307   4.4462   4.4697   4.5352
     4.5861   4.6048   4.6298   4.6621   4.6839   4.7186   4.7393   4.7433
     4.7573   4.7788   4.8043   4.8178   4.8487   4.8721   4.8764   4.9072
     4.9419   5.0094   5.0281   5.0585   5.0716   5.0940   5.1065   5.1110
     5.1263   5.1369   5.1506   5.1811   5.1990   5.2040   5.2316   5.2442
     5.2481   5.2911   5.3177   5.3382   5.3887   5.4340   5.5044   5.5378
     5.5608   5.5707   5.6065   5.6607   5.7117   5.7243   5.7812   5.7955
     5.8083   5.8220   5.8684   5.8761   5.8890   5.9047   5.9434   5.9913
     6.0018   6.0856   6.1030   6.3021   6.3119   6.3443   6.3668   6.4504
     6.4807   6.7970   6.8503   6.9682   7.0225   7.8016   7.8474   7.8738
     7.9052   7.9392   7.9632   8.0298   8.1317   8.2210   8.3185   8.3398
     8.3479   8.3942   8.4124   8.6438   8.6524   8.6866   8.7486   8.7697
     8.7825   8.8178   8.8379   8.8506   8.8741   8.8943   8.9152   8.9226
     8.9363   8.9440   8.9939   9.0193   9.0327   9.0380   9.0727   9.0855
     9.0950   9.1486   9.1613   9.1832   9.2164   9.2503   9.2575   9.2694
     9.3186   9.3340   9.3495   9.3801   9.3846   9.4071   9.4234   9.4330
     9.4587   9.4637   9.4872   9.5166   9.5338   9.5680   9.5782   9.6481
     9.6874   9.7121   9.7232   9.7797   9.7852   9.8108   9.8355   9.8452
     9.8743   9.9063   9.9201   9.9327   9.9680   9.9852   9.9963  10.0207
    10.0436  10.0615  10.0883  10.1191  10.1837  10.2395  10.2674  10.2755
    10.3291  10.3324  10.3803  10.3936  10.4070  10.4310  10.4550  10.4645
    10.4909  10.4984  10.5077  10.5307  10.5548  10.5742  10.5863  10.6110
    10.6244  10.6338  10.6500  10.6731  10.6906  10.7162  10.7236  10.7487
    10.7599

     occupation numbers 
     1.0000   1.0000   1.0000   1.0000   1.0000   1.0000   1.0000   1.0000
     1.0000   1.0000   1.0000   1.0000   1.0000   1.0000   1.0000   1.0000
     1.0000   1.0000   1.0000   1.0000   1.0000   1.0000   1.0000   1.0000
     1.0000   1.0000   1.0000   1.0000   1.0000   1.0000   1.0000   1.0000
     1.0000   1.0000   1.0000   1.0000   1.0000   1.0000   1.0000   1.0000
     1.0000   1.0000   1.0000   1.0000   1.0000   1.0000   1.0000   1.0000
     1.0000   1.0000   1.0000   1.0000   1.0000   1.0000   1.0000   1.0000
     1.0000   1.0000   1.0000   1.0000   1.0000   1.0000   1.0000   1.0000
     1.0000   1.0000   1.0000   1.0000   1.0000   1.0000   1.0000   1.0000
     1.0000   1.0000   1.0000   1.0000   1.0000   1.0000   1.0000   1.0000
     1.0000   1.0000   1.0000   1.0000   1.0000   1.0000   1.0000   1.0000
     1.0000   1.0000   1.0000   1.0000   1.0000   1.0000   1.0000   1.0000
     1.0000   1.0000   1.0000   1.0000   1.0000   1.0000   1.0000   1.0000
     1.0000   1.0000   1.0000   1.0000   1.0000   1.0000   1.0000   1.0000
     1.0000   1.0000   1.0000   1.0000   1.0000   1.0000   1.0000   1.0000
     1.0000   1.0000   1.0000   1.0000   1.0000   1.0000   1.0000   1.0000
     1.0000   1.0000   1.0000   1.0000   1.0000   1.0000   1.0000   1.0000
     1.0000   1.0000   1.0000   1.0000   1.0000   1.0000   1.0000   1.0000
     1.0000   1.0000   1.0000   1.0000   1.0000   1.0000   1.0000   1.0000
     1.0000   1.0000   1.0000   1.0000   1.0000   1.0000   1.0000   1.0000
     1.0000   1.0000   1.0000   1.0000   1.0000   1.0000   1.0000   1.0000
     1.0000   1.0000   1.0000   1.0000   1.0000   1.0000   1.0000   1.0000
     1.0000   1.0000   1.0000   1.0000   1.0000   1.0000   1.0000   1.0000
     1.0000   1.0000   1.0000   1.0000   1.0000   1.0000   1.0000   1.0000
     1.0000   1.0000   1.0000   1.0000   1.0000   1.0000   1.0000   1.0000
     1.0000   1.0000   1.0000   1.0000   1.0000   1.0000   1.0000   1.0000
     1.0000   1.0000   1.0000   1.0000   1.0000   1.0000   1.0000   1.0000
     1.0000   1.0000   1.0000   1.0000   1.0000   1.0000   1.0000   1.0000
     1.0000   1.0000   1.0000   1.0000   1.0000   1.0000   1.0000   1.0000
     1.0000   1.0000   1.0000   1.0000   1.0000   1.0000   1.0000   1.0000
     1.0000   1.0000   1.0000   1.0000   1.0000   1.0000   1.0000   1.0000
     1.0000   1.0000   1.0000   1.0000   1.0000   1.0000   1.0000   1.0000
     1.0000   1.0000   1.0000   1.0000   1.0000   1.0000   1.0000   1.0000
     1.0000   1.0000   1.0000   1.0000   1.0000   1.0000   1.0000   1.0000
     1.0000   1.0000   1.0000   1.0000   1.0000   1.0000   1.0000   1.0000
     1.0000   1.0000   1.0000   1.0000   1.0000   1.0000   1.0000   1.0000
     1.0000   1.0000   1.0000   1.0000   1.0000   1.0000   1.0000   1.0000
     1.0000   1.0000   1.0000   1.0000   1.0000   1.0000   1.0000   1.0000
     1.0000   1.0000   1.0000   1.0000   1.0000   1.0000   1.0000   1.0000
     1.0000   1.0000   1.0000   1.0000   1.0000   1.0000   1.0000   1.0000
     1.0000   1.0000   1.0000   1.0000   1.0000   1.0000   1.0000   1.0000
     1.0000   1.0000   1.0000   1.0000   1.0000   1.0000   1.0000   1.0000
     1.0000   1.0000   1.0000   1.0000   1.0000   1.0000   1.0000   1.0000
     1.0000   1.0000   1.0000   1.0000   1.0000   1.0000   1.0000   1.0000
     1.0000   1.0000   1.0000   1.0000   1.0000   1.0000   1.0000   1.0000
     1.0000   1.0000   1.0000   1.0000   1.0000   1.0000   1.0000   1.0000
     1.0000   1.0000   1.0000   1.0000   1.0000   1.0000   1.0000   1.0000
     1.0000   1.0000   1.0000   1.0000   1.0000   1.0000   1.0000   1.0000
     1.0000   1.0000   1.0000   1.0000   1.0000   1.0000   1.0000   1.0000
     1.0000   1.0000   1.0000   1.0000   1.0000   1.0000   1.0000   1.0000
     1.0000   1.0000   1.0000   1.0000   1.0000   1.0000   1.0000   1.0000
     1.0000   1.0000   1.0000   1.0000   1.0000   1.0000   1.0000   1.0000
     1.0000   1.0000   1.0000   1.0000   1.0000   1.0000   1.0000   1.0000
     1.0000   1.0000   1.0000   1.0000   1.0000   1.0000   1.0000   1.0000
     1.0000   1.0000   1.0000   1.0000   1.0000   1.0000   1.0000   1.0000
     1.0000   1.0000   1.0000   1.0000   1.0000   1.0000   1.0000   1.0000
     1.0000   1.0000   1.0000   1.0000   1.0000   1.0000   1.0000   1.0000
     1.0000   1.0000   1.0000   1.0000   1.0000   1.0000   1.0000   1.0000
     1.0000   1.0000   1.0000   1.0000   1.0000   1.0000   1.0000   1.0000
     1.0000   1.0000   1.0000   1.0000   1.0000   1.0000   1.0000   1.0000
     1.0000   1.0000   1.0000   1.0000   1.0000   1.0000   1.0000   1.0000
     1.0000   1.0000   1.0000   1.0000   1.0000   1.0000   1.0000   1.0000
     1.0000   1.0000   1.0000   1.0000   1.0000   1.0000   1.0000   1.0000
     1.0000   1.0000   1.0000   1.0000   1.0000   1.0000   1.0000   1.0000
     1.0000   1.0000   1.0000   1.0000   1.0000   1.0000   1.0000   1.0000
     1.0000   1.0000   1.0000   1.0000   1.0000   1.0000   1.0000   1.0000
     1.0000   1.0000   1.0000   1.0000   1.0000   1.0000   1.0000   1.0000
     1.0000   1.0000   0.9999   0.9983   0.9945   0.0022   0.0008   0.0004
     0.0002   0.0001   0.0000   0.0000   0.0000   0.0000   0.0000   0.0000
     0.0000   0.0000   0.0000   0.0000   0.0000   0.0000   0.0000   0.0000
     0.0000   0.0000   0.0000   0.0000   0.0000   0.0000   0.0000   0.0000
     0.0000   0.0000   0.0000   0.0000   0.0000   0.0000   0.0000   0.0000
     0.0000   0.0000   0.0000   0.0000   0.0000   0.0000   0.0000   0.0000
     0.0000   0.0000   0.0000   0.0000   0.0000   0.0000   0.0000   0.0000
     0.0000   0.0000   0.0000   0.0000   0.0000   0.0000   0.0000   0.0000
     0.0000   0.0000   0.0000   0.0000   0.0000   0.0000   0.0000   0.0000
     0.0000   0.0000   0.0000   0.0000   0.0000   0.0000   0.0000   0.0000
     0.0000   0.0000   0.0000   0.0000   0.0000   0.0000   0.0000   0.0000
     0.0000   0.0000   0.0000   0.0000   0.0000   0.0000   0.0000   0.0000
     0.0000   0.0000   0.0000   0.0000   0.0000   0.0000   0.0000   0.0000
     0.0000   0.0000   0.0000   0.0000   0.0000   0.0000   0.0000   0.0000
     0.0000

          k =-0.7071-0.0001-0.0009 ( 64182 PWs)   bands (ev):

   -17.7813 -17.7429 -17.7387 -17.7174 -17.6943 -17.6779 -17.6666 -17.6364
   -17.6313 -17.6294 -17.6202 -17.6147 -17.6135 -17.6118 -17.6020 -17.5749
   -17.5700 -17.5698 -17.5604 -17.5585 -17.5497 -17.5463 -17.5450 -17.5406
   -17.5359 -17.5341 -17.5333 -17.5293 -17.5277 -17.5235 -17.5147 -17.5077
   -17.5049 -17.4999 -17.4928 -17.4909 -17.4891 -17.4859 -17.4802 -17.4800
   -17.4794 -17.4793 -17.4770 -17.4694 -17.4619 -17.4614 -17.4587 -17.4518
   -17.4497 -17.4475 -17.4435 -17.4382 -17.4371 -17.4338 -17.4332 -17.4280
   -17.4244 -17.4193 -17.4187 -17.4167 -17.4156 -17.4147 -17.4134 -17.4105
   -17.4096 -17.4054 -17.4038 -17.4030 -17.3942 -17.3915 -17.3893 -17.3883
   -17.3873 -17.3868 -17.3849 -17.3838 -17.3821 -17.3795 -17.3785 -17.3757
   -17.3755 -17.3726 -17.3725 -17.3716 -17.3706 -17.3683 -17.3640 -17.3629
   -17.3607 -17.3551 -17.3522 -17.3512 -17.3468 -17.3452 -17.3441 -17.3432
   -17.3424 -17.3418 -17.3382 -17.3377 -17.3351 -17.3347 -17.3280 -17.3275
   -17.3268 -17.3252 -17.3241 -17.3229 -17.3216 -17.3167 -17.3143 -17.3135
   -17.3127 -17.3093 -17.3082 -17.3067 -17.3053 -17.3049 -17.3039 -17.3031
   -17.3014 -17.3005 -17.2999 -17.2973 -17.2965 -17.2936 -17.2932 -17.2930
   -17.2925 -17.2909 -17.2892 -17.2885 -17.2883 -17.2847 -17.2845 -17.2839
   -17.2823 -17.2816 -17.2801 -17.2759 -17.2755 -17.2741 -17.2729 -17.2714
   -17.2713 -17.2697 -17.2691 -17.2680 -17.2677 -17.2673 -17.2661 -17.2653
   -17.2649 -17.2638 -17.2634 -17.2629 -17.2619 -17.2613 -17.2607 -17.2594
   -17.2582 -17.2572 -17.2563 -17.2552 -17.2519 -17.2514 -17.2504 -17.2498
   -17.2492 -17.2486 -17.2484 -17.2468 -17.2467 -17.2451 -17.2421 -17.2409
   -17.2395 -17.2379 -17.2351 -17.2339 -17.2303 -17.2292 -17.2284 -17.2279
   -17.2272 -17.2248 -17.2213 -17.2209 -17.2204 -17.2181 -17.2172 -17.2143
   -17.2131 -17.2108 -17.2104 -17.2097 -17.2083 -17.2072 -17.2060 -17.2054
   -17.2049 -17.2039 -17.2019 -17.2002 -17.1993 -17.1989 -17.1977 -17.1973
   -17.1960 -17.1941 -17.1938 -17.1936 -17.1914 -17.1910 -17.1814 -17.1803
   -17.1801 -17.1796 -17.1794 -17.1785 -17.1781 -17.1775 -17.1760 -17.1751
   -17.1745 -17.1729 -17.1709 -17.1705 -17.1689 -17.1688 -17.1680 -17.1648
   -17.1642 -17.1638 -17.1624 -17.1617 -17.1609 -17.1589 -17.1578 -17.1506
   -17.1469 -17.1462 -17.1458 -17.1440 -17.1407 -17.1397 -17.1394 -17.1374
   -17.1362 -17.1353 -17.1350 -17.1337 -17.1329 -17.1320 -17.1267 -17.1258
   -17.1254 -17.1249 -17.1232 -17.1188 -17.1188 -17.1139 -17.1130 -17.1129
   -17.1081 -17.1054 -17.1049 -17.1011 -17.1006 -17.0999 -17.0918 -17.0912
   -17.0910 -17.0877 -17.0875 -17.0843 -17.0833 -17.0735 -17.0659 -17.0590
   -17.0589 -17.0540 -17.0233 -17.0173 -17.0114  -5.2301  -5.0748  -5.0192
    -4.8930  -4.7461  -4.7115  -4.4321  -4.3587  -4.2424  -4.1683  -4.1454
    -4.0705  -4.0233  -3.9513  -3.9325  -3.8445  -3.8250  -3.7848  -3.7075
    -3.6822  -3.6341  -3.5515  -3.4447  -3.3599  -3.3051  -3.2564  -3.1968
    -3.1836  -3.0867  -3.0475  -2.9683  -2.9648  -2.9514  -2.8942  -2.8399
    -2.8040  -2.7751  -2.7315  -2.7176  -2.5827  -2.5704  -2.5440  -2.4877
    -2.4145  -2.4039  -2.3722  -2.2725  -2.2463  -2.1926  -2.1370  -2.0978
    -2.0751  -2.0287  -2.0052  -1.9878  -1.9200  -1.6846  -1.6318  -1.5942
    -1.4450  -1.3133  -1.0909  -1.0830  -1.0595  -1.0222  -1.0115  -0.9796
    -0.8633  -0.6755  -0.5795  -0.5677  -0.5447  -0.2619  -0.2122  -0.1820
    -0.1114  -0.0756  -0.0672  -0.0449   0.0069   0.0213   0.0555   0.0773
     0.1150   0.1648   0.2036   0.2305   0.3025   0.3673   0.3907   0.4071
     0.4363   0.4659   0.5448   0.5807   0.5965   0.6409   0.6713   0.7037
     0.7359   0.7977   0.8078   0.8613   0.9350   1.0767   1.0953   1.3132
     1.4790   1.5100   1.5325   1.5738   1.6036   1.6394   1.6915   2.2227
     2.2642   2.3487   2.3846   2.4432   2.5096   2.5543   2.5935   2.6792
     2.7305   2.7660   2.7802   2.7863   2.8158   2.8374   2.8627   2.9105
     2.9226   2.9462   2.9904   3.3816   3.4229   3.4398   3.4730   3.4785
     3.5019   3.5069   3.5398   3.5520   3.5721   3.5898   3.6032   3.6186
     3.6253   3.6519   3.6575   3.6839   3.7064   3.7087   3.7302   3.7392
     3.7552   3.7812   3.8051   4.0246   4.0565   4.0811   4.0880   4.1607
     4.1707   4.1976   4.2053   4.2265   4.2381   4.2470   4.2639   4.2740
     4.2805   4.3041   4.3210   4.3312   4.3508   4.3537   4.3633   4.3856
     4.4022   4.4044   4.4193   4.4424   4.4532   4.4655   4.4793   4.5117
     4.5222   4.5362   4.5441   4.5548   4.5789   4.5875   4.5948   4.6254
     4.6287   4.6359   4.6426   4.6528   4.6813   4.7021   4.7247   4.8574
     4.8659   4.8900   4.9126   4.9319   4.9558   4.9866   4.9898   5.0259
     5.0610   5.1135   5.1540   5.1627   5.1808   5.2236   5.2416   5.3384
     5.3832   5.3960   5.4090   5.4252   5.4472   5.4757   5.4938   5.5173
     5.5254   5.5384   5.5449   5.5725   5.5990   5.6266   5.6297   5.6653
     5.6857   5.7001   5.7352   5.7503   5.7743   5.8322   5.8347   5.8611
     5.8976   5.9056   5.9122   5.9381   6.0141   6.3406   6.3548   6.4059
     6.4303   6.8366   6.8886   6.9011   6.9346   7.5930   7.6187   8.1114
     8.1722   8.1983   8.2629   8.4805   8.5419   8.6950   8.7217   8.7485
     8.7748   8.7913   8.8210   8.8313   8.8499   8.8585   8.8618   8.8866
     8.8983   8.9216   8.9380   8.9432   8.9616   8.9695   8.9855   9.0029
     9.0239   9.0491   9.0511   9.0661   9.0771   9.0986   9.1144   9.1330
[...]
     atom   77 type  2   force =   0.00000000E+00  0.00000000E+00  0.00000000E+00
     atom   78 type  2   force =   0.00000000E+00  0.00000000E+00  0.00000000E+00
     atom   79 type  1   force =   0.00000000E+00  0.00000000E+00  0.00000000E+00
     atom   80 type  1   force =   0.00000000E+00  0.00000000E+00  0.00000000E+00
     atom   81 type  1   force =   0.00000000E+00  0.00000000E+00  0.00000000E+00
     atom   82 type  2   force =   0.00000000E+00  0.00000000E+00  0.00000000E+00
     atom   83 type  1   force =   0.00000000E+00  0.00000000E+00  0.00000000E+00
     atom   84 type  2   force =   0.00000000E+00  0.00000000E+00  0.00000000E+00
     atom   85 type  1   force =   0.00000000E+00  0.00000000E+00  0.00000000E+00
     atom   86 type  1   force =   0.00000000E+00  0.00000000E+00  0.00000000E+00
     atom   87 type  2   force =   0.00000000E+00  0.00000000E+00  0.00000000E+00
     atom   88 type  1   force =   0.00000000E+00  0.00000000E+00  0.00000000E+00
     atom   89 type  2   force =   0.00000000E+00  0.00000000E+00  0.00000000E+00
     atom   90 type  2   force =   0.00000000E+00  0.00000000E+00  0.00000000E+00
     atom   91 type  1   force =   0.00000000E+00  0.00000000E+00  0.00000000E+00
     atom   92 type  2   force =   0.00000000E+00  0.00000000E+00  0.00000000E+00
     atom   93 type  2   force =   0.00000000E+00  0.00000000E+00  0.00000000E+00
     atom   94 type  1   force =   0.00000000E+00  0.00000000E+00  0.00000000E+00
     atom   95 type  1   force =   0.00000000E+00  0.00000000E+00  0.00000000E+00
     atom   96 type  2   force =   0.00000000E+00  0.00000000E+00  0.00000000E+00
     atom   97 type  2   force =   0.00000000E+00  0.00000000E+00  0.00000000E+00
     atom   98 type  1   force =   0.00000000E+00  0.00000000E+00  0.00000000E+00
     atom   99 type  1   force =   0.00000000E+00  0.00000000E+00  0.00000000E+00
     atom  100 type  1   force =   0.00000000E+00  0.00000000E+00  0.00000000E+00
     atom  101 type  1   force =   0.00000000E+00  0.00000000E+00  0.00000000E+00
     atom  102 type  1   force =   0.00000000E+00  0.00000000E+00  0.00000000E+00
     atom  103 type  1   force =   0.00000000E+00  0.00000000E+00  0.00000000E+00
     atom  104 type  1   force =   0.00000000E+00  0.00000000E+00  0.00000000E+00
     atom  105 type  1   force =   0.00000000E+00  0.00000000E+00  0.00000000E+00
     atom  106 type  2   force =   0.00000000E+00  0.00000000E+00  0.00000000E+00
     atom  107 type  1   force =   0.00000000E+00  0.00000000E+00  0.00000000E+00
     atom  108 type  2   force =   0.00000000E+00  0.00000000E+00  0.00000000E+00
     atom  109 type  2   force =   0.00000000E+00  0.00000000E+00  0.00000000E+00
     atom  110 type  1   force =   0.00000000E+00  0.00000000E+00  0.00000000E+00
     atom  111 type  2   force =   0.00000000E+00  0.00000000E+00  0.00000000E+00
     atom  112 type  1   force =   0.00000000E+00  0.00000000E+00  0.00000000E+00
     atom  113 type  1   force =   0.00000000E+00  0.00000000E+00  0.00000000E+00
     atom  114 type  2   force =   0.00000000E+00  0.00000000E+00  0.00000000E+00
     atom  115 type  2   force =   0.00000000E+00  0.00000000E+00  0.00000000E+00
     atom  116 type  1   force =   0.00000000E+00  0.00000000E+00  0.00000000E+00
     atom  117 type  1   force =   0.00000000E+00  0.00000000E+00  0.00000000E+00
     atom  118 type  2   force =   0.00000000E+00  0.00000000E+00  0.00000000E+00
     atom  119 type  2   force =   0.00000000E+00  0.00000000E+00  0.00000000E+00
     atom  120 type  2   force =   0.00000000E+00  0.00000000E+00  0.00000000E+00
     atom  121 type  2   force =   0.00000000E+00  0.00000000E+00  0.00000000E+00
     atom  122 type  2   force =   0.00000000E+00  0.00000000E+00  0.00000000E+00
     atom  123 type  2   force =   0.00000000E+00  0.00000000E+00  0.00000000E+00
     atom  124 type  2   force =   0.00000000E+00  0.00000000E+00  0.00000000E+00
     atom  125 type  2   force =   0.00000000E+00  0.00000000E+00  0.00000000E+00
     atom  126 type  1   force =   0.00000000E+00  0.00000000E+00  0.00000000E+00
     atom  127 type  2   force =   0.00000000E+00  0.00000000E+00  0.00000000E+00
     atom  128 type  1   force =   0.00000000E+00  0.00000000E+00  0.00000000E+00
     The SCF correction term to forces
     atom    1 type  1   force =   0.11747886E-05 -0.63888242E-06 -0.66431343E-06
     atom    2 type  1   force =  -0.81088175E-06 -0.82456668E-06 -0.17641060E-05
     atom    3 type  1   force =  -0.63226719E-06 -0.22469649E-05 -0.21284322E-06
     atom    4 type  1   force =  -0.23046360E-05  0.24501202E-06 -0.70865826E-06
     atom    5 type  1   force =   0.48606263E-06 -0.14305507E-05 -0.69709782E-07
     atom    6 type  2   force =  -0.55247101E-05  0.18498366E-05 -0.26735383E-05
     atom    7 type  1   force =   0.28970484E-05  0.72645251E-06 -0.11294453E-05
     atom    8 type  2   force =   0.63203148E-05  0.10883794E-04 -0.41057174E-05
     atom    9 type  1   force =  -0.17665544E-05 -0.33761552E-06 -0.29595651E-05
     atom   10 type  2   force =  -0.15266684E-05 -0.60561754E-05 -0.37519337E-05
     atom   11 type  2   force =  -0.59923326E-05  0.88038687E-05 -0.65031379E-06
     atom   12 type  1   force =  -0.86385747E-06  0.56152926E-06  0.88413931E-06
     atom   13 type  2   force =  -0.84787136E-06 -0.29747579E-05 -0.36629846E-06
     atom   14 type  2   force =  -0.77452148E-06  0.77925445E-05 -0.28144011E-05
     atom   15 type  1   force =   0.57226199E-06  0.19219417E-05 -0.27393114E-05
     atom   16 type  2   force =  -0.27595926E-05  0.62359283E-05 -0.99590954E-05
     atom   17 type  1   force =   0.13641128E-05 -0.18458335E-06 -0.49571139E-06
     atom   18 type  1   force =   0.10071267E-05 -0.44726647E-06  0.14009598E-06
     atom   19 type  2   force =   0.32453537E-06 -0.57571908E-05 -0.40616322E-05
     atom   20 type  2   force =   0.10868770E-05 -0.99820171E-05 -0.73722313E-06
     atom   21 type  2   force =   0.33476009E-05  0.82053610E-06 -0.37840939E-06
     atom   22 type  1   force =   0.41263986E-06 -0.11962215E-05 -0.80123430E-06
     atom   23 type  2   force =  -0.98640906E-06  0.44076178E-06 -0.29245713E-05
     atom   24 type  1   force =   0.14202334E-05  0.32067008E-06 -0.15744977E-05
     atom   25 type  2   force =   0.10519877E-04  0.86538334E-06  0.46789484E-05
     atom   26 type  1   force =   0.13510412E-05 -0.15961594E-05  0.17998946E-05
     atom   27 type  1   force =   0.54907537E-06 -0.29679694E-05  0.18770092E-05
     atom   28 type  2   force =   0.76576886E-05 -0.12449553E-04  0.60484439E-05
     atom   29 type  1   force =   0.39593580E-06 -0.22778726E-05  0.30563379E-06
     atom   30 type  1   force =   0.15790933E-05 -0.25785431E-05  0.44412326E-06
     atom   31 type  2   force =   0.10590593E-04 -0.32447632E-05 -0.51839440E-05
     atom   32 type  1   force =   0.35769180E-05  0.29874263E-06 -0.38162373E-07
     atom   33 type  2   force =   0.64455286E-05 -0.37538034E-05 -0.14566646E-05
     atom   34 type  1   force =  -0.78799312E-06  0.12445276E-05 -0.40076529E-06
     atom   35 type  1   force =  -0.19119790E-06 -0.61315058E-06  0.17079511E-05
     atom   36 type  1   force =  -0.13382362E-05 -0.10279708E-06  0.11724268E-05
     atom   37 type  1   force =   0.57918717E-06 -0.43921108E-06  0.25540317E-05
     atom   38 type  1   force =  -0.20519995E-07  0.46553127E-06 -0.39328594E-07
     atom   39 type  1   force =   0.77988073E-06  0.30053435E-06 -0.58919026E-06
     atom   40 type  2   force =  -0.11417000E-05 -0.18921973E-05 -0.84285046E-05
     atom   41 type  2   force =  -0.86666294E-05  0.81774860E-05  0.21433080E-05
     atom   42 type  1   force =  -0.69377690E-06  0.17761188E-05 -0.62384587E-06
     atom   43 type  1   force =  -0.15841150E-05  0.12155265E-05 -0.44234617E-06
     atom   44 type  2   force =  -0.99508627E-05  0.34024677E-05 -0.80430360E-05
     atom   45 type  1   force =  -0.24075924E-05  0.11170877E-05 -0.15116972E-05
     atom   46 type  2   force =  -0.19667564E-05 -0.60122103E-06 -0.14821948E-04
     atom   47 type  1   force =  -0.71024692E-07  0.14862106E-05 -0.30230409E-05
     atom   48 type  1   force =  -0.34650696E-06  0.16368779E-05 -0.25068856E-05
     atom   49 type  2   force =   0.22347222E-05  0.35874208E-05 -0.15181610E-05
     atom   50 type  1   force =  -0.15159238E-06 -0.95574186E-06  0.18731581E-05
     atom   51 type  2   force =  -0.77294584E-05 -0.12154522E-05  0.38499594E-05
     atom   52 type  2   force =  -0.66639756E-05 -0.26638443E-05  0.93901902E-05
     atom   53 type  2   force =  -0.20719146E-05 -0.73408518E-05 -0.83362969E-05
     atom   54 type  2   force =   0.19725110E-05  0.23298496E-05 -0.11114490E-05
     atom   55 type  1   force =   0.69637140E-06  0.16709416E-05 -0.18365609E-05
     atom   56 type  1   force =   0.18771884E-05  0.16132059E-05 -0.25949106E-06
     atom   57 type  1   force =   0.90442523E-06 -0.14358236E-05  0.76775665E-06
     atom   58 type  2   force =  -0.14318229E-05 -0.13967939E-04 -0.28504112E-05
     atom   59 type  1   force =  -0.89545711E-08 -0.28410470E-05  0.13591657E-05
     atom   60 type  2   force =   0.41863681E-05 -0.12399113E-04  0.12021029E-04
     atom   61 type  1   force =   0.87803948E-06 -0.19199542E-05  0.18664169E-05
     atom   62 type  2   force =   0.11319436E-04 -0.27651318E-05  0.72401029E-05
     atom   63 type  1   force =   0.34214214E-05  0.11856629E-05  0.74207436E-06
     atom   64 type  1   force =   0.25876795E-05  0.58566481E-06  0.37454715E-06
     atom   65 type  2   force =   0.45410435E-06 -0.31373007E-05  0.83607133E-05
     atom   66 type  1   force =  -0.13072112E-05  0.13944716E-05  0.40771571E-06
     atom   67 type  2   force =   0.40684127E-05 -0.58570101E-05  0.75000686E-05
     atom   68 type  1   force =  -0.20009841E-05 -0.23334051E-06  0.51205677E-06
     atom   69 type  1   force =  -0.50721746E-06 -0.15119849E-05  0.33567678E-06
     atom   70 type  2   force =  -0.13720924E-04  0.83338797E-05 -0.42227734E-05
     atom   71 type  1   force =   0.11929878E-05  0.12066029E-05 -0.54439790E-06
     atom   72 type  1   force =   0.74371408E-07  0.31013357E-05 -0.78793370E-06
     atom   73 type  1   force =  -0.16995045E-05  0.21498666E-05 -0.89248267E-06
     atom   74 type  2   force =  -0.51042944E-05  0.46721920E-05  0.22012504E-05
     atom   75 type  1   force =  -0.23889752E-05  0.79097598E-06 -0.48149006E-06
     atom   76 type  1   force =  -0.31460317E-05 -0.47437806E-06  0.34873450E-06
     atom   77 type  2   force =  -0.12148000E-04 -0.56285357E-05 -0.23966496E-05
     atom   78 type  2   force =   0.24104539E-05  0.98079991E-05 -0.35129102E-05
     atom   79 type  1   force =   0.30717966E-08  0.42774332E-05 -0.26214827E-05
     atom   80 type  1   force =  -0.99875027E-06  0.35391030E-05 -0.88749112E-06
     atom   81 type  1   force =  -0.37181934E-06  0.56005870E-06  0.14042318E-06
     atom   82 type  2   force =  -0.47510376E-05  0.33030153E-05 -0.25606243E-05
     atom   83 type  1   force =  -0.21816939E-05 -0.85066551E-06  0.71580743E-06
     atom   84 type  2   force =  -0.43498596E-05 -0.52999902E-05  0.31868249E-05
     atom   85 type  1   force =  -0.58850870E-06  0.46505748E-06  0.17617561E-05
     atom   86 type  1   force =  -0.48323701E-06  0.16396270E-05  0.16071860E-05
     atom   87 type  2   force =   0.22483013E-05  0.93248523E-05 -0.13534258E-05
     atom   88 type  1   force =   0.13359317E-05  0.93078756E-06 -0.14958555E-06
     atom   89 type  2   force =   0.13872750E-05 -0.16287033E-05  0.27402352E-07
     atom   90 type  2   force =   0.51519535E-05 -0.19077805E-05  0.94950928E-05
     atom   91 type  1   force =  -0.32555696E-07 -0.13731143E-05  0.27245833E-05
     atom   92 type  2   force =   0.18193924E-06 -0.73107689E-05  0.13979676E-04
     atom   93 type  2   force =   0.14262688E-05  0.22811706E-05  0.10532510E-04
     atom   94 type  1   force =   0.15209995E-05 -0.61838185E-06  0.13937736E-05
     atom   95 type  1   force =   0.17850788E-05 -0.56803620E-06 -0.27439965E-06
     atom   96 type  2   force =   0.96645481E-06 -0.69260557E-05 -0.12229302E-05
     atom   97 type  2   force =   0.34640544E-05 -0.40544106E-06  0.70104983E-05
     atom   98 type  1   force =  -0.77820465E-06  0.24970547E-06 -0.31914339E-06
     atom   99 type  1   force =  -0.46409119E-06 -0.15156586E-05  0.19207658E-05
     atom  100 type  1   force =  -0.20367714E-05 -0.66039098E-06 -0.17247270E-06
     atom  101 type  1   force =  -0.11954724E-05 -0.51676496E-06  0.10911601E-05
     atom  102 type  1   force =  -0.69293747E-06  0.12889859E-05 -0.18838151E-05
     atom  103 type  1   force =   0.21377312E-05  0.56745576E-06 -0.56189610E-06
     atom  104 type  1   force =   0.19031163E-05  0.97663173E-06 -0.21767056E-05
     atom  105 type  1   force =  -0.17584290E-05  0.15957773E-05 -0.11193573E-05
     atom  106 type  2   force =  -0.26818350E-05  0.18973548E-05 -0.64062967E-05
     atom  107 type  1   force =  -0.36834328E-05 -0.46779004E-06 -0.12829854E-05
     atom  108 type  2   force =  -0.85680992E-05 -0.66675742E-05 -0.38807921E-05
     atom  109 type  2   force =  -0.55354985E-05  0.16868959E-04 -0.26133720E-05
     atom  110 type  1   force =   0.12690679E-05  0.10560281E-05 -0.68342528E-06
     atom  111 type  2   force =  -0.11300643E-05  0.89301582E-05 -0.75301302E-05
     atom  112 type  1   force =  -0.24850038E-06  0.18737596E-05 -0.23663988E-05
     atom  113 type  1   force =  -0.69677814E-06  0.66710788E-06 -0.96974367E-06
     atom  114 type  2   force =  -0.13222269E-05 -0.30915890E-05  0.10659541E-05
     atom  115 type  2   force =   0.15051058E-05  0.68201342E-06  0.12497681E-04
     atom  116 type  1   force =   0.22474322E-06 -0.28363229E-06  0.10466791E-05
     atom  117 type  1   force =  -0.62133958E-06  0.57837316E-06  0.81233852E-06
     atom  118 type  2   force =  -0.40952828E-05 -0.45683566E-05 -0.68861826E-05
     atom  119 type  2   force =  -0.15167203E-05  0.35460939E-05 -0.80489204E-05
     atom  120 type  2   force =   0.33972849E-05  0.40280865E-05 -0.59418720E-05
     atom  121 type  2   force =   0.42986200E-05 -0.16645641E-06  0.74005580E-05
     atom  122 type  2   force =   0.80370685E-05 -0.76100658E-05  0.55409587E-05
     atom  123 type  2   force =  -0.47178060E-05 -0.16061903E-05  0.57746931E-05
     atom  124 type  2   force =   0.25206165E-05 -0.12028190E-04  0.10936216E-04
     atom  125 type  2   force =   0.19935339E-05 -0.42573448E-05  0.32258647E-05
     atom  126 type  1   force =   0.10453097E-05 -0.13978433E-05  0.14930865E-05
     atom  127 type  2   force =   0.40429137E-05 -0.10735235E-05  0.46616123E-05
     atom  128 type  1   force =   0.30261844E-05 -0.87895479E-06  0.90356724E-06

     Total force =     0.729075     Total SCF correction =     0.000082


     entering subroutine stress ...

          total   stress  (Ry/bohr**3)                   (kbar)     P=    5.12
   0.0000401365  -0.0000503757  -0.0000303283          5.90     -7.41     -4.46
  -0.0000503757   0.0000303934   0.0000205490         -7.41      4.47      3.02
  -0.0000303283   0.0000205490   0.0000339481         -4.46      3.02      4.99

     kinetic stress (kbar)   5932.23      6.42      5.25
                                6.42   5931.90     -3.06
                                5.25     -3.06   5934.06

     local   stress (kbar)  -5193.74    495.52   3277.33
                              495.52  -8562.15  -1795.63
                             3277.33  -1795.63  -3884.65

     nonloc. stress (kbar)   2426.01     -5.83     -2.82
                               -5.83   2425.46      2.53
                               -2.82      2.53   2424.55

     hartree stress (kbar)  15583.24   -146.45  -1550.71
                             -146.45  17268.72    860.05
                            -1550.71    860.05  14966.50

     exc-cor stress (kbar)   9840.21     -0.18     -0.17
                               -0.18   9840.20      0.11
                               -0.17      0.11   9840.15

     corecor stress (kbar) -14987.43      0.64      0.20
                                0.64 -14987.40     -0.18
                                0.20     -0.18 -14987.33

     ewald   stress (kbar) -13594.63   -357.53  -1733.55
                             -357.53 -11912.26    939.21
                            -1733.55    939.21 -14288.29

     hubbard stress (kbar)      0.00      0.00      0.00
                                0.00      0.00      0.00
                                0.00      0.00      0.00

     london  stress (kbar)      0.00      0.00      0.00
                                0.00      0.00      0.00
                                0.00      0.00      0.00

     XDM     stress (kbar)      0.00      0.00      0.00
                                0.00      0.00      0.00
                                0.00      0.00      0.00

     dft-nl  stress (kbar)      0.00      0.00      0.00
                                0.00      0.00      0.00
                                0.00      0.00      0.00



     Writing output data file SiGe_zns.scf.in.super.444.c.055.save

     init_run     :    820.00s CPU    662.85s WALL (       1 calls)
     electrons    :  40399.90s CPU  32091.64s WALL (       1 calls)
     forces       :    587.47s CPU    410.78s WALL (       1 calls)
     stress       :   3320.50s CPU   3299.40s WALL (       1 calls)

     Called by init_run:
     wfcinit      :    779.36s CPU    621.03s WALL (       1 calls)
     potinit      :      4.31s CPU      4.45s WALL (       1 calls)

     Called by electrons:
     c_bands      :  36188.58s CPU  28289.55s WALL (      17 calls)
     sum_band     :   3769.66s CPU   3350.85s WALL (      17 calls)
     v_of_rho     :      7.17s CPU      8.13s WALL (      17 calls)
     v_h          :      0.46s CPU      0.59s WALL (      17 calls)
     v_xc         :      7.60s CPU      8.53s WALL (      19 calls)
     newd         :    433.52s CPU    439.72s WALL (      17 calls)
     mix_rho      :     26.79s CPU     29.29s WALL (      17 calls)

     Called by c_bands:
     init_us_2    :     49.23s CPU     50.04s WALL (     296 calls)
     cegterg      :  35933.17s CPU  28017.83s WALL (     136 calls)

     Called by sum_band:
     sum_band:bec :     14.84s CPU     14.87s WALL (     136 calls)
     addusdens    :    338.42s CPU    340.34s WALL (      17 calls)

     Called by *egterg:
     h_psi        :  15184.26s CPU  13052.47s WALL (     559 calls)
     s_psi        :   4325.85s CPU   2547.27s WALL (     559 calls)
     g_psi        :      6.54s CPU      6.76s WALL (     415 calls)
     cdiaghg      :   9387.47s CPU   7808.54s WALL (     543 calls)
     cegterg:over :   3262.16s CPU   2146.16s WALL (     415 calls)
     cegterg:upda :   1719.59s CPU   1049.12s WALL (     415 calls)
     cegterg:last :   1158.44s CPU    691.74s WALL (     136 calls)

     Called by h_psi:
     h_psi:vloc   :   6256.19s CPU   7600.42s WALL (     559 calls)
     h_psi:vnl    :   8912.28s CPU   5435.86s WALL (     559 calls)
     add_vuspsi   :   4313.99s CPU   2541.50s WALL (     559 calls)

     General routines
     calbec       :   7076.42s CPU   4567.91s WALL (     711 calls)
     fft          :    132.88s CPU    135.08s WALL (     297 calls)
     ffts         :     20.73s CPU     22.24s WALL (     493 calls)
     fftw         :   6931.61s CPU   8520.15s WALL (  504318 calls)
     interpolate  :      1.57s CPU      1.95s WALL (      34 calls)

     Parallel routines
     fft_scatter  :   4517.30s CPU   5613.40s WALL (  505108 calls)

     PWSCF        :    12h32m CPU       10h 8m WALL


   This run was terminated on:  18: 0: 9   4Feb2017            

=------------------------------------------------------------------------------=
   JOB DONE.
=------------------------------------------------------------------------------=
