
     Program PWSCF v.5.1 starts on 27Sep2017 at 17:18:37 

     This program is part of the open-source Quantum ESPRESSO suite
     for quantum simulation of materials; please cite
         "P. Giannozzi et al., J. Phys.:Condens. Matter 21 395502 (2009);
          URL http://www.quantum-espresso.org", 
     in publications or presentations arising from this work. More details at
     http://www.quantum-espresso.org/quote

     Parallel version (MPI), running on     8 processors
     R & G space division:  proc/nbgrp/npool/nimage =       8
     Reading input from /tmp/SiGe_zns.scf.in.super.222.largedist.a.01.14359/SiGe_zns.scf.in.super.222.largedist.a.01.t
Warning: card &IONS ignored
Warning: card   ION_DYNAMICS='BFGS', ignored
Warning: card / ignored
Warning: card &CELL ignored
Warning: card  CELL_DYNAMICS = 'BFGS' ignored
Warning: card / ignored
     Message from routine read_cards :
     DEPRECATED: no units specified in CELL_PARAMETERS card

     Current dimensions of program PWSCF are:
     Max number of different atomic species (ntypx) = 10
     Max number of k-points (npk) =  40000
     Max angular momentum in pseudopotentials (lmaxx) =  3
 kfg - two_fermi_energies  F

     Subspace diagonalization in iterative solution of the eigenvalue problem:
     a serial algorithm will be used


     Parallelization info
     --------------------
     sticks:   dense  smooth     PW     G-vecs:    dense   smooth      PW
     Min         379     263     72                13730     8005    1173
     Max         380     264     73                13731     8014    1177
     Sum        3037    2107    583               109843    64071    9409



     bravais-lattice index     =            0
     lattice parameter (alat)  =    14.799446477  a.u.
     unit-cell volume          =    2292.0359 (a.u.)^3
     number of atoms/cell      =           16
     number of atomic types    =            2
     number of electrons       =       144.00
     number of Kohn-Sham states=           86
     kinetic-energy cutoff     =      35.0000  Ry
     charge density cutoff     =     200.0000  Ry
     convergence threshold     =      1.0E-09
     mixing beta               =       0.3000
     number of iterations used =            8  local-TF  mixing
     Exchange-correlation      = SLA  PW   PSX  PSC ( 1  4 10  8 0)
     A smooth kinetic-energy cutoff is imposed at      34.5000 Ry
     height of the smooth step-function =             800.0000 Ry
     width of the smooth step-function  =               1.0000 Ry


     celldm(1)=  14.799446  celldm(2)=   0.000000  celldm(3)=   0.000000
     celldm(4)=   0.000000  celldm(5)=   0.000000  celldm(6)=   0.000000

     crystal axes: (cart. coord. in units of alat)
               a(1) = (  -0.000000000000   0.707106781187   0.707106781187 )  
               a(2) = (   0.707106781187   0.000000000000   0.707106781187 )  
               a(3) = (   0.707106781187   0.707106781187   0.000000000000 )  

     reciprocal axes: (cart. coord. in units 2 pi/alat)
               b(1) = ( -0.707107  0.707107  0.707107 )  
               b(2) = (  0.707107 -0.707107  0.707107 )  
               b(3) = (  0.707107  0.707107 -0.707107 )  


     PseudoPot. # 1 for Si read from file:
     /users/kfg/psuedo/gbrv_1.5/si.pbesol.UPF
     MD5 check sum: ef58ba74faed4df802eb8a9742fc00a8
     Pseudo is Ultrasoft + core correction, Zval =  4.0
     Generated by new atomic code, or converted to UPF format
     Using radial grid of  899 points,  6 beta functions with: 
                l(1) =   0
                l(2) =   0
                l(3) =   1
                l(4) =   1
                l(5) =   2
                l(6) =   2
     Q(r) pseudized with  8 coefficients,  rinner =    0.900   0.900   0.900
                                                       0.900   0.900

     PseudoPot. # 2 for Ge read from file:
     /users/kfg/psuedo/gbrv_1.5/ge.pbesol.UPF
     MD5 check sum: 7bed0412183f5e553a4d27ec7023354d
     Pseudo is Ultrasoft + core correction, Zval = 14.0
     Generated by new atomic code, or converted to UPF format
     Using radial grid of  873 points,  6 beta functions with: 
                l(1) =   0
                l(2) =   0
                l(3) =   1
                l(4) =   1
                l(5) =   2
                l(6) =   2
     Q(r) pseudized with  8 coefficients,  rinner =    1.400   1.400   1.400
                                                       1.400   1.400

     atomic species   valence    mass     pseudopotential
        Si             4.00    28.08550     Si( 1.00)
        Ge            14.00    72.64000     Ge( 1.00)

     No symmetry found


                                    s                        frac. trans.

      isym =  1     identity                                     

 cryst.   s( 1) = (     1          0          0      )
                  (     0          1          0      )
                  (     0          0          1      )

 cart.    s( 1) = (  1.0000000  0.0000000  0.0000000 )
                  (  0.0000000  1.0000000  0.0000000 )
                  (  0.0000000  0.0000000  1.0000000 )


     point group C_1 (1)    
     there are  1 classes
     the character table:

       E    
A      1.00

     the symmetry operations in each class:
     E        1

   Cartesian axes

     site n.     atom                  positions (alat units)
         1           Si  tau(   1) = (   -0.02974678734   -0.01405755956    0.03343466604  )
         2           Ge  tau(   2) = (    0.15789235764    0.19089981381    0.16688614730  )
         3           Si  tau(   3) = (    0.38413525829    0.36060312980    0.03316639559  )
         4           Ge  tau(   4) = (    0.51084425696    0.52048907831    0.15051870249  )
         5           Si  tau(   5) = (    0.33200647170    0.00921835738    0.36171640059  )
         6           Ge  tau(   6) = (    0.51304435076    0.16896870203    0.50181208791  )
         7           Si  tau(   7) = (    0.68857320067    0.37462823015    0.36133115960  )
         8           Ge  tau(   8) = (    0.88562558036    0.55650660709    0.51223021578  )
         9           Si  tau(   9) = (    0.02033903541    0.38444976100    0.33545479483  )
        10           Ge  tau(  10) = (    0.20519280583    0.50061779153    0.53224693812  )
        11           Si  tau(  11) = (    0.34596614003    0.72007242952    0.35500137478  )
        12           Ge  tau(  12) = (    0.55651426476    0.85944095506    0.55343333907  )
        13           Si  tau(  13) = (    0.35042404746    0.37958255846    0.69980197918  )
        14           Ge  tau(  14) = (    0.56045119768    0.54809152517    0.90380370672  )
        15           Si  tau(  15) = (    0.72075566635    0.72548775995    0.69637931330  )
        16           Ge  tau(  16) = (    0.87822527019    0.87961965787    0.89503869978  )

   Crystallographic axes

     site n.     atom                  positions (cryst. coord.)
         1           Si  tau(   1) = (    0.03473583844    0.01254791973   -0.05461622982  )
         2           Ge  tau(   2) = (    0.14134612253    0.09466653036    0.12862698321  )
         3           Si  tau(   3) = (    0.00681245560    0.04009191086    0.50315738120  )
         4           Ge  tau(   4) = (    0.11325271381    0.09961287665    0.62282999980  )
         5           Si  tau(   5) = (    0.02752645520    0.48401778424   -0.01448972918  )
         6           Ge  tau(   6) = (    0.11153650578    0.59813295470    0.12742132424  )
         7           Si  tau(   7) = (    0.03350709563    0.47749233078    0.49629722829  )
         8           Ge  tau(   8) = (    0.12947920129    0.59492371692    0.65753999000  )
         9           Si  tau(   9) = (    0.49466752338   -0.02026280296    0.04902654268  )
        10           Ge  tau(  10) = (    0.58525242993    0.16745840849    0.12272804042  )
        11           Si  tau(  11) = (    0.51555697361   -0.01350921475    0.50277922210  )
        12           Ge  tau(  12) = (    0.60553798390    0.17713495008    0.60989507080  )
        13           Si  tau(  13) = (    0.51545290583    0.47421654411    0.02135789639  )
        14           Ge  tau(  14) = (    0.63034612164    0.64782533812    0.14477234668  )
        15           Si  tau(  15) = (    0.49576063018    0.48906843924    0.53023399927  )
        16           Ge  tau(  16) = (    0.63387391503    0.63190195306    0.61009613486  )

     number of k points=    36  gaussian smearing, width (Ry)=  0.0150
                       cart. coord. in units 2pi/alat
        k(    1) = (   0.0000000   0.0000000   0.0000000), wk =   0.0312500
        k(    2) = (   0.1767767   0.1767767  -0.1767767), wk =   0.0625000
        k(    3) = (  -0.3535534  -0.3535534   0.3535534), wk =   0.0312500
        k(    4) = (   0.3535534   0.0000000   0.0000000), wk =   0.0625000
        k(    5) = (  -0.1767767  -0.5303301   0.5303301), wk =   0.0625000
        k(    6) = (   0.0000000  -0.3535534   0.3535534), wk =   0.0625000
        k(    7) = (  -0.7071068   0.0000000   0.0000000), wk =   0.0312500
        k(    8) = (  -0.7071068   0.3535534   0.0000000), wk =   0.0625000
        k(    9) = (  -0.1767767  -0.1767767  -0.1767767), wk =   0.0625000
        k(   10) = (  -0.1767767   0.1767767   0.1767767), wk =   0.0625000
        k(   11) = (   0.1767767  -0.1767767   0.1767767), wk =   0.0625000
        k(   12) = (   0.3535534   0.3535534   0.3535534), wk =   0.0312500
        k(   13) = (   0.3535534  -0.3535534  -0.3535534), wk =   0.0312500
        k(   14) = (  -0.3535534   0.3535534  -0.3535534), wk =   0.0312500
        k(   15) = (   0.0000000   0.3535534   0.0000000), wk =   0.0625000
        k(   16) = (   0.0000000   0.0000000   0.3535534), wk =   0.0625000
        k(   17) = (   0.1767767   0.5303301   0.5303301), wk =   0.0625000
        k(   18) = (   0.1767767  -0.5303301  -0.5303301), wk =   0.0625000
        k(   19) = (  -0.1767767   0.5303301  -0.5303301), wk =   0.0625000
        k(   20) = (  -0.5303301  -0.1767767  -0.5303301), wk =   0.0625000
        k(   21) = (   0.5303301   0.1767767  -0.5303301), wk =   0.0625000
        k(   22) = (  -0.5303301   0.1767767   0.5303301), wk =   0.0625000
        k(   23) = (   0.5303301  -0.1767767   0.5303301), wk =   0.0625000
        k(   24) = (   0.5303301   0.5303301  -0.1767767), wk =   0.0625000
        k(   25) = (  -0.5303301   0.5303301   0.1767767), wk =   0.0625000
        k(   26) = (   0.5303301  -0.5303301   0.1767767), wk =   0.0625000
        k(   27) = (  -0.5303301  -0.5303301  -0.1767767), wk =   0.0625000
        k(   28) = (   0.0000000   0.3535534   0.3535534), wk =   0.0625000
        k(   29) = (  -0.3535534   0.0000000  -0.3535534), wk =   0.0625000
        k(   30) = (   0.3535534   0.0000000  -0.3535534), wk =   0.0625000
        k(   31) = (   0.3535534   0.3535534   0.0000000), wk =   0.0625000
        k(   32) = (  -0.3535534   0.3535534   0.0000000), wk =   0.0625000
        k(   33) = (   0.0000000  -0.7071068   0.0000000), wk =   0.0312500
        k(   34) = (   0.0000000   0.0000000  -0.7071068), wk =   0.0312500
        k(   35) = (   0.3535534  -0.7071068   0.0000000), wk =   0.0625000
        k(   36) = (   0.7071068  -0.0000000   0.3535534), wk =   0.0625000

                       cryst. coord.
        k(    1) = (   0.0000000   0.0000000   0.0000000), wk =   0.0312500
        k(    2) = (   0.0000000   0.0000000   0.2500000), wk =   0.0625000
        k(    3) = (   0.0000000   0.0000000  -0.5000000), wk =   0.0312500
        k(    4) = (   0.0000000   0.2500000   0.2500000), wk =   0.0625000
        k(    5) = (   0.0000000   0.2500000  -0.5000000), wk =   0.0625000
        k(    6) = (   0.0000000   0.2500000  -0.2500000), wk =   0.0625000
        k(    7) = (   0.0000000  -0.5000000  -0.5000000), wk =   0.0312500
        k(    8) = (   0.2500000  -0.5000000  -0.2500000), wk =   0.0625000
        k(    9) = (  -0.2500000  -0.2500000  -0.2500000), wk =   0.0625000
        k(   10) = (   0.2500000   0.0000000   0.0000000), wk =   0.0625000
        k(   11) = (   0.0000000   0.2500000   0.0000000), wk =   0.0625000
        k(   12) = (   0.5000000   0.5000000   0.5000000), wk =   0.0312500
        k(   13) = (  -0.5000000   0.0000000   0.0000000), wk =   0.0312500
        k(   14) = (   0.0000000  -0.5000000   0.0000000), wk =   0.0312500
        k(   15) = (   0.2500000   0.0000000   0.2500000), wk =   0.0625000
        k(   16) = (   0.2500000   0.2500000   0.0000000), wk =   0.0625000
        k(   17) = (   0.7500000   0.5000000   0.5000000), wk =   0.0625000
        k(   18) = (  -0.7500000  -0.2500000  -0.2500000), wk =   0.0625000
        k(   19) = (   0.0000000  -0.5000000   0.2500000), wk =   0.0625000
        k(   20) = (  -0.5000000  -0.7500000  -0.5000000), wk =   0.0625000
        k(   21) = (  -0.2500000   0.0000000   0.5000000), wk =   0.0625000
        k(   22) = (   0.5000000   0.0000000  -0.2500000), wk =   0.0625000
        k(   23) = (   0.2500000   0.7500000   0.2500000), wk =   0.0625000
        k(   24) = (   0.2500000   0.2500000   0.7500000), wk =   0.0625000
        k(   25) = (   0.5000000  -0.2500000   0.0000000), wk =   0.0625000
        k(   26) = (  -0.2500000   0.5000000   0.0000000), wk =   0.0625000
        k(   27) = (  -0.5000000  -0.5000000  -0.7500000), wk =   0.0625000
        k(   28) = (   0.5000000   0.2500000   0.2500000), wk =   0.0625000
        k(   29) = (  -0.2500000  -0.5000000  -0.2500000), wk =   0.0625000
        k(   30) = (  -0.2500000   0.0000000   0.2500000), wk =   0.0625000
        k(   31) = (   0.2500000   0.2500000   0.5000000), wk =   0.0625000
        k(   32) = (   0.2500000  -0.2500000   0.0000000), wk =   0.0625000
        k(   33) = (  -0.5000000   0.0000000  -0.5000000), wk =   0.0312500
        k(   34) = (  -0.5000000  -0.5000000   0.0000000), wk =   0.0312500
        k(   35) = (  -0.5000000   0.2500000  -0.2500000), wk =   0.0625000
        k(   36) = (   0.2500000   0.7500000   0.5000000), wk =   0.0625000

     Dense  grid:   109843 G-vectors     FFT dimensions: (  72,  72,  72)

     Smooth grid:    64071 G-vectors     FFT dimensions: (  60,  60,  60)

     Largest allocated arrays     est. size (Mb)     dimensions
        Kohn-Sham Wavefunctions         1.34 Mb     (    1022,   86)
        NL pseudopotentials             4.49 Mb     (    1022,  288)
        Each V/rho on FFT grid          0.71 Mb     (   46656)
        Each G-vector array             0.10 Mb     (   13731)
        G-vector shells                 0.01 Mb     (     737)
     Largest temporary arrays     est. size (Mb)     dimensions
        Auxiliary wavefunctions         5.36 Mb     (    1022,  344)
        Each subspace H/S matrix        1.81 Mb     (     344,  344)
        Each <psi_i|beta_j> matrix      0.38 Mb     (     288,   86)
        Arrays for rho mixing           5.70 Mb     (   46656,    8)

     Check: negative/imaginary core charge=   -0.000001    0.000000

     Initial potential from superposition of free atoms

     starting charge  143.98835, renormalised to  144.00000
     Starting wfc are  104 randomized atomic wfcs

     total cpu time spent up to now is       29.1 secs

     per-process dynamical memory:    70.5 Mb

     Self-consistent Calculation

     iteration #  1     ecut=    35.00 Ry     beta=0.30
     Davidson diagonalization with overlap
     ethr =  1.00E-02,  avg # of iterations =  3.1

     Threshold (ethr) on eigenvalues was too large:
     Diagonalizing with lowered threshold

     Davidson diagonalization with overlap
     ethr =  2.94E-04,  avg # of iterations =  5.0

     total cpu time spent up to now is      214.5 secs

     total energy              =   -1781.29322612 Ry
     Harris-Foulkes estimate   =   -1781.34424483 Ry
     estimated scf accuracy    <       0.42530959 Ry

     iteration #  2     ecut=    35.00 Ry     beta=0.30
     Davidson diagonalization with overlap
     ethr =  2.95E-04,  avg # of iterations =  1.0

     total cpu time spent up to now is      278.0 secs

     total energy              =   -1781.19558466 Ry
     Harris-Foulkes estimate   =   -1781.29627558 Ry
     estimated scf accuracy    <       0.25838103 Ry

     iteration #  3     ecut=    35.00 Ry     beta=0.30
     Davidson diagonalization with overlap
     ethr =  1.79E-04,  avg # of iterations =  2.2

     total cpu time spent up to now is      400.0 secs

     total energy              =   -1781.22273813 Ry
     Harris-Foulkes estimate   =   -1781.22355396 Ry
     estimated scf accuracy    <       0.00596030 Ry

     iteration #  4     ecut=    35.00 Ry     beta=0.30
     Davidson diagonalization with overlap
     ethr =  4.14E-06,  avg # of iterations =  8.3

     total cpu time spent up to now is      538.3 secs

     total energy              =   -1781.22285683 Ry
     Harris-Foulkes estimate   =   -1781.22335591 Ry
     estimated scf accuracy    <       0.00289088 Ry

     iteration #  5     ecut=    35.00 Ry     beta=0.30
     Davidson diagonalization with overlap
     ethr =  2.01E-06,  avg # of iterations =  2.0

     total cpu time spent up to now is      616.6 secs

     total energy              =   -1781.22313714 Ry
     Harris-Foulkes estimate   =   -1781.22314758 Ry
     estimated scf accuracy    <       0.00013215 Ry

     iteration #  6     ecut=    35.00 Ry     beta=0.30
     Davidson diagonalization with overlap
     ethr =  9.18E-08,  avg # of iterations =  2.1

     total cpu time spent up to now is      702.4 secs

     total energy              =   -1781.22312466 Ry
     Harris-Foulkes estimate   =   -1781.22315619 Ry
     estimated scf accuracy    <       0.00009711 Ry

     iteration #  7     ecut=    35.00 Ry     beta=0.30
     Davidson diagonalization with overlap
     ethr =  6.74E-08,  avg # of iterations =  2.0

     total cpu time spent up to now is      785.3 secs

     total energy              =   -1781.22313771 Ry
     Harris-Foulkes estimate   =   -1781.22313747 Ry
     estimated scf accuracy    <       0.00000169 Ry

     iteration #  8     ecut=    35.00 Ry     beta=0.30
     Davidson diagonalization with overlap
     ethr =  1.17E-09,  avg # of iterations =  3.0

     total cpu time spent up to now is      880.6 secs

     total energy              =   -1781.22313766 Ry
     Harris-Foulkes estimate   =   -1781.22313805 Ry
     estimated scf accuracy    <       0.00000141 Ry

     iteration #  9     ecut=    35.00 Ry     beta=0.30
     Davidson diagonalization with overlap
     ethr =  9.82E-10,  avg # of iterations =  2.0

     total cpu time spent up to now is      956.1 secs

     total energy              =   -1781.22313787 Ry
     Harris-Foulkes estimate   =   -1781.22313780 Ry
     estimated scf accuracy    <       0.00000005 Ry

     iteration # 10     ecut=    35.00 Ry     beta=0.30
     Davidson diagonalization with overlap
     ethr =  3.48E-11,  avg # of iterations =  2.2

     total cpu time spent up to now is     1031.9 secs

     total energy              =   -1781.22313791 Ry
     Harris-Foulkes estimate   =   -1781.22313788 Ry
     estimated scf accuracy    <       0.00000002 Ry

     iteration # 11     ecut=    35.00 Ry     beta=0.30
     Davidson diagonalization with overlap
     ethr =  1.20E-11,  avg # of iterations =  2.0

     total cpu time spent up to now is     1113.1 secs

     End of self-consistent calculation

          k = 0.0000 0.0000 0.0000 (  7991 PWs)   bands (ev):

   -17.9565 -17.8298 -17.7536 -17.6314 -17.6267 -17.3765 -17.3548 -17.3204
   -17.2907 -17.2823 -17.2659 -17.2649 -17.2583 -17.2516 -17.2478 -17.2335
   -17.2271 -17.2263 -17.2243 -17.2194 -17.2075 -17.2056 -17.2033 -17.2030
   -17.2017 -17.2012 -17.1966 -17.1947 -17.1916 -17.1788 -17.1270 -17.1135
   -17.0896 -17.0865 -17.0832 -17.0771 -17.0555 -17.0410 -17.0286 -17.0252
    -5.5129  -4.0699  -3.4584  -3.2838  -2.9137  -2.0819  -1.7713  -1.6590
    -1.0901  -0.8218  -0.7360  -0.0509   0.4023   0.5986   0.8585   3.8572
     4.0204   4.1480   4.2095   4.2962   4.4430   5.3167   5.3828   5.5722
     5.5998   5.8890   6.1444   6.3193   6.5681   7.1394   7.2229   7.2957
     7.5059   7.6368   7.8017   8.0356   8.1156   8.1709   8.2186   8.3979
     8.5482   8.8482   9.0029   9.2532   9.3859   9.5391

     occupation numbers 
     1.0000   1.0000   1.0000   1.0000   1.0000   1.0000   1.0000   1.0000
     1.0000   1.0000   1.0000   1.0000   1.0000   1.0000   1.0000   1.0000
     1.0000   1.0000   1.0000   1.0000   1.0000   1.0000   1.0000   1.0000
     1.0000   1.0000   1.0000   1.0000   1.0000   1.0000   1.0000   1.0000
     1.0000   1.0000   1.0000   1.0000   1.0000   1.0000   1.0000   1.0000
     1.0000   1.0000   1.0000   1.0000   1.0000   1.0000   1.0000   1.0000
     1.0000   1.0000   1.0000   1.0000   1.0000   1.0000   1.0000   1.0000
     1.0000   1.0000   1.0000   1.0000   1.0000   1.0000   1.0000   1.0000
     1.0000   1.0000   1.0000   1.0000   1.0000   0.9955   0.9791   0.9370
     0.5292   0.2023   0.0241   0.0002   0.0000   0.0000   0.0000   0.0000
     0.0000   0.0000   0.0000   0.0000   0.0000   0.0000

          k = 0.1768 0.1768-0.1768 (  8000 PWs)   bands (ev):

   -17.9563 -17.8296 -17.7536 -17.6312 -17.6266 -17.3763 -17.3547 -17.3201
   -17.2905 -17.2822 -17.2657 -17.2648 -17.2582 -17.2513 -17.2475 -17.2335
   -17.2270 -17.2261 -17.2244 -17.2194 -17.2073 -17.2056 -17.2031 -17.2022
   -17.2013 -17.2008 -17.1968 -17.1955 -17.1917 -17.1788 -17.1269 -17.1134
   -17.0895 -17.0862 -17.0832 -17.0770 -17.0554 -17.0410 -17.0285 -17.0252
    -5.3470  -4.1764  -3.7501  -3.2641  -2.8717  -2.2690  -2.1657  -2.0521
    -0.6338  -0.3726  -0.1410   0.1455   0.6920   0.8745   1.3657   3.2787
     3.6326   3.7948   4.1534   4.2233   4.3932   4.5277   4.7596   5.0182
     5.1227   5.5979   5.7046   5.9059   6.2071   6.5566   6.9158   7.4905
     7.6634   7.8783   8.0790   8.2412   8.5440   8.7416   8.8044   8.9690
     9.2095   9.3655   9.5842   9.8863  10.0055  10.2281

     occupation numbers 
     1.0000   1.0000   1.0000   1.0000   1.0000   1.0000   1.0000   1.0000
     1.0000   1.0000   1.0000   1.0000   1.0000   1.0000   1.0000   1.0000
     1.0000   1.0000   1.0000   1.0000   1.0000   1.0000   1.0000   1.0000
     1.0000   1.0000   1.0000   1.0000   1.0000   1.0000   1.0000   1.0000
     1.0000   1.0000   1.0000   1.0000   1.0000   1.0000   1.0000   1.0000
     1.0000   1.0000   1.0000   1.0000   1.0000   1.0000   1.0000   1.0000
     1.0000   1.0000   1.0000   1.0000   1.0000   1.0000   1.0000   1.0000
     1.0000   1.0000   1.0000   1.0000   1.0000   1.0000   1.0000   1.0000
     1.0000   1.0000   1.0000   1.0000   1.0000   1.0000   1.0000   0.5714
     0.1544   0.0061   0.0000   0.0000   0.0000   0.0000   0.0000   0.0000
     0.0000   0.0000   0.0000   0.0000   0.0000   0.0000

          k =-0.3536-0.3536 0.3536 (  8026 PWs)   bands (ev):

   -17.9560 -17.8296 -17.7537 -17.6311 -17.6265 -17.3761 -17.3545 -17.3200
   -17.2902 -17.2820 -17.2654 -17.2647 -17.2582 -17.2511 -17.2472 -17.2335
   -17.2269 -17.2260 -17.2245 -17.2194 -17.2071 -17.2057 -17.2030 -17.2014
   -17.2010 -17.1998 -17.1973 -17.1965 -17.1918 -17.1788 -17.1268 -17.1133
   -17.0895 -17.0859 -17.0832 -17.0770 -17.0554 -17.0410 -17.0284 -17.0252
    -5.0286  -4.5750  -3.8676  -3.1770  -2.7956  -2.5030  -2.4333  -2.2839
    -0.2190   0.0147   0.2620   0.4440   1.0151   1.0736   2.4805   2.7865
     3.1742   3.4554   3.5010   3.6790   4.0450   4.2795   4.5673   4.6681
     4.8153   5.0383   5.2631   5.4717   6.1055   6.3753   6.8651   7.3461
     7.8716   8.1402   8.2104   8.4805   8.5796   8.8489   8.9612   9.0041
    10.0989  10.1691  10.6914  10.8580  11.2073  11.3635

     occupation numbers 
     1.0000   1.0000   1.0000   1.0000   1.0000   1.0000   1.0000   1.0000
     1.0000   1.0000   1.0000   1.0000   1.0000   1.0000   1.0000   1.0000
     1.0000   1.0000   1.0000   1.0000   1.0000   1.0000   1.0000   1.0000
     1.0000   1.0000   1.0000   1.0000   1.0000   1.0000   1.0000   1.0000
     1.0000   1.0000   1.0000   1.0000   1.0000   1.0000   1.0000   1.0000
     1.0000   1.0000   1.0000   1.0000   1.0000   1.0000   1.0000   1.0000
     1.0000   1.0000   1.0000   1.0000   1.0000   1.0000   1.0000   1.0000
     1.0000   1.0000   1.0000   1.0000   1.0000   1.0000   1.0000   1.0000
     1.0000   1.0000   1.0000   1.0000   1.0000   1.0000   1.0000   0.8812
     0.0069   0.0000   0.0000   0.0000   0.0000   0.0000   0.0000   0.0000
     0.0000   0.0000   0.0000   0.0000   0.0000   0.0000

          k = 0.3536 0.0000 0.0000 (  8044 PWs)   bands (ev):

   -17.9563 -17.8296 -17.7535 -17.6311 -17.6266 -17.3762 -17.3545 -17.3202
   -17.2900 -17.2824 -17.2656 -17.2647 -17.2580 -17.2514 -17.2478 -17.2334
   -17.2269 -17.2262 -17.2239 -17.2193 -17.2073 -17.2055 -17.2031 -17.2022
   -17.2012 -17.2008 -17.1968 -17.1954 -17.1916 -17.1788 -17.1269 -17.1133
   -17.0895 -17.0862 -17.0832 -17.0769 -17.0554 -17.0409 -17.0286 -17.0250
    -5.2926  -4.1875  -3.6207  -3.4163  -3.1176  -2.6933  -1.8588  -1.6946
    -0.7628  -0.5939   0.1084   0.6382   0.7110   1.0028   1.4511   3.2524
     3.4509   3.6630   3.8157   4.0650   4.3403   4.4623   4.5865   4.7692
     4.9388   5.3036   5.8805   6.1427   6.2088   6.5920   6.8114   6.9900
     7.4618   8.2250   8.3238   8.5915   8.6511   8.8593   8.9706   9.1005
     9.2974   9.5806   9.9153  10.1433  10.3690  10.3873

     occupation numbers 
     1.0000   1.0000   1.0000   1.0000   1.0000   1.0000   1.0000   1.0000
     1.0000   1.0000   1.0000   1.0000   1.0000   1.0000   1.0000   1.0000
     1.0000   1.0000   1.0000   1.0000   1.0000   1.0000   1.0000   1.0000
     1.0000   1.0000   1.0000   1.0000   1.0000   1.0000   1.0000   1.0000
     1.0000   1.0000   1.0000   1.0000   1.0000   1.0000   1.0000   1.0000
     1.0000   1.0000   1.0000   1.0000   1.0000   1.0000   1.0000   1.0000
     1.0000   1.0000   1.0000   1.0000   1.0000   1.0000   1.0000   1.0000
     1.0000   1.0000   1.0000   1.0000   1.0000   1.0000   1.0000   1.0000
     1.0000   1.0000   1.0000   1.0000   1.0000   1.0000   1.0000   0.9999
     0.6478   0.0000   0.0000   0.0000   0.0000   0.0000   0.0000   0.0000
     0.0000   0.0000   0.0000   0.0000   0.0000   0.0000

          k =-0.1768-0.5303 0.5303 (  8019 PWs)   bands (ev):

   -17.9561 -17.8295 -17.7535 -17.6310 -17.6266 -17.3761 -17.3544 -17.3200
   -17.2898 -17.2823 -17.2653 -17.2647 -17.2580 -17.2512 -17.2475 -17.2334
   -17.2269 -17.2261 -17.2241 -17.2193 -17.2072 -17.2055 -17.2030 -17.2014
   -17.2010 -17.1998 -17.1972 -17.1964 -17.1917 -17.1788 -17.1268 -17.1132
   -17.0895 -17.0859 -17.0831 -17.0769 -17.0554 -17.0409 -17.0285 -17.0251
    -4.9798  -4.3991  -4.0460  -3.3805  -3.1063  -2.7030  -2.2016  -1.7447
    -0.6278   0.0005   0.4322   0.8271   1.1081   1.7013   2.2415   2.7296
     2.9031   3.2549   3.4103   3.8080   4.0077   4.1784   4.2602   4.4852
     4.8892   4.9896   5.1291   5.4229   5.6382   6.1309   6.3474   6.9793
     8.2301   8.5776   8.8596   9.0025   9.2257   9.4399   9.6333   9.6869
    10.0860  10.2328  10.4536  10.6845  10.8102  10.9073

     occupation numbers 
     1.0000   1.0000   1.0000   1.0000   1.0000   1.0000   1.0000   1.0000
     1.0000   1.0000   1.0000   1.0000   1.0000   1.0000   1.0000   1.0000
     1.0000   1.0000   1.0000   1.0000   1.0000   1.0000   1.0000   1.0000
     1.0000   1.0000   1.0000   1.0000   1.0000   1.0000   1.0000   1.0000
     1.0000   1.0000   1.0000   1.0000   1.0000   1.0000   1.0000   1.0000
     1.0000   1.0000   1.0000   1.0000   1.0000   1.0000   1.0000   1.0000
     1.0000   1.0000   1.0000   1.0000   1.0000   1.0000   1.0000   1.0000
     1.0000   1.0000   1.0000   1.0000   1.0000   1.0000   1.0000   1.0000
     1.0000   1.0000   1.0000   1.0000   1.0000   1.0000   1.0000   0.9999
     0.0000   0.0000   0.0000   0.0000   0.0000   0.0000   0.0000   0.0000
     0.0000   0.0000   0.0000   0.0000   0.0000   0.0000

          k = 0.0000-0.3536 0.3536 (  8024 PWs)   bands (ev):

   -17.9562 -17.8296 -17.7535 -17.6312 -17.6264 -17.3761 -17.3544 -17.3200
   -17.2898 -17.2823 -17.2657 -17.2646 -17.2581 -17.2509 -17.2472 -17.2335
   -17.2270 -17.2259 -17.2242 -17.2194 -17.2073 -17.2055 -17.2030 -17.2021
   -17.2015 -17.2009 -17.1968 -17.1955 -17.1918 -17.1787 -17.1268 -17.1133
   -17.0894 -17.0862 -17.0831 -17.0771 -17.0553 -17.0409 -17.0284 -17.0252
    -5.1037  -4.3001  -4.0299  -3.2480  -2.9896  -2.5964  -2.4592  -1.6852
    -0.7338  -0.1223   0.3938   0.6181   0.9143   1.7465   1.9679   2.8774
     3.3897   3.4778   3.5769   3.6719   3.9120   4.1000   4.3133   4.4832
     5.1069   5.2767   5.4020   5.5669   5.7514   5.9470   6.0193   7.4710
     8.1766   8.4900   8.6149   9.0032   9.2096   9.3698   9.5130   9.6717
     9.8111   9.9483  10.2477  10.3928  10.5151  10.6005

     occupation numbers 
     1.0000   1.0000   1.0000   1.0000   1.0000   1.0000   1.0000   1.0000
     1.0000   1.0000   1.0000   1.0000   1.0000   1.0000   1.0000   1.0000
     1.0000   1.0000   1.0000   1.0000   1.0000   1.0000   1.0000   1.0000
     1.0000   1.0000   1.0000   1.0000   1.0000   1.0000   1.0000   1.0000
     1.0000   1.0000   1.0000   1.0000   1.0000   1.0000   1.0000   1.0000
     1.0000   1.0000   1.0000   1.0000   1.0000   1.0000   1.0000   1.0000
     1.0000   1.0000   1.0000   1.0000   1.0000   1.0000   1.0000   1.0000
     1.0000   1.0000   1.0000   1.0000   1.0000   1.0000   1.0000   1.0000
     1.0000   1.0000   1.0000   1.0000   1.0000   1.0000   1.0000   0.6237
     0.0000   0.0000   0.0000   0.0000   0.0000   0.0000   0.0000   0.0000
     0.0000   0.0000   0.0000   0.0000   0.0000   0.0000

          k =-0.7071 0.0000 0.0000 (  7992 PWs)   bands (ev):

   -17.9560 -17.8293 -17.7533 -17.6308 -17.6264 -17.3758 -17.3541 -17.3199
   -17.2893 -17.2824 -17.2651 -17.2645 -17.2577 -17.2511 -17.2476 -17.2332
   -17.2267 -17.2260 -17.2235 -17.2193 -17.2072 -17.2053 -17.2029 -17.2013
   -17.2009 -17.1996 -17.1971 -17.1963 -17.1915 -17.1786 -17.1266 -17.1131
   -17.0893 -17.0859 -17.0830 -17.0767 -17.0553 -17.0407 -17.0285 -17.0248
    -4.8493  -4.4987  -3.7857  -3.7063  -3.2774  -2.9755  -1.8380  -1.6335
    -0.4988  -0.3456   0.8678   1.0850   1.3859   1.5857   2.8237   2.9017
     3.0188   3.0571   3.1931   3.3766   3.5133   3.5414   3.6844   3.8188
     5.2747   5.3398   5.4523   5.5858   5.9957   6.1518   6.3952   6.5437
     7.8645   8.0381   8.8606   9.0124   9.2733   9.4617   9.9355  10.0334
    10.7119  10.8391  10.9910  11.1193  11.3846  11.6130

     occupation numbers 
     1.0000   1.0000   1.0000   1.0000   1.0000   1.0000   1.0000   1.0000
     1.0000   1.0000   1.0000   1.0000   1.0000   1.0000   1.0000   1.0000
     1.0000   1.0000   1.0000   1.0000   1.0000   1.0000   1.0000   1.0000
     1.0000   1.0000   1.0000   1.0000   1.0000   1.0000   1.0000   1.0000
     1.0000   1.0000   1.0000   1.0000   1.0000   1.0000   1.0000   1.0000
     1.0000   1.0000   1.0000   1.0000   1.0000   1.0000   1.0000   1.0000
     1.0000   1.0000   1.0000   1.0000   1.0000   1.0000   1.0000   1.0000
     1.0000   1.0000   1.0000   1.0000   1.0000   1.0000   1.0000   1.0000
     1.0000   1.0000   1.0000   1.0000   1.0000   1.0000   1.0000   1.0000
     0.0079   0.0002   0.0000   0.0000   0.0000   0.0000   0.0000   0.0000
     0.0000   0.0000   0.0000   0.0000   0.0000   0.0000

          k =-0.7071 0.3536 0.0000 (  8004 PWs)   bands (ev):

   -17.9562 -17.8295 -17.7534 -17.6310 -17.6265 -17.3760 -17.3543 -17.3200
   -17.2894 -17.2826 -17.2654 -17.2646 -17.2579 -17.2511 -17.2474 -17.2334
   -17.2267 -17.2260 -17.2240 -17.2192 -17.2069 -17.2055 -17.2034 -17.2018
   -17.2013 -17.2001 -17.1967 -17.1959 -17.1917 -17.1787 -17.1269 -17.1131
   -17.0895 -17.0860 -17.0831 -17.0769 -17.0554 -17.0408 -17.0285 -17.0250
    -4.8499  -4.4268  -4.0336  -3.8086  -2.9017  -2.5771  -2.2299  -1.9225
    -0.4509   0.0408   0.2976   0.6559   1.9629   2.1415   2.5284   2.8087
     2.8881   2.9839   3.0852   3.2893   3.9430   4.1475   4.2455   4.4950
     4.5739   4.7849   4.9648   5.0783   5.5205   5.9763   6.2844   6.4808
     8.7439   8.9709   9.0972   9.3156   9.5540   9.8174   9.8514  10.0550
    10.3122  10.4297  10.6420  10.7137  11.1544  11.3805

     occupation numbers 
     1.0000   1.0000   1.0000   1.0000   1.0000   1.0000   1.0000   1.0000
     1.0000   1.0000   1.0000   1.0000   1.0000   1.0000   1.0000   1.0000
     1.0000   1.0000   1.0000   1.0000   1.0000   1.0000   1.0000   1.0000
     1.0000   1.0000   1.0000   1.0000   1.0000   1.0000   1.0000   1.0000
     1.0000   1.0000   1.0000   1.0000   1.0000   1.0000   1.0000   1.0000
     1.0000   1.0000   1.0000   1.0000   1.0000   1.0000   1.0000   1.0000
     1.0000   1.0000   1.0000   1.0000   1.0000   1.0000   1.0000   1.0000
     1.0000   1.0000   1.0000   1.0000   1.0000   1.0000   1.0000   1.0000
     1.0000   1.0000   1.0000   1.0000   1.0000   1.0000   1.0000   1.0000
     0.0000   0.0000   0.0000   0.0000   0.0000   0.0000   0.0000   0.0000
     0.0000   0.0000   0.0000   0.0000   0.0000   0.0000

          k =-0.1768-0.1768-0.1768 (  8000 PWs)   bands (ev):

   -17.9563 -17.8296 -17.7535 -17.6314 -17.6267 -17.3762 -17.3546 -17.3202
   -17.2901 -17.2824 -17.2657 -17.2649 -17.2581 -17.2516 -17.2478 -17.2334
   -17.2270 -17.2262 -17.2240 -17.2192 -17.2068 -17.2055 -17.2032 -17.2024
   -17.2015 -17.2010 -17.1967 -17.1952 -17.1917 -17.1788 -17.1269 -17.1134
   -17.0896 -17.0863 -17.0831 -17.0771 -17.0554 -17.0409 -17.0286 -17.0252
    -5.3535  -4.1722  -3.6109  -3.2332  -3.0868  -2.4419  -2.1284  -2.0072
    -0.5565  -0.2884  -0.1269   0.4637   0.5928   0.9641   1.1627   3.2177
     3.5155   3.6745   4.1098   4.2572   4.4059   4.5577   4.5931   4.8438
     4.9538   5.5954   5.7887   6.0683   6.2480   6.6082   7.1393   7.6146
     7.7578   8.0287   8.0946   8.2781   8.5838   8.7049   8.9056   8.9688
     9.2111   9.3113   9.5151   9.9504  10.0306  10.4559

     occupation numbers 
     1.0000   1.0000   1.0000   1.0000   1.0000   1.0000   1.0000   1.0000
     1.0000   1.0000   1.0000   1.0000   1.0000   1.0000   1.0000   1.0000
     1.0000   1.0000   1.0000   1.0000   1.0000   1.0000   1.0000   1.0000
     1.0000   1.0000   1.0000   1.0000   1.0000   1.0000   1.0000   1.0000
     1.0000   1.0000   1.0000   1.0000   1.0000   1.0000   1.0000   1.0000
     1.0000   1.0000   1.0000   1.0000   1.0000   1.0000   1.0000   1.0000
     1.0000   1.0000   1.0000   1.0000   1.0000   1.0000   1.0000   1.0000
     1.0000   1.0000   1.0000   1.0000   1.0000   1.0000   1.0000   1.0000
     1.0000   1.0000   1.0000   1.0000   1.0000   1.0000   0.9955   0.2484
     0.0472   0.0002   0.0000   0.0000   0.0000   0.0000   0.0000   0.0000
     0.0000   0.0000   0.0000   0.0000   0.0000   0.0000

          k =-0.1768 0.1768 0.1768 (  8000 PWs)   bands (ev):

   -17.9564 -17.8297 -17.7536 -17.6312 -17.6266 -17.3764 -17.3546 -17.3202
   -17.2905 -17.2822 -17.2658 -17.2648 -17.2582 -17.2514 -17.2478 -17.2334
   -17.2269 -17.2262 -17.2238 -17.2193 -17.2070 -17.2055 -17.2036 -17.2025
   -17.2014 -17.2010 -17.1965 -17.1951 -17.1918 -17.1789 -17.1269 -17.1134
   -17.0895 -17.0862 -17.0831 -17.0770 -17.0554 -17.0409 -17.0286 -17.0251
    -5.3528  -4.2425  -3.6170  -3.3543  -2.9381  -2.1445  -2.0000  -1.7702
    -0.9775  -0.7721  -0.4261   0.2446   0.7392   0.9543   1.5466   3.4508
     3.7464   3.8516   4.0049   4.2409   4.4945   4.8389   5.1029   5.2401
     5.3484   5.4332   5.5883   5.7711   6.0113   6.1676   7.2373   7.3655
     7.4951   7.6062   7.7892   7.9676   8.4887   8.5659   8.7323   9.0065
     9.2408   9.3735   9.4466   9.7338   9.8117  10.2889

     occupation numbers 
     1.0000   1.0000   1.0000   1.0000   1.0000   1.0000   1.0000   1.0000
     1.0000   1.0000   1.0000   1.0000   1.0000   1.0000   1.0000   1.0000
     1.0000   1.0000   1.0000   1.0000   1.0000   1.0000   1.0000   1.0000
     1.0000   1.0000   1.0000   1.0000   1.0000   1.0000   1.0000   1.0000
     1.0000   1.0000   1.0000   1.0000   1.0000   1.0000   1.0000   1.0000
     1.0000   1.0000   1.0000   1.0000   1.0000   1.0000   1.0000   1.0000
     1.0000   1.0000   1.0000   1.0000   1.0000   1.0000   1.0000   1.0000
     1.0000   1.0000   1.0000   1.0000   1.0000   1.0000   1.0000   1.0000
     1.0000   1.0000   1.0000   1.0000   1.0000   1.0000   0.9735   0.8522
     0.5590   0.2671   0.0294   0.0009   0.0000   0.0000   0.0000   0.0000
     0.0000   0.0000   0.0000   0.0000   0.0000   0.0000

          k = 0.1768-0.1768 0.1768 (  8000 PWs)   bands (ev):

   -17.9564 -17.8297 -17.7535 -17.6313 -17.6266 -17.3762 -17.3545 -17.3202
   -17.2900 -17.2824 -17.2658 -17.2647 -17.2581 -17.2512 -17.2476 -17.2334
   -17.2271 -17.2261 -17.2241 -17.2194 -17.2074 -17.2055 -17.2032 -17.2029
   -17.2016 -17.2013 -17.1966 -17.1946 -17.1917 -17.1788 -17.1269 -17.1134
   -17.0895 -17.0864 -17.0832 -17.0771 -17.0554 -17.0409 -17.0285 -17.0251
    -5.3493  -4.2161  -3.5988  -3.2342  -3.0373  -2.4778  -2.0267  -1.9199
    -0.8240  -0.4652  -0.0106   0.2949   0.6490   1.0657   1.3293   3.3481
     3.5663   3.7218   4.0470   4.2319   4.3201   4.4444   4.6925   4.9818
     5.2659   5.4937   5.6988   5.8898   6.1851   6.5444   7.1316   7.4105
     7.6123   7.9132   8.1760   8.2937   8.5263   8.6199   8.8586   9.1380
     9.2467   9.4861   9.6621   9.9713  10.1983  10.3558

     occupation numbers 
     1.0000   1.0000   1.0000   1.0000   1.0000   1.0000   1.0000   1.0000
     1.0000   1.0000   1.0000   1.0000   1.0000   1.0000   1.0000   1.0000
     1.0000   1.0000   1.0000   1.0000   1.0000   1.0000   1.0000   1.0000
     1.0000   1.0000   1.0000   1.0000   1.0000   1.0000   1.0000   1.0000
     1.0000   1.0000   1.0000   1.0000   1.0000   1.0000   1.0000   1.0000
     1.0000   1.0000   1.0000   1.0000   1.0000   1.0000   1.0000   1.0000
     1.0000   1.0000   1.0000   1.0000   1.0000   1.0000   1.0000   1.0000
     1.0000   1.0000   1.0000   1.0000   1.0000   1.0000   1.0000   1.0000
     1.0000   1.0000   1.0000   1.0000   1.0000   1.0000   0.9962   0.7687
     0.2535   0.0030   0.0000   0.0000   0.0000   0.0000   0.0000   0.0000
     0.0000   0.0000   0.0000   0.0000   0.0000   0.0000

          k = 0.3536 0.3536 0.3536 (  8026 PWs)   bands (ev):

   -17.9562 -17.8293 -17.7533 -17.6313 -17.6268 -17.3759 -17.3544 -17.3199
   -17.2896 -17.2827 -17.2657 -17.2649 -17.2580 -17.2516 -17.2478 -17.2334
   -17.2268 -17.2260 -17.2238 -17.2191 -17.2063 -17.2055 -17.2030 -17.2017
   -17.2013 -17.2009 -17.1969 -17.1957 -17.1917 -17.1788 -17.1268 -17.1134
   -17.0896 -17.0864 -17.0829 -17.0771 -17.0552 -17.0407 -17.0287 -17.0252
    -5.0763  -4.4878  -3.7329  -3.1804  -3.0632  -2.6575  -2.3988  -2.2847
    -0.0178   0.2406   0.4036   0.6693   0.6919   1.5104   2.2314   2.7580
     3.0475   3.1827   3.3232   3.4146   3.7669   3.8419   4.6451   4.6943
     4.9825   5.3017   5.3879   5.4054   6.2292   6.5833   6.8549   7.4525
     7.9831   8.1789   8.4111   8.6176   8.6383   8.8222   9.0896   9.3970
    10.2278  10.4862  10.6072  10.9130  11.0808  11.3796

     occupation numbers 
     1.0000   1.0000   1.0000   1.0000   1.0000   1.0000   1.0000   1.0000
     1.0000   1.0000   1.0000   1.0000   1.0000   1.0000   1.0000   1.0000
     1.0000   1.0000   1.0000   1.0000   1.0000   1.0000   1.0000   1.0000
     1.0000   1.0000   1.0000   1.0000   1.0000   1.0000   1.0000   1.0000
     1.0000   1.0000   1.0000   1.0000   1.0000   1.0000   1.0000   1.0000
     1.0000   1.0000   1.0000   1.0000   1.0000   1.0000   1.0000   1.0000
     1.0000   1.0000   1.0000   1.0000   1.0000   1.0000   1.0000   1.0000
     1.0000   1.0000   1.0000   1.0000   1.0000   1.0000   1.0000   1.0000
     1.0000   1.0000   1.0000   1.0000   1.0000   1.0000   1.0000   0.6713
     0.0006   0.0000   0.0000   0.0000   0.0000   0.0000   0.0000   0.0000
     0.0000   0.0000   0.0000   0.0000   0.0000   0.0000

          k = 0.3536-0.3536-0.3536 (  8026 PWs)   bands (ev):

   -17.9562 -17.8296 -17.7536 -17.6309 -17.6266 -17.3762 -17.3543 -17.3200
   -17.2902 -17.2820 -17.2655 -17.2647 -17.2581 -17.2513 -17.2477 -17.2334
   -17.2268 -17.2263 -17.2235 -17.2192 -17.2066 -17.2053 -17.2041 -17.2022
   -17.2014 -17.2004 -17.1964 -17.1956 -17.1919 -17.1790 -17.1267 -17.1133
   -17.0895 -17.0860 -17.0831 -17.0769 -17.0554 -17.0409 -17.0286 -17.0250
    -5.0516  -4.6172  -3.7526  -3.3322  -2.9287  -2.3796  -2.0975  -1.7926
    -0.8819  -0.6448  -0.2110   0.5708   1.0931   1.3050   2.9298   3.0482
     3.2849   3.6041   3.9321   3.9496   4.1846   4.3524   4.6349   4.6683
     4.9357   5.0350   5.3823   5.4207   5.5595   5.7077   7.2060   7.4804
     7.7384   7.7922   8.0156   8.0496   8.1743   8.3281   8.9681   9.1891
     9.5280   9.8310  10.6387  10.8699  11.2203  11.3599

     occupation numbers 
     1.0000   1.0000   1.0000   1.0000   1.0000   1.0000   1.0000   1.0000
     1.0000   1.0000   1.0000   1.0000   1.0000   1.0000   1.0000   1.0000
     1.0000   1.0000   1.0000   1.0000   1.0000   1.0000   1.0000   1.0000
     1.0000   1.0000   1.0000   1.0000   1.0000   1.0000   1.0000   1.0000
     1.0000   1.0000   1.0000   1.0000   1.0000   1.0000   1.0000   1.0000
     1.0000   1.0000   1.0000   1.0000   1.0000   1.0000   1.0000   1.0000
     1.0000   1.0000   1.0000   1.0000   1.0000   1.0000   1.0000   1.0000
     1.0000   1.0000   1.0000   1.0000   1.0000   1.0000   1.0000   1.0000
     1.0000   1.0000   1.0000   1.0000   1.0000   1.0000   0.9843   0.5988
     0.0621   0.0280   0.0003   0.0001   0.0000   0.0000   0.0000   0.0000
     0.0000   0.0000   0.0000   0.0000   0.0000   0.0000

          k =-0.3536 0.3536-0.3536 (  8026 PWs)   bands (ev):

   -17.9563 -17.8296 -17.7535 -17.6312 -17.6263 -17.3761 -17.3544 -17.3200
   -17.2894 -17.2825 -17.2658 -17.2644 -17.2578 -17.2507 -17.2475 -17.2333
   -17.2270 -17.2259 -17.2238 -17.2194 -17.2074 -17.2055 -17.2032 -17.2029
   -17.2017 -17.2015 -17.1966 -17.1946 -17.1918 -17.1787 -17.1269 -17.1132
   -17.0893 -17.0862 -17.0832 -17.0771 -17.0553 -17.0409 -17.0285 -17.0251
    -5.0423  -4.5882  -3.6771  -3.1847  -3.0700  -2.6587  -2.2874  -2.1404
    -0.6001  -0.1219   0.5302   0.7970   0.9760   1.4758   2.6456   2.6909
     3.0251   3.1636   3.3059   3.5354   4.1048   4.2844   4.3574   4.5666
     4.8522   5.0138   5.1828   5.5570   6.2767   6.5140   6.8100   7.2547
     7.6655   8.1927   8.3982   8.5541   8.7458   8.8343   9.0367   9.2379
    10.3924  10.6798  10.7608  10.8746  11.1192  11.2920

     occupation numbers 
     1.0000   1.0000   1.0000   1.0000   1.0000   1.0000   1.0000   1.0000
     1.0000   1.0000   1.0000   1.0000   1.0000   1.0000   1.0000   1.0000
     1.0000   1.0000   1.0000   1.0000   1.0000   1.0000   1.0000   1.0000
     1.0000   1.0000   1.0000   1.0000   1.0000   1.0000   1.0000   1.0000
     1.0000   1.0000   1.0000   1.0000   1.0000   1.0000   1.0000   1.0000
     1.0000   1.0000   1.0000   1.0000   1.0000   1.0000   1.0000   1.0000
     1.0000   1.0000   1.0000   1.0000   1.0000   1.0000   1.0000   1.0000
     1.0000   1.0000   1.0000   1.0000   1.0000   1.0000   1.0000   1.0000
     1.0000   1.0000   1.0000   1.0000   1.0000   1.0000   1.0000   0.9652
     0.1509   0.0000   0.0000   0.0000   0.0000   0.0000   0.0000   0.0000
     0.0000   0.0000   0.0000   0.0000   0.0000   0.0000

          k = 0.0000 0.3536 0.0000 (  8044 PWs)   bands (ev):

   -17.9563 -17.8296 -17.7536 -17.6313 -17.6265 -17.3763 -17.3546 -17.3201
   -17.2904 -17.2821 -17.2657 -17.2646 -17.2582 -17.2511 -17.2476 -17.2334
   -17.2271 -17.2260 -17.2239 -17.2192 -17.2069 -17.2054 -17.2032 -17.2024
   -17.2015 -17.2010 -17.1967 -17.1952 -17.1917 -17.1788 -17.1269 -17.1135
   -17.0894 -17.0863 -17.0830 -17.0771 -17.0553 -17.0409 -17.0285 -17.0251
    -5.2944  -4.1866  -3.6954  -3.3158  -3.1060  -2.6919  -1.9592  -1.5670
    -0.7970  -0.6438   0.1410   0.3236   0.7397   1.2329   1.5039   3.2404
     3.5139   3.6978   3.8585   4.1275   4.2786   4.4887   4.6533   4.7585
     4.9880   5.2350   5.7552   6.0007   6.2076   6.4973   6.7503   7.1007
     7.4571   8.1589   8.3642   8.4946   8.6723   8.7835   9.0535   9.1073
     9.2935   9.6145   9.8617  10.1573  10.4264  10.5289

     occupation numbers 
     1.0000   1.0000   1.0000   1.0000   1.0000   1.0000   1.0000   1.0000
     1.0000   1.0000   1.0000   1.0000   1.0000   1.0000   1.0000   1.0000
     1.0000   1.0000   1.0000   1.0000   1.0000   1.0000   1.0000   1.0000
     1.0000   1.0000   1.0000   1.0000   1.0000   1.0000   1.0000   1.0000
     1.0000   1.0000   1.0000   1.0000   1.0000   1.0000   1.0000   1.0000
     1.0000   1.0000   1.0000   1.0000   1.0000   1.0000   1.0000   1.0000
     1.0000   1.0000   1.0000   1.0000   1.0000   1.0000   1.0000   1.0000
     1.0000   1.0000   1.0000   1.0000   1.0000   1.0000   1.0000   1.0000
     1.0000   1.0000   1.0000   1.0000   1.0000   1.0000   1.0000   0.9980
     0.6598   0.0000   0.0000   0.0000   0.0000   0.0000   0.0000   0.0000
     0.0000   0.0000   0.0000   0.0000   0.0000   0.0000

          k = 0.0000 0.0000 0.3536 (  8044 PWs)   bands (ev):

   -17.9563 -17.8297 -17.7534 -17.6312 -17.6266 -17.3762 -17.3546 -17.3201
   -17.2900 -17.2824 -17.2658 -17.2648 -17.2581 -17.2512 -17.2475 -17.2335
   -17.2269 -17.2260 -17.2242 -17.2192 -17.2069 -17.2055 -17.2036 -17.2024
   -17.2015 -17.2009 -17.1965 -17.1950 -17.1918 -17.1787 -17.1269 -17.1133
   -17.0895 -17.0862 -17.0831 -17.0770 -17.0554 -17.0408 -17.0285 -17.0252
    -5.3002  -4.1767  -3.6259  -3.4404  -3.0587  -2.7112  -1.7642  -1.6287
    -0.9367  -0.7402   0.0525   0.4712   0.8282   1.0699   1.6544   3.5009
     3.6156   3.7049   3.7626   4.1033   4.2031   4.4182   4.6122   4.7668
     5.0897   5.3285   5.5411   5.8108   6.0351   6.3807   6.8834   7.0682
     7.5067   8.1106   8.4796   8.6364   8.6781   8.8443   9.0175   9.2723
     9.4587   9.6468   9.7891  10.2644  10.3921  10.4695

     occupation numbers 
     1.0000   1.0000   1.0000   1.0000   1.0000   1.0000   1.0000   1.0000
     1.0000   1.0000   1.0000   1.0000   1.0000   1.0000   1.0000   1.0000
     1.0000   1.0000   1.0000   1.0000   1.0000   1.0000   1.0000   1.0000
     1.0000   1.0000   1.0000   1.0000   1.0000   1.0000   1.0000   1.0000
     1.0000   1.0000   1.0000   1.0000   1.0000   1.0000   1.0000   1.0000
     1.0000   1.0000   1.0000   1.0000   1.0000   1.0000   1.0000   1.0000
     1.0000   1.0000   1.0000   1.0000   1.0000   1.0000   1.0000   1.0000
     1.0000   1.0000   1.0000   1.0000   1.0000   1.0000   1.0000   1.0000
     1.0000   1.0000   1.0000   1.0000   1.0000   1.0000   1.0000   0.9991
     0.5271   0.0000   0.0000   0.0000   0.0000   0.0000   0.0000   0.0000
     0.0000   0.0000   0.0000   0.0000   0.0000   0.0000

          k = 0.1768 0.5303 0.5303 (  8019 PWs)   bands (ev):

   -17.9561 -17.8294 -17.7534 -17.6312 -17.6266 -17.3759 -17.3543 -17.3200
   -17.2895 -17.2826 -17.2655 -17.2647 -17.2579 -17.2514 -17.2477 -17.2334
   -17.2268 -17.2261 -17.2237 -17.2193 -17.2068 -17.2054 -17.2031 -17.2014
   -17.2012 -17.2005 -17.1971 -17.1960 -17.1917 -17.1787 -17.1268 -17.1132
   -17.0895 -17.0861 -17.0831 -17.0770 -17.0553 -17.0408 -17.0286 -17.0251
    -4.9995  -4.4055  -3.8501  -3.4864  -3.2573  -2.6544  -2.1487  -1.9523
    -0.2629  -0.0494   0.4964   0.8354   1.0657   1.8734   2.2256   2.7234
     2.9284   3.1447   3.2652   3.6197   3.6992   4.0430   4.2221   4.2889
     4.6663   5.3192   5.4483   5.6414   5.8801   6.0871   6.5852   6.7556
     8.0619   8.5035   8.8571   9.0161   9.1824   9.4508   9.7097  10.0029
    10.1504  10.4103  10.6625  10.8505  10.9987  11.2193

     occupation numbers 
     1.0000   1.0000   1.0000   1.0000   1.0000   1.0000   1.0000   1.0000
     1.0000   1.0000   1.0000   1.0000   1.0000   1.0000   1.0000   1.0000
     1.0000   1.0000   1.0000   1.0000   1.0000   1.0000   1.0000   1.0000
     1.0000   1.0000   1.0000   1.0000   1.0000   1.0000   1.0000   1.0000
     1.0000   1.0000   1.0000   1.0000   1.0000   1.0000   1.0000   1.0000
     1.0000   1.0000   1.0000   1.0000   1.0000   1.0000   1.0000   1.0000
     1.0000   1.0000   1.0000   1.0000   1.0000   1.0000   1.0000   1.0000
     1.0000   1.0000   1.0000   1.0000   1.0000   1.0000   1.0000   1.0000
     1.0000   1.0000   1.0000   1.0000   1.0000   1.0000   1.0000   1.0000
     0.0001   0.0000   0.0000   0.0000   0.0000   0.0000   0.0000   0.0000
     0.0000   0.0000   0.0000   0.0000   0.0000   0.0000

          k = 0.1768-0.5303-0.5303 (  8019 PWs)   bands (ev):

   -17.9562 -17.8296 -17.7535 -17.6309 -17.6265 -17.3761 -17.3543 -17.3200
   -17.2898 -17.2823 -17.2654 -17.2646 -17.2580 -17.2512 -17.2477 -17.2334
   -17.2268 -17.2262 -17.2235 -17.2193 -17.2070 -17.2054 -17.2035 -17.2019
   -17.2012 -17.2002 -17.1968 -17.1960 -17.1918 -17.1788 -17.1267 -17.1132
   -17.0894 -17.0860 -17.0831 -17.0769 -17.0554 -17.0409 -17.0286 -17.0249
    -4.9885  -4.4779  -3.8668  -3.5101  -3.2077  -2.5154  -1.9566  -1.7277
    -0.7437  -0.4374   0.0023   1.0473   1.3360   1.4957   2.5440   2.8389
     3.0736   3.2824   3.6449   3.9096   4.0492   4.1511   4.2718   4.4102
     4.8710   5.1465   5.1911   5.4350   5.5468   5.8166   6.3595   7.0032
     7.9680   8.4545   8.6292   8.8160   8.9282   9.1099   9.6458   9.8464
    10.0557  10.2991  10.3452  10.5040  10.6897  11.1602

     occupation numbers 
     1.0000   1.0000   1.0000   1.0000   1.0000   1.0000   1.0000   1.0000
     1.0000   1.0000   1.0000   1.0000   1.0000   1.0000   1.0000   1.0000
     1.0000   1.0000   1.0000   1.0000   1.0000   1.0000   1.0000   1.0000
     1.0000   1.0000   1.0000   1.0000   1.0000   1.0000   1.0000   1.0000
     1.0000   1.0000   1.0000   1.0000   1.0000   1.0000   1.0000   1.0000
     1.0000   1.0000   1.0000   1.0000   1.0000   1.0000   1.0000   1.0000
     1.0000   1.0000   1.0000   1.0000   1.0000   1.0000   1.0000   1.0000
     1.0000   1.0000   1.0000   1.0000   1.0000   1.0000   1.0000   1.0000
     1.0000   1.0000   1.0000   1.0000   1.0000   1.0000   1.0000   0.9998
     0.0009   0.0000   0.0000   0.0000   0.0000   0.0000   0.0000   0.0000
     0.0000   0.0000   0.0000   0.0000   0.0000   0.0000

          k =-0.1768 0.5303-0.5303 (  8019 PWs)   bands (ev):

   -17.9562 -17.8295 -17.7534 -17.6311 -17.6264 -17.3760 -17.3543 -17.3200
   -17.2894 -17.2825 -17.2655 -17.2645 -17.2578 -17.2510 -17.2476 -17.2333
   -17.2269 -17.2259 -17.2238 -17.2194 -17.2074 -17.2054 -17.2030 -17.2021
   -17.2014 -17.2009 -17.1968 -17.1954 -17.1917 -17.1787 -17.1268 -17.1132
   -17.0894 -17.0861 -17.0831 -17.0770 -17.0554 -17.0408 -17.0285 -17.0250
    -4.9855  -4.4391  -3.9117  -3.4411  -3.1397  -2.7292  -2.2274  -1.6836
    -0.7256   0.0771   0.4114   0.6932   1.2977   2.0989   2.1880   2.8304
     2.9268   3.1780   3.3034   3.4757   3.7576   3.9685   4.2487   4.5469
     4.8882   5.0437   5.1781   5.6243   5.7248   6.1205   6.4212   6.8849
     8.1927   8.6734   8.7792   9.0754   9.2780   9.4541   9.5463   9.8167
     9.9702  10.1571  10.6432  10.8211  10.8946  11.1022

     occupation numbers 
     1.0000   1.0000   1.0000   1.0000   1.0000   1.0000   1.0000   1.0000
     1.0000   1.0000   1.0000   1.0000   1.0000   1.0000   1.0000   1.0000
     1.0000   1.0000   1.0000   1.0000   1.0000   1.0000   1.0000   1.0000
     1.0000   1.0000   1.0000   1.0000   1.0000   1.0000   1.0000   1.0000
     1.0000   1.0000   1.0000   1.0000   1.0000   1.0000   1.0000   1.0000
     1.0000   1.0000   1.0000   1.0000   1.0000   1.0000   1.0000   1.0000
     1.0000   1.0000   1.0000   1.0000   1.0000   1.0000   1.0000   1.0000
     1.0000   1.0000   1.0000   1.0000   1.0000   1.0000   1.0000   1.0000
     1.0000   1.0000   1.0000   1.0000   1.0000   1.0000   1.0000   1.0000
     0.0000   0.0000   0.0000   0.0000   0.0000   0.0000   0.0000   0.0000
     0.0000   0.0000   0.0000   0.0000   0.0000   0.0000

          k =-0.5303-0.1768-0.5303 (  8019 PWs)   bands (ev):

   -17.9561 -17.8293 -17.7534 -17.6312 -17.6266 -17.3761 -17.3544 -17.3199
   -17.2898 -17.2823 -17.2656 -17.2647 -17.2580 -17.2512 -17.2476 -17.2335
   -17.2270 -17.2259 -17.2238 -17.2191 -17.2064 -17.2053 -17.2031 -17.2016
   -17.2013 -17.2009 -17.1969 -17.1957 -17.1917 -17.1788 -17.1268 -17.1135
   -17.0895 -17.0863 -17.0829 -17.0770 -17.0552 -17.0408 -17.0285 -17.0251
    -5.0038  -4.4103  -3.8275  -3.5285  -3.1905  -2.7448  -2.1080  -1.8292
    -0.5550  -0.0236   0.4094   0.8554   1.4562   1.8348   2.0228   2.6670
     2.9227   3.0444   3.3563   3.7147   4.0639   4.1820   4.4082   4.5082
     4.5867   4.9063   5.0703   5.3370   5.6494   6.2662   6.4031   7.2025
     8.3404   8.6467   8.7556   9.0011   9.3070   9.4648   9.7370   9.8701
    10.0939  10.4015  10.4397  10.6450  10.7804  10.9094

     occupation numbers 
     1.0000   1.0000   1.0000   1.0000   1.0000   1.0000   1.0000   1.0000
     1.0000   1.0000   1.0000   1.0000   1.0000   1.0000   1.0000   1.0000
     1.0000   1.0000   1.0000   1.0000   1.0000   1.0000   1.0000   1.0000
     1.0000   1.0000   1.0000   1.0000   1.0000   1.0000   1.0000   1.0000
     1.0000   1.0000   1.0000   1.0000   1.0000   1.0000   1.0000   1.0000
     1.0000   1.0000   1.0000   1.0000   1.0000   1.0000   1.0000   1.0000
     1.0000   1.0000   1.0000   1.0000   1.0000   1.0000   1.0000   1.0000
     1.0000   1.0000   1.0000   1.0000   1.0000   1.0000   1.0000   1.0000
     1.0000   1.0000   1.0000   1.0000   1.0000   1.0000   1.0000   0.9852
     0.0000   0.0000   0.0000   0.0000   0.0000   0.0000   0.0000   0.0000
     0.0000   0.0000   0.0000   0.0000   0.0000   0.0000

          k = 0.5303 0.1768-0.5303 (  8019 PWs)   bands (ev):

   -17.9561 -17.8295 -17.7535 -17.6312 -17.6264 -17.3761 -17.3544 -17.3199
   -17.2902 -17.2819 -17.2654 -17.2646 -17.2581 -17.2509 -17.2473 -17.2334
   -17.2270 -17.2258 -17.2241 -17.2193 -17.2068 -17.2055 -17.2031 -17.2014
   -17.2012 -17.2006 -17.1972 -17.1961 -17.1917 -17.1788 -17.1267 -17.1134
   -17.0894 -17.0861 -17.0830 -17.0770 -17.0553 -17.0409 -17.0284 -17.0251
    -4.9834  -4.3805  -4.1067  -3.2599  -3.0890  -2.8031  -2.1165  -1.8480
    -0.4540  -0.1991   0.5017   0.6824   0.9851   1.8552   2.4261   2.7427
     3.0537   3.2485   3.4806   3.6923   3.8767   4.0257   4.2583   4.5080
     4.7076   5.1467   5.2550   5.6401   5.8145   5.9821   6.3594   6.6721
     7.9681   8.3261   8.7192   9.0441   9.2124   9.3360   9.5773  10.0556
    10.1554  10.3997  10.6669  10.8164  11.0102  11.1553

     occupation numbers 
     1.0000   1.0000   1.0000   1.0000   1.0000   1.0000   1.0000   1.0000
     1.0000   1.0000   1.0000   1.0000   1.0000   1.0000   1.0000   1.0000
     1.0000   1.0000   1.0000   1.0000   1.0000   1.0000   1.0000   1.0000
     1.0000   1.0000   1.0000   1.0000   1.0000   1.0000   1.0000   1.0000
     1.0000   1.0000   1.0000   1.0000   1.0000   1.0000   1.0000   1.0000
     1.0000   1.0000   1.0000   1.0000   1.0000   1.0000   1.0000   1.0000
     1.0000   1.0000   1.0000   1.0000   1.0000   1.0000   1.0000   1.0000
     1.0000   1.0000   1.0000   1.0000   1.0000   1.0000   1.0000   1.0000
     1.0000   1.0000   1.0000   1.0000   1.0000   1.0000   1.0000   1.0000
     0.0009   0.0000   0.0000   0.0000   0.0000   0.0000   0.0000   0.0000
     0.0000   0.0000   0.0000   0.0000   0.0000   0.0000

          k =-0.5303 0.1768 0.5303 (  8019 PWs)   bands (ev):

   -17.9561 -17.8295 -17.7535 -17.6311 -17.6265 -17.3762 -17.3543 -17.3199
   -17.2902 -17.2819 -17.2655 -17.2645 -17.2581 -17.2510 -17.2476 -17.2334
   -17.2269 -17.2259 -17.2236 -17.2191 -17.2066 -17.2053 -17.2036 -17.2020
   -17.2013 -17.2009 -17.1967 -17.1956 -17.1917 -17.1788 -17.1267 -17.1134
   -17.0894 -17.0861 -17.0830 -17.0770 -17.0553 -17.0408 -17.0285 -17.0250
    -4.9950  -4.4493  -3.9909  -3.3676  -3.1269  -2.6717  -1.9887  -1.5969
    -0.8047  -0.5019   0.1481   0.6708   1.2074   1.9658   2.5765   2.8197
     3.1783   3.3629   3.6338   3.7998   4.0138   4.1664   4.2518   4.5322
     4.7225   4.8952   5.3597   5.4413   5.6430   5.9841   6.2438   6.7980
     7.8984   8.1870   8.7005   8.8414   8.9404   9.1903   9.6491   9.8192
    10.0760  10.3010  10.3530  10.4699  10.8597  11.2677

     occupation numbers 
     1.0000   1.0000   1.0000   1.0000   1.0000   1.0000   1.0000   1.0000
     1.0000   1.0000   1.0000   1.0000   1.0000   1.0000   1.0000   1.0000
     1.0000   1.0000   1.0000   1.0000   1.0000   1.0000   1.0000   1.0000
     1.0000   1.0000   1.0000   1.0000   1.0000   1.0000   1.0000   1.0000
     1.0000   1.0000   1.0000   1.0000   1.0000   1.0000   1.0000   1.0000
     1.0000   1.0000   1.0000   1.0000   1.0000   1.0000   1.0000   1.0000
     1.0000   1.0000   1.0000   1.0000   1.0000   1.0000   1.0000   1.0000
     1.0000   1.0000   1.0000   1.0000   1.0000   1.0000   1.0000   1.0000
     1.0000   1.0000   1.0000   1.0000   1.0000   1.0000   1.0000   1.0000
     0.0041   0.0000   0.0000   0.0000   0.0000   0.0000   0.0000   0.0000
     0.0000   0.0000   0.0000   0.0000   0.0000   0.0000

          k = 0.5303-0.1768 0.5303 (  8019 PWs)   bands (ev):

   -17.9561 -17.8295 -17.7535 -17.6312 -17.6263 -17.3761 -17.3543 -17.3199
   -17.2897 -17.2823 -17.2656 -17.2644 -17.2580 -17.2507 -17.2474 -17.2334
   -17.2270 -17.2258 -17.2237 -17.2193 -17.2070 -17.2053 -17.2033 -17.2022
   -17.2014 -17.2013 -17.1968 -17.1952 -17.1917 -17.1787 -17.1268 -17.1134
   -17.0892 -17.0862 -17.0831 -17.0770 -17.0553 -17.0409 -17.0284 -17.0250
    -4.9853  -4.4675  -3.8501  -3.4597  -3.1716  -2.7077  -2.2176  -1.6265
    -0.7757  -0.0388   0.3246   0.7094   1.3947   1.9917   2.3893   2.8716
     2.9610   3.1804   3.3807   3.5904   3.7349   3.9126   4.2626   4.4706
     4.9257   5.0462   5.1491   5.4419   5.6444   5.9766   6.4234   7.1061
     8.2120   8.6962   8.8207   8.9278   9.2408   9.4420   9.6267   9.7505
    10.0291  10.1881  10.3693  10.7311  10.8497  11.2998

     occupation numbers 
     1.0000   1.0000   1.0000   1.0000   1.0000   1.0000   1.0000   1.0000
     1.0000   1.0000   1.0000   1.0000   1.0000   1.0000   1.0000   1.0000
     1.0000   1.0000   1.0000   1.0000   1.0000   1.0000   1.0000   1.0000
     1.0000   1.0000   1.0000   1.0000   1.0000   1.0000   1.0000   1.0000
     1.0000   1.0000   1.0000   1.0000   1.0000   1.0000   1.0000   1.0000
     1.0000   1.0000   1.0000   1.0000   1.0000   1.0000   1.0000   1.0000
     1.0000   1.0000   1.0000   1.0000   1.0000   1.0000   1.0000   1.0000
     1.0000   1.0000   1.0000   1.0000   1.0000   1.0000   1.0000   1.0000
     1.0000   1.0000   1.0000   1.0000   1.0000   1.0000   1.0000   0.9978
     0.0000   0.0000   0.0000   0.0000   0.0000   0.0000   0.0000   0.0000
     0.0000   0.0000   0.0000   0.0000   0.0000   0.0000

          k = 0.5303 0.5303-0.1768 (  8019 PWs)   bands (ev):

   -17.9562 -17.8295 -17.7535 -17.6310 -17.6264 -17.3760 -17.3544 -17.3199
   -17.2898 -17.2822 -17.2656 -17.2646 -17.2580 -17.2510 -17.2472 -17.2335
   -17.2268 -17.2258 -17.2244 -17.2192 -17.2068 -17.2056 -17.2033 -17.2018
   -17.2014 -17.2002 -17.1967 -17.1960 -17.1917 -17.1787 -17.1268 -17.1132
   -17.0894 -17.0860 -17.0832 -17.0769 -17.0554 -17.0409 -17.0283 -17.0251
    -4.9927  -4.4056  -4.0150  -3.4051  -3.1147  -2.5888  -2.1128  -1.9325
    -0.5688  -0.1146   0.2153   0.7367   1.3008   1.7843   2.3333   2.9817
     3.1010   3.2739   3.5649   3.7481   3.8632   3.9565   4.2096   4.4934
     4.8081   5.0878   5.1759   5.3584   5.4690   5.8909   6.3787   6.9779
     8.2425   8.6071   8.8766   9.0815   9.1679   9.4112   9.5107   9.7075
    10.1124  10.2885  10.3431  10.6708  10.8489  11.2753

     occupation numbers 
     1.0000   1.0000   1.0000   1.0000   1.0000   1.0000   1.0000   1.0000
     1.0000   1.0000   1.0000   1.0000   1.0000   1.0000   1.0000   1.0000
     1.0000   1.0000   1.0000   1.0000   1.0000   1.0000   1.0000   1.0000
     1.0000   1.0000   1.0000   1.0000   1.0000   1.0000   1.0000   1.0000
     1.0000   1.0000   1.0000   1.0000   1.0000   1.0000   1.0000   1.0000
     1.0000   1.0000   1.0000   1.0000   1.0000   1.0000   1.0000   1.0000
     1.0000   1.0000   1.0000   1.0000   1.0000   1.0000   1.0000   1.0000
     1.0000   1.0000   1.0000   1.0000   1.0000   1.0000   1.0000   1.0000
     1.0000   1.0000   1.0000   1.0000   1.0000   1.0000   1.0000   0.9999
     0.0000   0.0000   0.0000   0.0000   0.0000   0.0000   0.0000   0.0000
     0.0000   0.0000   0.0000   0.0000   0.0000   0.0000

          k =-0.5303 0.5303 0.1768 (  8019 PWs)   bands (ev):

   -17.9562 -17.8295 -17.7534 -17.6310 -17.6265 -17.3761 -17.3544 -17.3199
   -17.2898 -17.2823 -17.2656 -17.2647 -17.2581 -17.2511 -17.2475 -17.2335
   -17.2267 -17.2260 -17.2239 -17.2192 -17.2065 -17.2054 -17.2040 -17.2021
   -17.2014 -17.2003 -17.1963 -17.1955 -17.1918 -17.1788 -17.1268 -17.1132
   -17.0895 -17.0860 -17.0831 -17.0769 -17.0553 -17.0408 -17.0285 -17.0251
    -5.0059  -4.4383  -3.9712  -3.4378  -3.1076  -2.5228  -1.9881  -1.7851
    -0.7573  -0.4220  -0.0946   0.8525   1.2293   1.9147   2.5263   2.9260
     3.1007   3.5454   3.7726   3.9248   3.9805   4.1694   4.3388   4.4348
     4.5833   5.0030   5.1230   5.3407   5.5573   5.8858   6.0527   6.9742
     7.7566   8.5535   8.6992   8.9846   9.1199   9.1986   9.5114   9.7577
     9.9569  10.2543  10.4101  10.4762  10.6837  11.3524

     occupation numbers 
     1.0000   1.0000   1.0000   1.0000   1.0000   1.0000   1.0000   1.0000
     1.0000   1.0000   1.0000   1.0000   1.0000   1.0000   1.0000   1.0000
     1.0000   1.0000   1.0000   1.0000   1.0000   1.0000   1.0000   1.0000
     1.0000   1.0000   1.0000   1.0000   1.0000   1.0000   1.0000   1.0000
     1.0000   1.0000   1.0000   1.0000   1.0000   1.0000   1.0000   1.0000
     1.0000   1.0000   1.0000   1.0000   1.0000   1.0000   1.0000   1.0000
     1.0000   1.0000   1.0000   1.0000   1.0000   1.0000   1.0000   1.0000
     1.0000   1.0000   1.0000   1.0000   1.0000   1.0000   1.0000   1.0000
     1.0000   1.0000   1.0000   1.0000   1.0000   1.0000   1.0000   0.9999
     0.0481   0.0000   0.0000   0.0000   0.0000   0.0000   0.0000   0.0000
     0.0000   0.0000   0.0000   0.0000   0.0000   0.0000

          k = 0.5303-0.5303 0.1768 (  8019 PWs)   bands (ev):

   -17.9562 -17.8295 -17.7534 -17.6311 -17.6264 -17.3760 -17.3544 -17.3199
   -17.2893 -17.2825 -17.2656 -17.2646 -17.2579 -17.2508 -17.2473 -17.2334
   -17.2269 -17.2258 -17.2241 -17.2193 -17.2069 -17.2055 -17.2036 -17.2024
   -17.2015 -17.2010 -17.1965 -17.1950 -17.1918 -17.1787 -17.1269 -17.1131
   -17.0894 -17.0861 -17.0831 -17.0770 -17.0553 -17.0408 -17.0284 -17.0251
    -4.9996  -4.4314  -3.9158  -3.3963  -3.1749  -2.7088  -2.0222  -1.8914
    -0.6685  -0.3507   0.5452   0.9682   1.1356   1.9478   2.4907   2.8108
     2.9183   3.1011   3.4730   3.8140   3.9560   4.0371   4.2880   4.4430
     4.5515   4.9575   5.0979   5.3304   5.7089   6.0859   6.4726   6.7633
     7.9118   8.3537   9.0631   9.2823   9.3575   9.6014   9.7062   9.8774
    10.2774  10.3858  10.6546  10.7584  10.9095  11.2425

     occupation numbers 
     1.0000   1.0000   1.0000   1.0000   1.0000   1.0000   1.0000   1.0000
     1.0000   1.0000   1.0000   1.0000   1.0000   1.0000   1.0000   1.0000
     1.0000   1.0000   1.0000   1.0000   1.0000   1.0000   1.0000   1.0000
     1.0000   1.0000   1.0000   1.0000   1.0000   1.0000   1.0000   1.0000
     1.0000   1.0000   1.0000   1.0000   1.0000   1.0000   1.0000   1.0000
     1.0000   1.0000   1.0000   1.0000   1.0000   1.0000   1.0000   1.0000
     1.0000   1.0000   1.0000   1.0000   1.0000   1.0000   1.0000   1.0000
     1.0000   1.0000   1.0000   1.0000   1.0000   1.0000   1.0000   1.0000
     1.0000   1.0000   1.0000   1.0000   1.0000   1.0000   1.0000   1.0000
     0.0031   0.0000   0.0000   0.0000   0.0000   0.0000   0.0000   0.0000
     0.0000   0.0000   0.0000   0.0000   0.0000   0.0000

          k =-0.5303-0.5303-0.1768 (  8019 PWs)   bands (ev):

   -17.9562 -17.8295 -17.7533 -17.6311 -17.6266 -17.3759 -17.3544 -17.3200
   -17.2894 -17.2826 -17.2656 -17.2647 -17.2579 -17.2513 -17.2475 -17.2334
   -17.2267 -17.2259 -17.2240 -17.2191 -17.2064 -17.2055 -17.2035 -17.2019
   -17.2014 -17.2007 -17.1967 -17.1956 -17.1917 -17.1787 -17.1268 -17.1132
   -17.0895 -17.0862 -17.0830 -17.0770 -17.0553 -17.0407 -17.0285 -17.0251
    -5.0152  -4.3819  -3.8797  -3.4950  -3.2005  -2.6255  -2.1258  -1.9570
    -0.5256  -0.0696   0.4483   0.7961   1.2939   1.8821   2.2677   2.9516
     3.0093   3.0956   3.2730   3.6310   3.8027   4.0510   4.2328   4.4070
     4.8524   4.9350   5.1923   5.4873   5.5727   6.1333   6.3654   7.0403
     8.3162   8.5783   8.8290   9.0646   9.3455   9.4897   9.6267   9.9338
    10.0724  10.3102  10.5905  10.7587  10.8381  11.2536

     occupation numbers 
     1.0000   1.0000   1.0000   1.0000   1.0000   1.0000   1.0000   1.0000
     1.0000   1.0000   1.0000   1.0000   1.0000   1.0000   1.0000   1.0000
     1.0000   1.0000   1.0000   1.0000   1.0000   1.0000   1.0000   1.0000
     1.0000   1.0000   1.0000   1.0000   1.0000   1.0000   1.0000   1.0000
     1.0000   1.0000   1.0000   1.0000   1.0000   1.0000   1.0000   1.0000
     1.0000   1.0000   1.0000   1.0000   1.0000   1.0000   1.0000   1.0000
     1.0000   1.0000   1.0000   1.0000   1.0000   1.0000   1.0000   1.0000
     1.0000   1.0000   1.0000   1.0000   1.0000   1.0000   1.0000   1.0000
     1.0000   1.0000   1.0000   1.0000   1.0000   1.0000   1.0000   0.9995
     0.0000   0.0000   0.0000   0.0000   0.0000   0.0000   0.0000   0.0000
     0.0000   0.0000   0.0000   0.0000   0.0000   0.0000

          k = 0.0000 0.3536 0.3536 (  8024 PWs)   bands (ev):

   -17.9562 -17.8295 -17.7534 -17.6312 -17.6266 -17.3762 -17.3545 -17.3200
   -17.2899 -17.2824 -17.2656 -17.2647 -17.2581 -17.2514 -17.2477 -17.2334
   -17.2268 -17.2261 -17.2236 -17.2191 -17.2064 -17.2054 -17.2036 -17.2020
   -17.2012 -17.2007 -17.1967 -17.1956 -17.1918 -17.1788 -17.1268 -17.1133
   -17.0895 -17.0862 -17.0830 -17.0771 -17.0553 -17.0408 -17.0286 -17.0252
    -5.1203  -4.3562  -3.8408  -3.4073  -3.1367  -2.4561  -2.1147  -1.8726
    -0.5469  -0.4368  -0.0923   0.8949   1.1630   1.4251   2.0679   2.8846
     3.1404   3.5598   3.7470   3.9257   4.1136   4.3635   4.5060   4.7511
     4.8544   4.9377   5.1109   5.4306   5.8668   6.0330   6.4326   7.2447
     7.8872   8.4727   8.6319   8.7737   8.8788   9.1585   9.2476   9.5696
     9.8974   9.9985  10.2026  10.3863  10.5229  10.6707

     occupation numbers 
     1.0000   1.0000   1.0000   1.0000   1.0000   1.0000   1.0000   1.0000
     1.0000   1.0000   1.0000   1.0000   1.0000   1.0000   1.0000   1.0000
     1.0000   1.0000   1.0000   1.0000   1.0000   1.0000   1.0000   1.0000
     1.0000   1.0000   1.0000   1.0000   1.0000   1.0000   1.0000   1.0000
     1.0000   1.0000   1.0000   1.0000   1.0000   1.0000   1.0000   1.0000
     1.0000   1.0000   1.0000   1.0000   1.0000   1.0000   1.0000   1.0000
     1.0000   1.0000   1.0000   1.0000   1.0000   1.0000   1.0000   1.0000
     1.0000   1.0000   1.0000   1.0000   1.0000   1.0000   1.0000   1.0000
     1.0000   1.0000   1.0000   1.0000   1.0000   1.0000   1.0000   0.9702
     0.0051   0.0000   0.0000   0.0000   0.0000   0.0000   0.0000   0.0000
     0.0000   0.0000   0.0000   0.0000   0.0000   0.0000

          k =-0.3536 0.0000-0.3536 (  8024 PWs)   bands (ev):

   -17.9562 -17.8295 -17.7534 -17.6312 -17.6266 -17.3760 -17.3544 -17.3201
   -17.2894 -17.2826 -17.2657 -17.2647 -17.2579 -17.2512 -17.2476 -17.2333
   -17.2270 -17.2259 -17.2240 -17.2193 -17.2069 -17.2053 -17.2032 -17.2023
   -17.2014 -17.2013 -17.1968 -17.1951 -17.1917 -17.1787 -17.1268 -17.1133
   -17.0895 -17.0863 -17.0832 -17.0770 -17.0553 -17.0407 -17.0286 -17.0251
    -5.1132  -4.3680  -3.6527  -3.5156  -3.1256  -2.7001  -2.3503  -1.6437
    -0.8123   0.1611   0.3191   0.7671   1.0565   1.7293   1.8295   2.7643
     3.1446   3.3795   3.5762   3.7617   3.8778   4.0326   4.2119   4.5825
     5.0124   5.1357   5.4075   5.5254   5.7757   5.9680   6.3494   7.7223
     8.2965   8.4435   8.8306   8.9485   9.1575   9.3445   9.5554   9.7351
     9.8691  10.0030  10.1187  10.4503  10.6909  10.8248

     occupation numbers 
     1.0000   1.0000   1.0000   1.0000   1.0000   1.0000   1.0000   1.0000
     1.0000   1.0000   1.0000   1.0000   1.0000   1.0000   1.0000   1.0000
     1.0000   1.0000   1.0000   1.0000   1.0000   1.0000   1.0000   1.0000
     1.0000   1.0000   1.0000   1.0000   1.0000   1.0000   1.0000   1.0000
     1.0000   1.0000   1.0000   1.0000   1.0000   1.0000   1.0000   1.0000
     1.0000   1.0000   1.0000   1.0000   1.0000   1.0000   1.0000   1.0000
     1.0000   1.0000   1.0000   1.0000   1.0000   1.0000   1.0000   1.0000
     1.0000   1.0000   1.0000   1.0000   1.0000   1.0000   1.0000   1.0000
     1.0000   1.0000   1.0000   1.0000   1.0000   1.0000   1.0000   0.0769
     0.0000   0.0000   0.0000   0.0000   0.0000   0.0000   0.0000   0.0000
     0.0000   0.0000   0.0000   0.0000   0.0000   0.0000

          k = 0.3536 0.0000-0.3536 (  8024 PWs)   bands (ev):

   -17.9562 -17.8296 -17.7535 -17.6310 -17.6266 -17.3762 -17.3545 -17.3200
   -17.2903 -17.2820 -17.2655 -17.2647 -17.2581 -17.2512 -17.2475 -17.2334
   -17.2268 -17.2260 -17.2240 -17.2194 -17.2069 -17.2055 -17.2034 -17.2019
   -17.2013 -17.2002 -17.1968 -17.1960 -17.1918 -17.1788 -17.1268 -17.1133
   -17.0895 -17.0860 -17.0832 -17.0769 -17.0554 -17.0409 -17.0285 -17.0251
    -5.1077  -4.3327  -4.0304  -3.3548  -2.9304  -2.4513  -2.0803  -1.9156
    -0.6735  -0.4448  -0.0458   0.5546   1.0911   1.6535   2.0521   2.8902
     3.2290   3.6332   3.7564   4.1134   4.2570   4.4289   4.5536   4.7782
     4.8405   5.1178   5.2272   5.3708   5.6342   5.9791   6.2345   6.9479
     7.7253   8.3466   8.5690   8.6896   9.0064   9.2489   9.3328   9.5667
     9.9679  10.0555  10.1783  10.2008  10.4630  10.5928

     occupation numbers 
     1.0000   1.0000   1.0000   1.0000   1.0000   1.0000   1.0000   1.0000
     1.0000   1.0000   1.0000   1.0000   1.0000   1.0000   1.0000   1.0000
     1.0000   1.0000   1.0000   1.0000   1.0000   1.0000   1.0000   1.0000
     1.0000   1.0000   1.0000   1.0000   1.0000   1.0000   1.0000   1.0000
     1.0000   1.0000   1.0000   1.0000   1.0000   1.0000   1.0000   1.0000
     1.0000   1.0000   1.0000   1.0000   1.0000   1.0000   1.0000   1.0000
     1.0000   1.0000   1.0000   1.0000   1.0000   1.0000   1.0000   1.0000
     1.0000   1.0000   1.0000   1.0000   1.0000   1.0000   1.0000   1.0000
     1.0000   1.0000   1.0000   1.0000   1.0000   1.0000   1.0000   1.0000
     0.0739   0.0000   0.0000   0.0000   0.0000   0.0000   0.0000   0.0000
     0.0000   0.0000   0.0000   0.0000   0.0000   0.0000

          k = 0.3536 0.3536 0.0000 (  8024 PWs)   bands (ev):

   -17.9561 -17.8294 -17.7536 -17.6312 -17.6266 -17.3761 -17.3545 -17.3199
   -17.2899 -17.2823 -17.2655 -17.2647 -17.2580 -17.2513 -17.2476 -17.2335
   -17.2268 -17.2261 -17.2242 -17.2192 -17.2067 -17.2056 -17.2030 -17.2014
   -17.2012 -17.2004 -17.1971 -17.1961 -17.1917 -17.1789 -17.1268 -17.1133
   -17.0895 -17.0861 -17.0831 -17.0770 -17.0553 -17.0409 -17.0286 -17.0251
    -5.1075  -4.3121  -3.9485  -3.3520  -2.9952  -2.5712  -2.3381  -2.0178
    -0.3964   0.0432   0.3059   0.7703   0.9896   1.4115   1.8496   2.6298
     3.0125   3.5412   3.7330   3.8969   4.0746   4.2367   4.4081   4.6118
     4.8212   5.0375   5.4101   5.5100   5.7075   5.9540   6.3207   7.4998
     8.3121   8.6273   8.7565   9.0213   9.0994   9.2670   9.3761   9.5617
     9.9462  10.0116  10.1250  10.5140  10.6900  10.8388

     occupation numbers 
     1.0000   1.0000   1.0000   1.0000   1.0000   1.0000   1.0000   1.0000
     1.0000   1.0000   1.0000   1.0000   1.0000   1.0000   1.0000   1.0000
     1.0000   1.0000   1.0000   1.0000   1.0000   1.0000   1.0000   1.0000
     1.0000   1.0000   1.0000   1.0000   1.0000   1.0000   1.0000   1.0000
     1.0000   1.0000   1.0000   1.0000   1.0000   1.0000   1.0000   1.0000
     1.0000   1.0000   1.0000   1.0000   1.0000   1.0000   1.0000   1.0000
     1.0000   1.0000   1.0000   1.0000   1.0000   1.0000   1.0000   1.0000
     1.0000   1.0000   1.0000   1.0000   1.0000   1.0000   1.0000   1.0000
     1.0000   1.0000   1.0000   1.0000   1.0000   1.0000   1.0000   0.5462
     0.0000   0.0000   0.0000   0.0000   0.0000   0.0000   0.0000   0.0000
     0.0000   0.0000   0.0000   0.0000   0.0000   0.0000

          k =-0.3536 0.3536 0.0000 (  8024 PWs)   bands (ev):

   -17.9563 -17.8296 -17.7536 -17.6311 -17.6264 -17.3761 -17.3543 -17.3201
   -17.2898 -17.2823 -17.2656 -17.2645 -17.2580 -17.2510 -17.2476 -17.2334
   -17.2269 -17.2261 -17.2237 -17.2193 -17.2070 -17.2055 -17.2036 -17.2025
   -17.2014 -17.2011 -17.1966 -17.1950 -17.1917 -17.1789 -17.1268 -17.1133
   -17.0894 -17.0862 -17.0832 -17.0770 -17.0554 -17.0409 -17.0286 -17.0250
    -5.1084  -4.3858  -3.9346  -3.3061  -2.9961  -2.5334  -2.1193  -1.8572
    -0.6948  -0.4122  -0.1396   0.7573   1.0714   1.7746   2.1283   2.7616
     3.2892   3.4534   3.9146   4.0356   4.2067   4.3565   4.4316   4.5306
     4.9878   5.1096   5.2645   5.4057   5.6475   5.9022   6.0990   7.2164
     7.7140   8.4300   8.6494   8.7707   9.1328   9.3008   9.4791   9.5898
     9.8617   9.9478  10.0909  10.2604  10.4724  10.5849

     occupation numbers 
     1.0000   1.0000   1.0000   1.0000   1.0000   1.0000   1.0000   1.0000
     1.0000   1.0000   1.0000   1.0000   1.0000   1.0000   1.0000   1.0000
     1.0000   1.0000   1.0000   1.0000   1.0000   1.0000   1.0000   1.0000
     1.0000   1.0000   1.0000   1.0000   1.0000   1.0000   1.0000   1.0000
     1.0000   1.0000   1.0000   1.0000   1.0000   1.0000   1.0000   1.0000
     1.0000   1.0000   1.0000   1.0000   1.0000   1.0000   1.0000   1.0000
     1.0000   1.0000   1.0000   1.0000   1.0000   1.0000   1.0000   1.0000
     1.0000   1.0000   1.0000   1.0000   1.0000   1.0000   1.0000   1.0000
     1.0000   1.0000   1.0000   1.0000   1.0000   1.0000   1.0000   0.9812
     0.0855   0.0000   0.0000   0.0000   0.0000   0.0000   0.0000   0.0000
     0.0000   0.0000   0.0000   0.0000   0.0000   0.0000

          k = 0.0000-0.7071 0.0000 (  7992 PWs)   bands (ev):

   -17.9559 -17.8293 -17.7534 -17.6311 -17.6262 -17.3760 -17.3542 -17.3198
   -17.2900 -17.2818 -17.2654 -17.2643 -17.2580 -17.2506 -17.2472 -17.2333
   -17.2270 -17.2256 -17.2236 -17.2190 -17.2064 -17.2051 -17.2031 -17.2015
   -17.2012 -17.2009 -17.1969 -17.1957 -17.1916 -17.1787 -17.1266 -17.1133
   -17.0892 -17.0861 -17.0828 -17.0769 -17.0551 -17.0408 -17.0283 -17.0249
    -4.8664  -4.4652  -3.9975  -3.3752  -3.2432  -3.1333  -1.8947  -1.4164
    -0.7254  -0.4153   0.7398   1.0296   1.2661   2.0198   2.8457   2.8866
     3.0386   3.2065   3.2226   3.4188   3.5105   3.5810   3.7616   3.9745
     5.0129   5.2133   5.3286   5.4190   5.8297   6.1777   6.5055   6.6215
     7.8387   8.0208   8.6081   9.1191   9.1401   9.7335   9.8189  10.1202
    10.5625  10.7531  11.0330  11.2837  11.4491  11.5591

     occupation numbers 
     1.0000   1.0000   1.0000   1.0000   1.0000   1.0000   1.0000   1.0000
     1.0000   1.0000   1.0000   1.0000   1.0000   1.0000   1.0000   1.0000
     1.0000   1.0000   1.0000   1.0000   1.0000   1.0000   1.0000   1.0000
     1.0000   1.0000   1.0000   1.0000   1.0000   1.0000   1.0000   1.0000
     1.0000   1.0000   1.0000   1.0000   1.0000   1.0000   1.0000   1.0000
     1.0000   1.0000   1.0000   1.0000   1.0000   1.0000   1.0000   1.0000
     1.0000   1.0000   1.0000   1.0000   1.0000   1.0000   1.0000   1.0000
     1.0000   1.0000   1.0000   1.0000   1.0000   1.0000   1.0000   1.0000
     1.0000   1.0000   1.0000   1.0000   1.0000   1.0000   1.0000   1.0000
     0.0128   0.0002   0.0000   0.0000   0.0000   0.0000   0.0000   0.0000
     0.0000   0.0000   0.0000   0.0000   0.0000   0.0000

          k = 0.0000 0.0000-0.7071 (  7992 PWs)   bands (ev):

   -17.9561 -17.8294 -17.7531 -17.6309 -17.6264 -17.3758 -17.3543 -17.3198
   -17.2892 -17.2824 -17.2655 -17.2645 -17.2579 -17.2508 -17.2471 -17.2334
   -17.2266 -17.2256 -17.2242 -17.2190 -17.2062 -17.2054 -17.2038 -17.2020
   -17.2014 -17.2002 -17.1962 -17.1954 -17.1917 -17.1785 -17.1268 -17.1130
   -17.0893 -17.0859 -17.0830 -17.0768 -17.0552 -17.0406 -17.0283 -17.0250
    -4.8942  -4.4594  -3.8740  -3.6000  -3.1917  -3.0114  -1.7433  -1.5769
    -0.7902  -0.6512   0.9703   1.1824   1.4235   1.5373   2.9654   2.9821
     3.1637   3.2523   3.3816   3.5479   3.6144   3.6506   3.8056   3.8722
     4.5649   5.0287   5.1868   5.3901   5.9284   6.1203   6.3266   6.6040
     7.7676   8.0212   8.9610   9.1411   9.3188   9.3578  10.0863  10.2989
    10.6736  10.9232  11.1377  11.3067  11.4240  11.4770

     occupation numbers 
     1.0000   1.0000   1.0000   1.0000   1.0000   1.0000   1.0000   1.0000
     1.0000   1.0000   1.0000   1.0000   1.0000   1.0000   1.0000   1.0000
     1.0000   1.0000   1.0000   1.0000   1.0000   1.0000   1.0000   1.0000
     1.0000   1.0000   1.0000   1.0000   1.0000   1.0000   1.0000   1.0000
     1.0000   1.0000   1.0000   1.0000   1.0000   1.0000   1.0000   1.0000
     1.0000   1.0000   1.0000   1.0000   1.0000   1.0000   1.0000   1.0000
     1.0000   1.0000   1.0000   1.0000   1.0000   1.0000   1.0000   1.0000
     1.0000   1.0000   1.0000   1.0000   1.0000   1.0000   1.0000   1.0000
     1.0000   1.0000   1.0000   1.0000   1.0000   1.0000   1.0000   1.0000
     0.0409   0.0002   0.0000   0.0000   0.0000   0.0000   0.0000   0.0000
     0.0000   0.0000   0.0000   0.0000   0.0000   0.0000

          k = 0.3536-0.7071 0.0000 (  8004 PWs)   bands (ev):

   -17.9561 -17.8295 -17.7534 -17.6311 -17.6264 -17.3761 -17.3544 -17.3199
   -17.2897 -17.2822 -17.2656 -17.2646 -17.2580 -17.2509 -17.2473 -17.2335
   -17.2269 -17.2257 -17.2241 -17.2191 -17.2065 -17.2054 -17.2036 -17.2019
   -17.2014 -17.2009 -17.1967 -17.1956 -17.1917 -17.1787 -17.1268 -17.1134
   -17.0894 -17.0862 -17.0830 -17.0769 -17.0553 -17.0408 -17.0284 -17.0251
    -4.8511  -4.4192  -4.1487  -3.5881  -3.1123  -2.4854  -2.1987  -1.8827
    -0.5745   0.0583   0.2934   0.5658   1.8494   2.4202   2.6188   2.7707
     2.9434   3.0533   3.1582   3.3269   3.8395   4.0235   4.1933   4.4127
     4.6255   4.8042   4.9310   5.1680   5.5839   5.8553   6.0821   6.6364
     8.6179   9.0085   9.1023   9.2774   9.4069   9.6714   9.8997  10.1529
    10.3520  10.4701  10.5956  10.7792  11.2941  11.4079

     occupation numbers 
     1.0000   1.0000   1.0000   1.0000   1.0000   1.0000   1.0000   1.0000
     1.0000   1.0000   1.0000   1.0000   1.0000   1.0000   1.0000   1.0000
     1.0000   1.0000   1.0000   1.0000   1.0000   1.0000   1.0000   1.0000
     1.0000   1.0000   1.0000   1.0000   1.0000   1.0000   1.0000   1.0000
     1.0000   1.0000   1.0000   1.0000   1.0000   1.0000   1.0000   1.0000
     1.0000   1.0000   1.0000   1.0000   1.0000   1.0000   1.0000   1.0000
     1.0000   1.0000   1.0000   1.0000   1.0000   1.0000   1.0000   1.0000
     1.0000   1.0000   1.0000   1.0000   1.0000   1.0000   1.0000   1.0000
     1.0000   1.0000   1.0000   1.0000   1.0000   1.0000   1.0000   1.0000
     0.0000   0.0000   0.0000   0.0000   0.0000   0.0000   0.0000   0.0000
     0.0000   0.0000   0.0000   0.0000   0.0000   0.0000

          k = 0.7071-0.0000 0.3536 (  8004 PWs)   bands (ev):

   -17.9561 -17.8294 -17.7534 -17.6311 -17.6265 -17.3761 -17.3543 -17.3199
   -17.2898 -17.2822 -17.2654 -17.2645 -17.2579 -17.2510 -17.2475 -17.2334
   -17.2270 -17.2259 -17.2237 -17.2193 -17.2069 -17.2053 -17.2032 -17.2013
   -17.2011 -17.2007 -17.1972 -17.1961 -17.1917 -17.1787 -17.1268 -17.1134
   -17.0894 -17.0861 -17.0830 -17.0769 -17.0553 -17.0409 -17.0285 -17.0250
    -4.8316  -4.4449  -4.1224  -3.5644  -3.2066  -2.5916  -2.2234  -1.5906
    -0.7575   0.0993   0.4542   0.7673   1.6585   2.2931   2.4799   2.6606
     2.7670   2.9180   3.2428   3.3363   3.9333   4.0486   4.1976   4.5256
     4.6558   4.8779   4.9793   5.2848   5.4366   6.1421   6.2541   6.4897
     8.5986   8.9482   9.0983   9.3349   9.4423   9.7917   9.8852  10.1043
    10.1544  10.4666  10.5017  10.7768  11.0982  11.3353

     occupation numbers 
     1.0000   1.0000   1.0000   1.0000   1.0000   1.0000   1.0000   1.0000
     1.0000   1.0000   1.0000   1.0000   1.0000   1.0000   1.0000   1.0000
     1.0000   1.0000   1.0000   1.0000   1.0000   1.0000   1.0000   1.0000
     1.0000   1.0000   1.0000   1.0000   1.0000   1.0000   1.0000   1.0000
     1.0000   1.0000   1.0000   1.0000   1.0000   1.0000   1.0000   1.0000
     1.0000   1.0000   1.0000   1.0000   1.0000   1.0000   1.0000   1.0000
     1.0000   1.0000   1.0000   1.0000   1.0000   1.0000   1.0000   1.0000
     1.0000   1.0000   1.0000   1.0000   1.0000   1.0000   1.0000   1.0000
     1.0000   1.0000   1.0000   1.0000   1.0000   1.0000   1.0000   1.0000
     0.0000   0.0000   0.0000   0.0000   0.0000   0.0000   0.0000   0.0000
     0.0000   0.0000   0.0000   0.0000   0.0000   0.0000

     the Fermi energy is     7.5165 ev

!    total energy              =   -1781.22313796 Ry
     Harris-Foulkes estimate   =   -1781.22313792 Ry
     estimated scf accuracy    <          8.8E-10 Ry

     The total energy is the sum of the following terms:

     one-electron contribution =   -1201.06844653 Ry
     hartree contribution      =     715.22652265 Ry
     xc contribution           =    -495.40365184 Ry
     ewald contribution        =    -799.97307926 Ry
     smearing contrib. (-TS)   =      -0.00448298 Ry

     convergence has been achieved in  11 iterations

     Forces acting on atoms (Ry/au):

     atom    1 type  1   force =   0.11972955E+00  0.11491842E+00 -0.15927642E+00
     atom    2 type  2   force =   0.40168659E-01 -0.37717181E-01 -0.58289136E-02
     atom    3 type  1   force =  -0.30479031E+00 -0.35734951E+00 -0.32337256E+00
     atom    4 type  2   force =   0.17406624E+00  0.26486885E+00  0.36080007E+00
     atom    5 type  1   force =   0.53379156E-01  0.45641416E-01 -0.16346322E+00
     atom    6 type  2   force =   0.60481043E-01  0.53619916E-01  0.12229393E+00
     atom    7 type  1   force =   0.23563169E-01 -0.31369200E-01 -0.26345722E-01
     atom    8 type  2   force =  -0.52634456E-01 -0.13841008E+00  0.11504069E+00
     atom    9 type  1   force =   0.14110538E-01 -0.10876210E+00  0.11428451E+00
     atom   10 type  2   force =  -0.17200998E+00  0.19857714E+00 -0.14433555E+00
     atom   11 type  1   force =   0.50522821E-01 -0.48749584E-01  0.42034998E-01
     atom   12 type  2   force =  -0.18143666E+00  0.19312409E+00 -0.17454969E+00
     atom   13 type  1   force =   0.18293926E+00 -0.17698270E+00  0.20937786E+00
     atom   14 type  2   force =  -0.12993044E+00  0.76078989E-01 -0.96954200E-01
     atom   15 type  1   force =   0.12837629E+00 -0.14579970E+00  0.15332360E+00
     atom   16 type  2   force =  -0.65348883E-02  0.98311251E-01 -0.23029371E-01
     The non-local contrib.  to forces
     atom    1 type  1   force =   0.10483522E+00  0.12106137E+00 -0.10917296E+00
     atom    2 type  2   force =   0.21559085E-01 -0.48284107E-01 -0.91132945E-01
     atom    3 type  1   force =  -0.26752273E+00 -0.28415683E+00 -0.27759964E+00
     atom    4 type  2   force =   0.20365351E-01  0.34303232E-01  0.10166402E+00
     atom    5 type  1   force =   0.60420781E-01  0.10075246E-01 -0.17283629E+00
     atom    6 type  2   force =   0.71622259E-01  0.33679412E-01  0.27133134E-01
     atom    7 type  1   force =   0.38495709E-01 -0.22793382E-01 -0.36115649E-02
     atom    8 type  2   force =  -0.66907017E-01 -0.67028772E-01  0.29079409E-02
     atom    9 type  1   force =  -0.55711416E-02 -0.84893160E-01  0.11893884E+00
     atom   10 type  2   force =  -0.97352399E-01  0.11238149E+00 -0.79139877E-01
     atom   11 type  1   force =   0.74814082E-01 -0.17477697E-01  0.28433517E-01
     atom   12 type  2   force =  -0.13076595E+00  0.64740216E-01 -0.74212571E-01
     atom   13 type  1   force =   0.16442616E+00 -0.13217302E+00  0.20887280E+00
     atom   14 type  2   force =  -0.73796043E-01 -0.28708595E-01 -0.23424112E-01
     atom   15 type  1   force =   0.12406468E+00 -0.14550999E+00  0.14478527E+00
     atom   16 type  2   force =   0.39142069E-01 -0.28178150E-02  0.66172935E-02
     The ionic contribution  to forces
     atom    1 type  1   force =   0.16308160E+01  0.13232854E+01 -0.15105528E+01
     atom    2 type  2   force =  -0.15162572E+01 -0.21747238E+01 -0.47710053E+01
     atom    3 type  1   force =  -0.25022500E+01 -0.27622679E+01 -0.33110809E+01
     atom    4 type  2   force =   0.20678771E+01  0.34435064E+01  0.20725571E+01
     atom    5 type  1   force =  -0.64004086E-02 -0.51011039E+00 -0.22753306E+01
     atom    6 type  2   force =   0.43579247E+01  0.73145022E+00  0.39148073E+01
     atom    7 type  1   force =   0.86723412E+00  0.23919447E+00  0.63432775E+00
     atom    8 type  2   force =   0.16340527E+00 -0.62384987E+01  0.16736088E-01
     atom    9 type  1   force =  -0.11436503E+01 -0.91072280E+00  0.10212693E+01
     atom   10 type  2   force =  -0.19741712E+01  0.47393997E+01  0.16202874E+01
     atom   11 type  1   force =   0.67351230E+00  0.89178527E+00  0.77219255E+00
     atom   12 type  2   force =  -0.52892708E+01  0.28445831E+01 -0.43337177E+01
     atom   13 type  1   force =   0.22347621E+01 -0.94162362E+00  0.31993459E+01
     atom   14 type  2   force =  -0.36843038E+01 -0.23545470E+01 -0.91695163E+00
     atom   15 type  1   force =   0.97569897E+00 -0.15423075E+01  0.10413825E+01
     atom   16 type  2   force =   0.31450732E+01  0.32215973E+01  0.28257332E+01
     The local contribution  to forces
     atom    1 type  1   force =  -0.16056888E+01 -0.13184218E+01  0.14497716E+01
     atom    2 type  2   force =   0.15377163E+01  0.21804232E+01  0.48485110E+01
     atom    3 type  1   force =   0.24406370E+01  0.26628492E+01  0.32397266E+01
     atom    4 type  2   force =  -0.19047451E+01 -0.31932365E+01 -0.17835418E+01
     atom    5 type  1   force =   0.41060847E-02  0.54668620E+00  0.22679596E+01
     atom    6 type  2   force =  -0.43599171E+01 -0.70824735E+00 -0.38096726E+01
     atom    7 type  1   force =  -0.87889734E+00 -0.24907384E+00 -0.65724334E+00
     atom    8 type  2   force =  -0.15272875E+00  0.61498506E+01  0.10601000E+00
     atom    9 type  1   force =   0.11624646E+01  0.87880424E+00 -0.10147637E+01
     atom   10 type  2   force =   0.18829002E+01 -0.46346721E+01 -0.16972207E+01
     atom   11 type  1   force =  -0.69083524E+00 -0.92462800E+00 -0.75572219E+00
     atom   12 type  2   force =   0.52208848E+01 -0.26990828E+01  0.42155217E+01
     atom   13 type  1   force =  -0.22001181E+01  0.88438176E+00 -0.31783338E+01
     atom   14 type  2   force =   0.36147409E+01  0.24668478E+01  0.83588146E+00
     atom   15 type  1   force =  -0.95966534E+00  0.15284104E+01 -0.10195393E+01
     atom   16 type  2   force =  -0.31909304E+01 -0.31114438E+01 -0.28560118E+01
     The core correction contribution to forces
     atom    1 type  1   force =  -0.10231668E-01 -0.11006725E-01  0.10678056E-01
     atom    2 type  2   force =  -0.28603260E-02  0.48584489E-02  0.77944253E-02
     atom    3 type  1   force =   0.24344441E-01  0.26223459E-01  0.25582609E-01
     atom    4 type  2   force =  -0.94098235E-02 -0.19681057E-01 -0.29856103E-01
     atom    5 type  1   force =  -0.47475479E-02 -0.10070095E-02  0.16738248E-01
     atom    6 type  2   force =  -0.91297479E-02 -0.32562162E-02 -0.99703615E-02
     atom    7 type  1   force =  -0.32726573E-02  0.13036634E-02  0.17734747E-03
     atom    8 type  2   force =   0.35833995E-02  0.17246380E-01 -0.10624007E-01
     atom    9 type  1   force =   0.86921601E-03  0.80491810E-02 -0.11158899E-01
     atom   10 type  2   force =   0.16608650E-01 -0.18508220E-01  0.11734558E-01
     atom   11 type  1   force =  -0.69681409E-02  0.15689172E-02 -0.28718632E-02
     atom   12 type  2   force =   0.17696900E-01 -0.17118381E-01  0.17838979E-01
     atom   13 type  1   force =  -0.16131738E-01  0.12431031E-01 -0.20505768E-01
     atom   14 type  2   force =   0.13433083E-01 -0.75225674E-02  0.75400314E-02
     atom   15 type  1   force =  -0.11720995E-01  0.13608660E-01 -0.13302704E-01
     atom   16 type  2   force =   0.19299545E-03 -0.90266776E-02  0.65019823E-03
     The Hubbard contrib.    to forces
     atom    1 type  1   force =   0.00000000E+00  0.00000000E+00  0.00000000E+00
     atom    2 type  2   force =   0.00000000E+00  0.00000000E+00  0.00000000E+00
     atom    3 type  1   force =   0.00000000E+00  0.00000000E+00  0.00000000E+00
     atom    4 type  2   force =   0.00000000E+00  0.00000000E+00  0.00000000E+00
     atom    5 type  1   force =   0.00000000E+00  0.00000000E+00  0.00000000E+00
     atom    6 type  2   force =   0.00000000E+00  0.00000000E+00  0.00000000E+00
     atom    7 type  1   force =   0.00000000E+00  0.00000000E+00  0.00000000E+00
     atom    8 type  2   force =   0.00000000E+00  0.00000000E+00  0.00000000E+00
     atom    9 type  1   force =   0.00000000E+00  0.00000000E+00  0.00000000E+00
     atom   10 type  2   force =   0.00000000E+00  0.00000000E+00  0.00000000E+00
     atom   11 type  1   force =   0.00000000E+00  0.00000000E+00  0.00000000E+00
     atom   12 type  2   force =   0.00000000E+00  0.00000000E+00  0.00000000E+00
     atom   13 type  1   force =   0.00000000E+00  0.00000000E+00  0.00000000E+00
     atom   14 type  2   force =   0.00000000E+00  0.00000000E+00  0.00000000E+00
     atom   15 type  1   force =   0.00000000E+00  0.00000000E+00  0.00000000E+00
     atom   16 type  2   force =   0.00000000E+00  0.00000000E+00  0.00000000E+00
     The SCF correction term to forces
     atom    1 type  1   force =  -0.17023299E-05 -0.16255683E-06 -0.15464322E-05
     atom    2 type  2   force =   0.10304028E-04  0.87061222E-05  0.27734505E-05
     atom    3 type  1   force =   0.46874137E-06  0.22714864E-05 -0.24056486E-05
     atom    4 type  2   force =  -0.21842348E-04 -0.23501297E-04 -0.24333995E-04
     atom    5 type  1   force =  -0.26916818E-06 -0.29438067E-05  0.47461957E-05
     atom    6 type  2   force =  -0.19503980E-04 -0.64615512E-05 -0.47197679E-05
     atom    7 type  1   force =   0.28230911E-05 -0.41791604E-06  0.29194614E-05
     atom    8 type  2   force =   0.12129597E-04  0.20135462E-04  0.95056108E-05
     atom    9 type  1   force =  -0.22965344E-05  0.12765166E-06 -0.21665332E-05
     atom   10 type  2   force =   0.42427425E-05 -0.24057797E-04  0.19058036E-05
     atom   11 type  1   force =  -0.68944290E-06  0.16072464E-05  0.18201908E-05
     atom   12 type  2   force =   0.17888041E-04  0.17052650E-05  0.18783486E-04
     atom   13 type  1   force =   0.33464299E-06  0.82109883E-06 -0.23690037E-05
     atom   14 type  2   force =  -0.51121888E-05  0.90067715E-05 -0.11066939E-05
     atom   15 type  1   force =  -0.15313003E-05 -0.15551825E-05 -0.33692262E-05
     atom   16 type  2   force =  -0.13266684E-04  0.19527061E-05 -0.19383856E-04

     Total force =     1.066217     Total SCF correction =     0.000070


     entering subroutine stress ...

          total   stress  (Ry/bohr**3)                   (kbar)     P=   85.79
   0.0006201370   0.0002096556   0.0005293260         91.23     30.84     77.87
   0.0002096556   0.0006489486  -0.0001266505         30.84     95.46    -18.63
   0.0005293260  -0.0001266505   0.0004804745         77.87    -18.63     70.68

     kinetic stress (kbar)   6442.61    -17.19    -27.07
                              -17.19   6445.83      3.71
                              -27.07      3.71   6448.75

     local   stress (kbar)  -1631.26   -469.33  -1141.10
                             -469.33  -1747.46    631.78
                            -1141.10    631.78   -900.95

     nonloc. stress (kbar)   2558.49     18.24     40.46
                               18.24   2556.99    -12.22
                               40.46    -12.22   2545.73

     hartree stress (kbar)  15357.33     47.25    186.88
                               47.25  15417.74   -216.44
                              186.88   -216.44  15128.85

     exc-cor stress (kbar)  10935.59      0.59      1.25
                                0.59  10935.52     -0.38
                                1.25     -0.38  10935.17

     corecor stress (kbar) -16609.93     -1.73     -3.92
                               -1.73 -16609.90      1.05
                               -3.92      1.05 -16608.69

     ewald   stress (kbar) -16961.60    453.01   1021.38
                              453.01 -16903.26   -426.14
                             1021.38   -426.14 -17478.17

     hubbard stress (kbar)      0.00      0.00      0.00
                                0.00      0.00      0.00
                                0.00      0.00      0.00

     london  stress (kbar)      0.00      0.00      0.00
                                0.00      0.00      0.00
                                0.00      0.00      0.00

     XDM     stress (kbar)      0.00      0.00      0.00
                                0.00      0.00      0.00
                                0.00      0.00      0.00

     dft-nl  stress (kbar)      0.00      0.00      0.00
                                0.00      0.00      0.00
                                0.00      0.00      0.00



     Writing output data file SiGe_zns.scf.in.super.222.largedist.a.011.save

     init_run     :     27.23s CPU     28.71s WALL (       1 calls)
     electrons    :   1013.21s CPU   1084.08s WALL (       1 calls)
     forces       :      9.42s CPU      8.80s WALL (       1 calls)
     stress       :     57.87s CPU     58.54s WALL (       1 calls)

     Called by init_run:
     wfcinit      :     25.84s CPU     27.27s WALL (       1 calls)
     potinit      :      0.17s CPU      0.18s WALL (       1 calls)

     Called by electrons:
     c_bands      :    862.15s CPU    930.66s WALL (      12 calls)
     sum_band     :    138.79s CPU    141.03s WALL (      12 calls)
     v_of_rho     :      1.32s CPU      1.34s WALL (      12 calls)
     v_h          :      0.07s CPU      0.08s WALL (      12 calls)
     v_xc         :      1.42s CPU      1.45s WALL (      14 calls)
     newd         :      9.44s CPU      9.51s WALL (      12 calls)
     mix_rho      :      2.05s CPU      2.07s WALL (      12 calls)

     Called by c_bands:
     init_us_2    :      5.32s CPU      5.54s WALL (     972 calls)
     cegterg      :    835.34s CPU    901.97s WALL (     432 calls)

     Called by sum_band:
     sum_band:bec :      0.74s CPU      0.81s WALL (     432 calls)
     addusdens    :      9.76s CPU      9.93s WALL (      12 calls)

     Called by *egterg:
     h_psi        :    517.94s CPU    527.76s WALL (    1718 calls)
     s_psi        :     44.00s CPU     37.82s WALL (    1718 calls)
     g_psi        :      1.12s CPU      1.15s WALL (    1250 calls)
     cdiaghg      :    125.48s CPU    181.67s WALL (    1646 calls)
     cegterg:over :     77.10s CPU     78.57s WALL (    1250 calls)
     cegterg:upda :     23.78s CPU     24.27s WALL (    1250 calls)
     cegterg:last :     12.08s CPU     10.24s WALL (     432 calls)

     Called by h_psi:
     h_psi:vloc   :    400.83s CPU    417.59s WALL (    1718 calls)
     h_psi:vnl    :    115.75s CPU    108.66s WALL (    1718 calls)
     add_vuspsi   :     44.39s CPU     39.84s WALL (    1718 calls)

     General routines
     calbec       :    112.44s CPU    108.09s WALL (    2222 calls)
     fft          :      2.55s CPU      2.60s WALL (     217 calls)
     ffts         :      1.02s CPU      1.06s WALL (     352 calls)
     fftw         :    439.82s CPU    457.39s WALL (  220094 calls)
     interpolate  :      0.28s CPU      0.28s WALL (      24 calls)

     Parallel routines
     fft_scatter  :    260.22s CPU    270.38s WALL (  220663 calls)

     PWSCF        : 18m31.22s CPU    19m45.80s WALL


   This run was terminated on:  17:38:23  27Sep2017            

=------------------------------------------------------------------------------=
   JOB DONE.
=------------------------------------------------------------------------------=
