
     Program PWSCF v.5.1 starts on  5Oct2017 at 13:30:10 

     This program is part of the open-source Quantum ESPRESSO suite
     for quantum simulation of materials; please cite
         "P. Giannozzi et al., J. Phys.:Condens. Matter 21 395502 (2009);
          URL http://www.quantum-espresso.org", 
     in publications or presentations arising from this work. More details at
     http://www.quantum-espresso.org/quote

     Parallel version (MPI), running on     4 processors
     R & G space division:  proc/nbgrp/npool/nimage =       4
     Reading input from /tmp/SiGe_zns.scf.in.super.222.a.03.14674/SiGe_zns.scf.in.super.222.a.03.t
Warning: card &IONS ignored
Warning: card   ION_DYNAMICS='BFGS', ignored
Warning: card / ignored
Warning: card &CELL ignored
Warning: card  CELL_DYNAMICS = 'BFGS' ignored
Warning: card / ignored
     Message from routine read_cards :
     DEPRECATED: no units specified in CELL_PARAMETERS card

     Current dimensions of program PWSCF are:
     Max number of different atomic species (ntypx) = 10
     Max number of k-points (npk) =  40000
     Max angular momentum in pseudopotentials (lmaxx) =  3
 kfg - two_fermi_energies  F

     Subspace diagonalization in iterative solution of the eigenvalue problem:
     a serial algorithm will be used


     Parallelization info
     --------------------
     sticks:   dense  smooth     PW     G-vecs:    dense   smooth      PW
     Min         757     526    148                27377    16007    2429
     Max         758     527    149                27378    16024    2431
     Sum        3031    2107    595               109511    64071    9721



     bravais-lattice index     =            0
     lattice parameter (alat)  =    14.802345286  a.u.
     unit-cell volume          =    2291.3662 (a.u.)^3
     number of atoms/cell      =           16
     number of atomic types    =            2
     number of electrons       =       144.00
     number of Kohn-Sham states=           86
     kinetic-energy cutoff     =      35.0000  Ry
     charge density cutoff     =     200.0000  Ry
     convergence threshold     =      1.0E-09
     mixing beta               =       0.3000
     number of iterations used =            8  local-TF  mixing
     Exchange-correlation      = SLA  PW   PSX  PSC ( 1  4 10  8 0)
     A smooth kinetic-energy cutoff is imposed at      34.5000 Ry
     height of the smooth step-function =             800.0000 Ry
     width of the smooth step-function  =               1.0000 Ry


     celldm(1)=  14.802345  celldm(2)=   0.000000  celldm(3)=   0.000000
     celldm(4)=   0.000000  celldm(5)=   0.000000  celldm(6)=   0.000000

     crystal axes: (cart. coord. in units of alat)
               a(1) = (  -0.000557458404   0.706720981968   0.707492150406 )  
               a(2) = (   0.706923303258   0.000582532543   0.706380980042 )  
               a(3) = (   0.706712703314   0.707029676091  -0.000162158391 )  

     reciprocal axes: (cart. coord. in units 2 pi/alat)
               b(1) = ( -0.706926  0.706771  0.706886 )  
               b(2) = (  0.708200 -0.707720  0.707507 )  
               b(3) = (  0.706034  0.708489 -0.707160 )  


     PseudoPot. # 1 for Si read from file:
     /users/kfg/psuedo/gbrv_1.5/si.pbesol.UPF
     MD5 check sum: ef58ba74faed4df802eb8a9742fc00a8
     Pseudo is Ultrasoft + core correction, Zval =  4.0
     Generated by new atomic code, or converted to UPF format
     Using radial grid of  899 points,  6 beta functions with: 
                l(1) =   0
                l(2) =   0
                l(3) =   1
                l(4) =   1
                l(5) =   2
                l(6) =   2
     Q(r) pseudized with  8 coefficients,  rinner =    0.900   0.900   0.900
                                                       0.900   0.900

     PseudoPot. # 2 for Ge read from file:
     /users/kfg/psuedo/gbrv_1.5/ge.pbesol.UPF
     MD5 check sum: 7bed0412183f5e553a4d27ec7023354d
     Pseudo is Ultrasoft + core correction, Zval = 14.0
     Generated by new atomic code, or converted to UPF format
     Using radial grid of  873 points,  6 beta functions with: 
                l(1) =   0
                l(2) =   0
                l(3) =   1
                l(4) =   1
                l(5) =   2
                l(6) =   2
     Q(r) pseudized with  8 coefficients,  rinner =    1.400   1.400   1.400
                                                       1.400   1.400

     atomic species   valence    mass     pseudopotential
        Si             4.00    28.08550     Si( 1.00)
        Ge            14.00    72.64000     Ge( 1.00)

     No symmetry found


                                    s                        frac. trans.

      isym =  1     identity                                     

 cryst.   s( 1) = (     1          0          0      )
                  (     0          1          0      )
                  (     0          0          1      )

 cart.    s( 1) = (  1.0000000  0.0000000  0.0000000 )
                  (  0.0000000  1.0000000  0.0000000 )
                  ( -0.0000000 -0.0000000  1.0000000 )


     point group C_1 (1)    
     there are  1 classes
     the character table:

       E    
A      1.00

     the symmetry operations in each class:
     E        1

   Cartesian axes

     site n.     atom                  positions (alat units)
         1           Si  tau(   1) = (   -0.01137408724   -0.01058760899   -0.00079453009  )
         2           Ge  tau(   2) = (    0.18698446324    0.17532857169    0.17833384595  )
         3           Si  tau(   3) = (    0.35566355599    0.36683465796    0.00522428714  )
         4           Ge  tau(   4) = (    0.52429050331    0.52741002674    0.18726753235  )
         5           Si  tau(   5) = (    0.35916022794    0.00692407015    0.35951478537  )
         6           Ge  tau(   6) = (    0.53407592225    0.18214430230    0.51796364307  )
         7           Si  tau(   7) = (    0.70356436224    0.36394523838    0.34357186525  )
         8           Ge  tau(   8) = (    0.87990970052    0.54375065901    0.51896248841  )
         9           Si  tau(   9) = (    0.00713596055    0.34603971103    0.36063817169  )
        10           Ge  tau(  10) = (    0.16939090235    0.51756418776    0.54253460860  )
        11           Si  tau(  11) = (    0.34917821183    0.69420116243    0.35912175432  )
        12           Ge  tau(  12) = (    0.52423359967    0.89443109984    0.53165188369  )
        13           Si  tau(  13) = (    0.35361334718    0.36489868269    0.71771933365  )
        14           Ge  tau(  14) = (    0.53752806742    0.54345241082    0.87809870578  )
        15           Si  tau(  15) = (    0.71635041382    0.71206410229    0.70996389890  )
        16           Ge  tau(  16) = (    0.87936618066    0.88142503897    0.89579013435  )

   Crystallographic axes

     site n.     atom                  positions (cryst. coord.)
         1           Si  tau(   1) = (   -0.00000402121   -0.00112419872   -0.01496982742  )
         2           Ge  tau(   2) = (    0.11779464576    0.13451120892    0.13012504273  )
         3           Si  tau(   3) = (    0.01153332710   -0.00403916029    0.50731416061  )
         4           Ge  tau(   4) = (    0.13450035950    0.13053682140    0.61140256664  )
         5           Si  tau(   5) = (    0.00512995641    0.50381604370    0.00425036344  )
         6           Ge  tau(   6) = (    0.11732334175    0.61578806362    0.13983955945  )
         7           Si  tau(   7) = (    0.00272417411    0.48377222539    0.51163085022  )
         8           Ge  tau(   8) = (    0.12912347628    0.60549810155    0.63949743836  )
         9           Si  tau(   9) = (    0.49445617420    0.01530834995   -0.00482548282  )
        10           Ge  tau(  10) = (    0.62956247636    0.13751890647    0.10262520722  )
        11           Si  tau(  11) = (    0.49765616505    0.01006889350    0.48440858271  )
        12           Ge  tau(  12) = (    0.63738077981    0.11440256724    0.62785778453  )
        13           Si  tau(  13) = (    0.51526690625    0.49997403245    0.00064706985  )
        14           Ge  tau(  14) = (    0.62481931943    0.61732583114    0.14358644183  )
        15           Si  tau(  15) = (    0.49872296074    0.50568140667    0.50819867684  )
        16           Ge  tau(  16) = (    0.63454020698    0.63274231900    0.61187469554  )

     number of k points=    36  gaussian smearing, width (Ry)=  0.0150
                       cart. coord. in units 2pi/alat
        k(    1) = (   0.0000000   0.0000000   0.0000000), wk =   0.0312500
        k(    2) = (   0.1765084   0.1771221  -0.1767900), wk =   0.0625000
        k(    3) = (  -0.3530168  -0.3542443   0.3535800), wk =   0.0312500
        k(    4) = (   0.1770500  -0.1769300   0.1768767), wk =   0.0625000
        k(    5) = (   0.3535584   0.0001921   0.0000867), wk =   0.0625000
        k(    6) = (  -0.1759668  -0.5311743   0.5304566), wk =   0.0625000
        k(    7) = (   0.0005416  -0.3540522   0.3536667), wk =   0.0625000
        k(    8) = (  -0.3540999   0.3538601  -0.3537534), wk =   0.0312500
        k(    9) = (  -0.1775915   0.5309822  -0.5305433), wk =   0.0625000
        k(   10) = (  -0.7071167  -0.0003842  -0.0001734), wk =   0.0312500
        k(   11) = (  -0.1767314   0.1766927   0.1767214), wk =   0.0625000
        k(   12) = (  -0.0002230   0.3538149  -0.0000686), wk =   0.0625000
        k(   13) = (  -0.5297483  -0.1775515   0.5303014), wk =   0.0625000
        k(   14) = (  -0.3532398  -0.0004294   0.3535114), wk =   0.0625000
        k(   15) = (   0.0003185  -0.0002373   0.3535981), wk =   0.0625000
        k(   16) = (   0.1768269   0.1768848   0.1768081), wk =   0.0625000
        k(   17) = (  -0.3526983  -0.3544815   0.7071781), wk =   0.0625000
        k(   18) = (  -0.1761899  -0.1773594   0.5303881), wk =   0.0625000
        k(   19) = (  -0.5308314   0.5305528  -0.1770319), wk =   0.0625000
        k(   20) = (  -0.3543230   0.7076749  -0.3538219), wk =   0.0625000
        k(   21) = (  -0.8838482   0.1763085   0.1765480), wk =   0.0625000
        k(   22) = (  -0.7073398   0.3534307  -0.0002420), wk =   0.0625000
        k(   23) = (  -0.3537814   0.3536228  -0.0001553), wk =   0.0625000
        k(   24) = (  -0.1772730   0.5307449  -0.1769452), wk =   0.0625000
        k(   25) = (  -0.7067982  -0.0006215   0.3534247), wk =   0.0625000
        k(   26) = (  -0.5302898   0.1765006   0.1766347), wk =   0.0625000
        k(   27) = (   0.3534629  -0.3533855  -0.3534428), wk =   0.0312500
        k(   28) = (   0.5299713  -0.1762634  -0.5302328), wk =   0.0625000
        k(   29) = (   0.0004461  -0.7076297   0.0001371), wk =   0.0312500
        k(   30) = (   0.5305128  -0.5303155  -0.1765661), wk =   0.0625000
        k(   31) = (   0.7070213  -0.3531934  -0.3533561), wk =   0.0625000
        k(   32) = (   0.1774960  -0.8845598   0.1770138), wk =   0.0625000
        k(   33) = (   0.3540044  -0.7074376   0.0002238), wk =   0.0625000
        k(   34) = (  -0.0006371   0.0004746  -0.7071962), wk =   0.0312500
        k(   35) = (   0.1758714   0.1775967  -0.8839862), wk =   0.0625000
        k(   36) = (  -0.3536539  -0.3537697  -0.3536162), wk =   0.0312500

                       cryst. coord.
        k(    1) = (   0.0000000   0.0000000   0.0000000), wk =   0.0312500
        k(    2) = (   0.0000000   0.0000000   0.2500000), wk =   0.0625000
        k(    3) = (   0.0000000   0.0000000  -0.5000000), wk =   0.0312500
        k(    4) = (   0.0000000   0.2500000  -0.0000000), wk =   0.0625000
        k(    5) = (  -0.0000000   0.2500000   0.2500000), wk =   0.0625000
        k(    6) = (   0.0000000   0.2500000  -0.5000000), wk =   0.0625000
        k(    7) = (   0.0000000   0.2500000  -0.2500000), wk =   0.0625000
        k(    8) = (   0.0000000  -0.5000000   0.0000000), wk =   0.0312500
        k(    9) = (   0.0000000  -0.5000000   0.2500000), wk =   0.0625000
        k(   10) = (   0.0000000  -0.5000000  -0.5000000), wk =   0.0312500
        k(   11) = (   0.2500000   0.0000000  -0.0000000), wk =   0.0625000
        k(   12) = (   0.2500000   0.0000000   0.2500000), wk =   0.0625000
        k(   13) = (   0.2500000   0.0000000  -0.5000000), wk =   0.0625000
        k(   14) = (   0.2500000  -0.0000000  -0.2500000), wk =   0.0625000
        k(   15) = (   0.2500000   0.2500000  -0.0000000), wk =   0.0625000
        k(   16) = (   0.2500000   0.2500000   0.2500000), wk =   0.0625000
        k(   17) = (   0.2500000   0.2500000  -0.5000000), wk =   0.0625000
        k(   18) = (   0.2500000   0.2500000  -0.2500000), wk =   0.0625000
        k(   19) = (   0.2500000  -0.5000000   0.0000000), wk =   0.0625000
        k(   20) = (   0.2500000  -0.5000000   0.2500000), wk =   0.0625000
        k(   21) = (   0.2500000  -0.5000000  -0.5000000), wk =   0.0625000
        k(   22) = (   0.2500000  -0.5000000  -0.2500000), wk =   0.0625000
        k(   23) = (   0.2500000  -0.2500000  -0.0000000), wk =   0.0625000
        k(   24) = (   0.2500000  -0.2500000   0.2500000), wk =   0.0625000
        k(   25) = (   0.2500000  -0.2500000  -0.5000000), wk =   0.0625000
        k(   26) = (   0.2500000  -0.2500000  -0.2500000), wk =   0.0625000
        k(   27) = (  -0.5000000   0.0000000   0.0000000), wk =   0.0312500
        k(   28) = (  -0.5000000  -0.0000000   0.2500000), wk =   0.0625000
        k(   29) = (  -0.5000000  -0.0000000  -0.5000000), wk =   0.0312500
        k(   30) = (  -0.5000000   0.2500000   0.0000000), wk =   0.0625000
        k(   31) = (  -0.5000000   0.2500000   0.2500000), wk =   0.0625000
        k(   32) = (  -0.5000000   0.2500000  -0.5000000), wk =   0.0625000
        k(   33) = (  -0.5000000   0.2500000  -0.2500000), wk =   0.0625000
        k(   34) = (  -0.5000000  -0.5000000   0.0000000), wk =   0.0312500
        k(   35) = (  -0.5000000  -0.5000000   0.2500000), wk =   0.0625000
        k(   36) = (  -0.5000000  -0.5000000  -0.5000000), wk =   0.0312500

     Dense  grid:   109511 G-vectors     FFT dimensions: (  72,  72,  72)

     Smooth grid:    64071 G-vectors     FFT dimensions: (  60,  60,  60)

     Largest allocated arrays     est. size (Mb)     dimensions
        Kohn-Sham Wavefunctions         2.65 Mb     (    2018,   86)
        NL pseudopotentials             8.87 Mb     (    2018,  288)
        Each V/rho on FFT grid          1.42 Mb     (   93312)
        Each G-vector array             0.21 Mb     (   27378)
        G-vector shells                 0.20 Mb     (   26679)
     Largest temporary arrays     est. size (Mb)     dimensions
        Auxiliary wavefunctions        10.59 Mb     (    2018,  344)
        Each subspace H/S matrix        1.81 Mb     (     344,  344)
        Each <psi_i|beta_j> matrix      0.38 Mb     (     288,   86)
        Arrays for rho mixing          11.39 Mb     (   93312,    8)

     Check: negative/imaginary core charge=   -0.000001    0.000000

     Initial potential from superposition of free atoms

     starting charge  143.98835, renormalised to  144.00000
     Starting wfc are  104 randomized atomic wfcs

     total cpu time spent up to now is       55.5 secs

     Self-consistent Calculation

     iteration #  1     ecut=    35.00 Ry     beta=0.30
     Davidson diagonalization with overlap
     ethr =  1.00E-02,  avg # of iterations =  3.0

     Threshold (ethr) on eigenvalues was too large:
     Diagonalizing with lowered threshold

     Davidson diagonalization with overlap
     ethr =  2.44E-04,  avg # of iterations =  4.9

     total cpu time spent up to now is      336.6 secs

     total energy              =   -1781.94867027 Ry
     Harris-Foulkes estimate   =   -1781.98570636 Ry
     estimated scf accuracy    <       0.35165052 Ry

     iteration #  2     ecut=    35.00 Ry     beta=0.30
     Davidson diagonalization with overlap
     ethr =  2.44E-04,  avg # of iterations =  1.3

     total cpu time spent up to now is      450.6 secs

     total energy              =   -1781.87880754 Ry
     Harris-Foulkes estimate   =   -1781.95065567 Ry
     estimated scf accuracy    <       0.21669594 Ry

     iteration #  3     ecut=    35.00 Ry     beta=0.30
     Davidson diagonalization with overlap
     ethr =  1.50E-04,  avg # of iterations =  2.8

     total cpu time spent up to now is      567.7 secs

     total energy              =   -1781.89256924 Ry
     Harris-Foulkes estimate   =   -1781.89261531 Ry
     estimated scf accuracy    <       0.00354664 Ry

     iteration #  4     ecut=    35.00 Ry     beta=0.30
     Davidson diagonalization with overlap
     ethr =  2.46E-06,  avg # of iterations =  8.2

     total cpu time spent up to now is      829.2 secs

     total energy              =   -1781.89304405 Ry
     Harris-Foulkes estimate   =   -1781.89333764 Ry
     estimated scf accuracy    <       0.00165397 Ry

     iteration #  5     ecut=    35.00 Ry     beta=0.30
     Davidson diagonalization with overlap
     ethr =  1.15E-06,  avg # of iterations =  2.0

     total cpu time spent up to now is      994.0 secs

     total energy              =   -1781.89315587 Ry
     Harris-Foulkes estimate   =   -1781.89317189 Ry
     estimated scf accuracy    <       0.00007709 Ry

     iteration #  6     ecut=    35.00 Ry     beta=0.30
     Davidson diagonalization with overlap
     ethr =  5.35E-08,  avg # of iterations =  1.9

     total cpu time spent up to now is     1135.9 secs

     total energy              =   -1781.89314709 Ry
     Harris-Foulkes estimate   =   -1781.89315969 Ry
     estimated scf accuracy    <       0.00003061 Ry

     iteration #  7     ecut=    35.00 Ry     beta=0.30
     Davidson diagonalization with overlap
     ethr =  2.13E-08,  avg # of iterations =  2.2

     total cpu time spent up to now is     1293.7 secs

     total energy              =   -1781.89315172 Ry
     Harris-Foulkes estimate   =   -1781.89315136 Ry
     estimated scf accuracy    <       0.00000363 Ry

     iteration #  8     ecut=    35.00 Ry     beta=0.30
     Davidson diagonalization with overlap
     ethr =  2.52E-09,  avg # of iterations =  2.0

     total cpu time spent up to now is     1445.7 secs

     total energy              =   -1781.89315181 Ry
     Harris-Foulkes estimate   =   -1781.89315207 Ry
     estimated scf accuracy    <       0.00000110 Ry

     iteration #  9     ecut=    35.00 Ry     beta=0.30
     Davidson diagonalization with overlap
     ethr =  7.64E-10,  avg # of iterations =  2.0

     total cpu time spent up to now is     1627.7 secs

     total energy              =   -1781.89315206 Ry
     Harris-Foulkes estimate   =   -1781.89315205 Ry
     estimated scf accuracy    <       0.00000021 Ry

     iteration # 10     ecut=    35.00 Ry     beta=0.30
     Davidson diagonalization with overlap
     ethr =  1.45E-10,  avg # of iterations =  1.9

     total cpu time spent up to now is     1745.0 secs

     total energy              =   -1781.89315209 Ry
     Harris-Foulkes estimate   =   -1781.89315207 Ry
     estimated scf accuracy    <       0.00000005 Ry

     iteration # 11     ecut=    35.00 Ry     beta=0.30
     Davidson diagonalization with overlap
     ethr =  3.22E-11,  avg # of iterations =  2.3

     total cpu time spent up to now is     1872.9 secs

     total energy              =   -1781.89315212 Ry
     Harris-Foulkes estimate   =   -1781.89315210 Ry
     estimated scf accuracy    <          3.0E-09 Ry

     iteration # 12     ecut=    35.00 Ry     beta=0.30
     Davidson diagonalization with overlap
     ethr =  2.06E-12,  avg # of iterations =  2.8

     total cpu time spent up to now is     2017.3 secs

     End of self-consistent calculation

          k = 0.0000 0.0000 0.0000 (  7983 PWs)   bands (ev):

   -17.2715 -17.2614 -17.2510 -17.2268 -17.2244 -17.1520 -17.1461 -17.1413
   -17.1214 -17.1201 -17.0762 -17.0699 -17.0611 -17.0445 -17.0421 -17.0260
   -17.0120 -17.0027 -16.9893 -16.9882 -16.9828 -16.9807 -16.9768 -16.9524
   -16.9513 -16.9387 -16.9354 -16.9215 -16.9157 -16.9109 -16.9086 -16.9060
   -16.9032 -16.8948 -16.8908 -16.8885 -16.8867 -16.8801 -16.8667 -16.8663
    -5.1469  -3.1611  -3.0254  -2.8379  -2.7574  -1.5840  -1.5062  -1.3257
    -0.7513  -0.6129  -0.5219  -0.0254   0.0684   0.2096   0.2673   4.2591
     4.2743   4.2964   4.3432   4.3768   4.4370   5.8224   5.8398   5.9299
     5.9889   6.0659   6.1451   6.2049   6.3076   7.3037   7.3537   7.5246
     7.6790   7.7686   7.9189   7.9351   8.0051   8.1564   8.2420   8.2559
     8.3840   8.4434   8.9980   9.7890   9.8288   9.9254

     occupation numbers 
     1.0000   1.0000   1.0000   1.0000   1.0000   1.0000   1.0000   1.0000
     1.0000   1.0000   1.0000   1.0000   1.0000   1.0000   1.0000   1.0000
     1.0000   1.0000   1.0000   1.0000   1.0000   1.0000   1.0000   1.0000
     1.0000   1.0000   1.0000   1.0000   1.0000   1.0000   1.0000   1.0000
     1.0000   1.0000   1.0000   1.0000   1.0000   1.0000   1.0000   1.0000
     1.0000   1.0000   1.0000   1.0000   1.0000   1.0000   1.0000   1.0000
     1.0000   1.0000   1.0000   1.0000   1.0000   1.0000   1.0000   1.0000
     1.0000   1.0000   1.0000   1.0000   1.0000   1.0000   1.0000   1.0000
     1.0000   1.0000   1.0000   1.0000   1.0000   0.9644   0.9276   0.6078
     0.2130   0.0783   0.0070   0.0051   0.0011   0.0000   0.0000   0.0000
     0.0000   0.0000   0.0000   0.0000   0.0000   0.0000

          k = 0.1765 0.1771-0.1768 (  7998 PWs)   bands (ev):

   -17.2713 -17.2613 -17.2508 -17.2267 -17.2244 -17.1517 -17.1458 -17.1410
   -17.1214 -17.1200 -17.0760 -17.0697 -17.0607 -17.0444 -17.0420 -17.0259
   -17.0119 -17.0026 -16.9893 -16.9882 -16.9826 -16.9805 -16.9766 -16.9524
   -16.9512 -16.9384 -16.9353 -16.9207 -16.9159 -16.9104 -16.9085 -16.9057
   -16.9036 -16.8948 -16.8907 -16.8886 -16.8868 -16.8802 -16.8668 -16.8663
    -4.9559  -3.5495  -2.9960  -2.8712  -2.7086  -2.0409  -1.9693  -1.8362
    -0.1768  -0.0511   0.0797   0.2505   0.3503   0.4946   1.0711   3.7155
     3.7835   3.8016   4.4583   4.4730   4.5347   4.7299   4.8284   4.9552
     5.4297   5.6349   5.6631   5.8333   6.1399   6.3095   7.0448   7.2077
     7.9849   8.1069   8.2208   8.3472   9.0354   9.0953   9.1527   9.1731
     9.2667   9.3400   9.4477  10.2105  10.3445  10.7174

     occupation numbers 
     1.0000   1.0000   1.0000   1.0000   1.0000   1.0000   1.0000   1.0000
     1.0000   1.0000   1.0000   1.0000   1.0000   1.0000   1.0000   1.0000
     1.0000   1.0000   1.0000   1.0000   1.0000   1.0000   1.0000   1.0000
     1.0000   1.0000   1.0000   1.0000   1.0000   1.0000   1.0000   1.0000
     1.0000   1.0000   1.0000   1.0000   1.0000   1.0000   1.0000   1.0000
     1.0000   1.0000   1.0000   1.0000   1.0000   1.0000   1.0000   1.0000
     1.0000   1.0000   1.0000   1.0000   1.0000   1.0000   1.0000   1.0000
     1.0000   1.0000   1.0000   1.0000   1.0000   1.0000   1.0000   1.0000
     1.0000   1.0000   1.0000   1.0000   1.0000   1.0000   0.9998   0.9932
     0.0018   0.0001   0.0000   0.0000   0.0000   0.0000   0.0000   0.0000
     0.0000   0.0000   0.0000   0.0000   0.0000   0.0000

          k =-0.3530-0.3542 0.3536 (  8030 PWs)   bands (ev):

   -17.2711 -17.2611 -17.2507 -17.2267 -17.2243 -17.1515 -17.1455 -17.1407
   -17.1214 -17.1200 -17.0758 -17.0695 -17.0605 -17.0443 -17.0419 -17.0258
   -17.0119 -17.0025 -16.9894 -16.9883 -16.9825 -16.9804 -16.9765 -16.9524
   -16.9512 -16.9382 -16.9352 -16.9198 -16.9164 -16.9099 -16.9083 -16.9054
   -16.9040 -16.8947 -16.8906 -16.8888 -16.8868 -16.8802 -16.8669 -16.8664
    -4.5116  -4.2442  -2.8799  -2.7202  -2.5498  -2.4106  -2.3100  -2.2697
     0.2160   0.3849   0.4858   0.5485   0.6814   0.8361   2.9730   2.9993
     3.4982   3.5490   3.6583   3.6735   3.7570   3.8118   4.7249   4.8527
     5.0117   5.0491   5.1131   5.4126   6.3235   6.5847   6.6205   6.8049
     8.3626   8.5495   8.6893   8.7681   8.8036   8.8633   8.8909   9.0357
    10.6371  10.8463  10.9573  11.0357  11.5311  11.6488

     occupation numbers 
     1.0000   1.0000   1.0000   1.0000   1.0000   1.0000   1.0000   1.0000
     1.0000   1.0000   1.0000   1.0000   1.0000   1.0000   1.0000   1.0000
     1.0000   1.0000   1.0000   1.0000   1.0000   1.0000   1.0000   1.0000
     1.0000   1.0000   1.0000   1.0000   1.0000   1.0000   1.0000   1.0000
     1.0000   1.0000   1.0000   1.0000   1.0000   1.0000   1.0000   1.0000
     1.0000   1.0000   1.0000   1.0000   1.0000   1.0000   1.0000   1.0000
     1.0000   1.0000   1.0000   1.0000   1.0000   1.0000   1.0000   1.0000
     1.0000   1.0000   1.0000   1.0000   1.0000   1.0000   1.0000   1.0000
     1.0000   1.0000   1.0000   1.0000   1.0000   1.0000   1.0000   1.0000
     0.0000   0.0000   0.0000   0.0000   0.0000   0.0000   0.0000   0.0000
     0.0000   0.0000   0.0000   0.0000   0.0000   0.0000

          k = 0.1770-0.1769 0.1769 (  8002 PWs)   bands (ev):

   -17.2712 -17.2612 -17.2508 -17.2268 -17.2244 -17.1518 -17.1460 -17.1410
   -17.1214 -17.1200 -17.0761 -17.0697 -17.0608 -17.0445 -17.0421 -17.0258
   -17.0117 -17.0025 -16.9890 -16.9881 -16.9826 -16.9806 -16.9769 -16.9523
   -16.9513 -16.9386 -16.9352 -16.9207 -16.9160 -16.9108 -16.9085 -16.9055
   -16.9035 -16.8947 -16.8908 -16.8886 -16.8868 -16.8801 -16.8667 -16.8664
    -4.9566  -3.5638  -3.0436  -2.8119  -2.6861  -2.0349  -1.9661  -1.8197
    -0.1248  -0.0829   0.0000   0.2029   0.3158   0.4564   1.1531   3.7336
     3.7827   3.8526   4.4330   4.4640   4.5415   4.8047   4.9196   5.0559
     5.5401   5.5869   5.7054   5.7236   6.1334   6.2126   7.0322   7.0733
     7.9753   8.0334   8.2329   8.2747   8.9616   9.1000   9.1312   9.2155
     9.2668   9.3438   9.4574  10.2350  10.3431  10.6678

     occupation numbers 
     1.0000   1.0000   1.0000   1.0000   1.0000   1.0000   1.0000   1.0000
     1.0000   1.0000   1.0000   1.0000   1.0000   1.0000   1.0000   1.0000
     1.0000   1.0000   1.0000   1.0000   1.0000   1.0000   1.0000   1.0000
     1.0000   1.0000   1.0000   1.0000   1.0000   1.0000   1.0000   1.0000
     1.0000   1.0000   1.0000   1.0000   1.0000   1.0000   1.0000   1.0000
     1.0000   1.0000   1.0000   1.0000   1.0000   1.0000   1.0000   1.0000
     1.0000   1.0000   1.0000   1.0000   1.0000   1.0000   1.0000   1.0000
     1.0000   1.0000   1.0000   1.0000   1.0000   1.0000   1.0000   1.0000
     1.0000   1.0000   1.0000   1.0000   1.0000   1.0000   0.9999   0.9997
     0.0022   0.0006   0.0000   0.0000   0.0000   0.0000   0.0000   0.0000
     0.0000   0.0000   0.0000   0.0000   0.0000   0.0000

          k = 0.3536 0.0002 0.0001 (  8006 PWs)   bands (ev):

   -17.2712 -17.2610 -17.2508 -17.2267 -17.2242 -17.1517 -17.1458 -17.1410
   -17.1213 -17.1200 -17.0759 -17.0698 -17.0606 -17.0444 -17.0420 -17.0259
   -17.0117 -17.0025 -16.9891 -16.9879 -16.9826 -16.9805 -16.9768 -16.9522
   -16.9512 -16.9387 -16.9351 -16.9212 -16.9156 -16.9104 -16.9085 -16.9057
   -16.9031 -16.8948 -16.8908 -16.8886 -16.8866 -16.8802 -16.8667 -16.8663
    -4.8904  -3.3337  -3.1452  -3.0827  -2.8354  -2.6423  -1.4440  -1.3944
    -0.5571  -0.5125   0.4589   0.5605   0.6139   0.8108   1.1290   3.7350
     3.7482   3.7836   3.8485   4.4723   4.5341   4.6549   4.6935   4.7631
     4.9310   5.5378   5.8786   5.9613   6.0368   6.1676   6.5534   6.6689
     7.8105   8.7045   8.9403   9.0048   9.0931   9.1613   9.2223   9.3068
     9.3646   9.5211   9.5477  10.5232  10.7234  10.8272

     occupation numbers 
     1.0000   1.0000   1.0000   1.0000   1.0000   1.0000   1.0000   1.0000
     1.0000   1.0000   1.0000   1.0000   1.0000   1.0000   1.0000   1.0000
     1.0000   1.0000   1.0000   1.0000   1.0000   1.0000   1.0000   1.0000
     1.0000   1.0000   1.0000   1.0000   1.0000   1.0000   1.0000   1.0000
     1.0000   1.0000   1.0000   1.0000   1.0000   1.0000   1.0000   1.0000
     1.0000   1.0000   1.0000   1.0000   1.0000   1.0000   1.0000   1.0000
     1.0000   1.0000   1.0000   1.0000   1.0000   1.0000   1.0000   1.0000
     1.0000   1.0000   1.0000   1.0000   1.0000   1.0000   1.0000   1.0000
     1.0000   1.0000   1.0000   1.0000   1.0000   1.0000   1.0000   1.0000
     0.0439   0.0000   0.0000   0.0000   0.0000   0.0000   0.0000   0.0000
     0.0000   0.0000   0.0000   0.0000   0.0000   0.0000

          k =-0.1760-0.5312 0.5305 (  8018 PWs)   bands (ev):

   -17.2710 -17.2609 -17.2507 -17.2266 -17.2242 -17.1515 -17.1455 -17.1408
   -17.1213 -17.1199 -17.0757 -17.0697 -17.0604 -17.0443 -17.0419 -17.0258
   -17.0116 -17.0024 -16.9890 -16.9880 -16.9825 -16.9804 -16.9766 -16.9522
   -16.9511 -16.9385 -16.9350 -16.9205 -16.9158 -16.9099 -16.9084 -16.9055
   -16.9035 -16.8949 -16.8907 -16.8887 -16.8867 -16.8803 -16.8668 -16.8664
    -4.4711  -3.9421  -3.4667  -2.9905  -2.9357  -2.3621  -1.8263  -1.7928
    -0.1189  -0.0423   0.4133   0.9363   1.1165   1.8506   2.3600   3.0900
     3.1776   3.2471   3.6738   3.7875   3.8678   4.2303   4.2621   4.5599
     4.9256   4.9686   5.2910   5.4316   5.4925   5.9187   6.1560   6.5574
     8.5153   9.0115   9.2636   9.4643   9.5738   9.6809   9.9413  10.0856
    10.1914  10.4916  10.8024  10.9237  11.0885  11.2036

     occupation numbers 
     1.0000   1.0000   1.0000   1.0000   1.0000   1.0000   1.0000   1.0000
     1.0000   1.0000   1.0000   1.0000   1.0000   1.0000   1.0000   1.0000
     1.0000   1.0000   1.0000   1.0000   1.0000   1.0000   1.0000   1.0000
     1.0000   1.0000   1.0000   1.0000   1.0000   1.0000   1.0000   1.0000
     1.0000   1.0000   1.0000   1.0000   1.0000   1.0000   1.0000   1.0000
     1.0000   1.0000   1.0000   1.0000   1.0000   1.0000   1.0000   1.0000
     1.0000   1.0000   1.0000   1.0000   1.0000   1.0000   1.0000   1.0000
     1.0000   1.0000   1.0000   1.0000   1.0000   1.0000   1.0000   1.0000
     1.0000   1.0000   1.0000   1.0000   1.0000   1.0000   1.0000   1.0000
     0.0000   0.0000   0.0000   0.0000   0.0000   0.0000   0.0000   0.0000
     0.0000   0.0000   0.0000   0.0000   0.0000   0.0000

          k = 0.0005-0.3541 0.3537 (  8030 PWs)   bands (ev):

   -17.2711 -17.2611 -17.2505 -17.2266 -17.2244 -17.1515 -17.1458 -17.1408
   -17.1214 -17.1199 -17.0759 -17.0694 -17.0606 -17.0444 -17.0419 -17.0258
   -17.0116 -17.0024 -16.9890 -16.9881 -16.9825 -16.9805 -16.9767 -16.9523
   -16.9512 -16.9383 -16.9351 -16.9199 -16.9164 -16.9104 -16.9083 -16.9051
   -16.9040 -16.8947 -16.8907 -16.8887 -16.8869 -16.8801 -16.8669 -16.8663
    -4.6505  -3.7024  -3.6209  -2.7131  -2.6333  -2.3661  -2.2980  -1.5996
    -0.2818   0.1014   0.1798   0.7254   0.9642   1.6527   1.7300   2.9613
     3.6364   3.7274   3.8448   3.9051   4.2965   4.4125   4.5090   4.7325
     5.0555   5.1206   5.3155   5.4726   5.5907   5.6633   5.8512   7.0300
     8.3710   8.9810   9.2072   9.2679   9.3206   9.7481   9.8658   9.9007
    10.0632  10.0999  10.4386  10.5037  10.5716  10.6553

     occupation numbers 
     1.0000   1.0000   1.0000   1.0000   1.0000   1.0000   1.0000   1.0000
     1.0000   1.0000   1.0000   1.0000   1.0000   1.0000   1.0000   1.0000
     1.0000   1.0000   1.0000   1.0000   1.0000   1.0000   1.0000   1.0000
     1.0000   1.0000   1.0000   1.0000   1.0000   1.0000   1.0000   1.0000
     1.0000   1.0000   1.0000   1.0000   1.0000   1.0000   1.0000   1.0000
     1.0000   1.0000   1.0000   1.0000   1.0000   1.0000   1.0000   1.0000
     1.0000   1.0000   1.0000   1.0000   1.0000   1.0000   1.0000   1.0000
     1.0000   1.0000   1.0000   1.0000   1.0000   1.0000   1.0000   1.0000
     1.0000   1.0000   1.0000   1.0000   1.0000   1.0000   1.0000   0.9999
     0.0000   0.0000   0.0000   0.0000   0.0000   0.0000   0.0000   0.0000
     0.0000   0.0000   0.0000   0.0000   0.0000   0.0000

          k =-0.3541 0.3539-0.3538 (  8026 PWs)   bands (ev):

   -17.2711 -17.2608 -17.2505 -17.2268 -17.2244 -17.1516 -17.1458 -17.1409
   -17.1214 -17.1200 -17.0758 -17.0695 -17.0607 -17.0445 -17.0420 -17.0256
   -17.0114 -17.0022 -16.9888 -16.9878 -16.9827 -16.9805 -16.9770 -16.9523
   -16.9514 -16.9384 -16.9349 -16.9200 -16.9164 -16.9107 -16.9083 -16.9050
   -16.9039 -16.8946 -16.8909 -16.8888 -16.8868 -16.8799 -16.8668 -16.8664
    -4.5084  -4.2614  -2.9339  -2.6537  -2.4867  -2.4201  -2.3643  -2.2022
     0.2759   0.3130   0.3531   0.5239   0.6232   0.8046   2.7651   3.2254
     3.5200   3.5807   3.6744   3.7874   3.9736   4.0088   4.8283   4.8693
     4.9400   5.0544   5.0816   5.2221   6.3325   6.4444   6.6447   6.7026
     8.4077   8.4773   8.6127   8.6485   8.7129   8.7627   8.8843   9.0607
    10.6181  10.8092  10.9442  11.0721  11.5012  11.5879

     occupation numbers 
     1.0000   1.0000   1.0000   1.0000   1.0000   1.0000   1.0000   1.0000
     1.0000   1.0000   1.0000   1.0000   1.0000   1.0000   1.0000   1.0000
     1.0000   1.0000   1.0000   1.0000   1.0000   1.0000   1.0000   1.0000
     1.0000   1.0000   1.0000   1.0000   1.0000   1.0000   1.0000   1.0000
     1.0000   1.0000   1.0000   1.0000   1.0000   1.0000   1.0000   1.0000
     1.0000   1.0000   1.0000   1.0000   1.0000   1.0000   1.0000   1.0000
     1.0000   1.0000   1.0000   1.0000   1.0000   1.0000   1.0000   1.0000
     1.0000   1.0000   1.0000   1.0000   1.0000   1.0000   1.0000   1.0000
     1.0000   1.0000   1.0000   1.0000   1.0000   1.0000   1.0000   1.0000
     0.0000   0.0000   0.0000   0.0000   0.0000   0.0000   0.0000   0.0000
     0.0000   0.0000   0.0000   0.0000   0.0000   0.0000

          k =-0.1776 0.5310-0.5305 (  8015 PWs)   bands (ev):

   -17.2710 -17.2607 -17.2506 -17.2267 -17.2243 -17.1516 -17.1457 -17.1409
   -17.1213 -17.1199 -17.0757 -17.0697 -17.0605 -17.0444 -17.0419 -17.0257
   -17.0114 -17.0023 -16.9888 -16.9877 -16.9826 -16.9804 -16.9769 -16.9522
   -16.9512 -16.9386 -16.9349 -16.9206 -16.9159 -16.9103 -16.9084 -16.9053
   -16.9034 -16.8948 -16.8909 -16.8886 -16.8867 -16.8802 -16.8667 -16.8664
    -4.4711  -3.9574  -3.4572  -2.9727  -2.9505  -2.3409  -1.8403  -1.7586
    -0.1010  -0.0692   0.3113   0.9255   1.1175   1.8408   2.3094   3.0271
     3.2005   3.4273   3.7085   3.8449   4.0011   4.1877   4.2902   4.6138
     4.8378   5.0285   5.3177   5.3647   5.4336   5.9436   6.0195   6.5421
     8.5135   8.9270   9.3407   9.4493   9.5369   9.6219   9.9449  10.0744
    10.2169  10.4274  10.7327  10.8327  10.9790  11.1578

     occupation numbers 
     1.0000   1.0000   1.0000   1.0000   1.0000   1.0000   1.0000   1.0000
     1.0000   1.0000   1.0000   1.0000   1.0000   1.0000   1.0000   1.0000
     1.0000   1.0000   1.0000   1.0000   1.0000   1.0000   1.0000   1.0000
     1.0000   1.0000   1.0000   1.0000   1.0000   1.0000   1.0000   1.0000
     1.0000   1.0000   1.0000   1.0000   1.0000   1.0000   1.0000   1.0000
     1.0000   1.0000   1.0000   1.0000   1.0000   1.0000   1.0000   1.0000
     1.0000   1.0000   1.0000   1.0000   1.0000   1.0000   1.0000   1.0000
     1.0000   1.0000   1.0000   1.0000   1.0000   1.0000   1.0000   1.0000
     1.0000   1.0000   1.0000   1.0000   1.0000   1.0000   1.0000   1.0000
     0.0000   0.0000   0.0000   0.0000   0.0000   0.0000   0.0000   0.0000
     0.0000   0.0000   0.0000   0.0000   0.0000   0.0000

          k =-0.7071-0.0004-0.0002 (  7992 PWs)   bands (ev):

   -17.2708 -17.2606 -17.2506 -17.2266 -17.2239 -17.1514 -17.1454 -17.1407
   -17.1211 -17.1198 -17.0755 -17.0697 -17.0602 -17.0441 -17.0418 -17.0256
   -17.0113 -17.0022 -16.9888 -16.9875 -16.9823 -16.9803 -16.9767 -16.9520
   -16.9510 -16.9386 -16.9348 -16.9210 -16.9154 -16.9098 -16.9084 -16.9054
   -16.9029 -16.8948 -16.8907 -16.8885 -16.8864 -16.8803 -16.8666 -16.8663
    -4.2157  -4.0684  -3.3219  -3.2465  -3.1243  -2.8483  -1.3795  -1.3442
    -0.4382  -0.4233   1.2227   1.2897   1.4127   1.5078   3.0835   3.1601
     3.3339   3.3763   3.3919   3.4649   3.5456   3.5573   3.5892   3.6414
     5.2480   5.3090   5.3716   5.4451   5.8801   5.9853   6.0921   6.1393
     8.2847   8.3410   9.4353   9.4942   9.5332   9.5861  10.2483  10.3039
    11.4821  11.5915  11.6283  11.6589  11.7880  11.8178

     occupation numbers 
     1.0000   1.0000   1.0000   1.0000   1.0000   1.0000   1.0000   1.0000
     1.0000   1.0000   1.0000   1.0000   1.0000   1.0000   1.0000   1.0000
     1.0000   1.0000   1.0000   1.0000   1.0000   1.0000   1.0000   1.0000
     1.0000   1.0000   1.0000   1.0000   1.0000   1.0000   1.0000   1.0000
     1.0000   1.0000   1.0000   1.0000   1.0000   1.0000   1.0000   1.0000
     1.0000   1.0000   1.0000   1.0000   1.0000   1.0000   1.0000   1.0000
     1.0000   1.0000   1.0000   1.0000   1.0000   1.0000   1.0000   1.0000
     1.0000   1.0000   1.0000   1.0000   1.0000   1.0000   1.0000   1.0000
     1.0000   1.0000   1.0000   1.0000   1.0000   1.0000   1.0000   1.0000
     0.0000   0.0000   0.0000   0.0000   0.0000   0.0000   0.0000   0.0000
     0.0000   0.0000   0.0000   0.0000   0.0000   0.0000

          k =-0.1767 0.1767 0.1767 (  7995 PWs)   bands (ev):

   -17.2712 -17.2612 -17.2508 -17.2267 -17.2244 -17.1517 -17.1458 -17.1410
   -17.1214 -17.1200 -17.0760 -17.0699 -17.0608 -17.0445 -17.0421 -17.0258
   -17.0118 -17.0024 -16.9890 -16.9881 -16.9828 -16.9806 -16.9767 -16.9524
   -16.9513 -16.9387 -16.9352 -16.9212 -16.9155 -16.9103 -16.9086 -16.9057
   -16.9031 -16.8948 -16.8909 -16.8885 -16.8867 -16.8803 -16.8668 -16.8664
    -4.9559  -3.5569  -3.0358  -2.8439  -2.6751  -2.0848  -1.9225  -1.8264
    -0.1641  -0.0634   0.0507   0.2433   0.3185   0.4885   1.0933   3.7317
     3.7532   3.8003   4.4403   4.4715   4.5899   4.7429   4.8321   5.0187
     5.4769   5.6376   5.6745   5.7828   6.1771   6.2648   7.0139   7.1856
     8.0006   8.0860   8.2275   8.2989   9.0122   9.1293   9.1470   9.1851
     9.2269   9.3026   9.4547  10.2425  10.3712  10.6791

     occupation numbers 
     1.0000   1.0000   1.0000   1.0000   1.0000   1.0000   1.0000   1.0000
     1.0000   1.0000   1.0000   1.0000   1.0000   1.0000   1.0000   1.0000
     1.0000   1.0000   1.0000   1.0000   1.0000   1.0000   1.0000   1.0000
     1.0000   1.0000   1.0000   1.0000   1.0000   1.0000   1.0000   1.0000
     1.0000   1.0000   1.0000   1.0000   1.0000   1.0000   1.0000   1.0000
     1.0000   1.0000   1.0000   1.0000   1.0000   1.0000   1.0000   1.0000
     1.0000   1.0000   1.0000   1.0000   1.0000   1.0000   1.0000   1.0000
     1.0000   1.0000   1.0000   1.0000   1.0000   1.0000   1.0000   1.0000
     1.0000   1.0000   1.0000   1.0000   1.0000   1.0000   0.9999   0.9956
     0.0012   0.0001   0.0000   0.0000   0.0000   0.0000   0.0000   0.0000
     0.0000   0.0000   0.0000   0.0000   0.0000   0.0000

          k =-0.0002 0.3538-0.0001 (  8000 PWs)   bands (ev):

   -17.2712 -17.2612 -17.2507 -17.2266 -17.2244 -17.1515 -17.1459 -17.1408
   -17.1214 -17.1198 -17.0761 -17.0697 -17.0608 -17.0444 -17.0421 -17.0258
   -17.0117 -17.0024 -16.9889 -16.9881 -16.9828 -16.9806 -16.9767 -16.9524
   -16.9511 -16.9385 -16.9351 -16.9207 -16.9160 -16.9108 -16.9085 -16.9055
   -16.9034 -16.8947 -16.8908 -16.8885 -16.8867 -16.8801 -16.8668 -16.8662
    -4.8927  -3.3289  -3.1541  -2.9773  -2.8943  -2.7004  -1.5342  -1.2735
    -0.5364  -0.5278   0.4378   0.5177   0.6570   0.7380   1.2125   3.7362
     3.7739   3.7916   3.8346   4.4901   4.5537   4.6513   4.6892   4.7677
     4.8640   5.6087   5.8237   5.8779   6.1174   6.1838   6.5447   6.5920
     7.8302   8.7424   8.9030   9.0041   9.1350   9.1493   9.2524   9.3017
     9.3675   9.4517   9.5995  10.5584  10.8514  10.9057

     occupation numbers 
     1.0000   1.0000   1.0000   1.0000   1.0000   1.0000   1.0000   1.0000
     1.0000   1.0000   1.0000   1.0000   1.0000   1.0000   1.0000   1.0000
     1.0000   1.0000   1.0000   1.0000   1.0000   1.0000   1.0000   1.0000
     1.0000   1.0000   1.0000   1.0000   1.0000   1.0000   1.0000   1.0000
     1.0000   1.0000   1.0000   1.0000   1.0000   1.0000   1.0000   1.0000
     1.0000   1.0000   1.0000   1.0000   1.0000   1.0000   1.0000   1.0000
     1.0000   1.0000   1.0000   1.0000   1.0000   1.0000   1.0000   1.0000
     1.0000   1.0000   1.0000   1.0000   1.0000   1.0000   1.0000   1.0000
     1.0000   1.0000   1.0000   1.0000   1.0000   1.0000   1.0000   1.0000
     0.0326   0.0000   0.0000   0.0000   0.0000   0.0000   0.0000   0.0000
     0.0000   0.0000   0.0000   0.0000   0.0000   0.0000

          k =-0.5297-0.1776 0.5303 (  8017 PWs)   bands (ev):

   -17.2711 -17.2611 -17.2505 -17.2265 -17.2243 -17.1513 -17.1457 -17.1406
   -17.1213 -17.1198 -17.0759 -17.0695 -17.0606 -17.0443 -17.0419 -17.0257
   -17.0117 -17.0024 -16.9889 -16.9880 -16.9827 -16.9805 -16.9765 -16.9524
   -16.9511 -16.9383 -16.9350 -16.9199 -16.9164 -16.9104 -16.9082 -16.9051
   -16.9039 -16.8947 -16.8907 -16.8887 -16.8868 -16.8801 -16.8668 -16.8663
    -4.4793  -3.9308  -3.4568  -3.0227  -2.8776  -2.4255  -1.8919  -1.7093
    -0.0862  -0.0037   0.2975   0.9896   1.0987   1.9346   2.2884   3.0826
     3.1446   3.2796   3.6403   3.8685   3.8898   4.2398   4.2961   4.5235
     4.9116   4.9796   5.1826   5.4012   5.5154   5.9998   6.0804   6.5710
     8.5652   9.0024   9.3081   9.4853   9.5162   9.7106   9.9808  10.1053
    10.1705  10.4895  10.7163  10.8596  10.9684  11.2672

     occupation numbers 
     1.0000   1.0000   1.0000   1.0000   1.0000   1.0000   1.0000   1.0000
     1.0000   1.0000   1.0000   1.0000   1.0000   1.0000   1.0000   1.0000
     1.0000   1.0000   1.0000   1.0000   1.0000   1.0000   1.0000   1.0000
     1.0000   1.0000   1.0000   1.0000   1.0000   1.0000   1.0000   1.0000
     1.0000   1.0000   1.0000   1.0000   1.0000   1.0000   1.0000   1.0000
     1.0000   1.0000   1.0000   1.0000   1.0000   1.0000   1.0000   1.0000
     1.0000   1.0000   1.0000   1.0000   1.0000   1.0000   1.0000   1.0000
     1.0000   1.0000   1.0000   1.0000   1.0000   1.0000   1.0000   1.0000
     1.0000   1.0000   1.0000   1.0000   1.0000   1.0000   1.0000   1.0000
     0.0000   0.0000   0.0000   0.0000   0.0000   0.0000   0.0000   0.0000
     0.0000   0.0000   0.0000   0.0000   0.0000   0.0000

          k =-0.3532-0.0004 0.3535 (  8032 PWs)   bands (ev):

   -17.2711 -17.2611 -17.2506 -17.2267 -17.2242 -17.1515 -17.1456 -17.1408
   -17.1212 -17.1200 -17.0759 -17.0697 -17.0605 -17.0445 -17.0419 -17.0258
   -17.0117 -17.0024 -16.9891 -16.9880 -16.9827 -16.9805 -16.9766 -16.9523
   -16.9513 -16.9384 -16.9351 -16.9205 -16.9158 -16.9099 -16.9084 -16.9055
   -16.9035 -16.8949 -16.8908 -16.8887 -16.8867 -16.8803 -16.8668 -16.8665
    -4.6469  -3.7679  -3.5389  -2.7655  -2.5760  -2.4714  -2.2186  -1.6213
    -0.3126   0.1119   0.2951   0.8109   0.8740   1.5665   1.7943   2.9509
     3.5423   3.6714   3.8889   3.9266   4.2504   4.3562   4.5172   4.7589
     5.0511   5.1273   5.3071   5.3920   5.5761   5.7862   5.8993   7.0990
     8.4339   9.0182   9.1037   9.2494   9.4276   9.7233   9.7487   9.9769
    10.1302  10.1679  10.3554  10.4776  10.5798  10.7483

     occupation numbers 
     1.0000   1.0000   1.0000   1.0000   1.0000   1.0000   1.0000   1.0000
     1.0000   1.0000   1.0000   1.0000   1.0000   1.0000   1.0000   1.0000
     1.0000   1.0000   1.0000   1.0000   1.0000   1.0000   1.0000   1.0000
     1.0000   1.0000   1.0000   1.0000   1.0000   1.0000   1.0000   1.0000
     1.0000   1.0000   1.0000   1.0000   1.0000   1.0000   1.0000   1.0000
     1.0000   1.0000   1.0000   1.0000   1.0000   1.0000   1.0000   1.0000
     1.0000   1.0000   1.0000   1.0000   1.0000   1.0000   1.0000   1.0000
     1.0000   1.0000   1.0000   1.0000   1.0000   1.0000   1.0000   1.0000
     1.0000   1.0000   1.0000   1.0000   1.0000   1.0000   1.0000   0.9994
     0.0000   0.0000   0.0000   0.0000   0.0000   0.0000   0.0000   0.0000
     0.0000   0.0000   0.0000   0.0000   0.0000   0.0000

          k = 0.0003-0.0002 0.3536 (  8004 PWs)   bands (ev):

   -17.2712 -17.2612 -17.2507 -17.2267 -17.2243 -17.1517 -17.1458 -17.1410
   -17.1213 -17.1200 -17.0760 -17.0697 -17.0607 -17.0445 -17.0419 -17.0258
   -17.0119 -17.0024 -16.9892 -16.9881 -16.9824 -16.9804 -16.9766 -16.9521
   -16.9512 -16.9385 -16.9354 -16.9207 -16.9159 -16.9103 -16.9084 -16.9057
   -16.9036 -16.8947 -16.8907 -16.8885 -16.8868 -16.8802 -16.8667 -16.8663
    -4.8928  -3.3295  -3.1541  -3.0031  -2.9073  -2.6471  -1.4292  -1.3929
    -0.6565  -0.4370   0.4675   0.5144   0.6897   0.7566   1.1589   3.7553
     3.7716   3.8019   3.8479   4.4578   4.5348   4.6258   4.7044   4.8107
     4.8581   5.5964   5.8109   5.8768   6.0499   6.2168   6.5214   6.6862
     7.8107   8.6740   8.9500   9.0566   9.0942   9.1803   9.2195   9.2951
     9.3914   9.4641   9.6061  10.5416  10.7678  10.8582

     occupation numbers 
     1.0000   1.0000   1.0000   1.0000   1.0000   1.0000   1.0000   1.0000
     1.0000   1.0000   1.0000   1.0000   1.0000   1.0000   1.0000   1.0000
     1.0000   1.0000   1.0000   1.0000   1.0000   1.0000   1.0000   1.0000
     1.0000   1.0000   1.0000   1.0000   1.0000   1.0000   1.0000   1.0000
     1.0000   1.0000   1.0000   1.0000   1.0000   1.0000   1.0000   1.0000
     1.0000   1.0000   1.0000   1.0000   1.0000   1.0000   1.0000   1.0000
     1.0000   1.0000   1.0000   1.0000   1.0000   1.0000   1.0000   1.0000
     1.0000   1.0000   1.0000   1.0000   1.0000   1.0000   1.0000   1.0000
     1.0000   1.0000   1.0000   1.0000   1.0000   1.0000   1.0000   1.0000
     0.0437   0.0000   0.0000   0.0000   0.0000   0.0000   0.0000   0.0000
     0.0000   0.0000   0.0000   0.0000   0.0000   0.0000

          k = 0.1768 0.1769 0.1768 (  8001 PWs)   bands (ev):

   -17.2713 -17.2612 -17.2509 -17.2267 -17.2244 -17.1517 -17.1459 -17.1410
   -17.1214 -17.1200 -17.0760 -17.0699 -17.0608 -17.0445 -17.0421 -17.0258
   -17.0119 -17.0024 -16.9892 -16.9882 -16.9824 -16.9803 -16.9765 -16.9523
   -16.9512 -16.9387 -16.9353 -16.9214 -16.9156 -16.9108 -16.9086 -16.9059
   -16.9032 -16.8947 -16.8907 -16.8885 -16.8867 -16.8801 -16.8667 -16.8663
    -4.9573  -3.5415  -2.9877  -2.8729  -2.7262  -2.0798  -1.9421  -1.8130
    -0.1857  -0.0725   0.0468   0.2480   0.3507   0.6003   1.0260   3.7001
     3.7538   3.7999   4.4381   4.4860   4.5640   4.7506   4.8593   4.9567
     5.4384   5.6389   5.7191   5.7529   6.1728   6.2371   7.0591   7.2399
     7.9987   8.0941   8.1981   8.3701   9.0289   9.0884   9.1226   9.1957
     9.2501   9.3558   9.4164  10.2262  10.3100  10.7496

     occupation numbers 
     1.0000   1.0000   1.0000   1.0000   1.0000   1.0000   1.0000   1.0000
     1.0000   1.0000   1.0000   1.0000   1.0000   1.0000   1.0000   1.0000
     1.0000   1.0000   1.0000   1.0000   1.0000   1.0000   1.0000   1.0000
     1.0000   1.0000   1.0000   1.0000   1.0000   1.0000   1.0000   1.0000
     1.0000   1.0000   1.0000   1.0000   1.0000   1.0000   1.0000   1.0000
     1.0000   1.0000   1.0000   1.0000   1.0000   1.0000   1.0000   1.0000
     1.0000   1.0000   1.0000   1.0000   1.0000   1.0000   1.0000   1.0000
     1.0000   1.0000   1.0000   1.0000   1.0000   1.0000   1.0000   1.0000
     1.0000   1.0000   1.0000   1.0000   1.0000   1.0000   0.9998   0.9877
     0.0013   0.0001   0.0000   0.0000   0.0000   0.0000   0.0000   0.0000
     0.0000   0.0000   0.0000   0.0000   0.0000   0.0000

          k =-0.3527-0.3545 0.7072 (  8032 PWs)   bands (ev):

   -17.2711 -17.2610 -17.2507 -17.2266 -17.2243 -17.1514 -17.1457 -17.1408
   -17.1214 -17.1199 -17.0758 -17.0697 -17.0605 -17.0443 -17.0421 -17.0258
   -17.0118 -17.0024 -16.9892 -16.9882 -16.9824 -16.9802 -16.9763 -16.9523
   -16.9510 -16.9385 -16.9352 -16.9208 -16.9158 -16.9104 -16.9085 -16.9057
   -16.9035 -16.8948 -16.8905 -16.8887 -16.8867 -16.8801 -16.8668 -16.8663
    -4.6510  -3.7513  -3.5252  -2.7713  -2.6682  -2.3991  -2.2511  -1.5896
    -0.3165   0.0954   0.2341   0.8495   1.0021   1.5883   1.7308   2.9254
     3.5750   3.6634   3.8618   3.8984   4.2333   4.3736   4.4785   4.7413
     5.0521   5.1221   5.3473   5.3769   5.6149   5.6849   5.9460   7.1681
     8.4002   9.0785   9.1598   9.2537   9.4196   9.7334   9.8376   9.9358
    10.0536  10.1057  10.3662  10.5145  10.6006  10.6596

     occupation numbers 
     1.0000   1.0000   1.0000   1.0000   1.0000   1.0000   1.0000   1.0000
     1.0000   1.0000   1.0000   1.0000   1.0000   1.0000   1.0000   1.0000
     1.0000   1.0000   1.0000   1.0000   1.0000   1.0000   1.0000   1.0000
     1.0000   1.0000   1.0000   1.0000   1.0000   1.0000   1.0000   1.0000
     1.0000   1.0000   1.0000   1.0000   1.0000   1.0000   1.0000   1.0000
     1.0000   1.0000   1.0000   1.0000   1.0000   1.0000   1.0000   1.0000
     1.0000   1.0000   1.0000   1.0000   1.0000   1.0000   1.0000   1.0000
     1.0000   1.0000   1.0000   1.0000   1.0000   1.0000   1.0000   1.0000
     1.0000   1.0000   1.0000   1.0000   1.0000   1.0000   1.0000   0.9970
     0.0000   0.0000   0.0000   0.0000   0.0000   0.0000   0.0000   0.0000
     0.0000   0.0000   0.0000   0.0000   0.0000   0.0000

          k =-0.1762-0.1774 0.5304 (  8016 PWs)   bands (ev):

   -17.2710 -17.2610 -17.2506 -17.2266 -17.2242 -17.1515 -17.1456 -17.1407
   -17.1213 -17.1199 -17.0758 -17.0695 -17.0605 -17.0443 -17.0418 -17.0258
   -17.0119 -17.0023 -16.9892 -16.9881 -16.9823 -16.9803 -16.9765 -16.9522
   -16.9511 -16.9383 -16.9353 -16.9199 -16.9163 -16.9099 -16.9082 -16.9053
   -16.9041 -16.8947 -16.8906 -16.8887 -16.8867 -16.8803 -16.8668 -16.8663
    -4.4782  -3.9434  -3.4096  -3.0463  -2.9552  -2.3042  -1.8502  -1.8055
    -0.1203   0.0241   0.2402   1.0596   1.1639   1.8239   2.3059   3.0999
     3.1483   3.2741   3.6530   3.8406   3.9426   4.2502   4.3127   4.5420
     4.8275   4.9521   5.2376   5.3772   5.4794   5.9683   6.0808   6.6548
     8.5141   9.0184   9.3689   9.4889   9.5718   9.6258  10.0393  10.0985
    10.1367  10.5336  10.7073  10.7769  10.9778  11.2934

     occupation numbers 
     1.0000   1.0000   1.0000   1.0000   1.0000   1.0000   1.0000   1.0000
     1.0000   1.0000   1.0000   1.0000   1.0000   1.0000   1.0000   1.0000
     1.0000   1.0000   1.0000   1.0000   1.0000   1.0000   1.0000   1.0000
     1.0000   1.0000   1.0000   1.0000   1.0000   1.0000   1.0000   1.0000
     1.0000   1.0000   1.0000   1.0000   1.0000   1.0000   1.0000   1.0000
     1.0000   1.0000   1.0000   1.0000   1.0000   1.0000   1.0000   1.0000
     1.0000   1.0000   1.0000   1.0000   1.0000   1.0000   1.0000   1.0000
     1.0000   1.0000   1.0000   1.0000   1.0000   1.0000   1.0000   1.0000
     1.0000   1.0000   1.0000   1.0000   1.0000   1.0000   1.0000   1.0000
     0.0000   0.0000   0.0000   0.0000   0.0000   0.0000   0.0000   0.0000
     0.0000   0.0000   0.0000   0.0000   0.0000   0.0000

          k =-0.5308 0.5306-0.1770 (  8018 PWs)   bands (ev):

   -17.2710 -17.2609 -17.2505 -17.2266 -17.2243 -17.1515 -17.1457 -17.1408
   -17.1213 -17.1199 -17.0759 -17.0695 -17.0606 -17.0444 -17.0418 -17.0256
   -17.0116 -17.0022 -16.9890 -16.9880 -16.9824 -16.9803 -16.9767 -16.9521
   -16.9512 -16.9384 -16.9352 -16.9200 -16.9163 -16.9103 -16.9082 -16.9051
   -16.9040 -16.8947 -16.8908 -16.8887 -16.8868 -16.8801 -16.8667 -16.8664
    -4.4790  -3.9438  -3.4684  -2.9957  -2.8866  -2.3755  -1.8560  -1.7550
    -0.1402  -0.0374   0.3475   0.9594   1.0291   1.8844   2.3018   3.0953
     3.2342   3.3607   3.7105   3.8343   3.9941   4.2101   4.2730   4.5851
     4.8736   4.9690   5.2804   5.3794   5.4940   5.9353   6.0311   6.5146
     8.5029   8.9273   9.2882   9.4375   9.5429   9.6441   9.9452  10.0264
    10.2094  10.4852  10.7407  10.8856  11.0763  11.1672

     occupation numbers 
     1.0000   1.0000   1.0000   1.0000   1.0000   1.0000   1.0000   1.0000
     1.0000   1.0000   1.0000   1.0000   1.0000   1.0000   1.0000   1.0000
     1.0000   1.0000   1.0000   1.0000   1.0000   1.0000   1.0000   1.0000
     1.0000   1.0000   1.0000   1.0000   1.0000   1.0000   1.0000   1.0000
     1.0000   1.0000   1.0000   1.0000   1.0000   1.0000   1.0000   1.0000
     1.0000   1.0000   1.0000   1.0000   1.0000   1.0000   1.0000   1.0000
     1.0000   1.0000   1.0000   1.0000   1.0000   1.0000   1.0000   1.0000
     1.0000   1.0000   1.0000   1.0000   1.0000   1.0000   1.0000   1.0000
     1.0000   1.0000   1.0000   1.0000   1.0000   1.0000   1.0000   1.0000
     0.0000   0.0000   0.0000   0.0000   0.0000   0.0000   0.0000   0.0000
     0.0000   0.0000   0.0000   0.0000   0.0000   0.0000

          k =-0.3543 0.7077-0.3538 (  8030 PWs)   bands (ev):

   -17.2710 -17.2609 -17.2507 -17.2267 -17.2243 -17.1516 -17.1458 -17.1408
   -17.1213 -17.1201 -17.0759 -17.0697 -17.0607 -17.0445 -17.0420 -17.0256
   -17.0116 -17.0022 -16.9890 -16.9879 -16.9823 -16.9803 -16.9767 -16.9521
   -16.9513 -16.9386 -16.9351 -16.9208 -16.9160 -16.9107 -16.9084 -16.9055
   -16.9035 -16.8946 -16.8908 -16.8887 -16.8867 -16.8800 -16.8667 -16.8664
    -4.6514  -3.7843  -3.4847  -2.8547  -2.6184  -2.3684  -2.1722  -1.6615
    -0.2780   0.0583   0.2252   0.8288   0.8840   1.5873   1.7823   2.9495
     3.5325   3.6997   3.9468   3.9921   4.2865   4.3338   4.5798   4.7523
     5.0561   5.0933   5.3112   5.4426   5.4922   5.7832   5.8483   7.0303
     8.4045   9.0262   9.1162   9.2185   9.3716   9.6856   9.7737   9.9080
    10.1378  10.2161  10.4086  10.4767  10.5225  10.6828

     occupation numbers 
     1.0000   1.0000   1.0000   1.0000   1.0000   1.0000   1.0000   1.0000
     1.0000   1.0000   1.0000   1.0000   1.0000   1.0000   1.0000   1.0000
     1.0000   1.0000   1.0000   1.0000   1.0000   1.0000   1.0000   1.0000
     1.0000   1.0000   1.0000   1.0000   1.0000   1.0000   1.0000   1.0000
     1.0000   1.0000   1.0000   1.0000   1.0000   1.0000   1.0000   1.0000
     1.0000   1.0000   1.0000   1.0000   1.0000   1.0000   1.0000   1.0000
     1.0000   1.0000   1.0000   1.0000   1.0000   1.0000   1.0000   1.0000
     1.0000   1.0000   1.0000   1.0000   1.0000   1.0000   1.0000   1.0000
     1.0000   1.0000   1.0000   1.0000   1.0000   1.0000   1.0000   0.9999
     0.0000   0.0000   0.0000   0.0000   0.0000   0.0000   0.0000   0.0000
     0.0000   0.0000   0.0000   0.0000   0.0000   0.0000

          k =-0.8838 0.1763 0.1765 (  8016 PWs)   bands (ev):

   -17.2710 -17.2608 -17.2507 -17.2266 -17.2242 -17.1514 -17.1457 -17.1408
   -17.1213 -17.1199 -17.0757 -17.0699 -17.0604 -17.0443 -17.0420 -17.0257
   -17.0115 -17.0023 -16.9890 -16.9880 -16.9822 -16.9803 -16.9765 -16.9521
   -16.9511 -16.9388 -16.9350 -16.9213 -16.9155 -16.9103 -16.9085 -16.9057
   -16.9031 -16.8948 -16.8907 -16.8885 -16.8866 -16.8802 -16.8667 -16.8664
    -4.4791  -3.9262  -3.4375  -3.0891  -2.9040  -2.3076  -1.8849  -1.7525
    -0.1047  -0.0529   0.3225   0.9671   1.2162   1.9049   2.2370   3.0226
     3.1555   3.3064   3.6586   3.7970   3.9561   4.2481   4.2699   4.5390
     4.8683   5.0263   5.2666   5.3881   5.4623   5.9935   6.0783   6.6503
     8.5316   8.9866   9.2939   9.4784   9.5960   9.6433   9.9278  10.1223
    10.1869  10.4828  10.6950  10.8448  11.0423  11.1969

     occupation numbers 
     1.0000   1.0000   1.0000   1.0000   1.0000   1.0000   1.0000   1.0000
     1.0000   1.0000   1.0000   1.0000   1.0000   1.0000   1.0000   1.0000
     1.0000   1.0000   1.0000   1.0000   1.0000   1.0000   1.0000   1.0000
     1.0000   1.0000   1.0000   1.0000   1.0000   1.0000   1.0000   1.0000
     1.0000   1.0000   1.0000   1.0000   1.0000   1.0000   1.0000   1.0000
     1.0000   1.0000   1.0000   1.0000   1.0000   1.0000   1.0000   1.0000
     1.0000   1.0000   1.0000   1.0000   1.0000   1.0000   1.0000   1.0000
     1.0000   1.0000   1.0000   1.0000   1.0000   1.0000   1.0000   1.0000
     1.0000   1.0000   1.0000   1.0000   1.0000   1.0000   1.0000   1.0000
     0.0000   0.0000   0.0000   0.0000   0.0000   0.0000   0.0000   0.0000
     0.0000   0.0000   0.0000   0.0000   0.0000   0.0000

          k =-0.7073 0.3534-0.0002 (  8004 PWs)   bands (ev):

   -17.2710 -17.2608 -17.2507 -17.2266 -17.2242 -17.1515 -17.1455 -17.1409
   -17.1213 -17.1199 -17.0758 -17.0698 -17.0604 -17.0443 -17.0418 -17.0257
   -17.0116 -17.0023 -16.9889 -16.9880 -16.9823 -16.9803 -16.9767 -16.9521
   -16.9511 -16.9386 -16.9352 -16.9206 -16.9158 -16.9098 -16.9083 -16.9055
   -16.9035 -16.8949 -16.8908 -16.8886 -16.8867 -16.8803 -16.8668 -16.8663
    -4.1678  -3.8763  -3.7675  -3.6301  -2.3662  -2.1881  -2.0271  -1.9814
     0.0780   0.1867   0.3405   0.5654   2.2475   2.3944   2.6009   2.7562
     2.9947   3.0502   3.0982   3.1527   4.2724   4.3971   4.4902   4.5535
     4.6558   4.7249   4.8003   4.8643   5.6179   5.7831   5.9580   6.1345
     9.4508   9.5628   9.6450   9.6876   9.9489   9.9929  10.1466  10.3143
    10.6259  10.7120  10.7819  10.8483  11.4055  11.5835

     occupation numbers 
     1.0000   1.0000   1.0000   1.0000   1.0000   1.0000   1.0000   1.0000
     1.0000   1.0000   1.0000   1.0000   1.0000   1.0000   1.0000   1.0000
     1.0000   1.0000   1.0000   1.0000   1.0000   1.0000   1.0000   1.0000
     1.0000   1.0000   1.0000   1.0000   1.0000   1.0000   1.0000   1.0000
     1.0000   1.0000   1.0000   1.0000   1.0000   1.0000   1.0000   1.0000
     1.0000   1.0000   1.0000   1.0000   1.0000   1.0000   1.0000   1.0000
     1.0000   1.0000   1.0000   1.0000   1.0000   1.0000   1.0000   1.0000
     1.0000   1.0000   1.0000   1.0000   1.0000   1.0000   1.0000   1.0000
     1.0000   1.0000   1.0000   1.0000   1.0000   1.0000   1.0000   1.0000
     0.0000   0.0000   0.0000   0.0000   0.0000   0.0000   0.0000   0.0000
     0.0000   0.0000   0.0000   0.0000   0.0000   0.0000

          k =-0.3538 0.3536-0.0002 (  8029 PWs)   bands (ev):

   -17.2710 -17.2609 -17.2506 -17.2267 -17.2244 -17.1516 -17.1458 -17.1408
   -17.1214 -17.1199 -17.0759 -17.0697 -17.0607 -17.0444 -17.0421 -17.0257
   -17.0115 -17.0022 -16.9888 -16.9877 -16.9827 -16.9806 -16.9769 -16.9524
   -16.9512 -16.9386 -16.9349 -16.9205 -16.9159 -16.9103 -16.9085 -16.9053
   -16.9033 -16.8948 -16.8909 -16.8887 -16.8867 -16.8802 -16.8669 -16.8664
    -4.6483  -3.7513  -3.5843  -2.7434  -2.5466  -2.3861  -2.2970  -1.6289
    -0.2521   0.0907   0.1881   0.7607   0.8536   1.6240   1.7774   2.9224
     3.5798   3.7729   3.8782   3.9676   4.3159   4.3823   4.6128   4.7312
     5.0204   5.1125   5.3873   5.4480   5.5689   5.6852   5.7969   6.9912
     8.3474   9.0067   9.1062   9.3153   9.3322   9.6951   9.7400   9.9986
    10.0963  10.1640  10.4188  10.5022  10.5867  10.6577

     occupation numbers 
     1.0000   1.0000   1.0000   1.0000   1.0000   1.0000   1.0000   1.0000
     1.0000   1.0000   1.0000   1.0000   1.0000   1.0000   1.0000   1.0000
     1.0000   1.0000   1.0000   1.0000   1.0000   1.0000   1.0000   1.0000
     1.0000   1.0000   1.0000   1.0000   1.0000   1.0000   1.0000   1.0000
     1.0000   1.0000   1.0000   1.0000   1.0000   1.0000   1.0000   1.0000
     1.0000   1.0000   1.0000   1.0000   1.0000   1.0000   1.0000   1.0000
     1.0000   1.0000   1.0000   1.0000   1.0000   1.0000   1.0000   1.0000
     1.0000   1.0000   1.0000   1.0000   1.0000   1.0000   1.0000   1.0000
     1.0000   1.0000   1.0000   1.0000   1.0000   1.0000   1.0000   1.0000
     0.0000   0.0000   0.0000   0.0000   0.0000   0.0000   0.0000   0.0000
     0.0000   0.0000   0.0000   0.0000   0.0000   0.0000

          k =-0.1773 0.5307-0.1769 (  8013 PWs)   bands (ev):

   -17.2711 -17.2610 -17.2504 -17.2266 -17.2243 -17.1514 -17.1459 -17.1407
   -17.1213 -17.1198 -17.0759 -17.0695 -17.0607 -17.0444 -17.0419 -17.0256
   -17.0115 -17.0022 -16.9887 -16.9877 -16.9828 -16.9806 -16.9768 -16.9523
   -16.9512 -16.9383 -16.9349 -16.9199 -16.9165 -16.9107 -16.9082 -16.9049
   -16.9039 -16.8946 -16.8908 -16.8887 -16.8868 -16.8800 -16.8667 -16.8663
    -4.4778  -3.9597  -3.3884  -3.0787  -2.9092  -2.3256  -1.9211  -1.6976
    -0.0908  -0.0328   0.2526   0.9898   1.0753   1.8361   2.3263   3.0298
     3.1907   3.3514   3.7617   3.8547   4.0666   4.2082   4.2842   4.6256
     4.8722   4.9854   5.2231   5.3184   5.4912   5.9458   5.9905   6.5392
     8.5360   8.9653   9.2664   9.4644   9.4985   9.6093   9.9608  10.1208
    10.1996  10.5495  10.6469  10.8891  10.9827  11.2334

     occupation numbers 
     1.0000   1.0000   1.0000   1.0000   1.0000   1.0000   1.0000   1.0000
     1.0000   1.0000   1.0000   1.0000   1.0000   1.0000   1.0000   1.0000
     1.0000   1.0000   1.0000   1.0000   1.0000   1.0000   1.0000   1.0000
     1.0000   1.0000   1.0000   1.0000   1.0000   1.0000   1.0000   1.0000
     1.0000   1.0000   1.0000   1.0000   1.0000   1.0000   1.0000   1.0000
     1.0000   1.0000   1.0000   1.0000   1.0000   1.0000   1.0000   1.0000
     1.0000   1.0000   1.0000   1.0000   1.0000   1.0000   1.0000   1.0000
     1.0000   1.0000   1.0000   1.0000   1.0000   1.0000   1.0000   1.0000
     1.0000   1.0000   1.0000   1.0000   1.0000   1.0000   1.0000   1.0000
     0.0000   0.0000   0.0000   0.0000   0.0000   0.0000   0.0000   0.0000
     0.0000   0.0000   0.0000   0.0000   0.0000   0.0000

          k =-0.7068-0.0006 0.3534 (  8004 PWs)   bands (ev):

   -17.2710 -17.2609 -17.2506 -17.2265 -17.2242 -17.1514 -17.1457 -17.1407
   -17.1212 -17.1198 -17.0758 -17.0698 -17.0605 -17.0443 -17.0419 -17.0257
   -17.0114 -17.0023 -16.9887 -16.9877 -16.9827 -16.9805 -16.9767 -16.9522
   -16.9511 -16.9386 -16.9348 -16.9206 -16.9159 -16.9104 -16.9083 -16.9053
   -16.9034 -16.8949 -16.8908 -16.8886 -16.8867 -16.8803 -16.8667 -16.8663
    -4.1613  -3.8946  -3.7903  -3.5786  -2.4375  -2.1706  -2.0549  -1.9196
     0.1239   0.2168   0.3685   0.4565   2.2509   2.4254   2.5764   2.7594
     2.9534   3.0167   3.1355   3.1938   4.2169   4.3291   4.5474   4.6086
     4.6515   4.7300   4.7771   4.8930   5.7131   5.8227   5.9241   6.0132
     9.4667   9.5919   9.6445   9.7634   9.9210  10.0252  10.1292  10.2844
    10.5935  10.6576  10.7505  10.8410  11.4703  11.5429

     occupation numbers 
     1.0000   1.0000   1.0000   1.0000   1.0000   1.0000   1.0000   1.0000
     1.0000   1.0000   1.0000   1.0000   1.0000   1.0000   1.0000   1.0000
     1.0000   1.0000   1.0000   1.0000   1.0000   1.0000   1.0000   1.0000
     1.0000   1.0000   1.0000   1.0000   1.0000   1.0000   1.0000   1.0000
     1.0000   1.0000   1.0000   1.0000   1.0000   1.0000   1.0000   1.0000
     1.0000   1.0000   1.0000   1.0000   1.0000   1.0000   1.0000   1.0000
     1.0000   1.0000   1.0000   1.0000   1.0000   1.0000   1.0000   1.0000
     1.0000   1.0000   1.0000   1.0000   1.0000   1.0000   1.0000   1.0000
     1.0000   1.0000   1.0000   1.0000   1.0000   1.0000   1.0000   1.0000
     0.0000   0.0000   0.0000   0.0000   0.0000   0.0000   0.0000   0.0000
     0.0000   0.0000   0.0000   0.0000   0.0000   0.0000

          k =-0.5303 0.1765 0.1766 (  8017 PWs)   bands (ev):

   -17.2710 -17.2609 -17.2506 -17.2267 -17.2242 -17.1515 -17.1455 -17.1408
   -17.1213 -17.1199 -17.0758 -17.0699 -17.0604 -17.0444 -17.0420 -17.0257
   -17.0114 -17.0023 -16.9888 -16.9877 -16.9826 -16.9805 -16.9768 -16.9522
   -16.9512 -16.9387 -16.9349 -16.9210 -16.9154 -16.9099 -16.9085 -16.9055
   -16.9030 -16.8950 -16.8909 -16.8885 -16.8866 -16.8804 -16.8668 -16.8664
    -4.4680  -3.9612  -3.4252  -3.0951  -2.8756  -2.3058  -1.8609  -1.7788
    -0.1098  -0.0044   0.2719   0.9637   1.1826   1.8278   2.2952   3.0200
     3.1677   3.3198   3.7027   3.8123   3.9654   4.2068   4.3102   4.5741
     4.8453   5.0508   5.2699   5.4045   5.4553   5.9637   6.0486   6.6294
     8.5201   9.0048   9.3029   9.4199   9.5372   9.6413   9.9477  10.1410
    10.2004  10.4988  10.7399  10.8054  11.0375  11.2314

     occupation numbers 
     1.0000   1.0000   1.0000   1.0000   1.0000   1.0000   1.0000   1.0000
     1.0000   1.0000   1.0000   1.0000   1.0000   1.0000   1.0000   1.0000
     1.0000   1.0000   1.0000   1.0000   1.0000   1.0000   1.0000   1.0000
     1.0000   1.0000   1.0000   1.0000   1.0000   1.0000   1.0000   1.0000
     1.0000   1.0000   1.0000   1.0000   1.0000   1.0000   1.0000   1.0000
     1.0000   1.0000   1.0000   1.0000   1.0000   1.0000   1.0000   1.0000
     1.0000   1.0000   1.0000   1.0000   1.0000   1.0000   1.0000   1.0000
     1.0000   1.0000   1.0000   1.0000   1.0000   1.0000   1.0000   1.0000
     1.0000   1.0000   1.0000   1.0000   1.0000   1.0000   1.0000   1.0000
     0.0000   0.0000   0.0000   0.0000   0.0000   0.0000   0.0000   0.0000
     0.0000   0.0000   0.0000   0.0000   0.0000   0.0000

          k = 0.3535-0.3534-0.3534 (  8030 PWs)   bands (ev):

   -17.2710 -17.2610 -17.2506 -17.2267 -17.2244 -17.1514 -17.1456 -17.1407
   -17.1214 -17.1199 -17.0760 -17.0699 -17.0606 -17.0446 -17.0421 -17.0256
   -17.0115 -17.0023 -16.9888 -16.9878 -16.9828 -16.9806 -16.9768 -16.9524
   -16.9513 -16.9385 -16.9350 -16.9210 -16.9153 -16.9099 -16.9086 -16.9055
   -16.9029 -16.8950 -16.8910 -16.8886 -16.8867 -16.8804 -16.8669 -16.8665
    -4.5015  -4.2644  -2.9080  -2.6972  -2.5472  -2.3922  -2.3054  -2.2435
     0.2333   0.3767   0.4019   0.5749   0.6232   0.8386   2.8855   3.0107
     3.4724   3.5118   3.6588   3.7229   3.8739   3.9389   4.7787   4.9028
     5.0395   5.0767   5.1291   5.2506   6.4383   6.5049   6.5464   6.7944
     8.4458   8.4833   8.5943   8.6590   8.8031   8.8543   8.9750   9.0150
    10.7130  10.8422  10.8839  11.0711  11.4596  11.5974

     occupation numbers 
     1.0000   1.0000   1.0000   1.0000   1.0000   1.0000   1.0000   1.0000
     1.0000   1.0000   1.0000   1.0000   1.0000   1.0000   1.0000   1.0000
     1.0000   1.0000   1.0000   1.0000   1.0000   1.0000   1.0000   1.0000
     1.0000   1.0000   1.0000   1.0000   1.0000   1.0000   1.0000   1.0000
     1.0000   1.0000   1.0000   1.0000   1.0000   1.0000   1.0000   1.0000
     1.0000   1.0000   1.0000   1.0000   1.0000   1.0000   1.0000   1.0000
     1.0000   1.0000   1.0000   1.0000   1.0000   1.0000   1.0000   1.0000
     1.0000   1.0000   1.0000   1.0000   1.0000   1.0000   1.0000   1.0000
     1.0000   1.0000   1.0000   1.0000   1.0000   1.0000   1.0000   1.0000
     0.0000   0.0000   0.0000   0.0000   0.0000   0.0000   0.0000   0.0000
     0.0000   0.0000   0.0000   0.0000   0.0000   0.0000

          k = 0.5300-0.1763-0.5302 (  8015 PWs)   bands (ev):

   -17.2710 -17.2610 -17.2505 -17.2266 -17.2243 -17.1513 -17.1457 -17.1406
   -17.1213 -17.1198 -17.0759 -17.0697 -17.0607 -17.0444 -17.0420 -17.0256
   -17.0115 -17.0022 -16.9887 -16.9877 -16.9828 -16.9806 -16.9767 -16.9524
   -16.9511 -16.9385 -16.9349 -16.9205 -16.9159 -16.9104 -16.9084 -16.9052
   -16.9033 -16.8948 -16.8909 -16.8886 -16.8867 -16.8802 -16.8668 -16.8663
    -4.4772  -3.9407  -3.4578  -3.0204  -2.8819  -2.3965  -1.8917  -1.7088
    -0.0947  -0.0268   0.3064   0.9767   1.0998   1.8966   2.2934   3.0232
     3.1354   3.3013   3.7090   3.8554   3.9606   4.2332   4.3144   4.5749
     4.9283   5.0103   5.1909   5.3989   5.4454   5.9531   6.0513   6.5871
     8.5345   8.9966   9.3132   9.4852   9.5402   9.7414   9.9564  10.0396
    10.1976  10.5385  10.6867  10.7951  10.9799  11.2403

     occupation numbers 
     1.0000   1.0000   1.0000   1.0000   1.0000   1.0000   1.0000   1.0000
     1.0000   1.0000   1.0000   1.0000   1.0000   1.0000   1.0000   1.0000
     1.0000   1.0000   1.0000   1.0000   1.0000   1.0000   1.0000   1.0000
     1.0000   1.0000   1.0000   1.0000   1.0000   1.0000   1.0000   1.0000
     1.0000   1.0000   1.0000   1.0000   1.0000   1.0000   1.0000   1.0000
     1.0000   1.0000   1.0000   1.0000   1.0000   1.0000   1.0000   1.0000
     1.0000   1.0000   1.0000   1.0000   1.0000   1.0000   1.0000   1.0000
     1.0000   1.0000   1.0000   1.0000   1.0000   1.0000   1.0000   1.0000
     1.0000   1.0000   1.0000   1.0000   1.0000   1.0000   1.0000   1.0000
     0.0000   0.0000   0.0000   0.0000   0.0000   0.0000   0.0000   0.0000
     0.0000   0.0000   0.0000   0.0000   0.0000   0.0000

          k = 0.0004-0.7076 0.0001 (  7992 PWs)   bands (ev):

   -17.2709 -17.2609 -17.2503 -17.2263 -17.2243 -17.1511 -17.1457 -17.1403
   -17.1212 -17.1195 -17.0758 -17.0695 -17.0606 -17.0441 -17.0419 -17.0254
   -17.0114 -17.0020 -16.9885 -16.9877 -16.9827 -16.9804 -16.9765 -16.9523
   -16.9508 -16.9382 -16.9347 -16.9197 -16.9164 -16.9106 -16.9082 -16.9047
   -16.9037 -16.8946 -16.8907 -16.8885 -16.8866 -16.8799 -16.8667 -16.8661
    -4.2763  -3.9959  -3.2820  -3.2424  -3.0381  -3.0074  -1.4852  -1.2183
    -0.4432  -0.4317   1.3013   1.3114   1.4034   1.4299   3.0370   3.1373
     3.2882   3.3545   3.3735   3.4818   3.5810   3.6388   3.6684   3.6865
     5.1860   5.1933   5.4258   5.5616   5.8592   5.8770   6.0667   6.1183
     8.2773   8.3619   9.3904   9.4326   9.6144   9.6638  10.2683  10.3567
    11.4367  11.5460  11.6592  11.7271  11.7960  11.8358

     occupation numbers 
     1.0000   1.0000   1.0000   1.0000   1.0000   1.0000   1.0000   1.0000
     1.0000   1.0000   1.0000   1.0000   1.0000   1.0000   1.0000   1.0000
     1.0000   1.0000   1.0000   1.0000   1.0000   1.0000   1.0000   1.0000
     1.0000   1.0000   1.0000   1.0000   1.0000   1.0000   1.0000   1.0000
     1.0000   1.0000   1.0000   1.0000   1.0000   1.0000   1.0000   1.0000
     1.0000   1.0000   1.0000   1.0000   1.0000   1.0000   1.0000   1.0000
     1.0000   1.0000   1.0000   1.0000   1.0000   1.0000   1.0000   1.0000
     1.0000   1.0000   1.0000   1.0000   1.0000   1.0000   1.0000   1.0000
     1.0000   1.0000   1.0000   1.0000   1.0000   1.0000   1.0000   1.0000
     0.0000   0.0000   0.0000   0.0000   0.0000   0.0000   0.0000   0.0000
     0.0000   0.0000   0.0000   0.0000   0.0000   0.0000

          k = 0.5305-0.5303-0.1766 (  8017 PWs)   bands (ev):

   -17.2710 -17.2610 -17.2506 -17.2266 -17.2242 -17.1514 -17.1456 -17.1407
   -17.1213 -17.1199 -17.0759 -17.0697 -17.0605 -17.0444 -17.0419 -17.0256
   -17.0117 -17.0022 -16.9889 -16.9880 -16.9825 -16.9804 -16.9766 -16.9522
   -16.9512 -16.9384 -16.9352 -16.9205 -16.9157 -16.9099 -16.9084 -16.9055
   -16.9034 -16.8949 -16.8908 -16.8886 -16.8867 -16.8803 -16.8668 -16.8664
    -4.4760  -3.9449  -3.4683  -3.0033  -2.8740  -2.4045  -1.8543  -1.7471
    -0.1496  -0.0394   0.4190   0.9841   1.0167   1.8872   2.3252   3.0621
     3.1925   3.3375   3.6098   3.8330   3.9430   4.2281   4.2918   4.5451
     4.9247   4.9750   5.2534   5.3833   5.5111   5.9756   6.1469   6.4822
     8.5118   8.9278   9.2814   9.4475   9.5654   9.7030   9.9785  10.0348
    10.2217  10.5135  10.8255  10.9443  11.0971  11.1643

     occupation numbers 
     1.0000   1.0000   1.0000   1.0000   1.0000   1.0000   1.0000   1.0000
     1.0000   1.0000   1.0000   1.0000   1.0000   1.0000   1.0000   1.0000
     1.0000   1.0000   1.0000   1.0000   1.0000   1.0000   1.0000   1.0000
     1.0000   1.0000   1.0000   1.0000   1.0000   1.0000   1.0000   1.0000
     1.0000   1.0000   1.0000   1.0000   1.0000   1.0000   1.0000   1.0000
     1.0000   1.0000   1.0000   1.0000   1.0000   1.0000   1.0000   1.0000
     1.0000   1.0000   1.0000   1.0000   1.0000   1.0000   1.0000   1.0000
     1.0000   1.0000   1.0000   1.0000   1.0000   1.0000   1.0000   1.0000
     1.0000   1.0000   1.0000   1.0000   1.0000   1.0000   1.0000   1.0000
     0.0000   0.0000   0.0000   0.0000   0.0000   0.0000   0.0000   0.0000
     0.0000   0.0000   0.0000   0.0000   0.0000   0.0000

          k = 0.7070-0.3532-0.3534 (  8030 PWs)   bands (ev):

   -17.2711 -17.2610 -17.2507 -17.2266 -17.2244 -17.1514 -17.1457 -17.1407
   -17.1214 -17.1199 -17.0759 -17.0698 -17.0607 -17.0445 -17.0420 -17.0256
   -17.0117 -17.0022 -16.9889 -16.9881 -16.9825 -16.9803 -16.9765 -16.9523
   -16.9511 -16.9387 -16.9351 -16.9212 -16.9155 -16.9103 -16.9086 -16.9057
   -16.9030 -16.8948 -16.8908 -16.8884 -16.8868 -16.8802 -16.8669 -16.8663
    -4.6524  -3.6913  -3.6094  -2.7871  -2.6334  -2.3582  -2.2526  -1.6079
    -0.3179   0.1141   0.2097   0.7753   1.0234   1.6304   1.6977   2.9310
     3.5810   3.6779   3.8462   3.8945   4.2676   4.3795   4.4618   4.7879
     5.0462   5.1581   5.3439   5.4056   5.5838   5.7563   5.8771   7.1371
     8.3908   9.0339   9.1015   9.2596   9.4104   9.7665   9.8278   9.8728
    10.0527  10.1229  10.4411  10.5418  10.6024  10.7024

     occupation numbers 
     1.0000   1.0000   1.0000   1.0000   1.0000   1.0000   1.0000   1.0000
     1.0000   1.0000   1.0000   1.0000   1.0000   1.0000   1.0000   1.0000
     1.0000   1.0000   1.0000   1.0000   1.0000   1.0000   1.0000   1.0000
     1.0000   1.0000   1.0000   1.0000   1.0000   1.0000   1.0000   1.0000
     1.0000   1.0000   1.0000   1.0000   1.0000   1.0000   1.0000   1.0000
     1.0000   1.0000   1.0000   1.0000   1.0000   1.0000   1.0000   1.0000
     1.0000   1.0000   1.0000   1.0000   1.0000   1.0000   1.0000   1.0000
     1.0000   1.0000   1.0000   1.0000   1.0000   1.0000   1.0000   1.0000
     1.0000   1.0000   1.0000   1.0000   1.0000   1.0000   1.0000   0.9985
     0.0000   0.0000   0.0000   0.0000   0.0000   0.0000   0.0000   0.0000
     0.0000   0.0000   0.0000   0.0000   0.0000   0.0000

          k = 0.1775-0.8846 0.1770 (  8015 PWs)   bands (ev):

   -17.2710 -17.2610 -17.2505 -17.2265 -17.2243 -17.1512 -17.1458 -17.1406
   -17.1213 -17.1198 -17.0759 -17.0697 -17.0607 -17.0443 -17.0420 -17.0256
   -17.0116 -17.0021 -16.9889 -16.9880 -16.9825 -16.9803 -16.9764 -16.9522
   -16.9510 -16.9386 -16.9350 -16.9207 -16.9159 -16.9108 -16.9084 -16.9054
   -16.9035 -16.8946 -16.8907 -16.8886 -16.8867 -16.8801 -16.8667 -16.8663
    -4.4852  -3.9276  -3.3966  -3.0969  -2.9090  -2.3529  -1.9200  -1.7033
    -0.0896  -0.0345   0.3336   0.9977   1.0861   1.9440   2.2908   3.0273
     3.1871   3.2834   3.6220   3.8019   3.9425   4.2286   4.2910   4.5421
     4.9135   5.0135   5.2667   5.3483   5.5097   5.9782   6.1249   6.5239
     8.5453   8.9769   9.2980   9.4390   9.5324   9.6665  10.0087  10.1091
    10.1765  10.5637  10.7997  10.8503  11.0603  11.2097

     occupation numbers 
     1.0000   1.0000   1.0000   1.0000   1.0000   1.0000   1.0000   1.0000
     1.0000   1.0000   1.0000   1.0000   1.0000   1.0000   1.0000   1.0000
     1.0000   1.0000   1.0000   1.0000   1.0000   1.0000   1.0000   1.0000
     1.0000   1.0000   1.0000   1.0000   1.0000   1.0000   1.0000   1.0000
     1.0000   1.0000   1.0000   1.0000   1.0000   1.0000   1.0000   1.0000
     1.0000   1.0000   1.0000   1.0000   1.0000   1.0000   1.0000   1.0000
     1.0000   1.0000   1.0000   1.0000   1.0000   1.0000   1.0000   1.0000
     1.0000   1.0000   1.0000   1.0000   1.0000   1.0000   1.0000   1.0000
     1.0000   1.0000   1.0000   1.0000   1.0000   1.0000   1.0000   1.0000
     0.0000   0.0000   0.0000   0.0000   0.0000   0.0000   0.0000   0.0000
     0.0000   0.0000   0.0000   0.0000   0.0000   0.0000

          k = 0.3540-0.7074 0.0002 (  8004 PWs)   bands (ev):

   -17.2710 -17.2611 -17.2504 -17.2266 -17.2242 -17.1513 -17.1458 -17.1406
   -17.1212 -17.1198 -17.0760 -17.0695 -17.0607 -17.0443 -17.0419 -17.0256
   -17.0117 -17.0022 -16.9889 -16.9879 -16.9825 -16.9804 -16.9765 -16.9522
   -16.9511 -16.9384 -16.9352 -16.9200 -16.9164 -16.9104 -16.9082 -16.9051
   -16.9039 -16.8947 -16.8908 -16.8887 -16.8867 -16.8802 -16.8667 -16.8663
    -4.1792  -3.8931  -3.7734  -3.5667  -2.4235  -2.1803  -2.0666  -1.9387
     0.1581   0.2630   0.3363   0.4050   2.2868   2.4421   2.5702   2.7322
     2.9834   3.0392   3.1173   3.1857   4.2860   4.3597   4.4754   4.5527
     4.6644   4.7047   4.7704   4.8927   5.7614   5.8293   5.9013   5.9750
     9.4919   9.5695   9.6780   9.7590   9.9160  10.0324  10.1248  10.2871
    10.5859  10.6578  10.7497  10.8244  11.4669  11.5741

     occupation numbers 
     1.0000   1.0000   1.0000   1.0000   1.0000   1.0000   1.0000   1.0000
     1.0000   1.0000   1.0000   1.0000   1.0000   1.0000   1.0000   1.0000
     1.0000   1.0000   1.0000   1.0000   1.0000   1.0000   1.0000   1.0000
     1.0000   1.0000   1.0000   1.0000   1.0000   1.0000   1.0000   1.0000
     1.0000   1.0000   1.0000   1.0000   1.0000   1.0000   1.0000   1.0000
     1.0000   1.0000   1.0000   1.0000   1.0000   1.0000   1.0000   1.0000
     1.0000   1.0000   1.0000   1.0000   1.0000   1.0000   1.0000   1.0000
     1.0000   1.0000   1.0000   1.0000   1.0000   1.0000   1.0000   1.0000
     1.0000   1.0000   1.0000   1.0000   1.0000   1.0000   1.0000   1.0000
     0.0000   0.0000   0.0000   0.0000   0.0000   0.0000   0.0000   0.0000
     0.0000   0.0000   0.0000   0.0000   0.0000   0.0000

          k =-0.0006 0.0005-0.7072 (  7992 PWs)   bands (ev):

   -17.2708 -17.2608 -17.2504 -17.2265 -17.2241 -17.1513 -17.1455 -17.1406
   -17.1211 -17.1198 -17.0757 -17.0694 -17.0604 -17.0443 -17.0416 -17.0255
   -17.0117 -17.0020 -16.9891 -16.9879 -16.9820 -16.9801 -16.9764 -16.9518
   -16.9511 -16.9383 -16.9352 -16.9199 -16.9161 -16.9098 -16.9080 -16.9051
   -16.9040 -16.8947 -16.8905 -16.8885 -16.8866 -16.8802 -16.8666 -16.8662
    -4.2715  -4.0055  -3.3039  -3.2555  -3.0350  -2.9570  -1.3816  -1.3326
    -0.5612  -0.3361   1.2842   1.3168   1.3874   1.4719   3.1150   3.1683
     3.3128   3.3356   3.4261   3.5101   3.5509   3.5835   3.6129   3.6271
     5.1042   5.1800   5.4454   5.5414   5.8867   5.9733   6.0439   6.1532
     8.2375   8.3770   9.3959   9.4520   9.5159   9.6964  10.2990  10.3432
    11.5491  11.6139  11.6177  11.7043  11.7356  11.8083

     occupation numbers 
     1.0000   1.0000   1.0000   1.0000   1.0000   1.0000   1.0000   1.0000
     1.0000   1.0000   1.0000   1.0000   1.0000   1.0000   1.0000   1.0000
     1.0000   1.0000   1.0000   1.0000   1.0000   1.0000   1.0000   1.0000
     1.0000   1.0000   1.0000   1.0000   1.0000   1.0000   1.0000   1.0000
     1.0000   1.0000   1.0000   1.0000   1.0000   1.0000   1.0000   1.0000
     1.0000   1.0000   1.0000   1.0000   1.0000   1.0000   1.0000   1.0000
     1.0000   1.0000   1.0000   1.0000   1.0000   1.0000   1.0000   1.0000
     1.0000   1.0000   1.0000   1.0000   1.0000   1.0000   1.0000   1.0000
     1.0000   1.0000   1.0000   1.0000   1.0000   1.0000   1.0000   1.0000
     0.0000   0.0000   0.0000   0.0000   0.0000   0.0000   0.0000   0.0000
     0.0000   0.0000   0.0000   0.0000   0.0000   0.0000

          k = 0.1759 0.1776-0.8840 (  8015 PWs)   bands (ev):

   -17.2710 -17.2610 -17.2506 -17.2266 -17.2243 -17.1514 -17.1457 -17.1407
   -17.1213 -17.1199 -17.0759 -17.0697 -17.0605 -17.0444 -17.0419 -17.0257
   -17.0118 -17.0021 -16.9892 -16.9881 -16.9821 -16.9801 -16.9764 -16.9521
   -16.9511 -16.9386 -16.9353 -16.9208 -16.9158 -16.9103 -16.9084 -16.9056
   -16.9035 -16.8947 -16.8906 -16.8886 -16.8867 -16.8802 -16.8667 -16.8663
    -4.4863  -3.9209  -3.4200  -3.0297  -2.9899  -2.2803  -1.8585  -1.8052
    -0.1281   0.0124   0.2490   1.0441   1.1780   1.9168   2.2339   3.0378
     3.1462   3.2652   3.7254   3.8458   3.8994   4.2533   4.3138   4.5441
     4.8869   4.9511   5.2429   5.3699   5.4807   5.9554   6.0469   6.6751
     8.4990   9.0452   9.3352   9.5191   9.5852   9.6719   9.9764  10.0874
    10.1799  10.4861  10.6565  10.7581  10.9618  11.2548

     occupation numbers 
     1.0000   1.0000   1.0000   1.0000   1.0000   1.0000   1.0000   1.0000
     1.0000   1.0000   1.0000   1.0000   1.0000   1.0000   1.0000   1.0000
     1.0000   1.0000   1.0000   1.0000   1.0000   1.0000   1.0000   1.0000
     1.0000   1.0000   1.0000   1.0000   1.0000   1.0000   1.0000   1.0000
     1.0000   1.0000   1.0000   1.0000   1.0000   1.0000   1.0000   1.0000
     1.0000   1.0000   1.0000   1.0000   1.0000   1.0000   1.0000   1.0000
     1.0000   1.0000   1.0000   1.0000   1.0000   1.0000   1.0000   1.0000
     1.0000   1.0000   1.0000   1.0000   1.0000   1.0000   1.0000   1.0000
     1.0000   1.0000   1.0000   1.0000   1.0000   1.0000   1.0000   1.0000
     0.0000   0.0000   0.0000   0.0000   0.0000   0.0000   0.0000   0.0000
     0.0000   0.0000   0.0000   0.0000   0.0000   0.0000

          k =-0.3537-0.3538-0.3536 (  8026 PWs)   bands (ev):

   -17.2710 -17.2610 -17.2507 -17.2266 -17.2244 -17.1513 -17.1458 -17.1407
   -17.1214 -17.1200 -17.0759 -17.0698 -17.0606 -17.0444 -17.0421 -17.0257
   -17.0116 -17.0021 -16.9892 -16.9882 -16.9821 -16.9802 -16.9762 -16.9522
   -16.9510 -16.9388 -16.9352 -16.9214 -16.9155 -16.9107 -16.9086 -16.9059
   -16.9032 -16.8946 -16.8905 -16.8885 -16.8867 -16.8801 -16.8668 -16.8664
    -4.5317  -4.2152  -2.8673  -2.7133  -2.5878  -2.5035  -2.2534  -2.2153
     0.2248   0.2956   0.4289   0.5960   0.6369   1.0088   2.8318   3.0418
     3.4894   3.5060   3.5893   3.6554   3.8451   3.8857   4.8255   4.8957
     4.9349   5.0819   5.2258   5.2615   6.3613   6.3997   6.6617   6.9088
     8.3841   8.4613   8.6784   8.7618   8.8083   8.8537   8.9596   9.0353
    10.6293  10.7204  11.0002  11.2200  11.4621  11.6079

     occupation numbers 
     1.0000   1.0000   1.0000   1.0000   1.0000   1.0000   1.0000   1.0000
     1.0000   1.0000   1.0000   1.0000   1.0000   1.0000   1.0000   1.0000
     1.0000   1.0000   1.0000   1.0000   1.0000   1.0000   1.0000   1.0000
     1.0000   1.0000   1.0000   1.0000   1.0000   1.0000   1.0000   1.0000
     1.0000   1.0000   1.0000   1.0000   1.0000   1.0000   1.0000   1.0000
     1.0000   1.0000   1.0000   1.0000   1.0000   1.0000   1.0000   1.0000
     1.0000   1.0000   1.0000   1.0000   1.0000   1.0000   1.0000   1.0000
     1.0000   1.0000   1.0000   1.0000   1.0000   1.0000   1.0000   1.0000
     1.0000   1.0000   1.0000   1.0000   1.0000   1.0000   1.0000   1.0000
     0.0000   0.0000   0.0000   0.0000   0.0000   0.0000   0.0000   0.0000
     0.0000   0.0000   0.0000   0.0000   0.0000   0.0000

     the Fermi energy is     7.5641 ev

!    total energy              =   -1781.89315214 Ry
     Harris-Foulkes estimate   =   -1781.89315212 Ry
     estimated scf accuracy    <          8.0E-10 Ry

     The total energy is the sum of the following terms:

     one-electron contribution =   -1183.55746993 Ry
     hartree contribution      =     707.35519928 Ry
     xc contribution           =    -495.18709597 Ry
     ewald contribution        =    -810.50318560 Ry
     smearing contrib. (-TS)   =      -0.00059992 Ry

     convergence has been achieved in  12 iterations

     Forces acting on atoms (Ry/au):

     atom    1 type  1   force =   0.22661959E-01  0.45246233E-01  0.10502795E-01
     atom    2 type  2   force =  -0.32815569E-01 -0.55797619E-02 -0.21785489E-01
     atom    3 type  1   force =  -0.36696319E-01 -0.21858202E-01 -0.31756292E-01
     atom    4 type  2   force =  -0.39470436E-02  0.34793506E-01 -0.36972695E-01
     atom    5 type  1   force =   0.55923236E-02 -0.13474669E-01 -0.41146568E-01
     atom    6 type  2   force =  -0.28110641E-02  0.22347124E-01  0.63662322E-01
     atom    7 type  1   force =   0.31290024E-01 -0.31414043E-01  0.40947000E-01
     atom    8 type  2   force =   0.11636957E-01 -0.27140084E-01  0.31410754E-01
     atom    9 type  1   force =  -0.22241166E-01  0.13545052E-01 -0.43191573E-01
     atom   10 type  2   force =   0.73143533E-02  0.25672879E-01 -0.13621997E-01
     atom   11 type  1   force =  -0.15226308E-01  0.37178084E-01  0.40010806E-01
     atom   12 type  2   force =   0.51718743E-02 -0.37185827E-01  0.10260372E-01
     atom   13 type  1   force =   0.17706955E-01 -0.52777082E-01 -0.34341552E-02
     atom   14 type  2   force =   0.39766611E-02 -0.28968498E-01  0.45362565E-01
     atom   15 type  1   force =  -0.29017833E-01  0.26536788E-01 -0.31889727E-01
     atom   16 type  2   force =   0.37404196E-01  0.13078500E-01 -0.18358117E-01
     The non-local contrib.  to forces
     atom    1 type  1   force =   0.70590031E-02  0.42755501E-01  0.19268269E-01
     atom    2 type  2   force =  -0.34416916E-01  0.13410647E-01 -0.36291133E-01
     atom    3 type  1   force =  -0.34916637E-01 -0.52091441E-02 -0.31990786E-01
     atom    4 type  2   force =   0.95799684E-02  0.19970281E-01  0.96932190E-02
     atom    5 type  1   force =   0.23439864E-02 -0.32758149E-01 -0.19345881E-01
     atom    6 type  2   force =   0.31242889E-01  0.37409795E-02  0.30390862E-01
     atom    7 type  1   force =   0.36616736E-01 -0.12795207E-01  0.40048872E-01
     atom    8 type  2   force =  -0.42962289E-02 -0.45002987E-01 -0.36095096E-02
     atom    9 type  1   force =  -0.23488812E-01  0.18163694E-01 -0.43136740E-01
     atom   10 type  2   force =   0.21264312E-01  0.62164506E-01 -0.23643171E-01
     atom   11 type  1   force =  -0.38435828E-02  0.28743249E-01  0.19978107E-01
     atom   12 type  2   force =  -0.33881877E-01 -0.30015683E-01 -0.60839504E-03
     atom   13 type  1   force =   0.21534820E-01 -0.58809900E-01  0.37597238E-02
     atom   14 type  2   force =  -0.16695170E-01 -0.19375120E-01  0.88702746E-02
     atom   15 type  1   force =  -0.85683790E-02  0.12567564E-01 -0.29421289E-01
     atom   16 type  2   force =   0.28336352E-02  0.20752386E-01  0.19558488E-01
     The ionic contribution  to forces
     atom    1 type  1   force =  -0.20795074E+00  0.82864553E+00  0.20640611E+00
     atom    2 type  2   force =  -0.20893138E+01  0.14062732E+00 -0.17721286E+01
     atom    3 type  1   force =  -0.77429031E+00  0.26049521E+00 -0.61265372E+00
     atom    4 type  2   force =  -0.38160934E+00  0.20694525E+01 -0.78148362E+00
     atom    5 type  1   force =   0.10095382E+00 -0.56890700E+00  0.79002999E-01
     atom    6 type  2   force =   0.54723044E+00  0.16412961E+00  0.30572837E+01
     atom    7 type  1   force =   0.65987160E+00 -0.15177303E-01  0.43793809E+00
     atom    8 type  2   force =   0.31285975E+00 -0.93364057E+00  0.87839638E+00
     atom    9 type  1   force =  -0.42903929E+00 -0.62344800E-01 -0.93327663E+00
     atom   10 type  2   force =   0.11292047E+00  0.93021821E+00  0.11660922E-01
     atom   11 type  1   force =  -0.88530532E-01  0.34420522E+00  0.41678023E+00
     atom   12 type  2   force =  -0.86346762E+00 -0.43877589E+00 -0.96647062E+00
     atom   13 type  1   force =   0.57752715E+00 -0.84518501E+00  0.42863137E+00
     atom   14 type  2   force =   0.29440055E+00 -0.19768557E+01  0.18905900E+00
     atom   15 type  1   force =   0.11545499E+00  0.13590491E+00 -0.52527049E+00
     atom   16 type  2   force =   0.21129829E+01 -0.32792309E-01 -0.11387511E+00
     The local contribution  to forces
     atom    1 type  1   force =   0.22391659E+00 -0.82207160E+00 -0.21338828E+00
     atom    2 type  2   force =   0.20875507E+01 -0.16084144E+00  0.17816941E+01
     atom    3 type  1   force =   0.76897624E+00 -0.27721821E+00  0.60976807E+00
     atom    4 type  2   force =   0.36785904E+00 -0.20508474E+01  0.73353287E+00
     atom    5 type  1   force =  -0.97295926E-01  0.58500404E+00 -0.10244889E+00
     atom    6 type  2   force =  -0.57945331E+00 -0.14199251E+00 -0.30181059E+01
     atom    7 type  1   force =  -0.66162866E+00 -0.44954475E-02 -0.43356467E+00
     atom    8 type  2   force =  -0.29711212E+00  0.94716002E+00 -0.84245125E+00
     atom    9 type  1   force =   0.42810858E+00  0.59197030E-01  0.92877989E+00
     atom   10 type  2   force =  -0.12612247E+00 -0.96300378E+00 -0.29907170E-02
     atom   11 type  1   force =   0.76627972E-01 -0.33336233E+00 -0.39447725E+00
     atom   12 type  2   force =   0.89996830E+00  0.42775097E+00  0.97796685E+00
     atom   13 type  1   force =  -0.57915287E+00  0.84555106E+00 -0.43514488E+00
     atom   14 type  2   force =  -0.27293409E+00  0.19649834E+01 -0.14846977E+00
     atom   15 type  1   force =  -0.13655097E+00 -0.12047459E+00  0.51978707E+00
     atom   16 type  2   force =  -0.20747908E+01  0.26489483E-01  0.76736417E-01
     The core correction contribution to forces
     atom    1 type  1   force =  -0.35883955E-03 -0.40794144E-02 -0.17855941E-02
     atom    2 type  2   force =   0.33581342E-02  0.12292830E-02  0.49694833E-02
     atom    3 type  1   force =   0.35318808E-02  0.69073329E-04  0.31195714E-02
     atom    4 type  2   force =   0.21683215E-03 -0.37716305E-02  0.12701155E-02
     atom    5 type  1   force =  -0.40791686E-03  0.31880892E-02  0.16402382E-02
     atom    6 type  2   force =  -0.18583708E-02 -0.35500233E-02 -0.58968972E-02
     atom    7 type  1   force =  -0.35702686E-02  0.10523108E-02 -0.34739683E-02
     atom    8 type  2   force =   0.19974047E-03  0.43697022E-02 -0.91306805E-03
     atom    9 type  1   force =   0.21774905E-02 -0.14687727E-02  0.44399721E-02
     atom   10 type  2   force =  -0.75572652E-03 -0.37308028E-02  0.13476482E-02
     atom   11 type  1   force =   0.51718544E-03 -0.24068968E-02 -0.22646429E-02
     atom   12 type  2   force =   0.25845770E-02  0.38698924E-02 -0.63832527E-03
     atom   13 type  1   force =  -0.22006167E-02  0.56705293E-02 -0.68096561E-03
     atom   14 type  2   force =  -0.79505364E-03  0.22638107E-02 -0.40916657E-02
     atom   15 type  1   force =   0.64069660E-03 -0.14602805E-02  0.30159579E-02
     atom   16 type  2   force =  -0.36136538E-02 -0.13769662E-02 -0.80257051E-03
     The Hubbard contrib.    to forces
     atom    1 type  1   force =   0.00000000E+00  0.00000000E+00  0.00000000E+00
     atom    2 type  2   force =   0.00000000E+00  0.00000000E+00  0.00000000E+00
     atom    3 type  1   force =   0.00000000E+00  0.00000000E+00  0.00000000E+00
     atom    4 type  2   force =   0.00000000E+00  0.00000000E+00  0.00000000E+00
     atom    5 type  1   force =   0.00000000E+00  0.00000000E+00  0.00000000E+00
     atom    6 type  2   force =   0.00000000E+00  0.00000000E+00  0.00000000E+00
     atom    7 type  1   force =   0.00000000E+00  0.00000000E+00  0.00000000E+00
     atom    8 type  2   force =   0.00000000E+00  0.00000000E+00  0.00000000E+00
     atom    9 type  1   force =   0.00000000E+00  0.00000000E+00  0.00000000E+00
     atom   10 type  2   force =   0.00000000E+00  0.00000000E+00  0.00000000E+00
     atom   11 type  1   force =   0.00000000E+00  0.00000000E+00  0.00000000E+00
     atom   12 type  2   force =   0.00000000E+00  0.00000000E+00  0.00000000E+00
     atom   13 type  1   force =   0.00000000E+00  0.00000000E+00  0.00000000E+00
     atom   14 type  2   force =   0.00000000E+00  0.00000000E+00  0.00000000E+00
     atom   15 type  1   force =   0.00000000E+00  0.00000000E+00  0.00000000E+00
     atom   16 type  2   force =   0.00000000E+00  0.00000000E+00  0.00000000E+00
     The SCF correction term to forces
     atom    1 type  1   force =  -0.46399915E-05 -0.30089077E-05  0.21991579E-05
     atom    2 type  2   force =   0.57995818E-05 -0.47982924E-05 -0.29410418E-04
     atom    3 type  1   force =   0.19343902E-05  0.56400265E-05  0.48278567E-06
     atom    4 type  2   force =   0.58828800E-05 -0.94686555E-05  0.14632988E-04
     atom    5 type  1   force =  -0.22207140E-05 -0.87541482E-06  0.48799923E-05
     atom    6 type  2   force =   0.26706001E-04  0.19839841E-04 -0.95957501E-05
     atom    7 type  1   force =   0.40099743E-07  0.23775519E-05 -0.14068540E-05
     atom    8 type  2   force =  -0.14758356E-04 -0.25477626E-04 -0.11882694E-04
     atom    9 type  1   force =   0.28847574E-06 -0.13258517E-05  0.18441701E-05
     atom   10 type  2   force =   0.71878293E-05  0.25519246E-04  0.32310761E-05
     atom   11 type  1   force =   0.20717820E-05 -0.38206935E-06 -0.57325243E-05
     atom   12 type  2   force =  -0.32081239E-04 -0.14340301E-04  0.10774471E-04
     atom   13 type  1   force =  -0.21084056E-05 -0.29902416E-05  0.51562271E-06
     atom   14 type  2   force =  -0.15772254E-06  0.15861066E-04 -0.53586949E-05
     atom   15 type  1   force =   0.52510032E-05 -0.41721367E-07 -0.10647331E-05
     atom   16 type  2   force =  -0.84403580E-05  0.66793580E-05  0.24567282E-04

     Total force =     0.200779     Total SCF correction =     0.000082


     entering subroutine stress ...

          total   stress  (Ry/bohr**3)                   (kbar)     P=    5.84
   0.0000535623   0.0000280036   0.0000177443          7.88      4.12      2.61
   0.0000280036   0.0000302945   0.0000241576          4.12      4.46      3.55
   0.0000177443   0.0000241576   0.0000352673          2.61      3.55      5.19

     kinetic stress (kbar)   6415.54     -5.30      3.02
                               -5.30   6416.60     -3.36
                                3.02     -3.36   6416.05

     local   stress (kbar)  -1131.37   -288.01    106.75
                             -288.01  -1003.24   -127.21
                              106.75   -127.21   -969.96

     nonloc. stress (kbar)   2502.50      4.66     -0.60
                                4.66   2499.91      3.44
                               -0.60      3.44   2500.90

     hartree stress (kbar)  15171.13     90.68    -38.74
                               90.68  15131.31     32.74
                              -38.74     32.74  15109.57

     exc-cor stress (kbar)  10940.63      0.16     -0.04
                                0.16  10940.56      0.10
                               -0.04      0.10  10940.58

     corecor stress (kbar) -16609.83     -0.40      0.04
                               -0.40 -16609.60     -0.29
                                0.04     -0.29 -16609.68

     ewald   stress (kbar) -17280.72    202.34    -67.83
                              202.34 -17371.08     98.13
                              -67.83     98.13 -17382.27

     hubbard stress (kbar)      0.00      0.00      0.00
                                0.00      0.00      0.00
                                0.00      0.00      0.00

     london  stress (kbar)      0.00      0.00      0.00
                                0.00      0.00      0.00
                                0.00      0.00      0.00

     XDM     stress (kbar)      0.00      0.00      0.00
                                0.00      0.00      0.00
                                0.00      0.00      0.00

     dft-nl  stress (kbar)      0.00      0.00      0.00
                                0.00      0.00      0.00
                                0.00      0.00      0.00



     Writing output data file SiGe_zns.scf.in.super.222.a.033.save

     init_run     :     56.86s CPU     55.33s WALL (       1 calls)
     electrons    :   1976.36s CPU   1961.85s WALL (       1 calls)
     forces       :     24.59s CPU     21.14s WALL (       1 calls)
     stress       :     61.58s CPU     61.56s WALL (       1 calls)

     Called by init_run:
     wfcinit      :     48.70s CPU     46.96s WALL (       1 calls)
     potinit      :      2.28s CPU      2.32s WALL (       1 calls)

     Called by electrons:
     c_bands      :   1688.56s CPU   1659.73s WALL (      13 calls)
     sum_band     :    264.40s CPU    276.41s WALL (      13 calls)
     v_of_rho     :      2.30s CPU      2.55s WALL (      13 calls)
     v_h          :      0.12s CPU      0.15s WALL (      13 calls)
     v_xc         :      2.45s CPU      2.73s WALL (      15 calls)
     newd         :     19.68s CPU     21.36s WALL (      13 calls)
     mix_rho      :      2.79s CPU      3.22s WALL (      13 calls)

     Called by c_bands:
     init_us_2    :      9.84s CPU     10.73s WALL (    1044 calls)
     cegterg      :   1645.01s CPU   1614.61s WALL (     468 calls)

     Called by sum_band:
     sum_band:bec :      0.86s CPU      0.92s WALL (     468 calls)
     addusdens    :     18.61s CPU     18.91s WALL (      13 calls)

     Called by *egterg:
     h_psi        :   1077.14s CPU   1124.59s WALL (    1844 calls)
     s_psi        :    133.18s CPU     87.24s WALL (    1844 calls)
     g_psi        :      1.59s CPU      1.65s WALL (    1340 calls)
     cdiaghg      :    154.63s CPU    172.36s WALL (    1772 calls)
     cegterg:over :    139.68s CPU    113.63s WALL (    1340 calls)
     cegterg:upda :     68.84s CPU     49.76s WALL (    1340 calls)
     cegterg:last :     37.82s CPU     24.74s WALL (     468 calls)

     Called by h_psi:
     h_psi:vloc   :    787.04s CPU    918.37s WALL (    1844 calls)
     h_psi:vnl    :    287.49s CPU    203.58s WALL (    1844 calls)
     add_vuspsi   :    134.07s CPU     88.99s WALL (    1844 calls)

     General routines
     calbec       :    224.93s CPU    168.25s WALL (    2384 calls)
     fft          :      2.74s CPU      3.03s WALL (     233 calls)
     ffts         :      1.62s CPU      1.91s WALL (     375 calls)
     fftw         :    854.15s CPU    999.45s WALL (  238830 calls)
     interpolate  :      0.33s CPU      0.42s WALL (      26 calls)

     Parallel routines
     fft_scatter  :    412.75s CPU    501.31s WALL (  239438 calls)

     PWSCF        : 35m22.22s CPU    35m 3.48s WALL


   This run was terminated on:  14: 5:13   5Oct2017            

=------------------------------------------------------------------------------=
   JOB DONE.
=------------------------------------------------------------------------------=
