
     Program PWSCF v.5.1 starts on  5Oct2017 at 13:30:55 

     This program is part of the open-source Quantum ESPRESSO suite
     for quantum simulation of materials; please cite
         "P. Giannozzi et al., J. Phys.:Condens. Matter 21 395502 (2009);
          URL http://www.quantum-espresso.org", 
     in publications or presentations arising from this work. More details at
     http://www.quantum-espresso.org/quote

     Parallel version (MPI), running on     4 processors
     R & G space division:  proc/nbgrp/npool/nimage =       4
     Reading input from /tmp/SiGe_zns.scf.in.super.222.a.02.1874/SiGe_zns.scf.in.super.222.a.02.t
Warning: card &IONS ignored
Warning: card   ION_DYNAMICS='BFGS', ignored
Warning: card / ignored
Warning: card &CELL ignored
Warning: card  CELL_DYNAMICS = 'BFGS' ignored
Warning: card / ignored
     Message from routine read_cards :
     DEPRECATED: no units specified in CELL_PARAMETERS card

     Current dimensions of program PWSCF are:
     Max number of different atomic species (ntypx) = 10
     Max number of k-points (npk) =  40000
     Max angular momentum in pseudopotentials (lmaxx) =  3
 kfg - two_fermi_energies  F

     Subspace diagonalization in iterative solution of the eigenvalue problem:
     a serial algorithm will be used


     Parallelization info
     --------------------
     sticks:   dense  smooth     PW     G-vecs:    dense   smooth      PW
     Min         758     526    148                27421    16008    2429
     Max         759     527    149                27422    16037    2431
     Sum        3033    2107    595               109687    64093    9721



     bravais-lattice index     =            0
     lattice parameter (alat)  =    14.796056839  a.u.
     unit-cell volume          =    2292.8247 (a.u.)^3
     number of atoms/cell      =           16
     number of atomic types    =            2
     number of electrons       =       144.00
     number of Kohn-Sham states=           86
     kinetic-energy cutoff     =      35.0000  Ry
     charge density cutoff     =     200.0000  Ry
     convergence threshold     =      1.0E-09
     mixing beta               =       0.3000
     number of iterations used =            8  local-TF  mixing
     Exchange-correlation      = SLA  PW   PSX  PSC ( 1  4 10  8 0)
     A smooth kinetic-energy cutoff is imposed at      34.5000 Ry
     height of the smooth step-function =             800.0000 Ry
     width of the smooth step-function  =               1.0000 Ry


     celldm(1)=  14.796057  celldm(2)=   0.000000  celldm(3)=   0.000000
     celldm(4)=   0.000000  celldm(5)=   0.000000  celldm(6)=   0.000000

     crystal axes: (cart. coord. in units of alat)
               a(1) = (   0.000008814864   0.707406833477   0.706806601463 )  
               a(2) = (   0.707848347718   0.000199019566   0.707201835860 )  
               a(3) = (   0.707639841646   0.706891222617  -0.000512449364 )  

     reciprocal axes: (cart. coord. in units 2 pi/alat)
               b(1) = ( -0.706258  0.707518  0.706704 )  
               b(2) = (  0.706375 -0.706610  0.707202 )  
               b(3) = (  0.706574  0.706810 -0.707419 )  


     PseudoPot. # 1 for Si read from file:
     /users/kfg/psuedo/gbrv_1.5/si.pbesol.UPF
     MD5 check sum: ef58ba74faed4df802eb8a9742fc00a8
     Pseudo is Ultrasoft + core correction, Zval =  4.0
     Generated by new atomic code, or converted to UPF format
     Using radial grid of  899 points,  6 beta functions with: 
                l(1) =   0
                l(2) =   0
                l(3) =   1
                l(4) =   1
                l(5) =   2
                l(6) =   2
     Q(r) pseudized with  8 coefficients,  rinner =    0.900   0.900   0.900
                                                       0.900   0.900

     PseudoPot. # 2 for Ge read from file:
     /users/kfg/psuedo/gbrv_1.5/ge.pbesol.UPF
     MD5 check sum: 7bed0412183f5e553a4d27ec7023354d
     Pseudo is Ultrasoft + core correction, Zval = 14.0
     Generated by new atomic code, or converted to UPF format
     Using radial grid of  873 points,  6 beta functions with: 
                l(1) =   0
                l(2) =   0
                l(3) =   1
                l(4) =   1
                l(5) =   2
                l(6) =   2
     Q(r) pseudized with  8 coefficients,  rinner =    1.400   1.400   1.400
                                                       1.400   1.400

     atomic species   valence    mass     pseudopotential
        Si             4.00    28.08550     Si( 1.00)
        Ge            14.00    72.64000     Ge( 1.00)

     No symmetry found


                                    s                        frac. trans.

      isym =  1     identity                                     

 cryst.   s( 1) = (     1          0          0      )
                  (     0          1          0      )
                  (     0          0          1      )

 cart.    s( 1) = (  1.0000000  0.0000000  0.0000000 )
                  ( -0.0000000  1.0000000  0.0000000 )
                  ( -0.0000000  0.0000000  1.0000000 )


     point group C_1 (1)    
     there are  1 classes
     the character table:

       E    
A      1.00

     the symmetry operations in each class:
     E        1

   Cartesian axes

     site n.     atom                  positions (alat units)
         1           Si  tau(   1) = (   -0.00774485199   -0.00112644609   -0.00974913997  )
         2           Ge  tau(   2) = (    0.17054347414    0.16757829767    0.18761710154  )
         3           Si  tau(   3) = (    0.35827184806    0.36421628787    0.00037370776  )
         4           Ge  tau(   4) = (    0.51768965842    0.52234435728    0.17697254610  )
         5           Si  tau(   5) = (    0.34912843975   -0.00395508163    0.35946011945  )
         6           Ge  tau(   6) = (    0.52890230630    0.17975291592    0.54310088721  )
         7           Si  tau(   7) = (    0.70130469529    0.36701818102    0.34375973483  )
         8           Ge  tau(   8) = (    0.89235253501    0.52650156408    0.51725967695  )
         9           Si  tau(   9) = (    0.01125643549    0.35122156979    0.35988909755  )
        10           Ge  tau(  10) = (    0.18712599576    0.52567319225    0.53106747456  )
        11           Si  tau(  11) = (    0.36144629463    0.70331440100    0.34070422346  )
        12           Ge  tau(  12) = (    0.54026292977    0.87315690823    0.54222108116  )
        13           Si  tau(  13) = (    0.35601067636    0.34930075738    0.70659624738  )
        14           Ge  tau(  14) = (    0.52726126378    0.52723135304    0.87473797403  )
        15           Si  tau(  15) = (    0.69833858759    0.70095549164    0.69644571739  )
        16           Ge  tau(  16) = (    0.89768794908    0.88186278639    0.88724132713  )

   Crystallographic axes

     site n.     atom                  positions (cryst. coord.)
         1           Si  tau(   1) = (   -0.00221687796   -0.01156941858    0.00062823112  )
         2           Ge  tau(   2) = (    0.13070681009    0.13473819600    0.10622368632  )
         3           Si  tau(   3) = (    0.00492141498   -0.00402045246    0.51031280894  )
         4           Ge  tau(   4) = (    0.12901295147    0.12174434888    0.60979040410  )
         5           Si  tau(   5) = (    0.00465905027    0.50362106658   -0.01039927480  )
         6           Ge  tau(   6) = (    0.13744878502    0.63066989797    0.11655992868  )
         7           Si  tau(   7) = (    0.00730657627    0.47915266773    0.51175355798  )
         8           Ge  tau(   8) = (    0.10782806752    0.62411090674    0.63673027418  )
         9           Si  tau(   9) = (    0.49488075756    0.01428861562    0.00160802170  )
        10           Ge  tau(  10) = (    0.61507166312    0.13630677048    0.12808217739  )
        11           Si  tau(  11) = (    0.48311044400   -0.00070605205    0.51147743888  )
        12           Ge  tau(  12) = (    0.61939925577    0.14810611380    0.61531414186  )
        13           Si  tau(  13) = (    0.49505582394    0.50436350122   -0.00142241635  )
        14           Ge  tau(  14) = (    0.61882433686    0.61851312677    0.12639524916  )
        15           Si  tau(  15) = (    0.49491271902    0.49051401699    0.49619123723  )
        16           Ge  tau(  16) = (    0.61695191976    0.63842940926    0.62994094173  )

     number of k points=    36  gaussian smearing, width (Ry)=  0.0150
                       cart. coord. in units 2pi/alat
        k(    1) = (   0.0000000   0.0000000   0.0000000), wk =   0.0312500
        k(    2) = (   0.1766435   0.1767024  -0.1768547), wk =   0.0625000
        k(    3) = (  -0.3532870  -0.3534049   0.3537094), wk =   0.0312500
        k(    4) = (   0.1765937  -0.1766526   0.1768004), wk =   0.0625000
        k(    5) = (   0.3532372   0.0000498  -0.0000543), wk =   0.0625000
        k(    6) = (  -0.1766932  -0.5300575   0.5305098), wk =   0.0625000
        k(    7) = (  -0.0000497  -0.3533550   0.3536551), wk =   0.0625000
        k(    8) = (  -0.3531875   0.3533052  -0.3536008), wk =   0.0312500
        k(    9) = (  -0.1765440   0.5300076  -0.5304555), wk =   0.0625000
        k(   10) = (  -0.7064745  -0.0000997   0.0001086), wk =   0.0312500
        k(   11) = (  -0.1765644   0.1768795   0.1766761), wk =   0.0625000
        k(   12) = (   0.0000791   0.3535819  -0.0001786), wk =   0.0625000
        k(   13) = (  -0.5298514  -0.1765254   0.5303855), wk =   0.0625000
        k(   14) = (  -0.3532079   0.0001770   0.3535308), wk =   0.0625000
        k(   15) = (   0.0000293   0.0002269   0.3534765), wk =   0.0625000
        k(   16) = (   0.1766728   0.1769293   0.1766218), wk =   0.0625000
        k(   17) = (  -0.3532577  -0.3531780   0.7071859), wk =   0.0625000
        k(   18) = (  -0.1766142  -0.1764755   0.5303312), wk =   0.0625000
        k(   19) = (  -0.5297519   0.5301847  -0.1769248), wk =   0.0625000
        k(   20) = (  -0.3531084   0.7068871  -0.3537795), wk =   0.0625000
        k(   21) = (  -0.8830389   0.1767798   0.1767846), wk =   0.0625000
        k(   22) = (  -0.7063954   0.3534822  -0.0000701), wk =   0.0625000
        k(   23) = (  -0.3531582   0.3535321  -0.0001244), wk =   0.0625000
        k(   24) = (  -0.1765147   0.5302345  -0.1769790), wk =   0.0625000
        k(   25) = (  -0.7064451   0.0001272   0.3535850), wk =   0.0625000
        k(   26) = (  -0.5298016   0.1768296   0.1767303), wk =   0.0625000
        k(   27) = (   0.3531288  -0.3537590  -0.3533521), wk =   0.0312500
        k(   28) = (   0.5297723  -0.1770565  -0.5302068), wk =   0.0625000
        k(   29) = (  -0.0001581  -0.7071638   0.0003573), wk =   0.0312500
        k(   30) = (   0.5297226  -0.5304116  -0.1765517), wk =   0.0625000
        k(   31) = (   0.7063661  -0.3537091  -0.3534064), wk =   0.0625000
        k(   32) = (   0.1764356  -0.8838164   0.1771577), wk =   0.0625000
        k(   33) = (   0.3530791  -0.7071140   0.0003030), wk =   0.0625000
        k(   34) = (  -0.0000586  -0.0004538  -0.7069529), wk =   0.0312500
        k(   35) = (   0.1765848   0.1762486  -0.8838076), wk =   0.0625000
        k(   36) = (  -0.3533456  -0.3538587  -0.3532435), wk =   0.0312500

                       cryst. coord.
        k(    1) = (   0.0000000   0.0000000   0.0000000), wk =   0.0312500
        k(    2) = (   0.0000000  -0.0000000   0.2500000), wk =   0.0625000
        k(    3) = (  -0.0000000   0.0000000  -0.5000000), wk =   0.0312500
        k(    4) = (   0.0000000   0.2500000   0.0000000), wk =   0.0625000
        k(    5) = (  -0.0000000   0.2500000   0.2500000), wk =   0.0625000
        k(    6) = (   0.0000000   0.2500000  -0.5000000), wk =   0.0625000
        k(    7) = (   0.0000000   0.2500000  -0.2500000), wk =   0.0625000
        k(    8) = (   0.0000000  -0.5000000  -0.0000000), wk =   0.0312500
        k(    9) = (  -0.0000000  -0.5000000   0.2500000), wk =   0.0625000
        k(   10) = (   0.0000000  -0.5000000  -0.5000000), wk =   0.0312500
        k(   11) = (   0.2500000   0.0000000  -0.0000000), wk =   0.0625000
        k(   12) = (   0.2500000  -0.0000000   0.2500000), wk =   0.0625000
        k(   13) = (   0.2500000   0.0000000  -0.5000000), wk =   0.0625000
        k(   14) = (   0.2500000   0.0000000  -0.2500000), wk =   0.0625000
        k(   15) = (   0.2500000   0.2500000  -0.0000000), wk =   0.0625000
        k(   16) = (   0.2500000   0.2500000   0.2500000), wk =   0.0625000
        k(   17) = (   0.2500000   0.2500000  -0.5000000), wk =   0.0625000
        k(   18) = (   0.2500000   0.2500000  -0.2500000), wk =   0.0625000
        k(   19) = (   0.2500000  -0.5000000  -0.0000000), wk =   0.0625000
        k(   20) = (   0.2500000  -0.5000000   0.2500000), wk =   0.0625000
        k(   21) = (   0.2500000  -0.5000000  -0.5000000), wk =   0.0625000
        k(   22) = (   0.2500000  -0.5000000  -0.2500000), wk =   0.0625000
        k(   23) = (   0.2500000  -0.2500000  -0.0000000), wk =   0.0625000
        k(   24) = (   0.2500000  -0.2500000   0.2500000), wk =   0.0625000
        k(   25) = (   0.2500000  -0.2500000  -0.5000000), wk =   0.0625000
        k(   26) = (   0.2500000  -0.2500000  -0.2500000), wk =   0.0625000
        k(   27) = (  -0.5000000   0.0000000   0.0000000), wk =   0.0312500
        k(   28) = (  -0.5000000  -0.0000000   0.2500000), wk =   0.0625000
        k(   29) = (  -0.5000000   0.0000000  -0.5000000), wk =   0.0312500
        k(   30) = (  -0.5000000   0.2500000   0.0000000), wk =   0.0625000
        k(   31) = (  -0.5000000   0.2500000   0.2500000), wk =   0.0625000
        k(   32) = (  -0.5000000   0.2500000  -0.5000000), wk =   0.0625000
        k(   33) = (  -0.5000000   0.2500000  -0.2500000), wk =   0.0625000
        k(   34) = (  -0.5000000  -0.5000000   0.0000000), wk =   0.0312500
        k(   35) = (  -0.5000000  -0.5000000   0.2500000), wk =   0.0625000
        k(   36) = (  -0.5000000  -0.5000000  -0.5000000), wk =   0.0312500

     Dense  grid:   109687 G-vectors     FFT dimensions: (  72,  72,  72)

     Smooth grid:    64093 G-vectors     FFT dimensions: (  60,  60,  60)

     Largest allocated arrays     est. size (Mb)     dimensions
        Kohn-Sham Wavefunctions         2.66 Mb     (    2026,   86)
        NL pseudopotentials             8.90 Mb     (    2026,  288)
        Each V/rho on FFT grid          1.42 Mb     (   93312)
        Each G-vector array             0.21 Mb     (   27422)
        G-vector shells                 0.21 Mb     (   26927)
     Largest temporary arrays     est. size (Mb)     dimensions
        Auxiliary wavefunctions        10.63 Mb     (    2026,  344)
        Each subspace H/S matrix        1.81 Mb     (     344,  344)
        Each <psi_i|beta_j> matrix      0.38 Mb     (     288,   86)
        Arrays for rho mixing          11.39 Mb     (   93312,    8)

     Check: negative/imaginary core charge=   -0.000001    0.000000

     Initial potential from superposition of free atoms

     starting charge  143.98835, renormalised to  144.00000
     Starting wfc are  104 randomized atomic wfcs

     total cpu time spent up to now is       55.3 secs

     Self-consistent Calculation

     iteration #  1     ecut=    35.00 Ry     beta=0.30
     Davidson diagonalization with overlap
     ethr =  1.00E-02,  avg # of iterations =  3.0

     Threshold (ethr) on eigenvalues was too large:
     Diagonalizing with lowered threshold

     Davidson diagonalization with overlap
     ethr =  2.48E-04,  avg # of iterations =  5.3

     total cpu time spent up to now is      346.0 secs

     total energy              =   -1781.90292098 Ry
     Harris-Foulkes estimate   =   -1781.94088362 Ry
     estimated scf accuracy    <       0.35616751 Ry

     iteration #  2     ecut=    35.00 Ry     beta=0.30
     Davidson diagonalization with overlap
     ethr =  2.47E-04,  avg # of iterations =  1.0

     total cpu time spent up to now is      449.1 secs

     total energy              =   -1781.83125221 Ry
     Harris-Foulkes estimate   =   -1781.90489555 Ry
     estimated scf accuracy    <       0.21911406 Ry

     iteration #  3     ecut=    35.00 Ry     beta=0.30
     Davidson diagonalization with overlap
     ethr =  1.52E-04,  avg # of iterations =  2.4

     total cpu time spent up to now is      565.0 secs

     total energy              =   -1781.84570906 Ry
     Harris-Foulkes estimate   =   -1781.84578525 Ry
     estimated scf accuracy    <       0.00354817 Ry

     iteration #  4     ecut=    35.00 Ry     beta=0.30
     Davidson diagonalization with overlap
     ethr =  2.46E-06,  avg # of iterations =  8.5

     total cpu time spent up to now is      842.9 secs

     total energy              =   -1781.84617751 Ry
     Harris-Foulkes estimate   =   -1781.84642801 Ry
     estimated scf accuracy    <       0.00164281 Ry

     iteration #  5     ecut=    35.00 Ry     beta=0.30
     Davidson diagonalization with overlap
     ethr =  1.14E-06,  avg # of iterations =  2.0

     total cpu time spent up to now is     1008.5 secs

     total energy              =   -1781.84630666 Ry
     Harris-Foulkes estimate   =   -1781.84631772 Ry
     estimated scf accuracy    <       0.00006408 Ry

     iteration #  6     ecut=    35.00 Ry     beta=0.30
     Davidson diagonalization with overlap
     ethr =  4.45E-08,  avg # of iterations =  2.0

     total cpu time spent up to now is     1146.8 secs

     total energy              =   -1781.84629885 Ry
     Harris-Foulkes estimate   =   -1781.84631007 Ry
     estimated scf accuracy    <       0.00002846 Ry

     iteration #  7     ecut=    35.00 Ry     beta=0.30
     Davidson diagonalization with overlap
     ethr =  1.98E-08,  avg # of iterations =  2.2

     total cpu time spent up to now is     1334.2 secs

     total energy              =   -1781.84630258 Ry
     Harris-Foulkes estimate   =   -1781.84630241 Ry
     estimated scf accuracy    <       0.00000311 Ry

     iteration #  8     ecut=    35.00 Ry     beta=0.30
     Davidson diagonalization with overlap
     ethr =  2.16E-09,  avg # of iterations =  2.0

     total cpu time spent up to now is     1516.3 secs

     total energy              =   -1781.84630274 Ry
     Harris-Foulkes estimate   =   -1781.84630291 Ry
     estimated scf accuracy    <       0.00000095 Ry

     iteration #  9     ecut=    35.00 Ry     beta=0.30
     Davidson diagonalization with overlap
     ethr =  6.61E-10,  avg # of iterations =  2.0

     total cpu time spent up to now is     1736.4 secs

     total energy              =   -1781.84630297 Ry
     Harris-Foulkes estimate   =   -1781.84630291 Ry
     estimated scf accuracy    <       0.00000014 Ry

     iteration # 10     ecut=    35.00 Ry     beta=0.30
     Davidson diagonalization with overlap
     ethr =  9.71E-11,  avg # of iterations =  1.3

     total cpu time spent up to now is     1915.1 secs

     total energy              =   -1781.84630298 Ry
     Harris-Foulkes estimate   =   -1781.84630297 Ry
     estimated scf accuracy    <       0.00000006 Ry

     iteration # 11     ecut=    35.00 Ry     beta=0.30
     Davidson diagonalization with overlap
     ethr =  3.92E-11,  avg # of iterations =  2.3

     total cpu time spent up to now is     2092.9 secs

     total energy              =   -1781.84630302 Ry
     Harris-Foulkes estimate   =   -1781.84630299 Ry
     estimated scf accuracy    <          3.2E-09 Ry

     iteration # 12     ecut=    35.00 Ry     beta=0.30
     Davidson diagonalization with overlap
     ethr =  2.19E-12,  avg # of iterations =  2.4

     total cpu time spent up to now is     2268.7 secs

     total energy              =   -1781.84630303 Ry
     Harris-Foulkes estimate   =   -1781.84630302 Ry
     estimated scf accuracy    <          2.1E-09 Ry

     iteration # 13     ecut=    35.00 Ry     beta=0.30
     Davidson diagonalization with overlap
     ethr =  1.44E-12,  avg # of iterations =  2.1

     total cpu time spent up to now is     2429.6 secs

     End of self-consistent calculation

          k = 0.0000 0.0000 0.0000 (  7991 PWs)   bands (ev):

   -17.2734 -17.2707 -17.2430 -17.2240 -17.2227 -17.1155 -17.1141 -17.1065
   -17.0970 -17.0912 -17.0859 -17.0748 -17.0733 -17.0714 -17.0684 -17.0616
   -17.0563 -17.0519 -17.0475 -17.0381 -17.0371 -17.0299 -17.0291 -17.0247
   -17.0142 -17.0119 -16.9990 -16.9964 -16.9787 -16.9741 -16.9740 -16.9660
   -16.9569 -16.9429 -16.9418 -16.8890 -16.8800 -16.8723 -16.8582 -16.8565
    -5.1710  -3.2342  -3.0688  -2.9567  -2.7155  -1.6738  -1.5736  -1.4247
    -0.7417  -0.6808  -0.4487  -0.0614   0.1156   0.2118   0.3352   4.1677
     4.1951   4.2997   4.3212   4.4073   4.4826   5.6797   5.7134   5.8248
     5.9485   6.0022   6.1974   6.3108   6.4245   7.1311   7.4976   7.5448
     7.6839   7.7550   7.8522   7.9612   7.9912   8.1308   8.2316   8.2879
     8.3587   8.4730   8.9821   9.6371   9.6800  10.1282

     occupation numbers 
     1.0000   1.0000   1.0000   1.0000   1.0000   1.0000   1.0000   1.0000
     1.0000   1.0000   1.0000   1.0000   1.0000   1.0000   1.0000   1.0000
     1.0000   1.0000   1.0000   1.0000   1.0000   1.0000   1.0000   1.0000
     1.0000   1.0000   1.0000   1.0000   1.0000   1.0000   1.0000   1.0000
     1.0000   1.0000   1.0000   1.0000   1.0000   1.0000   1.0000   1.0000
     1.0000   1.0000   1.0000   1.0000   1.0000   1.0000   1.0000   1.0000
     1.0000   1.0000   1.0000   1.0000   1.0000   1.0000   1.0000   1.0000
     1.0000   1.0000   1.0000   1.0000   1.0000   1.0000   1.0000   1.0000
     1.0000   1.0000   1.0000   1.0000   1.0000   0.9989   0.6988   0.5771
     0.2208   0.1034   0.0265   0.0036   0.0019   0.0001   0.0000   0.0000
     0.0000   0.0000   0.0000   0.0000   0.0000   0.0000

          k = 0.1766 0.1767-0.1769 (  8004 PWs)   bands (ev):

   -17.2733 -17.2705 -17.2427 -17.2239 -17.2226 -17.1152 -17.1136 -17.1062
   -17.0969 -17.0910 -17.0857 -17.0745 -17.0732 -17.0717 -17.0685 -17.0612
   -17.0561 -17.0512 -17.0474 -17.0381 -17.0369 -17.0302 -17.0291 -17.0247
   -17.0141 -17.0120 -16.9989 -16.9961 -16.9786 -16.9742 -16.9739 -16.9660
   -16.9569 -16.9429 -16.9419 -16.8889 -16.8799 -16.8721 -16.8583 -16.8565
    -4.9830  -3.6448  -3.0373  -2.8983  -2.6855  -2.2013  -1.9845  -1.7468
    -0.3778  -0.1021  -0.0296   0.1779   0.3606   0.5583   1.2101   3.7003
     3.8220   3.9590   4.3764   4.4093   4.5149   4.7754   4.9247   5.1128
     5.4641   5.5440   5.6261   5.6908   6.0045   6.3795   6.9075   7.2005
     7.9159   7.9462   8.0901   8.2934   8.9346   9.0311   9.0965   9.1634
     9.2771   9.3974   9.5006  10.0731  10.4830  10.5311

     occupation numbers 
     1.0000   1.0000   1.0000   1.0000   1.0000   1.0000   1.0000   1.0000
     1.0000   1.0000   1.0000   1.0000   1.0000   1.0000   1.0000   1.0000
     1.0000   1.0000   1.0000   1.0000   1.0000   1.0000   1.0000   1.0000
     1.0000   1.0000   1.0000   1.0000   1.0000   1.0000   1.0000   1.0000
     1.0000   1.0000   1.0000   1.0000   1.0000   1.0000   1.0000   1.0000
     1.0000   1.0000   1.0000   1.0000   1.0000   1.0000   1.0000   1.0000
     1.0000   1.0000   1.0000   1.0000   1.0000   1.0000   1.0000   1.0000
     1.0000   1.0000   1.0000   1.0000   1.0000   1.0000   1.0000   1.0000
     1.0000   1.0000   1.0000   1.0000   1.0000   1.0000   1.0000   0.9951
     0.0087   0.0048   0.0002   0.0000   0.0000   0.0000   0.0000   0.0000
     0.0000   0.0000   0.0000   0.0000   0.0000   0.0000

          k =-0.3533-0.3534 0.3537 (  8030 PWs)   bands (ev):

   -17.2731 -17.2703 -17.2426 -17.2239 -17.2225 -17.1150 -17.1132 -17.1060
   -17.0968 -17.0907 -17.0855 -17.0741 -17.0730 -17.0720 -17.0687 -17.0607
   -17.0558 -17.0507 -17.0472 -17.0383 -17.0366 -17.0306 -17.0289 -17.0247
   -17.0140 -17.0120 -16.9989 -16.9958 -16.9787 -16.9743 -16.9737 -16.9660
   -16.9568 -16.9430 -16.9419 -16.8887 -16.8798 -16.8721 -16.8583 -16.8565
    -4.5339  -4.3174  -2.9330  -2.7465  -2.6016  -2.4718  -2.3890  -2.0947
    -0.0601   0.2138   0.3642   0.4536   0.6765   0.9473   3.0118   3.1822
     3.5471   3.5852   3.7520   3.7800   3.9397   4.0854   4.7327   4.7822
     4.8669   5.0267   5.0879   5.1431   6.1658   6.5327   6.6222   6.8004
     8.3416   8.4148   8.4759   8.5565   8.7044   8.7604   8.8118   8.9950
    10.4091  10.8534  10.9124  11.1466  11.3811  11.5523

     occupation numbers 
     1.0000   1.0000   1.0000   1.0000   1.0000   1.0000   1.0000   1.0000
     1.0000   1.0000   1.0000   1.0000   1.0000   1.0000   1.0000   1.0000
     1.0000   1.0000   1.0000   1.0000   1.0000   1.0000   1.0000   1.0000
     1.0000   1.0000   1.0000   1.0000   1.0000   1.0000   1.0000   1.0000
     1.0000   1.0000   1.0000   1.0000   1.0000   1.0000   1.0000   1.0000
     1.0000   1.0000   1.0000   1.0000   1.0000   1.0000   1.0000   1.0000
     1.0000   1.0000   1.0000   1.0000   1.0000   1.0000   1.0000   1.0000
     1.0000   1.0000   1.0000   1.0000   1.0000   1.0000   1.0000   1.0000
     1.0000   1.0000   1.0000   1.0000   1.0000   1.0000   1.0000   1.0000
     0.0000   0.0000   0.0000   0.0000   0.0000   0.0000   0.0000   0.0000
     0.0000   0.0000   0.0000   0.0000   0.0000   0.0000

          k = 0.1766-0.1767 0.1768 (  8001 PWs)   bands (ev):

   -17.2732 -17.2704 -17.2427 -17.2240 -17.2227 -17.1152 -17.1139 -17.1061
   -17.0967 -17.0910 -17.0857 -17.0747 -17.0733 -17.0714 -17.0683 -17.0614
   -17.0559 -17.0512 -17.0475 -17.0380 -17.0369 -17.0302 -17.0290 -17.0247
   -17.0142 -17.0119 -16.9991 -16.9962 -16.9787 -16.9742 -16.9740 -16.9658
   -16.9568 -16.9429 -16.9417 -16.8889 -16.8800 -16.8721 -16.8583 -16.8566
    -4.9757  -3.5797  -3.0481  -2.9446  -2.7933  -2.1489  -2.0088  -1.8654
    -0.1603  -0.0282   0.0875   0.3157   0.3971   0.6126   0.9273   3.5772
     3.6448   3.7269   4.4138   4.5241   4.5587   4.6822   4.7020   4.7810
     5.3411   5.6177   5.8013   5.9278   6.1960   6.2576   7.1526   7.2817
     8.0879   8.1862   8.2599   8.3928   8.9367   8.9761   9.1065   9.1922
     9.2967   9.3608   9.4911  10.1414  10.1835  10.6778

     occupation numbers 
     1.0000   1.0000   1.0000   1.0000   1.0000   1.0000   1.0000   1.0000
     1.0000   1.0000   1.0000   1.0000   1.0000   1.0000   1.0000   1.0000
     1.0000   1.0000   1.0000   1.0000   1.0000   1.0000   1.0000   1.0000
     1.0000   1.0000   1.0000   1.0000   1.0000   1.0000   1.0000   1.0000
     1.0000   1.0000   1.0000   1.0000   1.0000   1.0000   1.0000   1.0000
     1.0000   1.0000   1.0000   1.0000   1.0000   1.0000   1.0000   1.0000
     1.0000   1.0000   1.0000   1.0000   1.0000   1.0000   1.0000   1.0000
     1.0000   1.0000   1.0000   1.0000   1.0000   1.0000   1.0000   1.0000
     1.0000   1.0000   1.0000   1.0000   1.0000   1.0000   0.9982   0.9782
     0.0002   0.0000   0.0000   0.0000   0.0000   0.0000   0.0000   0.0000
     0.0000   0.0000   0.0000   0.0000   0.0000   0.0000

          k = 0.3532 0.0000-0.0001 (  8030 PWs)   bands (ev):

   -17.2731 -17.2705 -17.2427 -17.2239 -17.2226 -17.1151 -17.1136 -17.1059
   -17.0969 -17.0909 -17.0856 -17.0744 -17.0729 -17.0716 -17.0685 -17.0615
   -17.0559 -17.0515 -17.0474 -17.0379 -17.0368 -17.0299 -17.0289 -17.0247
   -17.0139 -17.0118 -16.9991 -16.9965 -16.9787 -16.9741 -16.9738 -16.9658
   -16.9568 -16.9429 -16.9416 -16.8889 -16.8799 -16.8721 -16.8583 -16.8564
    -4.9185  -3.3598  -3.2128  -3.0902  -2.8907  -2.7499  -1.5224  -1.3786
    -0.6578  -0.4278   0.3017   0.5694   0.6841   0.7823   1.2141   3.6638
     3.6768   3.8598   3.8824   4.4044   4.4986   4.6387   4.6844   4.7614
     4.8306   5.5921   5.8215   5.9093   6.0523   6.1999   6.5531   6.6330
     7.8061   8.7106   8.8841   8.9326   9.0805   9.1296   9.1770   9.3251
     9.3906   9.4654   9.6562  10.5487  10.7273  10.7709

     occupation numbers 
     1.0000   1.0000   1.0000   1.0000   1.0000   1.0000   1.0000   1.0000
     1.0000   1.0000   1.0000   1.0000   1.0000   1.0000   1.0000   1.0000
     1.0000   1.0000   1.0000   1.0000   1.0000   1.0000   1.0000   1.0000
     1.0000   1.0000   1.0000   1.0000   1.0000   1.0000   1.0000   1.0000
     1.0000   1.0000   1.0000   1.0000   1.0000   1.0000   1.0000   1.0000
     1.0000   1.0000   1.0000   1.0000   1.0000   1.0000   1.0000   1.0000
     1.0000   1.0000   1.0000   1.0000   1.0000   1.0000   1.0000   1.0000
     1.0000   1.0000   1.0000   1.0000   1.0000   1.0000   1.0000   1.0000
     1.0000   1.0000   1.0000   1.0000   1.0000   1.0000   1.0000   1.0000
     0.0530   0.0000   0.0000   0.0000   0.0000   0.0000   0.0000   0.0000
     0.0000   0.0000   0.0000   0.0000   0.0000   0.0000

          k =-0.1767-0.5301 0.5305 (  8023 PWs)   bands (ev):

   -17.2729 -17.2704 -17.2425 -17.2238 -17.2225 -17.1150 -17.1131 -17.1056
   -17.0970 -17.0907 -17.0854 -17.0740 -17.0728 -17.0719 -17.0686 -17.0611
   -17.0557 -17.0510 -17.0472 -17.0381 -17.0366 -17.0302 -17.0289 -17.0247
   -17.0138 -17.0118 -16.9991 -16.9961 -16.9786 -16.9742 -16.9737 -16.9658
   -16.9568 -16.9429 -16.9417 -16.8888 -16.8798 -16.8721 -16.8582 -16.8564
    -4.5125  -3.9894  -3.4511  -3.0579  -3.0405  -2.3237  -1.8604  -1.8243
    -0.1513  -0.0769   0.1380   0.9989   1.1046   1.8152   2.3528   3.1306
     3.1979   3.2750   3.7970   3.9359   3.9997   4.1894   4.2624   4.6606
     4.8347   5.0030   5.1889   5.2337   5.3777   5.7991   6.0722   6.6546
     8.5330   8.9611   9.2045   9.3711   9.5040   9.5857   9.8863   9.9794
    10.1822  10.5389  10.5746  10.6777  10.8000  11.3379

     occupation numbers 
     1.0000   1.0000   1.0000   1.0000   1.0000   1.0000   1.0000   1.0000
     1.0000   1.0000   1.0000   1.0000   1.0000   1.0000   1.0000   1.0000
     1.0000   1.0000   1.0000   1.0000   1.0000   1.0000   1.0000   1.0000
     1.0000   1.0000   1.0000   1.0000   1.0000   1.0000   1.0000   1.0000
     1.0000   1.0000   1.0000   1.0000   1.0000   1.0000   1.0000   1.0000
     1.0000   1.0000   1.0000   1.0000   1.0000   1.0000   1.0000   1.0000
     1.0000   1.0000   1.0000   1.0000   1.0000   1.0000   1.0000   1.0000
     1.0000   1.0000   1.0000   1.0000   1.0000   1.0000   1.0000   1.0000
     1.0000   1.0000   1.0000   1.0000   1.0000   1.0000   1.0000   1.0000
     0.0000   0.0000   0.0000   0.0000   0.0000   0.0000   0.0000   0.0000
     0.0000   0.0000   0.0000   0.0000   0.0000   0.0000

          k =-0.0000-0.3534 0.3537 (  8031 PWs)   bands (ev):

   -17.2731 -17.2703 -17.2425 -17.2239 -17.2225 -17.1150 -17.1134 -17.1059
   -17.0967 -17.0909 -17.0855 -17.0744 -17.0732 -17.0716 -17.0684 -17.0610
   -17.0558 -17.0506 -17.0472 -17.0382 -17.0367 -17.0305 -17.0290 -17.0248
   -17.0142 -17.0118 -16.9991 -16.9958 -16.9786 -16.9743 -16.9740 -16.9658
   -16.9569 -16.9429 -16.9418 -16.8888 -16.8799 -16.8720 -16.8582 -16.8566
    -4.6645  -3.8663  -3.5141  -2.8042  -2.7545  -2.3760  -2.3401  -1.6267
    -0.3761   0.1362   0.2380   0.7987   0.9336   1.5373   1.8504   2.9205
     3.5370   3.5611   3.8434   3.9301   4.1597   4.4068   4.4763   4.7539
     5.0496   5.1044   5.2233   5.4542   5.5607   5.8051   5.9078   7.1424
     8.4404   9.0133   9.0854   9.1428   9.4364   9.6715   9.7941   9.9451
    10.0271  10.1574  10.3166  10.4680  10.5634  10.6657

     occupation numbers 
     1.0000   1.0000   1.0000   1.0000   1.0000   1.0000   1.0000   1.0000
     1.0000   1.0000   1.0000   1.0000   1.0000   1.0000   1.0000   1.0000
     1.0000   1.0000   1.0000   1.0000   1.0000   1.0000   1.0000   1.0000
     1.0000   1.0000   1.0000   1.0000   1.0000   1.0000   1.0000   1.0000
     1.0000   1.0000   1.0000   1.0000   1.0000   1.0000   1.0000   1.0000
     1.0000   1.0000   1.0000   1.0000   1.0000   1.0000   1.0000   1.0000
     1.0000   1.0000   1.0000   1.0000   1.0000   1.0000   1.0000   1.0000
     1.0000   1.0000   1.0000   1.0000   1.0000   1.0000   1.0000   1.0000
     1.0000   1.0000   1.0000   1.0000   1.0000   1.0000   1.0000   0.9986
     0.0000   0.0000   0.0000   0.0000   0.0000   0.0000   0.0000   0.0000
     0.0000   0.0000   0.0000   0.0000   0.0000   0.0000

          k =-0.3532 0.3533-0.3536 (  8034 PWs)   bands (ev):

   -17.2729 -17.2703 -17.2425 -17.2240 -17.2226 -17.1151 -17.1137 -17.1057
   -17.0965 -17.0908 -17.0855 -17.0747 -17.0732 -17.0715 -17.0683 -17.0612
   -17.0556 -17.0506 -17.0473 -17.0380 -17.0368 -17.0306 -17.0290 -17.0246
   -17.0143 -17.0119 -16.9992 -16.9958 -16.9788 -16.9741 -16.9741 -16.9655
   -16.9569 -16.9430 -16.9417 -16.8888 -16.8799 -16.8720 -16.8583 -16.8566
    -4.4671  -4.3386  -2.9003  -2.8526  -2.6463  -2.5258  -2.3885  -2.2116
     0.2747   0.4317   0.5002   0.6641   0.7191   0.9956   2.7164   2.8977
     3.2998   3.3623   3.3743   3.4850   3.6840   3.8848   4.8563   4.9510
     4.9834   5.1461   5.2787   5.3086   6.3709   6.4354   6.7567   6.9073
     8.5855   8.6572   8.6832   8.7399   8.8704   8.8853   8.9838   9.0946
    10.6210  10.7041  11.0448  11.1384  11.5185  11.5874

     occupation numbers 
     1.0000   1.0000   1.0000   1.0000   1.0000   1.0000   1.0000   1.0000
     1.0000   1.0000   1.0000   1.0000   1.0000   1.0000   1.0000   1.0000
     1.0000   1.0000   1.0000   1.0000   1.0000   1.0000   1.0000   1.0000
     1.0000   1.0000   1.0000   1.0000   1.0000   1.0000   1.0000   1.0000
     1.0000   1.0000   1.0000   1.0000   1.0000   1.0000   1.0000   1.0000
     1.0000   1.0000   1.0000   1.0000   1.0000   1.0000   1.0000   1.0000
     1.0000   1.0000   1.0000   1.0000   1.0000   1.0000   1.0000   1.0000
     1.0000   1.0000   1.0000   1.0000   1.0000   1.0000   1.0000   1.0000
     1.0000   1.0000   1.0000   1.0000   1.0000   1.0000   1.0000   1.0000
     0.0000   0.0000   0.0000   0.0000   0.0000   0.0000   0.0000   0.0000
     0.0000   0.0000   0.0000   0.0000   0.0000   0.0000

          k =-0.1765 0.5300-0.5305 (  8021 PWs)   bands (ev):

   -17.2728 -17.2703 -17.2425 -17.2239 -17.2226 -17.1150 -17.1134 -17.1055
   -17.0967 -17.0907 -17.0855 -17.0743 -17.0730 -17.0716 -17.0683 -17.0613
   -17.0556 -17.0510 -17.0473 -17.0380 -17.0367 -17.0302 -17.0289 -17.0246
   -17.0140 -17.0117 -16.9992 -16.9962 -16.9787 -16.9741 -16.9739 -16.9656
   -16.9568 -16.9429 -16.9416 -16.8888 -16.8799 -16.8720 -16.8582 -16.8565
    -4.4846  -3.9928  -3.4601  -3.0834  -3.0226  -2.4388  -1.8733  -1.8349
    -0.1043   0.0413   0.3533   1.0647   1.1342   1.9742   2.1915   2.9268
     3.0609   3.1870   3.4383   3.8007   3.8876   4.2540   4.3038   4.4310
     4.9366   5.0255   5.3441   5.4032   5.4548   5.9785   6.1894   6.6027
     8.5666   9.0113   9.2992   9.5692   9.6794   9.7037   9.9186  10.0595
    10.1951  10.4603  10.7862  10.8851  10.9982  11.2754

     occupation numbers 
     1.0000   1.0000   1.0000   1.0000   1.0000   1.0000   1.0000   1.0000
     1.0000   1.0000   1.0000   1.0000   1.0000   1.0000   1.0000   1.0000
     1.0000   1.0000   1.0000   1.0000   1.0000   1.0000   1.0000   1.0000
     1.0000   1.0000   1.0000   1.0000   1.0000   1.0000   1.0000   1.0000
     1.0000   1.0000   1.0000   1.0000   1.0000   1.0000   1.0000   1.0000
     1.0000   1.0000   1.0000   1.0000   1.0000   1.0000   1.0000   1.0000
     1.0000   1.0000   1.0000   1.0000   1.0000   1.0000   1.0000   1.0000
     1.0000   1.0000   1.0000   1.0000   1.0000   1.0000   1.0000   1.0000
     1.0000   1.0000   1.0000   1.0000   1.0000   1.0000   1.0000   1.0000
     0.0000   0.0000   0.0000   0.0000   0.0000   0.0000   0.0000   0.0000
     0.0000   0.0000   0.0000   0.0000   0.0000   0.0000

          k =-0.7065-0.0001 0.0001 (  7992 PWs)   bands (ev):

   -17.2727 -17.2702 -17.2423 -17.2236 -17.2224 -17.1148 -17.1130 -17.1052
   -17.0969 -17.0906 -17.0852 -17.0739 -17.0725 -17.0717 -17.0684 -17.0613
   -17.0555 -17.0512 -17.0470 -17.0377 -17.0366 -17.0299 -17.0286 -17.0245
   -17.0136 -17.0116 -16.9991 -16.9964 -16.9786 -16.9740 -16.9736 -16.9655
   -16.9566 -16.9428 -16.9414 -16.8887 -16.8797 -16.8720 -16.8582 -16.8562
    -4.3132  -4.0069  -3.3713  -3.2718  -3.1726  -2.9552  -1.4807  -1.3244
    -0.5742  -0.3131   1.1512   1.3578   1.4003   1.4568   3.0703   3.1373
     3.2278   3.3386   3.3967   3.4240   3.5004   3.6061   3.6510   3.7242
     5.1989   5.2109   5.4704   5.5221   5.8037   5.8780   6.0136   6.1936
     8.2489   8.3421   9.3865   9.4187   9.4524   9.7207  10.1975  10.4137
    11.3812  11.4358  11.6761  11.7351  11.7886  11.8140

     occupation numbers 
     1.0000   1.0000   1.0000   1.0000   1.0000   1.0000   1.0000   1.0000
     1.0000   1.0000   1.0000   1.0000   1.0000   1.0000   1.0000   1.0000
     1.0000   1.0000   1.0000   1.0000   1.0000   1.0000   1.0000   1.0000
     1.0000   1.0000   1.0000   1.0000   1.0000   1.0000   1.0000   1.0000
     1.0000   1.0000   1.0000   1.0000   1.0000   1.0000   1.0000   1.0000
     1.0000   1.0000   1.0000   1.0000   1.0000   1.0000   1.0000   1.0000
     1.0000   1.0000   1.0000   1.0000   1.0000   1.0000   1.0000   1.0000
     1.0000   1.0000   1.0000   1.0000   1.0000   1.0000   1.0000   1.0000
     1.0000   1.0000   1.0000   1.0000   1.0000   1.0000   1.0000   1.0000
     0.0000   0.0000   0.0000   0.0000   0.0000   0.0000   0.0000   0.0000
     0.0000   0.0000   0.0000   0.0000   0.0000   0.0000

          k =-0.1766 0.1769 0.1767 (  8001 PWs)   bands (ev):

   -17.2732 -17.2704 -17.2428 -17.2240 -17.2226 -17.1151 -17.1139 -17.1060
   -17.0967 -17.0908 -17.0856 -17.0746 -17.0733 -17.0713 -17.0681 -17.0616
   -17.0561 -17.0518 -17.0476 -17.0380 -17.0370 -17.0299 -17.0291 -17.0247
   -17.0142 -17.0119 -16.9989 -16.9964 -16.9786 -16.9741 -16.9739 -16.9658
   -16.9568 -16.9429 -16.9417 -16.8889 -16.8800 -16.8722 -16.8583 -16.8566
    -4.9823  -3.5880  -3.0995  -2.9691  -2.6338  -2.2112  -1.9789  -1.7725
    -0.3683  -0.1237   0.0961   0.2920   0.3970   0.5131   1.0959   3.6170
     3.7982   3.8807   4.3609   4.4601   4.6005   4.6742   4.8395   4.9966
     5.4158   5.5196   5.7178   5.8446   6.0135   6.4128   6.9208   7.2784
     7.8975   8.0888   8.2446   8.3075   8.8888   9.0028   9.0695   9.1750
     9.2708   9.3921   9.4796  10.1219  10.4531  10.5264

     occupation numbers 
     1.0000   1.0000   1.0000   1.0000   1.0000   1.0000   1.0000   1.0000
     1.0000   1.0000   1.0000   1.0000   1.0000   1.0000   1.0000   1.0000
     1.0000   1.0000   1.0000   1.0000   1.0000   1.0000   1.0000   1.0000
     1.0000   1.0000   1.0000   1.0000   1.0000   1.0000   1.0000   1.0000
     1.0000   1.0000   1.0000   1.0000   1.0000   1.0000   1.0000   1.0000
     1.0000   1.0000   1.0000   1.0000   1.0000   1.0000   1.0000   1.0000
     1.0000   1.0000   1.0000   1.0000   1.0000   1.0000   1.0000   1.0000
     1.0000   1.0000   1.0000   1.0000   1.0000   1.0000   1.0000   1.0000
     1.0000   1.0000   1.0000   1.0000   1.0000   1.0000   1.0000   0.9793
     0.0122   0.0002   0.0000   0.0000   0.0000   0.0000   0.0000   0.0000
     0.0000   0.0000   0.0000   0.0000   0.0000   0.0000

          k = 0.0001 0.3536-0.0002 (  8020 PWs)   bands (ev):

   -17.2732 -17.2704 -17.2427 -17.2239 -17.2226 -17.1152 -17.1136 -17.1059
   -17.0967 -17.0909 -17.0857 -17.0744 -17.0732 -17.0716 -17.0682 -17.0612
   -17.0561 -17.0512 -17.0474 -17.0382 -17.0369 -17.0301 -17.0291 -17.0247
   -17.0141 -17.0119 -16.9990 -16.9961 -16.9786 -16.9742 -16.9739 -16.9658
   -16.9568 -16.9429 -16.9417 -16.8889 -16.8799 -16.8721 -16.8582 -16.8565
    -4.9157  -3.4130  -3.2249  -3.0962  -2.8299  -2.6792  -1.5750  -1.4591
    -0.6074  -0.4073   0.2610   0.5717   0.7128   0.8566   1.1492   3.6207
     3.6945   3.8682   3.9366   4.3811   4.4991   4.5288   4.7351   4.8169
     4.8845   5.5018   5.7058   5.9473   6.1408   6.2510   6.5219   6.6973
     7.7675   8.6330   8.8476   8.9700   9.0562   9.1221   9.2074   9.2495
     9.3803   9.4948   9.6528  10.5370  10.6558  10.7817

     occupation numbers 
     1.0000   1.0000   1.0000   1.0000   1.0000   1.0000   1.0000   1.0000
     1.0000   1.0000   1.0000   1.0000   1.0000   1.0000   1.0000   1.0000
     1.0000   1.0000   1.0000   1.0000   1.0000   1.0000   1.0000   1.0000
     1.0000   1.0000   1.0000   1.0000   1.0000   1.0000   1.0000   1.0000
     1.0000   1.0000   1.0000   1.0000   1.0000   1.0000   1.0000   1.0000
     1.0000   1.0000   1.0000   1.0000   1.0000   1.0000   1.0000   1.0000
     1.0000   1.0000   1.0000   1.0000   1.0000   1.0000   1.0000   1.0000
     1.0000   1.0000   1.0000   1.0000   1.0000   1.0000   1.0000   1.0000
     1.0000   1.0000   1.0000   1.0000   1.0000   1.0000   1.0000   1.0000
     0.0887   0.0000   0.0000   0.0000   0.0000   0.0000   0.0000   0.0000
     0.0000   0.0000   0.0000   0.0000   0.0000   0.0000

          k =-0.5299-0.1765 0.5304 (  8022 PWs)   bands (ev):

   -17.2730 -17.2703 -17.2425 -17.2238 -17.2225 -17.1150 -17.1131 -17.1056
   -17.0967 -17.0908 -17.0855 -17.0741 -17.0729 -17.0719 -17.0685 -17.0607
   -17.0559 -17.0507 -17.0471 -17.0384 -17.0367 -17.0305 -17.0289 -17.0247
   -17.0140 -17.0119 -16.9989 -16.9957 -16.9786 -16.9743 -16.9738 -16.9658
   -16.9569 -16.9429 -16.9417 -16.8888 -16.8798 -16.8721 -16.8582 -16.8565
    -4.5016  -4.0185  -3.4106  -3.2393  -2.7799  -2.4157  -1.9816  -1.7133
    -0.3054   0.0187   0.3904   0.6420   1.2032   1.8342   2.4571   3.1380
     3.1972   3.4083   3.6997   3.7638   4.0214   4.0966   4.3040   4.6542
     4.8311   4.8989   5.2292   5.3142   5.5506   5.9095   6.1021   6.4906
     8.3887   8.8542   9.1510   9.3240   9.4325   9.6676   9.8335  10.0797
    10.2709  10.4027  10.7858  10.8715  11.0178  11.2269

     occupation numbers 
     1.0000   1.0000   1.0000   1.0000   1.0000   1.0000   1.0000   1.0000
     1.0000   1.0000   1.0000   1.0000   1.0000   1.0000   1.0000   1.0000
     1.0000   1.0000   1.0000   1.0000   1.0000   1.0000   1.0000   1.0000
     1.0000   1.0000   1.0000   1.0000   1.0000   1.0000   1.0000   1.0000
     1.0000   1.0000   1.0000   1.0000   1.0000   1.0000   1.0000   1.0000
     1.0000   1.0000   1.0000   1.0000   1.0000   1.0000   1.0000   1.0000
     1.0000   1.0000   1.0000   1.0000   1.0000   1.0000   1.0000   1.0000
     1.0000   1.0000   1.0000   1.0000   1.0000   1.0000   1.0000   1.0000
     1.0000   1.0000   1.0000   1.0000   1.0000   1.0000   1.0000   1.0000
     0.0000   0.0000   0.0000   0.0000   0.0000   0.0000   0.0000   0.0000
     0.0000   0.0000   0.0000   0.0000   0.0000   0.0000

          k =-0.3532 0.0002 0.3535 (  8034 PWs)   bands (ev):

   -17.2731 -17.2703 -17.2425 -17.2239 -17.2225 -17.1150 -17.1134 -17.1058
   -17.0968 -17.0907 -17.0854 -17.0742 -17.0730 -17.0716 -17.0684 -17.0612
   -17.0559 -17.0512 -17.0474 -17.0381 -17.0368 -17.0303 -17.0289 -17.0247
   -17.0141 -17.0119 -16.9989 -16.9960 -16.9786 -16.9742 -16.9737 -16.9658
   -16.9568 -16.9429 -16.9418 -16.8888 -16.8799 -16.8721 -16.8583 -16.8565
    -4.6829  -3.8093  -3.5637  -2.9635  -2.5527  -2.4010  -2.1906  -1.7357
    -0.2359  -0.1320   0.2768   0.5012   1.0422   1.6382   1.7946   2.9835
     3.6819   3.7183   3.8683   3.9641   4.2978   4.4585   4.6004   4.6802
     4.9550   5.0833   5.2681   5.4151   5.5053   5.6815   5.9185   6.9531
     8.2265   8.8591   9.0738   9.1811   9.3227   9.6610   9.8487   9.9537
     9.9979  10.1466  10.3360  10.5041  10.5862  10.6440

     occupation numbers 
     1.0000   1.0000   1.0000   1.0000   1.0000   1.0000   1.0000   1.0000
     1.0000   1.0000   1.0000   1.0000   1.0000   1.0000   1.0000   1.0000
     1.0000   1.0000   1.0000   1.0000   1.0000   1.0000   1.0000   1.0000
     1.0000   1.0000   1.0000   1.0000   1.0000   1.0000   1.0000   1.0000
     1.0000   1.0000   1.0000   1.0000   1.0000   1.0000   1.0000   1.0000
     1.0000   1.0000   1.0000   1.0000   1.0000   1.0000   1.0000   1.0000
     1.0000   1.0000   1.0000   1.0000   1.0000   1.0000   1.0000   1.0000
     1.0000   1.0000   1.0000   1.0000   1.0000   1.0000   1.0000   1.0000
     1.0000   1.0000   1.0000   1.0000   1.0000   1.0000   1.0000   1.0000
     0.0000   0.0000   0.0000   0.0000   0.0000   0.0000   0.0000   0.0000
     0.0000   0.0000   0.0000   0.0000   0.0000   0.0000

          k = 0.0000 0.0002 0.3535 (  8026 PWs)   bands (ev):

   -17.2732 -17.2703 -17.2427 -17.2240 -17.2225 -17.1151 -17.1139 -17.1063
   -17.0967 -17.0909 -17.0855 -17.0745 -17.0733 -17.0713 -17.0682 -17.0612
   -17.0558 -17.0512 -17.0474 -17.0379 -17.0369 -17.0301 -17.0289 -17.0248
   -17.0142 -17.0118 -16.9991 -16.9961 -16.9785 -16.9741 -16.9739 -16.9660
   -16.9568 -16.9428 -16.9419 -16.8888 -16.8800 -16.8721 -16.8582 -16.8565
    -4.9149  -3.4177  -3.2108  -3.0661  -2.8752  -2.7096  -1.5315  -1.4029
    -0.5901  -0.5416   0.3047   0.6208   0.7115   0.8301   1.1342   3.6590
     3.7362   3.8087   3.8710   4.4079   4.4979   4.6159   4.6970   4.8070
     4.9028   5.4986   5.7517   5.8795   6.1241   6.2118   6.5016   6.6978
     7.7695   8.6380   8.9257   8.9893   9.0534   9.1709   9.2102   9.3383
     9.4165   9.4663   9.5526  10.5528  10.6168  10.7658

     occupation numbers 
     1.0000   1.0000   1.0000   1.0000   1.0000   1.0000   1.0000   1.0000
     1.0000   1.0000   1.0000   1.0000   1.0000   1.0000   1.0000   1.0000
     1.0000   1.0000   1.0000   1.0000   1.0000   1.0000   1.0000   1.0000
     1.0000   1.0000   1.0000   1.0000   1.0000   1.0000   1.0000   1.0000
     1.0000   1.0000   1.0000   1.0000   1.0000   1.0000   1.0000   1.0000
     1.0000   1.0000   1.0000   1.0000   1.0000   1.0000   1.0000   1.0000
     1.0000   1.0000   1.0000   1.0000   1.0000   1.0000   1.0000   1.0000
     1.0000   1.0000   1.0000   1.0000   1.0000   1.0000   1.0000   1.0000
     1.0000   1.0000   1.0000   1.0000   1.0000   1.0000   1.0000   1.0000
     0.0864   0.0000   0.0000   0.0000   0.0000   0.0000   0.0000   0.0000
     0.0000   0.0000   0.0000   0.0000   0.0000   0.0000

          k = 0.1767 0.1769 0.1766 (  8004 PWs)   bands (ev):

   -17.2732 -17.2704 -17.2428 -17.2240 -17.2227 -17.1152 -17.1137 -17.1062
   -17.0969 -17.0910 -17.0857 -17.0745 -17.0732 -17.0716 -17.0684 -17.0613
   -17.0560 -17.0516 -17.0473 -17.0378 -17.0368 -17.0299 -17.0290 -17.0247
   -17.0140 -17.0118 -16.9991 -16.9965 -16.9787 -16.9741 -16.9740 -16.9660
   -16.9568 -16.9429 -16.9418 -16.8889 -16.8799 -16.8721 -16.8583 -16.8565
    -4.9814  -3.6046  -3.1440  -2.8836  -2.6431  -2.1278  -2.0267  -1.8395
    -0.2476  -0.1454  -0.0298   0.2809   0.3897   0.5367   1.1226   3.6686
     3.7159   3.9312   4.3543   4.4668   4.5656   4.6964   4.8721   5.0803
     5.4493   5.5325   5.6735   5.8442   5.9469   6.3751   6.9047   7.2598
     7.8849   8.0867   8.1900   8.2680   8.8873   9.0551   9.1205   9.1859
     9.2922   9.3666   9.5145  10.0865  10.4188  10.5514

     occupation numbers 
     1.0000   1.0000   1.0000   1.0000   1.0000   1.0000   1.0000   1.0000
     1.0000   1.0000   1.0000   1.0000   1.0000   1.0000   1.0000   1.0000
     1.0000   1.0000   1.0000   1.0000   1.0000   1.0000   1.0000   1.0000
     1.0000   1.0000   1.0000   1.0000   1.0000   1.0000   1.0000   1.0000
     1.0000   1.0000   1.0000   1.0000   1.0000   1.0000   1.0000   1.0000
     1.0000   1.0000   1.0000   1.0000   1.0000   1.0000   1.0000   1.0000
     1.0000   1.0000   1.0000   1.0000   1.0000   1.0000   1.0000   1.0000
     1.0000   1.0000   1.0000   1.0000   1.0000   1.0000   1.0000   1.0000
     1.0000   1.0000   1.0000   1.0000   1.0000   1.0000   1.0000   0.9850
     0.0153   0.0002   0.0000   0.0000   0.0000   0.0000   0.0000   0.0000
     0.0000   0.0000   0.0000   0.0000   0.0000   0.0000

          k =-0.3533-0.3532 0.7072 (  8034 PWs)   bands (ev):

   -17.2730 -17.2703 -17.2425 -17.2238 -17.2227 -17.1151 -17.1131 -17.1060
   -17.0969 -17.0909 -17.0855 -17.0742 -17.0730 -17.0719 -17.0686 -17.0609
   -17.0558 -17.0510 -17.0471 -17.0381 -17.0366 -17.0302 -17.0289 -17.0247
   -17.0139 -17.0119 -16.9991 -16.9961 -16.9786 -16.9742 -16.9738 -16.9659
   -16.9569 -16.9430 -16.9418 -16.8889 -16.8798 -16.8721 -16.8583 -16.8565
    -4.6808  -3.7466  -3.6923  -2.7593  -2.6365  -2.4048  -2.2674  -1.7065
    -0.2700  -0.0973   0.2109   0.6093   0.9288   1.6940   1.7917   2.9981
     3.6671   3.8058   3.8624   3.8960   4.3476   4.4678   4.5838   4.6663
     4.9911   5.0685   5.3276   5.4359   5.5487   5.6197   5.8103   6.9099
     8.2282   8.9242   9.0828   9.1519   9.2587   9.6810   9.8406   9.9419
    10.0879  10.1787  10.2747  10.4562  10.5434  10.6196

     occupation numbers 
     1.0000   1.0000   1.0000   1.0000   1.0000   1.0000   1.0000   1.0000
     1.0000   1.0000   1.0000   1.0000   1.0000   1.0000   1.0000   1.0000
     1.0000   1.0000   1.0000   1.0000   1.0000   1.0000   1.0000   1.0000
     1.0000   1.0000   1.0000   1.0000   1.0000   1.0000   1.0000   1.0000
     1.0000   1.0000   1.0000   1.0000   1.0000   1.0000   1.0000   1.0000
     1.0000   1.0000   1.0000   1.0000   1.0000   1.0000   1.0000   1.0000
     1.0000   1.0000   1.0000   1.0000   1.0000   1.0000   1.0000   1.0000
     1.0000   1.0000   1.0000   1.0000   1.0000   1.0000   1.0000   1.0000
     1.0000   1.0000   1.0000   1.0000   1.0000   1.0000   1.0000   1.0000
     0.0000   0.0000   0.0000   0.0000   0.0000   0.0000   0.0000   0.0000
     0.0000   0.0000   0.0000   0.0000   0.0000   0.0000

          k =-0.1766-0.1765 0.5303 (  8019 PWs)   bands (ev):

   -17.2731 -17.2702 -17.2425 -17.2239 -17.2224 -17.1148 -17.1135 -17.1062
   -17.0968 -17.0907 -17.0853 -17.0743 -17.0731 -17.0715 -17.0683 -17.0608
   -17.0556 -17.0507 -17.0472 -17.0382 -17.0366 -17.0304 -17.0288 -17.0248
   -17.0141 -17.0118 -16.9990 -16.9958 -16.9785 -16.9742 -16.9737 -16.9660
   -16.9568 -16.9429 -16.9418 -16.8887 -16.8799 -16.8720 -16.8582 -16.8565
    -4.4964  -4.0217  -3.4811  -3.0726  -2.9042  -2.4360  -1.9226  -1.7078
    -0.2974  -0.0504   0.3800   0.7891   1.0729   1.8947   2.4203   3.1746
     3.1912   3.3408   3.7260   3.8308   3.9668   4.1449   4.2725   4.6380
     4.8484   4.9186   5.1844   5.3990   5.5256   5.8885   6.0725   6.4509
     8.4102   8.8142   9.1051   9.4305   9.5080   9.6715   9.8754  10.0761
    10.2655  10.4237  10.7538  10.8201  11.0523  11.2560

     occupation numbers 
     1.0000   1.0000   1.0000   1.0000   1.0000   1.0000   1.0000   1.0000
     1.0000   1.0000   1.0000   1.0000   1.0000   1.0000   1.0000   1.0000
     1.0000   1.0000   1.0000   1.0000   1.0000   1.0000   1.0000   1.0000
     1.0000   1.0000   1.0000   1.0000   1.0000   1.0000   1.0000   1.0000
     1.0000   1.0000   1.0000   1.0000   1.0000   1.0000   1.0000   1.0000
     1.0000   1.0000   1.0000   1.0000   1.0000   1.0000   1.0000   1.0000
     1.0000   1.0000   1.0000   1.0000   1.0000   1.0000   1.0000   1.0000
     1.0000   1.0000   1.0000   1.0000   1.0000   1.0000   1.0000   1.0000
     1.0000   1.0000   1.0000   1.0000   1.0000   1.0000   1.0000   1.0000
     0.0000   0.0000   0.0000   0.0000   0.0000   0.0000   0.0000   0.0000
     0.0000   0.0000   0.0000   0.0000   0.0000   0.0000

          k =-0.5298 0.5302-0.1769 (  8022 PWs)   bands (ev):

   -17.2730 -17.2701 -17.2425 -17.2239 -17.2225 -17.1149 -17.1137 -17.1060
   -17.0965 -17.0907 -17.0853 -17.0745 -17.0731 -17.0713 -17.0681 -17.0611
   -17.0555 -17.0507 -17.0473 -17.0380 -17.0367 -17.0304 -17.0288 -17.0248
   -17.0142 -17.0118 -16.9993 -16.9958 -16.9786 -16.9741 -16.9739 -16.9658
   -16.9569 -16.9429 -16.9418 -16.8887 -16.8800 -16.8719 -16.8582 -16.8565
    -4.4723  -4.0113  -3.4583  -3.1604  -2.9571  -2.3736  -1.9596  -1.7857
    -0.0809  -0.0132   0.2750   1.1141   1.2791   1.8329   2.2056   2.9580
     3.0447   3.2589   3.5098   3.7767   3.8240   4.2030   4.3308   4.4181
     4.9009   5.1125   5.2145   5.3857   5.5083   6.0344   6.0778   6.7055
     8.5982   9.1057   9.3491   9.4489   9.5871   9.6714   9.9869  10.0989
    10.1626  10.3974  10.7242  10.8177  10.9920  11.2504

     occupation numbers 
     1.0000   1.0000   1.0000   1.0000   1.0000   1.0000   1.0000   1.0000
     1.0000   1.0000   1.0000   1.0000   1.0000   1.0000   1.0000   1.0000
     1.0000   1.0000   1.0000   1.0000   1.0000   1.0000   1.0000   1.0000
     1.0000   1.0000   1.0000   1.0000   1.0000   1.0000   1.0000   1.0000
     1.0000   1.0000   1.0000   1.0000   1.0000   1.0000   1.0000   1.0000
     1.0000   1.0000   1.0000   1.0000   1.0000   1.0000   1.0000   1.0000
     1.0000   1.0000   1.0000   1.0000   1.0000   1.0000   1.0000   1.0000
     1.0000   1.0000   1.0000   1.0000   1.0000   1.0000   1.0000   1.0000
     1.0000   1.0000   1.0000   1.0000   1.0000   1.0000   1.0000   1.0000
     0.0000   0.0000   0.0000   0.0000   0.0000   0.0000   0.0000   0.0000
     0.0000   0.0000   0.0000   0.0000   0.0000   0.0000

          k =-0.3531 0.7069-0.3538 (  8033 PWs)   bands (ev):

   -17.2730 -17.2702 -17.2426 -17.2240 -17.2226 -17.1150 -17.1135 -17.1059
   -17.0967 -17.0909 -17.0855 -17.0744 -17.0730 -17.0717 -17.0684 -17.0611
   -17.0556 -17.0510 -17.0472 -17.0379 -17.0366 -17.0303 -17.0288 -17.0247
   -17.0141 -17.0117 -16.9993 -16.9962 -16.9787 -16.9741 -16.9740 -16.9658
   -16.9568 -16.9429 -16.9418 -16.8888 -16.8799 -16.8720 -16.8583 -16.8565
    -4.6650  -3.8076  -3.5745  -2.8504  -2.7034  -2.4343  -2.3442  -1.5646
    -0.4214   0.1383   0.3008   0.8311   1.0613   1.4904   1.7712   2.8591
     3.4504   3.6479   3.7453   3.9317   4.1712   4.2641   4.5353   4.7897
     5.0092   5.1712   5.2509   5.4526   5.5236   5.8277   5.9316   7.2329
     8.4623   9.0132   9.1188   9.2124   9.4411   9.7073   9.7689   9.9725
    10.0138  10.1286  10.3023  10.5546  10.6257  10.7841

     occupation numbers 
     1.0000   1.0000   1.0000   1.0000   1.0000   1.0000   1.0000   1.0000
     1.0000   1.0000   1.0000   1.0000   1.0000   1.0000   1.0000   1.0000
     1.0000   1.0000   1.0000   1.0000   1.0000   1.0000   1.0000   1.0000
     1.0000   1.0000   1.0000   1.0000   1.0000   1.0000   1.0000   1.0000
     1.0000   1.0000   1.0000   1.0000   1.0000   1.0000   1.0000   1.0000
     1.0000   1.0000   1.0000   1.0000   1.0000   1.0000   1.0000   1.0000
     1.0000   1.0000   1.0000   1.0000   1.0000   1.0000   1.0000   1.0000
     1.0000   1.0000   1.0000   1.0000   1.0000   1.0000   1.0000   1.0000
     1.0000   1.0000   1.0000   1.0000   1.0000   1.0000   1.0000   0.9907
     0.0000   0.0000   0.0000   0.0000   0.0000   0.0000   0.0000   0.0000
     0.0000   0.0000   0.0000   0.0000   0.0000   0.0000

          k =-0.8830 0.1768 0.1768 (  8020 PWs)   bands (ev):

   -17.2729 -17.2703 -17.2425 -17.2238 -17.2226 -17.1149 -17.1131 -17.1056
   -17.0970 -17.0908 -17.0854 -17.0740 -17.0728 -17.0719 -17.0685 -17.0613
   -17.0557 -17.0513 -17.0471 -17.0377 -17.0366 -17.0299 -17.0289 -17.0246
   -17.0138 -17.0117 -16.9993 -16.9965 -16.9786 -16.9741 -16.9739 -16.9658
   -16.9567 -16.9429 -16.9417 -16.8888 -16.8798 -16.8721 -16.8582 -16.8565
    -4.5055  -3.9855  -3.4721  -3.1413  -2.8858  -2.4401  -1.9503  -1.7083
    -0.2729   0.0693   0.3237   0.8257   1.1386   1.8736   2.3507   3.0241
     3.2147   3.2883   3.6846   3.8338   3.9741   4.1250   4.3431   4.5686
     4.8595   4.9893   5.1909   5.3470   5.5509   5.8862   6.1114   6.5113
     8.4855   8.9301   9.2129   9.3319   9.5000   9.7055   9.8669  10.1337
    10.2234  10.4972  10.6761  10.9029  10.9855  11.2486

     occupation numbers 
     1.0000   1.0000   1.0000   1.0000   1.0000   1.0000   1.0000   1.0000
     1.0000   1.0000   1.0000   1.0000   1.0000   1.0000   1.0000   1.0000
     1.0000   1.0000   1.0000   1.0000   1.0000   1.0000   1.0000   1.0000
     1.0000   1.0000   1.0000   1.0000   1.0000   1.0000   1.0000   1.0000
     1.0000   1.0000   1.0000   1.0000   1.0000   1.0000   1.0000   1.0000
     1.0000   1.0000   1.0000   1.0000   1.0000   1.0000   1.0000   1.0000
     1.0000   1.0000   1.0000   1.0000   1.0000   1.0000   1.0000   1.0000
     1.0000   1.0000   1.0000   1.0000   1.0000   1.0000   1.0000   1.0000
     1.0000   1.0000   1.0000   1.0000   1.0000   1.0000   1.0000   1.0000
     0.0000   0.0000   0.0000   0.0000   0.0000   0.0000   0.0000   0.0000
     0.0000   0.0000   0.0000   0.0000   0.0000   0.0000

          k =-0.7064 0.3535-0.0001 (  8004 PWs)   bands (ev):

   -17.2729 -17.2702 -17.2425 -17.2238 -17.2224 -17.1148 -17.1134 -17.1059
   -17.0968 -17.0906 -17.0853 -17.0742 -17.0730 -17.0715 -17.0682 -17.0613
   -17.0555 -17.0510 -17.0473 -17.0379 -17.0366 -17.0301 -17.0288 -17.0247
   -17.0140 -17.0117 -16.9993 -16.9962 -16.9785 -16.9741 -16.9738 -16.9659
   -16.9568 -16.9429 -16.9417 -16.8888 -16.8800 -16.8720 -16.8582 -16.8565
    -4.1609  -3.9757  -3.8070  -3.6440  -2.4802  -2.2316  -2.0626  -1.9791
     0.0634   0.1710   0.3463   0.4970   2.1980   2.4570   2.6248   2.7040
     2.9597   3.0259   3.0818   3.1740   4.2571   4.3438   4.4950   4.5790
     4.6115   4.6925   4.8082   4.8639   5.6615   5.8318   5.8925   6.0468
     9.4387   9.4971   9.6447   9.7120   9.9321   9.9728  10.1376  10.2109
    10.5978  10.6424  10.7365  10.8532  11.4092  11.5806

     occupation numbers 
     1.0000   1.0000   1.0000   1.0000   1.0000   1.0000   1.0000   1.0000
     1.0000   1.0000   1.0000   1.0000   1.0000   1.0000   1.0000   1.0000
     1.0000   1.0000   1.0000   1.0000   1.0000   1.0000   1.0000   1.0000
     1.0000   1.0000   1.0000   1.0000   1.0000   1.0000   1.0000   1.0000
     1.0000   1.0000   1.0000   1.0000   1.0000   1.0000   1.0000   1.0000
     1.0000   1.0000   1.0000   1.0000   1.0000   1.0000   1.0000   1.0000
     1.0000   1.0000   1.0000   1.0000   1.0000   1.0000   1.0000   1.0000
     1.0000   1.0000   1.0000   1.0000   1.0000   1.0000   1.0000   1.0000
     1.0000   1.0000   1.0000   1.0000   1.0000   1.0000   1.0000   1.0000
     0.0000   0.0000   0.0000   0.0000   0.0000   0.0000   0.0000   0.0000
     0.0000   0.0000   0.0000   0.0000   0.0000   0.0000

          k =-0.3532 0.3535-0.0001 (  8032 PWs)   bands (ev):

   -17.2730 -17.2703 -17.2426 -17.2239 -17.2227 -17.1150 -17.1138 -17.1057
   -17.0965 -17.0907 -17.0855 -17.0746 -17.0731 -17.0713 -17.0681 -17.0614
   -17.0558 -17.0512 -17.0474 -17.0379 -17.0369 -17.0303 -17.0290 -17.0246
   -17.0142 -17.0119 -16.9991 -16.9961 -16.9787 -16.9742 -16.9739 -16.9655
   -16.9568 -16.9430 -16.9416 -16.8888 -16.8799 -16.8721 -16.8583 -16.8565
    -4.6677  -3.7430  -3.6399  -2.8712  -2.6913  -2.4370  -2.3293  -1.5756
    -0.4096   0.1641   0.2628   0.9142   1.0298   1.5192   1.7166   2.8635
     3.4830   3.5211   3.8207   3.9017   4.1636   4.3376   4.3776   4.8387
     5.0141   5.1565   5.2490   5.4722   5.5856   5.7918   5.9642   7.2396
     8.5114   9.0831   9.1539   9.2769   9.3657   9.6854   9.7715   9.8404
     9.9629  10.1110  10.3412  10.4988  10.6131  10.7974

     occupation numbers 
     1.0000   1.0000   1.0000   1.0000   1.0000   1.0000   1.0000   1.0000
     1.0000   1.0000   1.0000   1.0000   1.0000   1.0000   1.0000   1.0000
     1.0000   1.0000   1.0000   1.0000   1.0000   1.0000   1.0000   1.0000
     1.0000   1.0000   1.0000   1.0000   1.0000   1.0000   1.0000   1.0000
     1.0000   1.0000   1.0000   1.0000   1.0000   1.0000   1.0000   1.0000
     1.0000   1.0000   1.0000   1.0000   1.0000   1.0000   1.0000   1.0000
     1.0000   1.0000   1.0000   1.0000   1.0000   1.0000   1.0000   1.0000
     1.0000   1.0000   1.0000   1.0000   1.0000   1.0000   1.0000   1.0000
     1.0000   1.0000   1.0000   1.0000   1.0000   1.0000   1.0000   0.9895
     0.0000   0.0000   0.0000   0.0000   0.0000   0.0000   0.0000   0.0000
     0.0000   0.0000   0.0000   0.0000   0.0000   0.0000

          k =-0.1765 0.5302-0.1770 (  8019 PWs)   bands (ev):

   -17.2730 -17.2702 -17.2424 -17.2238 -17.2225 -17.1151 -17.1134 -17.1055
   -17.0965 -17.0908 -17.0856 -17.0743 -17.0730 -17.0716 -17.0682 -17.0610
   -17.0558 -17.0506 -17.0472 -17.0382 -17.0367 -17.0305 -17.0289 -17.0247
   -17.0141 -17.0118 -16.9991 -16.9958 -16.9786 -16.9742 -16.9740 -16.9656
   -16.9569 -16.9429 -16.9416 -16.8888 -16.8799 -16.8721 -16.8582 -16.8565
    -4.4784  -3.9982  -3.4855  -3.1233  -2.9574  -2.3819  -1.9704  -1.7935
    -0.1049   0.0430   0.2731   1.0312   1.3086   1.9431   2.1459   2.9994
     3.0484   3.1408   3.5316   3.6888   3.9318   4.2419   4.3514   4.4033
     4.8627   5.1061   5.1738   5.4276   5.5238   6.0434   6.0979   6.7095
     8.5885   9.0426   9.3124   9.5174   9.5807   9.6908   9.8882  10.0377
    10.2406  10.4138  10.6239  10.9135  10.9990  11.2396

     occupation numbers 
     1.0000   1.0000   1.0000   1.0000   1.0000   1.0000   1.0000   1.0000
     1.0000   1.0000   1.0000   1.0000   1.0000   1.0000   1.0000   1.0000
     1.0000   1.0000   1.0000   1.0000   1.0000   1.0000   1.0000   1.0000
     1.0000   1.0000   1.0000   1.0000   1.0000   1.0000   1.0000   1.0000
     1.0000   1.0000   1.0000   1.0000   1.0000   1.0000   1.0000   1.0000
     1.0000   1.0000   1.0000   1.0000   1.0000   1.0000   1.0000   1.0000
     1.0000   1.0000   1.0000   1.0000   1.0000   1.0000   1.0000   1.0000
     1.0000   1.0000   1.0000   1.0000   1.0000   1.0000   1.0000   1.0000
     1.0000   1.0000   1.0000   1.0000   1.0000   1.0000   1.0000   1.0000
     0.0000   0.0000   0.0000   0.0000   0.0000   0.0000   0.0000   0.0000
     0.0000   0.0000   0.0000   0.0000   0.0000   0.0000

          k =-0.7064 0.0001 0.3536 (  8004 PWs)   bands (ev):

   -17.2729 -17.2703 -17.2424 -17.2238 -17.2225 -17.1150 -17.1131 -17.1052
   -17.0968 -17.0908 -17.0855 -17.0740 -17.0728 -17.0719 -17.0684 -17.0611
   -17.0559 -17.0510 -17.0472 -17.0382 -17.0367 -17.0302 -17.0289 -17.0247
   -17.0139 -17.0117 -16.9991 -16.9961 -16.9786 -16.9743 -16.9739 -16.9656
   -16.9569 -16.9428 -16.9416 -16.8889 -16.8797 -16.8722 -16.8582 -16.8565
    -4.1862  -3.9602  -3.7811  -3.6462  -2.5359  -2.1633  -2.0822  -1.9878
     0.0408   0.2374   0.3191   0.4741   2.2530   2.4660   2.5225   2.7931
     2.9072   3.0226   3.0724   3.2027   4.2624   4.3715   4.4215   4.5427
     4.6497   4.6711   4.8096   4.8722   5.7529   5.8106   5.9036   6.0513
     9.3953   9.5075   9.5637   9.6770   9.8689  10.0427  10.1587  10.2609
    10.5443  10.6313  10.7142  10.8239  11.4666  11.5473

     occupation numbers 
     1.0000   1.0000   1.0000   1.0000   1.0000   1.0000   1.0000   1.0000
     1.0000   1.0000   1.0000   1.0000   1.0000   1.0000   1.0000   1.0000
     1.0000   1.0000   1.0000   1.0000   1.0000   1.0000   1.0000   1.0000
     1.0000   1.0000   1.0000   1.0000   1.0000   1.0000   1.0000   1.0000
     1.0000   1.0000   1.0000   1.0000   1.0000   1.0000   1.0000   1.0000
     1.0000   1.0000   1.0000   1.0000   1.0000   1.0000   1.0000   1.0000
     1.0000   1.0000   1.0000   1.0000   1.0000   1.0000   1.0000   1.0000
     1.0000   1.0000   1.0000   1.0000   1.0000   1.0000   1.0000   1.0000
     1.0000   1.0000   1.0000   1.0000   1.0000   1.0000   1.0000   1.0000
     0.0000   0.0000   0.0000   0.0000   0.0000   0.0000   0.0000   0.0000
     0.0000   0.0000   0.0000   0.0000   0.0000   0.0000

          k =-0.5298 0.1768 0.1767 (  8020 PWs)   bands (ev):

   -17.2729 -17.2703 -17.2425 -17.2239 -17.2225 -17.1149 -17.1134 -17.1055
   -17.0967 -17.0906 -17.0854 -17.0742 -17.0730 -17.0715 -17.0682 -17.0615
   -17.0558 -17.0515 -17.0473 -17.0378 -17.0368 -17.0300 -17.0290 -17.0246
   -17.0140 -17.0118 -16.9991 -16.9964 -16.9786 -16.9740 -16.9738 -16.9656
   -16.9567 -16.9429 -16.9416 -16.8889 -16.8798 -16.8721 -16.8583 -16.8565
    -4.5131  -3.9523  -3.4930  -3.1554  -2.8963  -2.4307  -1.9450  -1.7057
    -0.2835   0.0843   0.3313   0.8494   1.1303   1.9154   2.2931   3.0925
     3.1858   3.2385   3.6215   3.8354   3.9757   4.1236   4.3348   4.5303
     4.8784   4.9906   5.2306   5.3789   5.5709   5.8971   6.1003   6.5172
     8.5061   8.8963   9.1502   9.4216   9.5259   9.7013   9.9068  10.1307
    10.2169  10.5010  10.6356  10.8745  11.0523  11.3092

     occupation numbers 
     1.0000   1.0000   1.0000   1.0000   1.0000   1.0000   1.0000   1.0000
     1.0000   1.0000   1.0000   1.0000   1.0000   1.0000   1.0000   1.0000
     1.0000   1.0000   1.0000   1.0000   1.0000   1.0000   1.0000   1.0000
     1.0000   1.0000   1.0000   1.0000   1.0000   1.0000   1.0000   1.0000
     1.0000   1.0000   1.0000   1.0000   1.0000   1.0000   1.0000   1.0000
     1.0000   1.0000   1.0000   1.0000   1.0000   1.0000   1.0000   1.0000
     1.0000   1.0000   1.0000   1.0000   1.0000   1.0000   1.0000   1.0000
     1.0000   1.0000   1.0000   1.0000   1.0000   1.0000   1.0000   1.0000
     1.0000   1.0000   1.0000   1.0000   1.0000   1.0000   1.0000   1.0000
     0.0000   0.0000   0.0000   0.0000   0.0000   0.0000   0.0000   0.0000
     0.0000   0.0000   0.0000   0.0000   0.0000   0.0000

          k = 0.3531-0.3538-0.3534 (  8032 PWs)   bands (ev):

   -17.2730 -17.2703 -17.2425 -17.2240 -17.2226 -17.1149 -17.1137 -17.1056
   -17.0965 -17.0906 -17.0854 -17.0744 -17.0732 -17.0713 -17.0680 -17.0615
   -17.0561 -17.0517 -17.0475 -17.0379 -17.0369 -17.0300 -17.0291 -17.0246
   -17.0143 -17.0119 -16.9990 -16.9963 -16.9785 -16.9739 -16.9738 -16.9656
   -16.9567 -16.9429 -16.9417 -16.8889 -16.8799 -16.8720 -16.8583 -16.8566
    -4.5525  -4.2610  -2.9994  -2.8508  -2.5439  -2.4362  -2.3380  -2.1849
    -0.0214   0.2514   0.4755   0.6744   0.6996   0.8516   2.7598   3.2035
     3.4131   3.5445   3.6639   3.7157   3.8597   3.9082   4.7464   4.8349
     4.9664   5.0376   5.1819   5.2486   6.2422   6.4466   6.7351   6.8372
     8.3457   8.5376   8.5856   8.6613   8.7052   8.7631   8.8820   9.0397
    10.5459  10.7208  11.0734  11.1377  11.3038  11.5291

     occupation numbers 
     1.0000   1.0000   1.0000   1.0000   1.0000   1.0000   1.0000   1.0000
     1.0000   1.0000   1.0000   1.0000   1.0000   1.0000   1.0000   1.0000
     1.0000   1.0000   1.0000   1.0000   1.0000   1.0000   1.0000   1.0000
     1.0000   1.0000   1.0000   1.0000   1.0000   1.0000   1.0000   1.0000
     1.0000   1.0000   1.0000   1.0000   1.0000   1.0000   1.0000   1.0000
     1.0000   1.0000   1.0000   1.0000   1.0000   1.0000   1.0000   1.0000
     1.0000   1.0000   1.0000   1.0000   1.0000   1.0000   1.0000   1.0000
     1.0000   1.0000   1.0000   1.0000   1.0000   1.0000   1.0000   1.0000
     1.0000   1.0000   1.0000   1.0000   1.0000   1.0000   1.0000   1.0000
     0.0000   0.0000   0.0000   0.0000   0.0000   0.0000   0.0000   0.0000
     0.0000   0.0000   0.0000   0.0000   0.0000   0.0000

          k = 0.5298-0.1771-0.5302 (  8019 PWs)   bands (ev):

   -17.2730 -17.2702 -17.2425 -17.2239 -17.2225 -17.1149 -17.1134 -17.1054
   -17.0965 -17.0907 -17.0855 -17.0742 -17.0731 -17.0715 -17.0681 -17.0611
   -17.0561 -17.0512 -17.0473 -17.0381 -17.0368 -17.0302 -17.0290 -17.0246
   -17.0141 -17.0119 -16.9989 -16.9960 -16.9785 -16.9742 -16.9738 -16.9656
   -16.9568 -16.9429 -16.9416 -16.8889 -16.8798 -16.8721 -16.8582 -16.8565
    -4.5055  -3.9712  -3.4670  -3.2448  -2.7740  -2.4373  -1.9643  -1.7400
    -0.2810   0.0455   0.4746   0.6538   1.2446   1.8976   2.3257   3.0298
     3.1847   3.3350   3.5752   3.7690   4.0111   4.1466   4.3288   4.5936
     4.8610   4.8887   5.2415   5.3867   5.6086   5.8828   6.2025   6.4772
     8.4128   8.7989   9.2408   9.3783   9.4797   9.7303   9.9154  10.1468
    10.1776  10.4887  10.7274  10.9676  11.0246  11.2730

     occupation numbers 
     1.0000   1.0000   1.0000   1.0000   1.0000   1.0000   1.0000   1.0000
     1.0000   1.0000   1.0000   1.0000   1.0000   1.0000   1.0000   1.0000
     1.0000   1.0000   1.0000   1.0000   1.0000   1.0000   1.0000   1.0000
     1.0000   1.0000   1.0000   1.0000   1.0000   1.0000   1.0000   1.0000
     1.0000   1.0000   1.0000   1.0000   1.0000   1.0000   1.0000   1.0000
     1.0000   1.0000   1.0000   1.0000   1.0000   1.0000   1.0000   1.0000
     1.0000   1.0000   1.0000   1.0000   1.0000   1.0000   1.0000   1.0000
     1.0000   1.0000   1.0000   1.0000   1.0000   1.0000   1.0000   1.0000
     1.0000   1.0000   1.0000   1.0000   1.0000   1.0000   1.0000   1.0000
     0.0000   0.0000   0.0000   0.0000   0.0000   0.0000   0.0000   0.0000
     0.0000   0.0000   0.0000   0.0000   0.0000   0.0000

          k =-0.0002-0.7072 0.0004 (  7992 PWs)   bands (ev):

   -17.2729 -17.2701 -17.2423 -17.2236 -17.2224 -17.1149 -17.1129 -17.1052
   -17.0965 -17.0907 -17.0854 -17.0740 -17.0728 -17.0717 -17.0680 -17.0607
   -17.0558 -17.0505 -17.0470 -17.0384 -17.0366 -17.0302 -17.0288 -17.0246
   -17.0138 -17.0117 -16.9989 -16.9956 -16.9784 -16.9742 -16.9738 -16.9655
   -16.9567 -16.9428 -16.9414 -16.8887 -16.8797 -16.8720 -16.8580 -16.8564
    -4.2848  -4.0320  -3.4818  -3.2915  -3.1013  -2.8440  -1.5050  -1.4141
    -0.4846  -0.3359   0.8995   1.3369   1.5278   1.6477   3.1172   3.1645
     3.2804   3.3053   3.3810   3.4188   3.5142   3.5684   3.6186   3.6545
     5.0228   5.3292   5.4726   5.5437   5.7481   5.9020   6.0527   6.2947
     8.2285   8.2995   9.2873   9.4101   9.4675   9.6846  10.1941  10.3539
    11.2311  11.4763  11.5246  11.6701  11.7428  11.8980

     occupation numbers 
     1.0000   1.0000   1.0000   1.0000   1.0000   1.0000   1.0000   1.0000
     1.0000   1.0000   1.0000   1.0000   1.0000   1.0000   1.0000   1.0000
     1.0000   1.0000   1.0000   1.0000   1.0000   1.0000   1.0000   1.0000
     1.0000   1.0000   1.0000   1.0000   1.0000   1.0000   1.0000   1.0000
     1.0000   1.0000   1.0000   1.0000   1.0000   1.0000   1.0000   1.0000
     1.0000   1.0000   1.0000   1.0000   1.0000   1.0000   1.0000   1.0000
     1.0000   1.0000   1.0000   1.0000   1.0000   1.0000   1.0000   1.0000
     1.0000   1.0000   1.0000   1.0000   1.0000   1.0000   1.0000   1.0000
     1.0000   1.0000   1.0000   1.0000   1.0000   1.0000   1.0000   1.0000
     0.0000   0.0000   0.0000   0.0000   0.0000   0.0000   0.0000   0.0000
     0.0000   0.0000   0.0000   0.0000   0.0000   0.0000

          k = 0.5297-0.5304-0.1766 (  8021 PWs)   bands (ev):

   -17.2730 -17.2701 -17.2425 -17.2239 -17.2224 -17.1149 -17.1137 -17.1060
   -17.0965 -17.0906 -17.0853 -17.0744 -17.0731 -17.0712 -17.0680 -17.0613
   -17.0557 -17.0512 -17.0474 -17.0378 -17.0369 -17.0301 -17.0289 -17.0247
   -17.0142 -17.0118 -16.9991 -16.9961 -16.9784 -16.9740 -16.9737 -16.9658
   -16.9568 -16.9429 -16.9417 -16.8888 -16.8800 -16.8720 -16.8582 -16.8565
    -4.5055  -3.9534  -3.5156  -3.1584  -2.9400  -2.2801  -1.9411  -1.7958
    -0.1946  -0.0152   0.1496   1.0966   1.2421   1.7666   2.2155   3.0749
     3.1395   3.2998   3.7847   3.8453   3.9471   4.1930   4.3058   4.5945
     4.7982   5.0842   5.1149   5.2291   5.4728   5.8396   6.1151   6.7255
     8.5685   9.0733   9.2339   9.3766   9.5164   9.6207   9.9589   9.9973
    10.1348  10.3962  10.6216  10.7000  10.8352  11.3414

     occupation numbers 
     1.0000   1.0000   1.0000   1.0000   1.0000   1.0000   1.0000   1.0000
     1.0000   1.0000   1.0000   1.0000   1.0000   1.0000   1.0000   1.0000
     1.0000   1.0000   1.0000   1.0000   1.0000   1.0000   1.0000   1.0000
     1.0000   1.0000   1.0000   1.0000   1.0000   1.0000   1.0000   1.0000
     1.0000   1.0000   1.0000   1.0000   1.0000   1.0000   1.0000   1.0000
     1.0000   1.0000   1.0000   1.0000   1.0000   1.0000   1.0000   1.0000
     1.0000   1.0000   1.0000   1.0000   1.0000   1.0000   1.0000   1.0000
     1.0000   1.0000   1.0000   1.0000   1.0000   1.0000   1.0000   1.0000
     1.0000   1.0000   1.0000   1.0000   1.0000   1.0000   1.0000   1.0000
     0.0000   0.0000   0.0000   0.0000   0.0000   0.0000   0.0000   0.0000
     0.0000   0.0000   0.0000   0.0000   0.0000   0.0000

          k = 0.7064-0.3537-0.3534 (  8033 PWs)   bands (ev):

   -17.2730 -17.2702 -17.2426 -17.2240 -17.2226 -17.1149 -17.1135 -17.1059
   -17.0967 -17.0907 -17.0854 -17.0743 -17.0732 -17.0716 -17.0682 -17.0613
   -17.0559 -17.0516 -17.0473 -17.0378 -17.0368 -17.0298 -17.0291 -17.0247
   -17.0141 -17.0117 -16.9991 -16.9964 -16.9785 -16.9741 -16.9739 -16.9658
   -16.9567 -16.9429 -16.9418 -16.8888 -16.8799 -16.8721 -16.8582 -16.8566
    -4.6771  -3.8032  -3.5830  -2.9407  -2.5561  -2.4132  -2.2302  -1.7277
    -0.3121  -0.0594   0.3308   0.7105   0.9219   1.6267   1.7529   2.9542
     3.5330   3.7305   3.8773   3.9701   4.2450   4.3895   4.6338   4.7399
     4.9248   5.1409   5.2049   5.3884   5.6332   5.7390   5.8261   7.0257
     8.3531   8.9583   9.1171   9.1936   9.2567   9.6270   9.6652  10.0677
    10.1213  10.1902  10.2448  10.4641  10.5425  10.6649

     occupation numbers 
     1.0000   1.0000   1.0000   1.0000   1.0000   1.0000   1.0000   1.0000
     1.0000   1.0000   1.0000   1.0000   1.0000   1.0000   1.0000   1.0000
     1.0000   1.0000   1.0000   1.0000   1.0000   1.0000   1.0000   1.0000
     1.0000   1.0000   1.0000   1.0000   1.0000   1.0000   1.0000   1.0000
     1.0000   1.0000   1.0000   1.0000   1.0000   1.0000   1.0000   1.0000
     1.0000   1.0000   1.0000   1.0000   1.0000   1.0000   1.0000   1.0000
     1.0000   1.0000   1.0000   1.0000   1.0000   1.0000   1.0000   1.0000
     1.0000   1.0000   1.0000   1.0000   1.0000   1.0000   1.0000   1.0000
     1.0000   1.0000   1.0000   1.0000   1.0000   1.0000   1.0000   0.9999
     0.0000   0.0000   0.0000   0.0000   0.0000   0.0000   0.0000   0.0000
     0.0000   0.0000   0.0000   0.0000   0.0000   0.0000

          k = 0.1764-0.8838 0.1772 (  8021 PWs)   bands (ev):

   -17.2730 -17.2702 -17.2425 -17.2238 -17.2226 -17.1150 -17.1131 -17.1056
   -17.0968 -17.0909 -17.0855 -17.0741 -17.0729 -17.0719 -17.0683 -17.0609
   -17.0559 -17.0510 -17.0471 -17.0381 -17.0366 -17.0301 -17.0289 -17.0247
   -17.0139 -17.0118 -16.9992 -16.9961 -16.9785 -16.9742 -16.9739 -16.9658
   -16.9568 -16.9429 -16.9417 -16.8888 -16.8798 -16.8721 -16.8582 -16.8565
    -4.5027  -3.9761  -3.5163  -3.1027  -2.9461  -2.2966  -1.9068  -1.8515
    -0.1826  -0.0280   0.1769   1.0182   1.2334   1.7754   2.2768   3.0794
     3.1983   3.2868   3.7372   3.8438   3.9456   4.1852   4.3373   4.6423
     4.7477   5.0642   5.1492   5.2787   5.4394   5.8329   6.1036   6.7214
     8.5492   9.0062   9.2083   9.3644   9.4941   9.6418   9.8485   9.9706
    10.1387  10.5481  10.6105  10.7253  10.8137  11.3069

     occupation numbers 
     1.0000   1.0000   1.0000   1.0000   1.0000   1.0000   1.0000   1.0000
     1.0000   1.0000   1.0000   1.0000   1.0000   1.0000   1.0000   1.0000
     1.0000   1.0000   1.0000   1.0000   1.0000   1.0000   1.0000   1.0000
     1.0000   1.0000   1.0000   1.0000   1.0000   1.0000   1.0000   1.0000
     1.0000   1.0000   1.0000   1.0000   1.0000   1.0000   1.0000   1.0000
     1.0000   1.0000   1.0000   1.0000   1.0000   1.0000   1.0000   1.0000
     1.0000   1.0000   1.0000   1.0000   1.0000   1.0000   1.0000   1.0000
     1.0000   1.0000   1.0000   1.0000   1.0000   1.0000   1.0000   1.0000
     1.0000   1.0000   1.0000   1.0000   1.0000   1.0000   1.0000   1.0000
     0.0000   0.0000   0.0000   0.0000   0.0000   0.0000   0.0000   0.0000
     0.0000   0.0000   0.0000   0.0000   0.0000   0.0000

          k = 0.3531-0.7071 0.0003 (  8004 PWs)   bands (ev):

   -17.2731 -17.2701 -17.2425 -17.2238 -17.2224 -17.1149 -17.1135 -17.1059
   -17.0966 -17.0908 -17.0854 -17.0742 -17.0730 -17.0715 -17.0681 -17.0609
   -17.0558 -17.0507 -17.0471 -17.0382 -17.0367 -17.0304 -17.0288 -17.0248
   -17.0140 -17.0118 -16.9992 -16.9958 -16.9785 -16.9742 -16.9738 -16.9659
   -16.9569 -16.9429 -16.9417 -16.8888 -16.8800 -16.8720 -16.8582 -16.8564
    -4.1481  -3.9940  -3.7709  -3.6868  -2.4234  -2.2511  -2.1390  -1.9105
    -0.0467   0.1490   0.3521   0.6135   2.1756   2.4842   2.5735   2.7787
     3.0000   3.0296   3.0804   3.1235   4.2231   4.3660   4.4337   4.5506
     4.6618   4.7256   4.7780   4.8847   5.5831   5.7940   5.9161   6.1907
     9.3575   9.4601   9.5864   9.6718   9.8315  10.0436  10.1554  10.2695
    10.6008  10.6590  10.7090  10.8277  11.3945  11.5432

     occupation numbers 
     1.0000   1.0000   1.0000   1.0000   1.0000   1.0000   1.0000   1.0000
     1.0000   1.0000   1.0000   1.0000   1.0000   1.0000   1.0000   1.0000
     1.0000   1.0000   1.0000   1.0000   1.0000   1.0000   1.0000   1.0000
     1.0000   1.0000   1.0000   1.0000   1.0000   1.0000   1.0000   1.0000
     1.0000   1.0000   1.0000   1.0000   1.0000   1.0000   1.0000   1.0000
     1.0000   1.0000   1.0000   1.0000   1.0000   1.0000   1.0000   1.0000
     1.0000   1.0000   1.0000   1.0000   1.0000   1.0000   1.0000   1.0000
     1.0000   1.0000   1.0000   1.0000   1.0000   1.0000   1.0000   1.0000
     1.0000   1.0000   1.0000   1.0000   1.0000   1.0000   1.0000   1.0000
     0.0000   0.0000   0.0000   0.0000   0.0000   0.0000   0.0000   0.0000
     0.0000   0.0000   0.0000   0.0000   0.0000   0.0000

          k =-0.0001-0.0005-0.7070 (  7992 PWs)   bands (ev):

   -17.2729 -17.2699 -17.2424 -17.2238 -17.2222 -17.1147 -17.1136 -17.1062
   -17.0965 -17.0905 -17.0851 -17.0742 -17.0731 -17.0711 -17.0679 -17.0608
   -17.0553 -17.0506 -17.0471 -17.0380 -17.0365 -17.0302 -17.0286 -17.0247
   -17.0141 -17.0115 -16.9991 -16.9957 -16.9783 -16.9740 -16.9737 -16.9659
   -16.9567 -16.9426 -16.9418 -16.8886 -16.8799 -16.8718 -16.8580 -16.8564
    -4.1913  -4.1578  -3.4626  -3.2187  -3.0778  -2.9606  -1.4786  -1.3453
    -0.4747  -0.4446   1.0611   1.3256   1.4350   1.5872   3.0933   3.2275
     3.2493   3.3683   3.4329   3.4476   3.4873   3.5106   3.5798   3.6799
     5.1859   5.2358   5.3748   5.5301   5.7148   6.0005   6.0485   6.1942
     8.2506   8.2950   9.3144   9.3891   9.6061   9.6484  10.2253  10.3793
    11.4021  11.4766  11.6217  11.6813  11.7387  11.8231

     occupation numbers 
     1.0000   1.0000   1.0000   1.0000   1.0000   1.0000   1.0000   1.0000
     1.0000   1.0000   1.0000   1.0000   1.0000   1.0000   1.0000   1.0000
     1.0000   1.0000   1.0000   1.0000   1.0000   1.0000   1.0000   1.0000
     1.0000   1.0000   1.0000   1.0000   1.0000   1.0000   1.0000   1.0000
     1.0000   1.0000   1.0000   1.0000   1.0000   1.0000   1.0000   1.0000
     1.0000   1.0000   1.0000   1.0000   1.0000   1.0000   1.0000   1.0000
     1.0000   1.0000   1.0000   1.0000   1.0000   1.0000   1.0000   1.0000
     1.0000   1.0000   1.0000   1.0000   1.0000   1.0000   1.0000   1.0000
     1.0000   1.0000   1.0000   1.0000   1.0000   1.0000   1.0000   1.0000
     0.0000   0.0000   0.0000   0.0000   0.0000   0.0000   0.0000   0.0000
     0.0000   0.0000   0.0000   0.0000   0.0000   0.0000

          k = 0.1766 0.1762-0.8838 (  8019 PWs)   bands (ev):

   -17.2730 -17.2700 -17.2425 -17.2239 -17.2225 -17.1148 -17.1135 -17.1062
   -17.0968 -17.0908 -17.0853 -17.0743 -17.0730 -17.0716 -17.0682 -17.0610
   -17.0556 -17.0510 -17.0471 -17.0378 -17.0366 -17.0301 -17.0288 -17.0248
   -17.0140 -17.0117 -16.9993 -16.9962 -16.9785 -16.9741 -16.9740 -16.9660
   -16.9567 -16.9429 -16.9418 -16.8887 -16.8799 -16.8720 -16.8582 -16.8565
    -4.4926  -4.0026  -3.5211  -3.0601  -2.8995  -2.4455  -1.9274  -1.7387
    -0.2555  -0.0559   0.5056   0.7743   1.0760   1.9153   2.3741   3.0245
     3.2060   3.2835   3.6735   3.8152   3.9613   4.1532   4.3115   4.6116
     4.8725   4.9357   5.2548   5.4350   5.5180   5.7819   6.1799   6.4596
     8.3874   8.8611   9.1898   9.3953   9.5389   9.7147   9.9027  10.1321
    10.2628  10.4206  10.8088  10.9498  11.0439  11.2327

     occupation numbers 
     1.0000   1.0000   1.0000   1.0000   1.0000   1.0000   1.0000   1.0000
     1.0000   1.0000   1.0000   1.0000   1.0000   1.0000   1.0000   1.0000
     1.0000   1.0000   1.0000   1.0000   1.0000   1.0000   1.0000   1.0000
     1.0000   1.0000   1.0000   1.0000   1.0000   1.0000   1.0000   1.0000
     1.0000   1.0000   1.0000   1.0000   1.0000   1.0000   1.0000   1.0000
     1.0000   1.0000   1.0000   1.0000   1.0000   1.0000   1.0000   1.0000
     1.0000   1.0000   1.0000   1.0000   1.0000   1.0000   1.0000   1.0000
     1.0000   1.0000   1.0000   1.0000   1.0000   1.0000   1.0000   1.0000
     1.0000   1.0000   1.0000   1.0000   1.0000   1.0000   1.0000   1.0000
     0.0000   0.0000   0.0000   0.0000   0.0000   0.0000   0.0000   0.0000
     0.0000   0.0000   0.0000   0.0000   0.0000   0.0000

          k =-0.3533-0.3539-0.3532 (  8030 PWs)   bands (ev):

   -17.2731 -17.2701 -17.2425 -17.2239 -17.2227 -17.1149 -17.1132 -17.1060
   -17.0970 -17.0909 -17.0855 -17.0742 -17.0730 -17.0720 -17.0685 -17.0611
   -17.0557 -17.0513 -17.0470 -17.0376 -17.0365 -17.0299 -17.0289 -17.0247
   -17.0139 -17.0117 -16.9994 -16.9965 -16.9786 -16.9741 -16.9741 -16.9659
   -16.9567 -16.9430 -16.9419 -16.8887 -16.8798 -16.8721 -16.8583 -16.8566
    -4.5279  -4.3042  -3.0374  -2.6887  -2.5663  -2.4030  -2.3510  -2.2923
     0.0973   0.2194   0.3370   0.6697   0.7644   0.7763   2.8911   3.0515
     3.4700   3.5866   3.7290   3.7474   3.8255   3.9692   4.7090   4.8997
     4.9476   5.0578   5.1284   5.2473   6.0996   6.5499   6.6812   6.8042
     8.3038   8.4612   8.5437   8.6275   8.7165   8.8636   8.9477   8.9914
    10.4603  10.8000  10.9781  11.1132  11.4592  11.5123

     occupation numbers 
     1.0000   1.0000   1.0000   1.0000   1.0000   1.0000   1.0000   1.0000
     1.0000   1.0000   1.0000   1.0000   1.0000   1.0000   1.0000   1.0000
     1.0000   1.0000   1.0000   1.0000   1.0000   1.0000   1.0000   1.0000
     1.0000   1.0000   1.0000   1.0000   1.0000   1.0000   1.0000   1.0000
     1.0000   1.0000   1.0000   1.0000   1.0000   1.0000   1.0000   1.0000
     1.0000   1.0000   1.0000   1.0000   1.0000   1.0000   1.0000   1.0000
     1.0000   1.0000   1.0000   1.0000   1.0000   1.0000   1.0000   1.0000
     1.0000   1.0000   1.0000   1.0000   1.0000   1.0000   1.0000   1.0000
     1.0000   1.0000   1.0000   1.0000   1.0000   1.0000   1.0000   1.0000
     0.0000   0.0000   0.0000   0.0000   0.0000   0.0000   0.0000   0.0000
     0.0000   0.0000   0.0000   0.0000   0.0000   0.0000

     the Fermi energy is     7.5728 ev

!    total energy              =   -1781.84630304 Ry
     Harris-Foulkes estimate   =   -1781.84630303 Ry
     estimated scf accuracy    <          8.0E-11 Ry

     The total energy is the sum of the following terms:

     one-electron contribution =   -1184.93333398 Ry
     hartree contribution      =     707.93630869 Ry
     xc contribution           =    -495.21164069 Ry
     ewald contribution        =    -809.63670644 Ry
     smearing contrib. (-TS)   =      -0.00093062 Ry

     convergence has been achieved in  13 iterations

     Forces acting on atoms (Ry/au):

     atom    1 type  1   force =   0.35577102E-01 -0.28629540E-01  0.46274907E-01
     atom    2 type  2   force =   0.15180253E-01  0.14488410E-01 -0.50287435E-01
     atom    3 type  1   force =  -0.49994937E-01 -0.91805499E-01 -0.22069989E-01
     atom    4 type  2   force =   0.56769351E-01  0.46182328E-01 -0.31750507E-01
     atom    5 type  1   force =   0.54692684E-01  0.28508487E-01 -0.31898780E-01
     atom    6 type  2   force =   0.82708448E-02  0.24184023E-02 -0.77916758E-01
     atom    7 type  1   force =   0.30254448E-01 -0.71159646E-01  0.31422515E-01
     atom    8 type  2   force =  -0.46945960E-01 -0.59976021E-02  0.43261342E-01
     atom    9 type  1   force =  -0.47863600E-01  0.31485471E-02 -0.70782060E-02
     atom   10 type  2   force =  -0.12510089E-01  0.29445504E-01 -0.11192444E-01
     atom   11 type  1   force =  -0.93996192E-02  0.19754104E-01  0.78346702E-01
     atom   12 type  2   force =  -0.57282855E-01  0.72465380E-01 -0.70517117E-01
     atom   13 type  1   force =  -0.16661707E-01  0.11390623E-01  0.18763481E-01
     atom   14 type  2   force =   0.18817126E-01 -0.16043311E-03  0.50729636E-01
     atom   15 type  1   force =   0.94259969E-01 -0.35345455E-01  0.59849574E-01
     atom   16 type  2   force =  -0.73163011E-01  0.52963905E-02 -0.25936921E-01
     The non-local contrib.  to forces
     atom    1 type  1   force =   0.34144743E-01 -0.33857395E-01  0.28702593E-01
     atom    2 type  2   force =   0.28089990E-01 -0.99878653E-02 -0.53724241E-01
     atom    3 type  1   force =  -0.43765203E-01 -0.65512065E-01 -0.35332042E-01
     atom    4 type  2   force =   0.47738451E-01 -0.35161021E-02  0.18605318E-01
     atom    5 type  1   force =   0.69856023E-01  0.28888162E-01 -0.25255614E-01
     atom    6 type  2   force =   0.17024611E-01 -0.12213257E-01 -0.51679911E-01
     atom    7 type  1   force =   0.14679526E-01 -0.59013239E-01  0.15831540E-01
     atom    8 type  2   force =  -0.19263991E-01 -0.59371220E-01  0.55230415E-01
     atom    9 type  1   force =  -0.60707631E-01  0.21927785E-01 -0.84989989E-02
     atom   10 type  2   force =  -0.45483683E-02  0.32547842E-01  0.40068980E-01
     atom   11 type  1   force =  -0.94853460E-02  0.19938136E-01  0.64217723E-01
     atom   12 type  2   force =  -0.79682099E-01  0.23633131E-01 -0.33645062E-01
     atom   13 type  1   force =  -0.26454758E-01  0.13542425E-01  0.20982663E-02
     atom   14 type  2   force =   0.18384229E-01  0.48824292E-02  0.37947566E-01
     atom   15 type  1   force =   0.95655907E-01 -0.35072327E-01  0.61833325E-01
     atom   16 type  2   force =  -0.16305049E-01 -0.15981147E-02  0.25997417E-01
     The ionic contribution  to forces
     atom    1 type  1   force =   0.46868720E+00 -0.50399832E+00 -0.93016588E-01
     atom    2 type  2   force =   0.30172469E+00  0.38869648E+00 -0.18746063E+01
     atom    3 type  1   force =  -0.71252174E+00 -0.92835104E+00 -0.42910149E+00
     atom    4 type  2   force =   0.10718268E+01 -0.33625281E+00 -0.80947291E+00
     atom    5 type  1   force =   0.12098424E+01  0.36215083E+00 -0.25608916E+00
     atom    6 type  2   force =   0.17565822E+01 -0.81265556E+00 -0.19893517E+01
     atom    7 type  1   force =   0.13220091E+00 -0.93452669E+00  0.48874408E-01
     atom    8 type  2   force =  -0.16937739E+00 -0.14274835E+01  0.11083463E+01
     atom    9 type  1   force =  -0.80365370E+00  0.65016774E+00 -0.63449980E-01
     atom   10 type  2   force =  -0.15938834E+01  0.15165903E+01 -0.95931379E-01
     atom   11 type  1   force =  -0.20627478E+00  0.53181862E+00  0.73589621E+00
     atom   12 type  2   force =  -0.13856265E+01  0.16539580E+01 -0.37772682E+00
     atom   13 type  1   force =  -0.45834407E+00  0.98490729E-01  0.19200014E+00
     atom   14 type  2   force =   0.14895151E+01  0.62248006E+00  0.20354648E+01
     atom   15 type  1   force =   0.11203379E+01 -0.41586985E+00  0.92185392E+00
     atom   16 type  2   force =  -0.22210357E+01 -0.46521500E+00  0.94631058E+00
     The local contribution  to forces
     atom    1 type  1   force =  -0.46410488E+00  0.50572166E+00  0.11316232E+00
     atom    2 type  2   force =  -0.31260313E+00 -0.36439825E+00  0.18710626E+01
     atom    3 type  1   force =   0.70187901E+00  0.89571347E+00  0.43903901E+00
     atom    4 type  2   force =  -0.10570782E+01  0.38895871E+00  0.75736362E+00
     atom    5 type  1   force =  -0.12180787E+01 -0.35964957E+00  0.24718710E+00
     atom    6 type  2   force =  -0.17634614E+01  0.82822566E+00  0.19548893E+01
     atom    7 type  1   force =  -0.11541529E+00  0.91682161E+00 -0.31901201E-01
     atom    8 type  2   force =   0.13783968E+00  0.14769345E+01 -0.11151579E+01
     atom    9 type  1   force =   0.81068399E+00 -0.66661893E+00  0.64187564E-01
     atom   10 type  2   force =   0.15863883E+01 -0.15149878E+01  0.45989030E-01
     atom   11 type  1   force =   0.20572157E+00 -0.52990764E+00 -0.71566300E+00
     atom   12 type  2   force =   0.13996335E+01 -0.15984475E+01  0.33474957E+00
     atom   13 type  1   force =   0.46544106E+00 -0.99433916E-01 -0.17501735E+00
     atom   14 type  2   force =  -0.14870649E+01 -0.62754618E+00 -0.20167351E+01
     atom   15 type  1   force =  -0.11124468E+01  0.41208241E+00 -0.91800986E+00
     atom   16 type  2   force =   0.21569843E+01  0.47204995E+00 -0.99846647E+00
     The core correction contribution to forces
     atom    1 type  1   force =  -0.31483070E-02  0.35053443E-02 -0.25729578E-02
     atom    2 type  2   force =  -0.20334886E-02  0.17982409E-03  0.69829177E-02
     atom    3 type  1   force =   0.44120989E-02  0.63415041E-02  0.33248898E-02
     atom    4 type  2   force =  -0.57219464E-02 -0.30063924E-02  0.17502648E-02
     atom    5 type  1   force =  -0.69266867E-02 -0.28809251E-02  0.22581334E-02
     atom    6 type  2   force =  -0.18787947E-02 -0.94198943E-03  0.82295352E-02
     atom    7 type  1   force =  -0.12098696E-02  0.55567729E-02 -0.13812587E-02
     atom    8 type  2   force =   0.38601926E-02  0.39321751E-02 -0.51583547E-02
     atom    9 type  1   force =   0.58135070E-02 -0.23289584E-02  0.68297369E-03
     atom   10 type  2   force =  -0.47056731E-03 -0.47068584E-02 -0.13227379E-02
     atom   11 type  1   force =   0.63832554E-03 -0.20941911E-02 -0.61024667E-02
     atom   12 type  2   force =   0.83978043E-02 -0.66799218E-02  0.61065514E-02
     atom   13 type  1   force =   0.26964685E-02 -0.12087392E-02 -0.31631927E-03
     atom   14 type  2   force =  -0.20167512E-02  0.23111740E-04 -0.59487235E-02
     atom   15 type  1   force =  -0.92875066E-02  0.35142088E-02 -0.58264427E-02
     atom   16 type  2   force =   0.71942989E-02  0.59243421E-04  0.21808318E-03
     The Hubbard contrib.    to forces
     atom    1 type  1   force =   0.00000000E+00  0.00000000E+00  0.00000000E+00
     atom    2 type  2   force =   0.00000000E+00  0.00000000E+00  0.00000000E+00
     atom    3 type  1   force =   0.00000000E+00  0.00000000E+00  0.00000000E+00
     atom    4 type  2   force =   0.00000000E+00  0.00000000E+00  0.00000000E+00
     atom    5 type  1   force =   0.00000000E+00  0.00000000E+00  0.00000000E+00
     atom    6 type  2   force =   0.00000000E+00  0.00000000E+00  0.00000000E+00
     atom    7 type  1   force =   0.00000000E+00  0.00000000E+00  0.00000000E+00
     atom    8 type  2   force =   0.00000000E+00  0.00000000E+00  0.00000000E+00
     atom    9 type  1   force =   0.00000000E+00  0.00000000E+00  0.00000000E+00
     atom   10 type  2   force =   0.00000000E+00  0.00000000E+00  0.00000000E+00
     atom   11 type  1   force =   0.00000000E+00  0.00000000E+00  0.00000000E+00
     atom   12 type  2   force =   0.00000000E+00  0.00000000E+00  0.00000000E+00
     atom   13 type  1   force =   0.00000000E+00  0.00000000E+00  0.00000000E+00
     atom   14 type  2   force =   0.00000000E+00  0.00000000E+00  0.00000000E+00
     atom   15 type  1   force =   0.00000000E+00  0.00000000E+00  0.00000000E+00
     atom   16 type  2   force =   0.00000000E+00  0.00000000E+00  0.00000000E+00
     The SCF correction term to forces
     atom    1 type  1   force =  -0.15413732E-05 -0.12718935E-05  0.13823536E-06
     atom    2 type  2   force =   0.22933040E-05 -0.22249321E-05 -0.18236271E-05
     atom    3 type  1   force =   0.10050357E-05  0.21945776E-05  0.23833310E-06
     atom    4 type  2   force =   0.43552405E-05 -0.15227070E-05  0.38045795E-05
     atom    5 type  1   force =  -0.25502945E-06 -0.46004013E-06  0.13633680E-05
     atom    6 type  2   force =   0.43408914E-05  0.30973915E-05 -0.33847275E-05
     atom    7 type  1   force =  -0.72065224E-06  0.14476444E-05 -0.37234902E-06
     atom    8 type  2   force =  -0.43354879E-05 -0.10028433E-04  0.14383687E-05
     atom    9 type  1   force =   0.34393664E-06  0.47047679E-06  0.83586118E-06
     atom   10 type  2   force =   0.40003540E-05  0.16574148E-05  0.42628438E-05
     atom   11 type  1   force =   0.72376568E-06 -0.12641545E-05 -0.11650877E-05
     atom   12 type  2   force =  -0.54169937E-05  0.11934545E-05 -0.75569516E-06
     atom   13 type  1   force =  -0.29877048E-06 -0.32179398E-06 -0.65782402E-06
     atom   14 type  2   force =  -0.45326276E-06 -0.30129377E-06  0.17318620E-05
     atom   15 type  1   force =   0.58603336E-06 -0.33915885E-06 -0.76782431E-06
     atom   16 type  2   force =  -0.74250087E-06 -0.13865755E-06  0.40641872E-05

     Total force =     0.306753     Total SCF correction =     0.000018


     entering subroutine stress ...

          total   stress  (Ry/bohr**3)                   (kbar)     P=   12.47
   0.0000733011  -0.0001076969   0.0000998190         10.78    -15.84     14.68
  -0.0001076969   0.0001080916  -0.0000492537        -15.84     15.90     -7.25
   0.0000998190  -0.0000492537   0.0000729162         14.68     -7.25     10.73

     kinetic stress (kbar)   6414.64     14.88    -12.39
                               14.88   6415.60      5.19
                              -12.39      5.19   6415.66

     local   stress (kbar)   -928.29    562.05   -476.96
                              562.05  -1198.81    253.60
                             -476.96    253.60  -1069.48

     nonloc. stress (kbar)   2503.22    -13.35     11.84
                              -13.35   2505.56     -5.27
                               11.84     -5.27   2502.88

     hartree stress (kbar)  15081.75   -139.38    117.22
                             -139.38  15189.70    -71.02
                              117.22    -71.02  15148.94

     exc-cor stress (kbar)  10933.31     -0.44      0.39
                               -0.44  10933.37     -0.18
                                0.39     -0.18  10933.30

     corecor stress (kbar) -16599.46      1.21     -1.07
                                1.21 -16599.67      0.48
                               -1.07      0.48 -16599.43

     ewald   stress (kbar) -17394.39   -440.81    375.66
                             -440.81 -17229.85   -190.07
                              375.66   -190.07 -17321.14

     hubbard stress (kbar)      0.00      0.00      0.00
                                0.00      0.00      0.00
                                0.00      0.00      0.00

     london  stress (kbar)      0.00      0.00      0.00
                                0.00      0.00      0.00
                                0.00      0.00      0.00

     XDM     stress (kbar)      0.00      0.00      0.00
                                0.00      0.00      0.00
                                0.00      0.00      0.00

     dft-nl  stress (kbar)      0.00      0.00      0.00
                                0.00      0.00      0.00
                                0.00      0.00      0.00



     Writing output data file SiGe_zns.scf.in.super.222.a.022.save

     init_run     :     54.29s CPU     55.11s WALL (       1 calls)
     electrons    :   2204.91s CPU   2374.28s WALL (       1 calls)
     forces       :     24.70s CPU     20.89s WALL (       1 calls)
     stress       :     63.10s CPU     63.56s WALL (       1 calls)

     Called by init_run:
     wfcinit      :     46.98s CPU     47.64s WALL (       1 calls)
     potinit      :      1.92s CPU      1.96s WALL (       1 calls)

     Called by electrons:
     c_bands      :   1858.26s CPU   2003.30s WALL (      14 calls)
     sum_band     :    319.52s CPU    341.47s WALL (      14 calls)
     v_of_rho     :      2.55s CPU      2.86s WALL (      14 calls)
     v_h          :      0.12s CPU      0.15s WALL (      14 calls)
     v_xc         :      2.72s CPU      3.03s WALL (      16 calls)
     newd         :     22.44s CPU     24.09s WALL (      14 calls)
     mix_rho      :      3.40s CPU      3.85s WALL (      14 calls)

     Called by c_bands:
     init_us_2    :     10.66s CPU     11.85s WALL (    1116 calls)
     cegterg      :   1808.47s CPU   1950.98s WALL (     504 calls)

     Called by sum_band:
     sum_band:bec :      0.98s CPU      0.99s WALL (     504 calls)
     addusdens    :     21.19s CPU     21.49s WALL (      14 calls)

     Called by *egterg:
     h_psi        :   1201.06s CPU   1298.00s WALL (    1929 calls)
     s_psi        :    139.94s CPU    107.46s WALL (    1929 calls)
     g_psi        :      1.70s CPU      1.73s WALL (    1389 calls)
     cdiaghg      :    154.70s CPU    246.37s WALL (    1857 calls)
     cegterg:over :    154.04s CPU    142.66s WALL (    1389 calls)
     cegterg:upda :     69.35s CPU     62.61s WALL (    1389 calls)
     cegterg:last :     40.12s CPU     30.93s WALL (     504 calls)

     Called by h_psi:
     h_psi:vloc   :    888.44s CPU   1041.91s WALL (    1929 calls)
     h_psi:vnl    :    310.10s CPU    253.31s WALL (    1929 calls)
     add_vuspsi   :    142.37s CPU    110.86s WALL (    1929 calls)

     General routines
     calbec       :    246.07s CPU    207.65s WALL (    2505 calls)
     fft          :      4.44s CPU      4.76s WALL (     249 calls)
     ffts         :      2.04s CPU      2.34s WALL (     410 calls)
     fftw         :    968.16s CPU   1137.12s WALL (  256828 calls)
     interpolate  :      0.43s CPU      0.50s WALL (      28 calls)

     Parallel routines
     fft_scatter  :    470.53s CPU    569.15s WALL (  257487 calls)

     PWSCF        : 39m 9.55s CPU    41m56.90s WALL


   This run was terminated on:  14:12:52   5Oct2017            

=------------------------------------------------------------------------------=
   JOB DONE.
=------------------------------------------------------------------------------=
