
     Program PWSCF v.5.1 starts on  4Feb2017 at  4:33: 8 

     This program is part of the open-source Quantum ESPRESSO suite
     for quantum simulation of materials; please cite
         "P. Giannozzi et al., J. Phys.:Condens. Matter 21 395502 (2009);
          URL http://www.quantum-espresso.org", 
     in publications or presentations arising from this work. More details at
     http://www.quantum-espresso.org/quote

     Parallel version (MPI), running on    16 processors
     R & G space division:  proc/nbgrp/npool/nimage =      16
     Reading input from /tmp/SiGe_zns.scf.in.super.444.c.01.27398/SiGe_zns.scf.in.super.444.c.01.t
Warning: card &IONS ignored
Warning: card   ION_DYNAMICS='BFGS', ignored
Warning: card / ignored
Warning: card &CELL ignored
Warning: card  CELL_DYNAMICS = 'BFGS' ignored
Warning: card / ignored
     Message from routine read_cards :
     DEPRECATED: no units specified in CELL_PARAMETERS card

     Current dimensions of program PWSCF are:
     Max number of different atomic species (ntypx) = 10
     Max number of k-points (npk) =  40000
     Max angular momentum in pseudopotentials (lmaxx) =  3

     Subspace diagonalization in iterative solution of the eigenvalue problem:
     a serial algorithm will be used


     Parallelization info
     --------------------
     sticks:   dense  smooth     PW     G-vecs:    dense   smooth      PW
     Min         752     527    138                54636    31988    4315
     Max         753     528    139                54639    32021    4319
     Sum       12045    8435   2221               874197   512101   69091



     bravais-lattice index     =            0
     lattice parameter (alat)  =    29.569354354  a.u.
     unit-cell volume          =   18301.2781 (a.u.)^3
     number of atoms/cell      =          128
     number of atomic types    =            2
     number of electrons       =      1092.00
     number of Kohn-Sham states=          655
     kinetic-energy cutoff     =      35.0000  Ry
     charge density cutoff     =     200.0000  Ry
     convergence threshold     =      1.0E-09
     mixing beta               =       0.3000
     number of iterations used =            8  local-TF  mixing
     Exchange-correlation      = SLA  PW   PSX  PSC ( 1  4 10  8 0)
     A smooth kinetic-energy cutoff is imposed at      34.5000 Ry
     height of the smooth step-function =             800.0000 Ry
     width of the smooth step-function  =               1.0000 Ry


     celldm(1)=  29.569354  celldm(2)=   0.000000  celldm(3)=   0.000000
     celldm(4)=   0.000000  celldm(5)=   0.000000  celldm(6)=   0.000000

     crystal axes: (cart. coord. in units of alat)
               a(1) = (   0.001014974792   0.707127960827   0.707084872446 )  
               a(2) = (   0.706159017050  -0.000620122778   0.708152235282 )  
               a(3) = (   0.709105991183   0.707894808870   0.000957471858 )  

     reciprocal axes: (cart. coord. in units 2 pi/alat)
               b(1) = ( -0.708174  0.708430  0.706801 )  
               b(2) = (  0.706149 -0.708314  0.707344 )  
               b(3) = (  0.708025  0.704357 -0.705416 )  


     PseudoPot. # 1 for Si read from file:
     /users/kfg/psuedo/gbrv_1.5/si.pbesol.UPF
     MD5 check sum: ef58ba74faed4df802eb8a9742fc00a8
     Pseudo is Ultrasoft + core correction, Zval =  4.0
     Generated by new atomic code, or converted to UPF format
     Using radial grid of  899 points,  6 beta functions with: 
                l(1) =   0
                l(2) =   0
                l(3) =   1
                l(4) =   1
                l(5) =   2
                l(6) =   2
     Q(r) pseudized with  8 coefficients,  rinner =    0.900   0.900   0.900
                                                       0.900   0.900

     PseudoPot. # 2 for Ge read from file:
     /users/kfg/psuedo/gbrv_1.5/ge.pbesol.UPF
     MD5 check sum: 7bed0412183f5e553a4d27ec7023354d
     Pseudo is Ultrasoft + core correction, Zval = 14.0
     Generated by new atomic code, or converted to UPF format
     Using radial grid of  873 points,  6 beta functions with: 
                l(1) =   0
                l(2) =   0
                l(3) =   1
                l(4) =   1
                l(5) =   2
                l(6) =   2
     Q(r) pseudized with  8 coefficients,  rinner =    1.400   1.400   1.400
                                                       1.400   1.400

     atomic species   valence    mass     pseudopotential
        Si             4.00    28.08550     Si( 1.00)
        Ge            14.00    72.64000     Ge( 1.00)

     No symmetry found


                                    s                        frac. trans.

      isym =  1     identity                                     

 cryst.   s( 1) = (     1          0          0      )
                  (     0          1          0      )
                  (     0          0          1      )

 cart.    s( 1) = (  1.0000000  0.0000000  0.0000000 )
                  ( -0.0000000  1.0000000  0.0000000 )
                  ( -0.0000000 -0.0000000  1.0000000 )


     point group C_1 (1)    
     there are  1 classes
     the character table:

       E    
A      1.00

     the symmetry operations in each class:
     E        1

   Cartesian axes

     site n.     atom                  positions (alat units)
         1           Ge  tau(   1) = (    0.00142708488    0.00036544396   -0.00645958647  )
         2           Si  tau(   2) = (    0.08774000202    0.08176919832    0.09326970763  )
         3           Si  tau(   3) = (    0.17935697103    0.17894768227   -0.00173259460  )
         4           Ge  tau(   4) = (    0.26037750543    0.26451707422    0.09284090641  )
         5           Ge  tau(   5) = (    0.34840372611    0.35341847556    0.00571268686  )
         6           Ge  tau(   6) = (    0.44748716813    0.43801015332    0.08786202472  )
         7           Ge  tau(   7) = (    0.52808199748    0.52910837998    0.00534547725  )
         8           Ge  tau(   8) = (    0.62558499446    0.61360735795    0.08803899060  )
         9           Si  tau(   9) = (    0.17655120317    0.00337910368    0.18376058923  )
        10           Si  tau(  10) = (    0.26020176543    0.09416716342    0.26048659509  )
        11           Ge  tau(  11) = (    0.35329400900    0.17936454958    0.17449012382  )
        12           Si  tau(  12) = (    0.43627495136    0.27078856408    0.25999741912  )
        13           Ge  tau(  13) = (    0.52445553052    0.35962154746    0.17694209458  )
        14           Si  tau(  14) = (    0.61450692084    0.43724647663    0.26956103644  )
        15           Ge  tau(  15) = (    0.70207210042    0.52511640457    0.17689051854  )
        16           Si  tau(  16) = (    0.79496656799    0.62234784984    0.27056206639  )
        17           Si  tau(  17) = (    0.35887312918   -0.00659104677    0.35322994157  )
        18           Ge  tau(  18) = (    0.44519891835    0.08146308936    0.43661732381  )
        19           Si  tau(  19) = (    0.52603758184    0.17943838171    0.34922555153  )
        20           Si  tau(  20) = (    0.61493803474    0.26546140909    0.44933133298  )
        21           Si  tau(  21) = (    0.71328852061    0.35691728064    0.35401859743  )
        22           Si  tau(  22) = (    0.79599135842    0.44331514270    0.44252355045  )
        23           Si  tau(  23) = (    0.88966152515    0.53079398067    0.35820697752  )
        24           Si  tau(  24) = (    0.97831508483    0.62021813363    0.44427826078  )
        25           Si  tau(  25) = (    0.53316397809    0.00186929845    0.53112838744  )
        26           Ge  tau(  26) = (    0.61481196422    0.08821963148    0.62374043698  )
        27           Ge  tau(  27) = (    0.71271241635    0.17393581327    0.53769341053  )
        28           Ge  tau(  28) = (    0.79333758027    0.26941134101    0.61380938149  )
        29           Si  tau(  29) = (    0.88752834274    0.35258277190    0.53427002402  )
        30           Ge  tau(  30) = (    0.97720817164    0.44553032124    0.61692056049  )
        31           Si  tau(  31) = (    1.05841186928    0.52712539697    0.53407004225  )
        32           Ge  tau(  32) = (    1.15216972344    0.61907827756    0.62169442177  )
        33           Ge  tau(  33) = (    0.00544274274    0.17814970556    0.17604476153  )
        34           Ge  tau(  34) = (    0.09318788339    0.26931789710    0.26627143793  )
        35           Ge  tau(  35) = (    0.18020361318    0.34964236426    0.17538405136  )
        36           Ge  tau(  36) = (    0.26818439483    0.44094950531    0.26709386598  )
        37           Ge  tau(  37) = (    0.36107767764    0.53557340081    0.17469604450  )
        38           Ge  tau(  38) = (    0.44356688412    0.61298348992    0.27222507506  )
        39           Ge  tau(  39) = (    0.53665521316    0.70207705972    0.17663388714  )
        40           Si  tau(  40) = (    0.62693863575    0.79169077836    0.26589929309  )
        41           Si  tau(  41) = (    0.17744132270    0.17554095133    0.35704670164  )
        42           Si  tau(  42) = (    0.25982637140    0.27063719594    0.44640606653  )
        43           Si  tau(  43) = (    0.35050398783    0.35342705564    0.34934576870  )
        44           Ge  tau(  44) = (    0.44578959193    0.44027839873    0.44455743473  )
        45           Ge  tau(  45) = (    0.52523397804    0.52736469995    0.35338669799  )
        46           Si  tau(  46) = (    0.62566756009    0.62177923375    0.44754399204  )
        47           Si  tau(  47) = (    0.70985965425    0.70163239958    0.35357822989  )
        48           Si  tau(  48) = (    0.80069985649    0.80219543271    0.44253351272  )
        49           Si  tau(  49) = (    0.35465088174    0.17123475132    0.53639151477  )
        50           Ge  tau(  50) = (    0.44745359096    0.26653822725    0.61800590042  )
        51           Si  tau(  51) = (    0.53433608743    0.35784562269    0.53151963059  )
        52           Si  tau(  52) = (    0.61356086998    0.44300702389    0.61789455113  )
        53           Si  tau(  53) = (    0.70576901223    0.53656718512    0.53040364159  )
        54           Si  tau(  54) = (    0.79137389211    0.62426775697    0.61891431648  )
        55           Ge  tau(  55) = (    0.88773535163    0.70302282534    0.52822503170  )
        56           Ge  tau(  56) = (    0.97269195029    0.80126729047    0.62538113026  )
        57           Ge  tau(  57) = (    0.52356875003    0.18198159895    0.71301915423  )
        58           Ge  tau(  58) = (    0.61617530232    0.27010987940    0.79703514802  )
        59           Si  tau(  59) = (    0.70387986485    0.35163222959    0.70581152360  )
        60           Si  tau(  60) = (    0.79826276738    0.44067436446    0.79472719457  )
        61           Ge  tau(  61) = (    0.88637572518    0.52361564949    0.70529832000  )
        62           Si  tau(  62) = (    0.96736433774    0.62351459554    0.80173894391  )
        63           Si  tau(  63) = (    1.06355426335    0.70977401784    0.70636532775  )
        64           Ge  tau(  64) = (    1.15113397292    0.79522001199    0.79160857907  )
        65           Ge  tau(  65) = (   -0.00253299734    0.34754982094    0.35998200365  )
        66           Ge  tau(  66) = (    0.09152385872    0.43528772970    0.44262681041  )
        67           Ge  tau(  67) = (    0.18252974534    0.52872607935    0.34832162725  )
        68           Si  tau(  68) = (    0.26842789402    0.61404510001    0.43701759571  )
        69           Ge  tau(  69) = (    0.35543120565    0.70475714971    0.35170321239  )
        70           Ge  tau(  70) = (    0.43821302626    0.78990558900    0.44356739275  )
        71           Si  tau(  71) = (    0.53500124248    0.88933729112    0.35367264677  )
        72           Ge  tau(  72) = (    0.62697463916    0.97368405357    0.43782335461  )
        73           Si  tau(  73) = (    0.17533822734    0.34692356311    0.53555439907  )
        74           Si  tau(  74) = (    0.26548833129    0.43725086070    0.61526389176  )
        75           Ge  tau(  75) = (    0.35307128062    0.52413725718    0.53553577772  )
        76           Si  tau(  76) = (    0.44293851009    0.62323067336    0.62301303321  )
        77           Si  tau(  77) = (    0.53011913638    0.70636636422    0.53393735864  )
        78           Ge  tau(  78) = (    0.62501686851    0.79164474930    0.61632798930  )
        79           Si  tau(  79) = (    0.70967118194    0.88714677192    0.53054533678  )
        80           Ge  tau(  80) = (    0.79522702877    0.97331414367    0.62395608480  )
        81           Si  tau(  81) = (    0.35026192260    0.35390878242    0.71316726502  )
        82           Si  tau(  82) = (    0.44615545642    0.44012259154    0.79646238289  )
        83           Ge  tau(  83) = (    0.53711437737    0.52679055896    0.70940544575  )
        84           Ge  tau(  84) = (    0.61313694253    0.61561913788    0.79672565095  )
        85           Ge  tau(  85) = (    0.70161203342    0.70855086959    0.70409483126  )
        86           Si  tau(  86) = (    0.79334464921    0.79911435623    0.79005684627  )
        87           Ge  tau(  87) = (    0.88519701191    0.88914595150    0.71406442179  )
        88           Si  tau(  88) = (    0.97658915265    0.96996450191    0.79938804136  )
        89           Ge  tau(  89) = (    0.52366717712    0.35014128746    0.88422289494  )
        90           Si  tau(  90) = (    0.62370497012    0.44115238315    0.97696840053  )
        91           Si  tau(  91) = (    0.70948316679    0.52693515608    0.88958084700  )
        92           Ge  tau(  92) = (    0.79260683807    0.62458069893    0.97363750483  )
        93           Si  tau(  93) = (    0.87952534963    0.70356750192    0.88231618132  )
        94           Ge  tau(  94) = (    0.97457164832    0.79125954515    0.98026320337  )
        95           Si  tau(  95) = (    1.06711478189    0.88300857333    0.88774996851  )
        96           Si  tau(  96) = (    1.15297076942    0.97893749738    0.96916668475  )
        97           Si  tau(  97) = (    0.00459084865    0.53356705273    0.53684277192  )
        98           Si  tau(  98) = (    0.08351807625    0.62155778564    0.61420319886  )
        99           Si  tau(  99) = (    0.18302925233    0.71239751258    0.52435331285  )
       100           Si  tau( 100) = (    0.26133886269    0.79921332960    0.62270761112  )
       101           Si  tau( 101) = (    0.35457593253    0.88373865274    0.53289527482  )
       102           Si  tau( 102) = (    0.43773770256    0.96858066993    0.61944526305  )
       103           Ge  tau( 103) = (    0.53159517405    1.06072688768    0.53429766673  )
       104           Si  tau( 104) = (    0.62220569430    1.14825971207    0.61349685712  )
       105           Si  tau( 105) = (    0.17559217656    0.52803215416    0.70387787490  )
       106           Ge  tau( 106) = (    0.26927417902    0.61297381032    0.80227262459  )
       107           Si  tau( 107) = (    0.36038529819    0.71034895125    0.70349923537  )
       108           Ge  tau( 108) = (    0.44109191016    0.79997348144    0.80149655942  )
       109           Si  tau( 109) = (    0.52697723223    0.89042664378    0.70345540709  )
       110           Si  tau( 110) = (    0.62128260544    0.96680885905    0.79285053904  )
       111           Si  tau( 111) = (    0.70482225050    1.06199796495    0.70602017335  )
       112           Ge  tau( 112) = (    0.79701340973    1.15618903017    0.79288759215  )
       113           Si  tau( 113) = (    0.35082714847    0.52462536097    0.88687904837  )
       114           Ge  tau( 114) = (    0.44219997932    0.62053864150    0.97523797694  )
       115           Si  tau( 115) = (    0.52533564612    0.70079134260    0.89075054175  )
       116           Ge  tau( 116) = (    0.62633836323    0.79283539336    0.97784958971  )
       117           Si  tau( 117) = (    0.71124675651    0.88889114005    0.88420429186  )
       118           Ge  tau( 118) = (    0.79524995450    0.97700707535    0.97750464629  )
       119           Ge  tau( 119) = (    0.88568689960    1.06270236342    0.88910362721  )
       120           Si  tau( 120) = (    0.97227331287    1.14492543167    0.97994323320  )
       121           Si  tau( 121) = (    0.52820886881    0.53310030243    1.06290352449  )
       122           Si  tau( 122) = (    0.62480454055    0.61261367807    1.14524415642  )
       123           Si  tau( 123) = (    0.70337944442    0.70642813648    1.05999038107  )
       124           Ge  tau( 124) = (    0.79165221278    0.79050196838    1.15507234812  )
       125           Si  tau( 125) = (    0.87883962638    0.88739595857    1.06673433914  )
       126           Ge  tau( 126) = (    0.97784734004    0.97658986807    1.15553960590  )
       127           Si  tau( 127) = (    1.05779072983    1.06455513993    1.06482987265  )
       128           Ge  tau( 128) = (    1.15639569833    1.14545588465    1.14831838652  )

   Crystallographic axes

     site n.     atom                  positions (cryst. coord.)
         1           Ge  tau(   1) = (   -0.00531737579   -0.00382026232    0.00582450948  )
         2           Si  tau(   2) = (    0.06171566825    0.07001300016    0.05392289908  )
         3           Si  tau(   3) = (   -0.00146869630   -0.00132392884    0.25425446724  )
         4           Ge  tau(   4) = (    0.06861921667    0.06217462286    0.30517678708  )
         5           Ge  tau(   5) = (    0.00767940605   -0.00026545200    0.49158149467  )
         6           Ge  tau(   6) = (    0.05550158379    0.06789258395    0.56336835402  )
         7           Ge  tau(   7) = (    0.00464032231    0.00191083212    0.74280564949  )
         8           Ge  tau(   8) = (    0.05390068269    0.06940341762    0.81302434986  )
         9           Si  tau(   9) = (    0.00724706960    0.25225994690   -0.00224478228  )
        10           Si  tau(  10) = (    0.06655489538    0.30129492006    0.06680537167  )
        11           Ge  tau(  11) = (    0.00020334574    0.24585635545    0.25338965196  )
        12           Si  tau(  12) = (    0.06664253304    0.30017941142    0.31621917674  )
        13           Ge  tau(  13) = (    0.00842366703    0.24077773497    0.49981189902  )
        14           Si  tau(  14) = (    0.06510658504    0.31489805004    0.55291133721  )
        15           Ge  tau(  15) = (   -0.00015475712    0.24894270848    0.74217271567  )
        16           Si  tau(  16) = (    0.06914858818    0.31192764061    0.81035257772  )
        17           Si  tau(  17) = (   -0.00915060603    0.50794153511    0.00027488368  )
        18           Ge  tau(  18) = (    0.05103416907    0.56551397785    0.06459446937  )
        19           Si  tau(  19) = (    0.00142633376    0.49138482605    0.25248737229  )
        20           Si  tau(  20) = (    0.07016548395    0.56403968429    0.30540583806  )
        21           Si  tau(  21) = (   -0.00206086514    0.50129144821    0.50669313260  )
        22           Si  tau(  22) = (    0.06313334080    0.56109859060    0.56367095390  )
        23           Si  tau(  23) = (   -0.00082387688    0.50564040685    0.75108634718  )
        24           Si  tau(  24) = (    0.06057997639    0.56578464133    0.81612576779  )
        25           Si  tau(  25) = (   -0.00084647937    0.75085966827    0.00414396719  )
        26           Ge  tau(  26) = (    0.06796397440    0.81286072244    0.05744423859  )
        27           Ge  tau(  27) = (   -0.00146082575    0.76041424072    0.24783393238  )
        28           Ge  tau(  28) = (    0.06287907652    0.80356112633    0.31847400431  )
        29           Si  tau(  29) = (   -0.00112176742    0.75490069212    0.49985411913  )
        30           Ge  tau(  30) = (    0.05963359966    0.81085431024    0.57051494047  )
        31           Si  tau(  31) = (    0.00137278856    0.75179749516    0.74392531200  )
        32           Ge  tau(  32) = (    0.06205106899    0.81485356282    0.81326425017  )
        33           Ge  tau(  33) = (    0.24678075563    0.00218158129    0.00514975652  )
        34           Ge  tau(  34) = (    0.31300049269    0.06338830035    0.06784313841  )
        35           Ge  tau(  35) = (    0.24404314749    0.00365080922    0.25014294885  )
        36           Ge  tau(  36) = (    0.31124272937    0.06597459466    0.31205481147  )
        37           Ge  tau(  37) = (    0.24718561615   -0.00080935170    0.50965345938  )
        38           Ge  tau(  38) = (    0.31254213306    0.07159622739    0.55378370097  )
        39           Ge  tau(  39) = (    0.24217197153    0.00660841334    0.74987777661  )
        40           Si  tau(  40) = (    0.30481350160    0.07002864504    0.81395151889  )
        41           Si  tau(  41) = (    0.25106008224    0.25351666818   -0.00258999104  )
        42           Si  tau(  42) = (    0.32324542964    0.30754257883    0.05968687446  )
        43           Si  tau(  43) = (    0.24907836840    0.24427828354    0.25067037817  )
        44           Ge  tau(  44) = (    0.31042335787    0.31739348206    0.31214550926  )
        45           Ge  tau(  45) = (    0.25141785303    0.24731956266    0.49404723743  )
        46           Si  tau(  46) = (    0.31372993579    0.31796708321    0.56523822131  )
        47           Si  tau(  47) = (    0.24426253288    0.25439204345    0.74737839643  )
        48           Si  tau(  48) = (    0.31404738992    0.31023052586    0.81977733982  )
        49           Si  tau(  49) = (    0.24927534887    0.50856165089   -0.00666687634  )
        50           Ge  tau(  50) = (    0.30875582907    0.56431883764    0.06859535315  )
        51           Si  tau(  51) = (    0.25078418254    0.49982100200    0.25543211111  )
        52           Si  tau(  52) = (    0.31606000196    0.55654125575    0.31057903004  )
        53           Si  tau(  53) = (    0.25520271724    0.49349782948    0.50348191972  )
        54           Si  tau(  54) = (    0.31926869493    0.55443556630    0.56342799649  )
        55           Ge  tau(  55) = (    0.24272115685    0.50254930923    0.75109966094  )
        56           Ge  tau(  56) = (    0.32082643205    0.56167615959    0.81191477995  )
        57           Ge  tau(  57) = (    0.26210609949    0.74516719838   -0.00409503999  )
        58           Ge  tau(  58) = (    0.31833983084    0.80756692458    0.06428027730  )
        59           Si  tau(  59) = (    0.24950563480    0.74722953887    0.24814872308  )
        60           Si  tau(  60) = (    0.30859189981    0.81370209354    0.31496911127  )
        61           Ge  tau(  61) = (    0.24174223554    0.75391754923    0.49886010244  )
        62           Si  tau(  62) = (    0.32332392042    0.80856443008    0.55853583791  )
        63           Si  tau(  63) = (    0.24890327466    0.74792817128    0.75467619396  )
        64           Ge  tau(  64) = (    0.30766410106    0.80954619051    0.81673736602  )
        65           Ge  tau(  65) = (    0.50244407648    0.00666786633   -0.01093142554  )
        66           Ge  tau(  66) = (    0.55640503304    0.06939832878    0.05916303983  )
        67           Ge  tau(  67) = (    0.49149652358    0.00077217753    0.25593579929  )
        68           Si  tau(  68) = (    0.55379862012    0.06373495874    0.31428134769  )
        69           Ge  tau(  69) = (    0.49614794551    0.00057305511    0.49995764296  )
        70           Ge  tau(  70) = (    0.56277539525    0.06369708355    0.55374169503  )
        71           Si  tau(  71) = (    0.50113516078   -0.00197136130    0.75571875594  )
        72           Ge  tau(  72) = (    0.55523355297    0.06275505465    0.82088721662  )
        73           Si  tau(  73) = (    0.50013139999    0.25690513227   -0.00928672043  )
        74           Si  tau(  74) = (    0.55661873350    0.31296646742    0.06193613487  )
        75           Ge  tau(  75) = (    0.49979574949    0.25687505183    0.24138756202  )
        76           Si  tau(  76) = (    0.56818384898    0.31202194739    0.31310510544  )
        77           Si  tau(  77) = (    0.50238180264    0.25169117124    0.49622376035  )
        78           Ge  tau(  78) = (    0.55382522115    0.31657774346    0.56536050565  )
        79           Si  tau(  79) = (    0.50090043172    0.24803306315    0.75307782362  )
        80           Ge  tau(  80) = (    0.56737834590    0.31348819889    0.80845267533  )
        81           Si  tau(  81) = (    0.50674049018    0.50111299893   -0.00580712761  )
        82           Si  tau(  82) = (    0.55878068250    0.56667996504    0.06405550310  )
        83           Ge  tau(  83) = (    0.49423216143    0.50794320862    0.25091321958  )
        84           Ge  tau(  84) = (    0.56504177366    0.56047334583    0.30570906901  )
        85           Ge  tau(  85) = (    0.50275004666    0.49160327018    0.49915199864  )
        86           Si  tau(  86) = (    0.56270329932    0.55303748152    0.56725104597  )
        87           Ge  tau(  87) = (    0.50772536933    0.50037553684    0.74930545336  )
        88           Si  tau(  88) = (    0.56056491707    0.56802023388    0.81074986041  )
        89           Ge  tau(  89) = (    0.50217269731    0.74722670022   -0.00635079622  )
        90           Si  tau(  90) = (    0.56135611745    0.81900681848    0.06315862293  )
        91           Si  tau(  91) = (    0.49961567255    0.75700483363    0.24595798432  )
        92           Ge  tau(  92) = (    0.56933598604    0.80599578117    0.31429404150  )
        93           Si  tau(  93) = (    0.49919314020    0.74683018342    0.49588893243  )
        94           Ge  tau(  94) = (    0.56323652906    0.82111575372    0.55585721854  )
        95           Si  tau(  95) = (    0.49730916683    0.75603922220    0.75126443472  )
        96           Si  tau(  96) = (    0.56201250775    0.80630815226    0.82218818612  )
        97           Si  tau(  97) = (    0.75418466193    0.00504107405    0.00037451431  )
        98           Si  tau(  98) = (    0.81530413070    0.05317080791    0.06366258108  )
        99           Si  tau(  99) = (    0.74568046384   -0.00445727109    0.26148410806  )
       100           Si  tau( 100) = (    0.82124345882    0.05891842621    0.30869791831  )
       101           Si  tau( 101) = (    0.75161618006    0.00135903406    0.49760313872  )
       102           Si  tau( 102) = (    0.81400140425    0.06120944604    0.55518908922  )
       103           Ge  tau( 103) = (    0.75263068426    0.00198973671    0.74661081551  )
       104           Si  tau( 104) = (    0.80645159299    0.05999460049    0.81655132710  )
       105           Si  tau( 105) = (    0.74722547344    0.24786522672   -0.00027993463  )
       106           Ge  tau( 106) = (    0.81060302000    0.32345223583    0.05646930778  )
       107           Si  tau( 107) = (    0.74525079443    0.24895135156    0.25924142229  )
       108           Ge  tau( 108) = (    0.82085376116    0.31177773490    0.31038252138  )
       109           Si  tau( 109) = (    0.75481612006    0.23900753674    0.50406256628  )
       110           Si  tau( 110) = (    0.80532751026    0.31473168898    0.56157274531  )
       111           Si  tau( 111) = (    0.75222989569    0.24488043637    0.74901951820  )
       112           Ge  tau( 112) = (    0.81506824446    0.30470941406    0.81935964851  )
       113           Si  tau( 113) = (    0.75006057725    0.50346509712   -0.00770062908  )
       114           Ge  tau( 114) = (    0.81575271404    0.56255135331    0.06222102300  )
       115           Si  tau( 115) = (    0.75401577994    0.50465175696    0.23720847454  )
       116           Ge  tau( 116) = (    0.80925671955    0.57238761241    0.31211175348  )
       117           Si  tau( 117) = (    0.75098694568    0.49806854669    0.50594541972  )
       118           Ge  tau( 118) = (    0.81986679933    0.56096899904    0.56167131340  )
       119           Ge  tau( 119) = (    0.75404885450    0.50160188437    0.74842248126  )
       120           Si  tau( 120) = (    0.81518540075    0.56875987891    0.80356252845  )
       121           Si  tau( 121) = (    0.75486164569    0.74722996746   -0.00031092116  )
       122           Si  tau( 122) = (    0.80098318466    0.81736361045    0.06600265640  )
       123           Si  tau( 123) = (    0.75154196541    0.74609538301    0.24785387256  )
       124           Ge  tau( 124) = (    0.81579392010    0.81613408139    0.30249887109  )
       125           Si  tau( 125) = (    0.76025523739    0.74658468213    0.49479271867  )
       126           Ge  tau( 126) = (    0.81609581925    0.81613744609    0.56507237512  )
       127           Si  tau( 127) = (    0.75768545962    0.74611939831    0.74762132018  )
       128           Ge  tau( 128) = (    0.80417824448    0.81750115868    0.81552499940  )

     number of k points=     8  gaussian smearing, width (Ry)=  0.0150
                       cart. coord. in units 2pi/alat
        k(    1) = (   0.0000000   0.0000000   0.0000000), wk =   0.2500000
        k(    2) = (  -0.3540127  -0.3521783   0.3527079), wk =   0.2500000
        k(    3) = (  -0.3530747   0.3541571  -0.3536719), wk =   0.2500000
        k(    4) = (  -0.7070874   0.0019788  -0.0009640), wk =   0.2500000
        k(    5) = (   0.3540870  -0.3542148  -0.3534005), wk =   0.2500000
        k(    6) = (   0.0000743  -0.7063931  -0.0006927), wk =   0.2500000
        k(    7) = (   0.0010123  -0.0000577  -0.7070724), wk =   0.2500000
        k(    8) = (  -0.3530004  -0.3522360  -0.3543645), wk =   0.2500000

                       cryst. coord.
        k(    1) = (   0.0000000   0.0000000   0.0000000), wk =   0.2500000
        k(    2) = (  -0.0000000  -0.0000000  -0.5000000), wk =   0.2500000
        k(    3) = (  -0.0000000  -0.5000000  -0.0000000), wk =   0.2500000
        k(    4) = (  -0.0000000  -0.5000000  -0.5000000), wk =   0.2500000
        k(    5) = (  -0.5000000   0.0000000   0.0000000), wk =   0.2500000
        k(    6) = (  -0.5000000   0.0000000  -0.5000000), wk =   0.2500000
        k(    7) = (  -0.5000000  -0.5000000   0.0000000), wk =   0.2500000
        k(    8) = (  -0.5000000  -0.5000000  -0.5000000), wk =   0.2500000

     Dense  grid:   874197 G-vectors     FFT dimensions: ( 135, 135, 135)

     Smooth grid:   512101 G-vectors     FFT dimensions: ( 120, 120, 120)

     Largest allocated arrays     est. size (Mb)     dimensions
        Kohn-Sham Wavefunctions        40.06 Mb     (    4008,  655)
        NL pseudopotentials           140.91 Mb     (    4008, 2304)
        Each V/rho on FFT grid          2.50 Mb     (  164025)
        Each G-vector array             0.42 Mb     (   54637)
        G-vector shells                 0.41 Mb     (   54370)
     Largest temporary arrays     est. size (Mb)     dimensions
        Auxiliary wavefunctions       160.23 Mb     (    4008, 2620)
        Each subspace H/S matrix      104.74 Mb     (    2620, 2620)
        Each <psi_i|beta_j> matrix     23.03 Mb     (    2304,  655)
        Arrays for rho mixing          20.02 Mb     (  164025,    8)

     Initial potential from superposition of free atoms

     starting charge 1091.90776, renormalised to 1092.00000
     Starting wfc are  802 randomized atomic wfcs

     total cpu time spent up to now is      768.1 secs

     per-process dynamical memory:   563.9 Mb

     Self-consistent Calculation

     iteration #  1     ecut=    35.00 Ry     beta=0.30
     Davidson diagonalization with overlap
     ethr =  1.00E-02,  avg # of iterations =  3.0

     Threshold (ethr) on eigenvalues was too large:
     Diagonalizing with lowered threshold

     Davidson diagonalization with overlap
     ethr =  2.69E-04,  avg # of iterations =  5.9

     total cpu time spent up to now is     6092.2 secs

     total energy              =  -13033.61618321 Ry
     Harris-Foulkes estimate   =  -13033.92444867 Ry
     estimated scf accuracy    <       2.92816294 Ry

     iteration #  2     ecut=    35.00 Ry     beta=0.30
     Davidson diagonalization with overlap
     ethr =  2.68E-04,  avg # of iterations =  1.0

     total cpu time spent up to now is     8000.2 secs

     total energy              =  -13033.02454059 Ry
     Harris-Foulkes estimate   =  -13033.63106717 Ry
     estimated scf accuracy    <       1.80949442 Ry

     iteration #  3     ecut=    35.00 Ry     beta=0.30
     Davidson diagonalization with overlap
     ethr =  1.66E-04,  avg # of iterations =  2.3

     total cpu time spent up to now is     9982.0 secs

     total energy              =  -13033.14449366 Ry
     Harris-Foulkes estimate   =  -13033.14418779 Ry
     estimated scf accuracy    <       0.02850422 Ry

     iteration #  4     ecut=    35.00 Ry     beta=0.30
     Davidson diagonalization with overlap
     ethr =  2.61E-06,  avg # of iterations =  9.9

     total cpu time spent up to now is    15438.1 secs

     total energy              =  -13033.14875665 Ry
     Harris-Foulkes estimate   =  -13033.14943432 Ry
     estimated scf accuracy    <       0.01358816 Ry

     iteration #  5     ecut=    35.00 Ry     beta=0.30
     Davidson diagonalization with overlap
     ethr =  1.24E-06,  avg # of iterations =  2.0

     total cpu time spent up to now is    17559.8 secs

     total energy              =  -13033.14983122 Ry
     Harris-Foulkes estimate   =  -13033.14996579 Ry
     estimated scf accuracy    <       0.00107180 Ry

     iteration #  6     ecut=    35.00 Ry     beta=0.30
     Davidson diagonalization with overlap
     ethr =  9.81E-08,  avg # of iterations =  1.8

     total cpu time spent up to now is    19171.3 secs

     total energy              =  -13033.14972951 Ry
     Harris-Foulkes estimate   =  -13033.14987337 Ry
     estimated scf accuracy    <       0.00055508 Ry

     iteration #  7     ecut=    35.00 Ry     beta=0.30
     Davidson diagonalization with overlap
     ethr =  5.08E-08,  avg # of iterations =  2.5

     total cpu time spent up to now is    21022.9 secs

     total energy              =  -13033.14978753 Ry
     Harris-Foulkes estimate   =  -13033.14978088 Ry
     estimated scf accuracy    <       0.00011229 Ry

     iteration #  8     ecut=    35.00 Ry     beta=0.30
     Davidson diagonalization with overlap
     ethr =  1.03E-08,  avg # of iterations =  1.6

     total cpu time spent up to now is    22628.1 secs

     total energy              =  -13033.14977734 Ry
     Harris-Foulkes estimate   =  -13033.14979205 Ry
     estimated scf accuracy    <       0.00005890 Ry

     iteration #  9     ecut=    35.00 Ry     beta=0.30
     Davidson diagonalization with overlap
     ethr =  5.39E-09,  avg # of iterations =  3.0

     total cpu time spent up to now is    25061.1 secs

     total energy              =  -13033.14978613 Ry
     Harris-Foulkes estimate   =  -13033.14979174 Ry
     estimated scf accuracy    <       0.00001663 Ry

     iteration # 10     ecut=    35.00 Ry     beta=0.30
     Davidson diagonalization with overlap
     ethr =  1.52E-09,  avg # of iterations =  2.0

     total cpu time spent up to now is    26936.0 secs

     total energy              =  -13033.14978612 Ry
     Harris-Foulkes estimate   =  -13033.14978758 Ry
     estimated scf accuracy    <       0.00000353 Ry

     iteration # 11     ecut=    35.00 Ry     beta=0.30
     Davidson diagonalization with overlap
     ethr =  3.24E-10,  avg # of iterations =  2.0

     total cpu time spent up to now is    29414.4 secs

     total energy              =  -13033.14978683 Ry
     Harris-Foulkes estimate   =  -13033.14978672 Ry
     estimated scf accuracy    <       0.00000020 Ry

     iteration # 12     ecut=    35.00 Ry     beta=0.30
     Davidson diagonalization with overlap
     ethr =  1.81E-11,  avg # of iterations =  2.6

     total cpu time spent up to now is    31452.2 secs

     total energy              =  -13033.14978691 Ry
     Harris-Foulkes estimate   =  -13033.14978686 Ry
     estimated scf accuracy    <       0.00000009 Ry

     iteration # 13     ecut=    35.00 Ry     beta=0.30
     Davidson diagonalization with overlap
     ethr =  8.22E-12,  avg # of iterations =  2.4

     total cpu time spent up to now is    33554.7 secs

     total energy              =  -13033.14978696 Ry
     Harris-Foulkes estimate   =  -13033.14978693 Ry
     estimated scf accuracy    <          6.9E-09 Ry

     iteration # 14     ecut=    35.00 Ry     beta=0.30
     Davidson diagonalization with overlap
     ethr =  6.29E-13,  avg # of iterations =  3.0

     total cpu time spent up to now is    36137.4 secs

     total energy              =  -13033.14978698 Ry
     Harris-Foulkes estimate   =  -13033.14978696 Ry
     estimated scf accuracy    <          4.7E-09 Ry

     iteration # 15     ecut=    35.00 Ry     beta=0.30
     Davidson diagonalization with overlap
     ethr =  4.34E-13,  avg # of iterations =  2.8

     total cpu time spent up to now is    38332.7 secs

     End of self-consistent calculation

          k = 0.0000 0.0000 0.0000 ( 64055 PWs)   bands (ev):

   -17.7523 -17.6910 -17.6819 -17.6351 -17.6149 -17.6026 -17.6011 -17.5854
   -17.5699 -17.5621 -17.5601 -17.5553 -17.5518 -17.5422 -17.5384 -17.5313
   -17.5276 -17.5223 -17.5089 -17.4947 -17.4896 -17.4871 -17.4798 -17.4783
   -17.4745 -17.4731 -17.4712 -17.4623 -17.4623 -17.4589 -17.4509 -17.4506
   -17.4485 -17.4395 -17.4377 -17.4330 -17.4312 -17.4311 -17.4277 -17.4221
   -17.4196 -17.4169 -17.4108 -17.4093 -17.4091 -17.4074 -17.4045 -17.4019
   -17.4002 -17.3976 -17.3961 -17.3956 -17.3908 -17.3884 -17.3849 -17.3813
   -17.3793 -17.3778 -17.3758 -17.3662 -17.3653 -17.3579 -17.3558 -17.3532
   -17.3496 -17.3477 -17.3449 -17.3440 -17.3402 -17.3342 -17.3332 -17.3326
   -17.3295 -17.3287 -17.3275 -17.3255 -17.3239 -17.3228 -17.3225 -17.3222
   -17.3194 -17.3174 -17.3162 -17.3151 -17.3143 -17.3140 -17.3133 -17.3130
   -17.3125 -17.3110 -17.3091 -17.3075 -17.3048 -17.3026 -17.3022 -17.2976
   -17.2927 -17.2925 -17.2916 -17.2909 -17.2902 -17.2891 -17.2878 -17.2861
   -17.2841 -17.2816 -17.2799 -17.2764 -17.2749 -17.2737 -17.2700 -17.2698
   -17.2681 -17.2656 -17.2644 -17.2632 -17.2620 -17.2617 -17.2603 -17.2598
   -17.2580 -17.2572 -17.2569 -17.2554 -17.2551 -17.2543 -17.2537 -17.2526
   -17.2521 -17.2498 -17.2485 -17.2476 -17.2457 -17.2446 -17.2424 -17.2405
   -17.2402 -17.2399 -17.2383 -17.2380 -17.2353 -17.2345 -17.2344 -17.2310
   -17.2300 -17.2293 -17.2290 -17.2267 -17.2266 -17.2260 -17.2254 -17.2252
   -17.2238 -17.2235 -17.2221 -17.2213 -17.2208 -17.2197 -17.2194 -17.2192
   -17.2179 -17.2164 -17.2156 -17.2156 -17.2154 -17.2146 -17.2117 -17.2112
   -17.2076 -17.2060 -17.2052 -17.2044 -17.2002 -17.1990 -17.1973 -17.1939
   -17.1925 -17.1920 -17.1894 -17.1888 -17.1885 -17.1874 -17.1864 -17.1835
   -17.1830 -17.1819 -17.1811 -17.1790 -17.1774 -17.1772 -17.1767 -17.1762
   -17.1756 -17.1734 -17.1728 -17.1697 -17.1690 -17.1667 -17.1656 -17.1650
   -17.1641 -17.1610 -17.1584 -17.1565 -17.1544 -17.1508 -17.1491 -17.1491
   -17.1478 -17.1462 -17.1457 -17.1450 -17.1447 -17.1426 -17.1410 -17.1386
   -17.1378 -17.1367 -17.1348 -17.1347 -17.1325 -17.1308 -17.1293 -17.1282
   -17.1273 -17.1248 -17.1235 -17.1210 -17.1204 -17.1182 -17.1157 -17.1151
   -17.1136 -17.1108 -17.1103 -17.1076 -17.1060 -17.1055 -17.1048 -17.1027
   -17.1012 -17.1005 -17.0999 -17.0994 -17.0977 -17.0964 -17.0951 -17.0950
   -17.0946 -17.0933 -17.0924 -17.0902 -17.0893 -17.0883 -17.0874 -17.0831
   -17.0814 -17.0778 -17.0772 -17.0763 -17.0758 -17.0752 -17.0740 -17.0738
   -17.0682 -17.0669 -17.0622 -17.0585 -17.0563 -17.0552 -17.0537 -17.0503
   -17.0448 -17.0435 -17.0406 -17.0399 -17.0390 -17.0339 -17.0297 -17.0164
   -17.0147 -17.0134 -17.0024 -16.9986 -16.9973 -16.9900 -16.9764 -16.9687
   -16.9571 -16.9311  -5.3714  -4.8660  -4.8087  -4.7148  -4.6431  -4.6372
    -4.5238  -4.4616  -4.3995  -4.3448  -4.2901  -4.2177  -4.1722  -4.1371
    -4.0463  -3.6681  -3.5779  -3.5547  -3.5260  -3.4251  -3.4056  -3.3486
    -3.3088  -3.2732  -3.2080  -3.1677  -3.1418  -3.1115  -3.0578  -3.0080
    -2.9612  -2.9190  -2.8869  -2.8376  -2.7772  -2.7614  -2.7088  -2.6642
    -2.6478  -2.6069  -2.5306  -2.5113  -2.4725  -2.4307  -2.4055  -2.3957
    -2.3552  -2.3374  -2.3036  -2.2843  -2.2572  -2.2140  -2.1980  -2.1652
    -2.0565  -1.4272  -1.3715  -1.2914  -1.2269  -1.1973  -1.1640  -1.1005
    -1.0643  -1.0422  -0.9803  -0.9695  -0.9242  -0.8978  -0.8733  -0.7684
    -0.7589  -0.7438  -0.6622  -0.2061  -0.1658  -0.1418  -0.1229   0.0098
     0.0866   0.1055   0.1167   0.1763   0.2196   0.2768   0.3055   0.3408
     0.3680   0.3796   0.3903   0.4050   0.4467   0.4737   0.4917   0.5299
     0.5499   0.5520   0.5629   0.6298   0.6703   0.7268   0.7623   1.0862
     1.1874   1.2067   1.2244   1.2538   1.2822   1.3421   1.3550   1.4253
     1.4623   1.4916   1.4982   2.7121   2.7726   2.8087   2.8361   2.8755
     2.9258   2.9594   2.9707   3.0182   3.0350   3.0835   3.1052   3.1117
     3.1415   3.1630   3.1672   3.1873   3.1962   3.2128   3.2191   3.2222
     3.2471   3.2643   3.2737   3.2773   3.2927   3.3048   3.3125   3.3168
     3.3386   3.3437   3.3593   3.3670   3.3892   3.3973   3.4052   3.4307
     3.4385   3.4628   3.4679   3.4783   3.4929   3.5045   3.5239   3.5312
     3.5481   3.5628   3.5810   3.5939   3.5998   3.6047   3.6141   3.6251
     3.6409   3.6556   3.6761   3.6977   3.7030   3.7313   3.7428   3.7469
     3.8063   4.1886   4.2032   4.2211   4.2427   4.2501   4.2768   4.6923
     4.7185   4.7274   4.7602   4.7759   4.7880   4.8065   4.8098   4.8286
     4.8477   4.8647   4.8682   4.8713   4.8957   4.8999   4.9147   4.9330
     4.9460   4.9565   4.9734   4.9887   5.0102   5.0348   5.0814   5.1444
     5.1690   5.1846   5.2066   5.2332   5.2534   5.2734   5.2795   5.2932
     5.3267   5.3427   5.3906   5.6010   5.6695   5.6774   5.7249   5.7449
     5.7523   5.7691   5.8016   5.8268   5.8518   5.8528   5.8697   5.8914
     5.9135   5.9479   5.9782   5.9822   6.0206   6.0386   6.0952   6.2322
     6.2791   6.3040   6.3320   6.3540   6.4021   6.4333   6.4601   6.4637
     6.4988   6.5304   6.5462   6.5850   6.6044   6.6264   6.6716   7.2555
     7.3219   7.3351   7.6800   7.7080   7.7302   7.7460   7.8004   7.8290
     7.9416   7.9694   7.9993   8.0210   8.0523   8.0913   8.1035   8.1626
     8.1893   8.2506   8.2994   8.3273   8.3377   8.3790   8.3991   8.4159
     8.4219   8.4369   8.4576   8.4685   8.4878   8.5116   8.5356   8.5587
     8.5652   8.5845   8.5976   8.6149   8.6407   8.6549   8.6593   8.6877
     8.6966   8.7141   8.7261   8.7400   8.7473   8.7800   8.8015   8.8187
     8.8457   8.8770   9.0233   9.2300   9.2719   9.3098   9.3433   9.3615
     9.4228   9.4460   9.4579   9.4699   9.4941   9.5324   9.5566   9.6402
     9.6917   9.7464  10.0408  10.0756  10.0985  10.1453  10.1857  10.1942
    10.4174  10.4413  10.4676  10.4854  10.5002  10.5210  10.5383  10.5709
    10.5848  10.6336  10.6636  10.6641  10.6923  10.7136  10.7267  10.7414
    10.7633  10.7883  10.8088  10.8355  10.8433  10.8730  10.9038  10.9327
    11.2310  11.2561  11.2674  11.2837  11.3137  11.3202  11.3363  11.3570
    11.3676  11.3946  11.4025  11.4080  11.4350  11.4467  11.4646

     occupation numbers 
     1.0000   1.0000   1.0000   1.0000   1.0000   1.0000   1.0000   1.0000
     1.0000   1.0000   1.0000   1.0000   1.0000   1.0000   1.0000   1.0000
     1.0000   1.0000   1.0000   1.0000   1.0000   1.0000   1.0000   1.0000
     1.0000   1.0000   1.0000   1.0000   1.0000   1.0000   1.0000   1.0000
     1.0000   1.0000   1.0000   1.0000   1.0000   1.0000   1.0000   1.0000
     1.0000   1.0000   1.0000   1.0000   1.0000   1.0000   1.0000   1.0000
     1.0000   1.0000   1.0000   1.0000   1.0000   1.0000   1.0000   1.0000
     1.0000   1.0000   1.0000   1.0000   1.0000   1.0000   1.0000   1.0000
     1.0000   1.0000   1.0000   1.0000   1.0000   1.0000   1.0000   1.0000
     1.0000   1.0000   1.0000   1.0000   1.0000   1.0000   1.0000   1.0000
     1.0000   1.0000   1.0000   1.0000   1.0000   1.0000   1.0000   1.0000
     1.0000   1.0000   1.0000   1.0000   1.0000   1.0000   1.0000   1.0000
     1.0000   1.0000   1.0000   1.0000   1.0000   1.0000   1.0000   1.0000
     1.0000   1.0000   1.0000   1.0000   1.0000   1.0000   1.0000   1.0000
     1.0000   1.0000   1.0000   1.0000   1.0000   1.0000   1.0000   1.0000
     1.0000   1.0000   1.0000   1.0000   1.0000   1.0000   1.0000   1.0000
     1.0000   1.0000   1.0000   1.0000   1.0000   1.0000   1.0000   1.0000
     1.0000   1.0000   1.0000   1.0000   1.0000   1.0000   1.0000   1.0000
     1.0000   1.0000   1.0000   1.0000   1.0000   1.0000   1.0000   1.0000
     1.0000   1.0000   1.0000   1.0000   1.0000   1.0000   1.0000   1.0000
     1.0000   1.0000   1.0000   1.0000   1.0000   1.0000   1.0000   1.0000
     1.0000   1.0000   1.0000   1.0000   1.0000   1.0000   1.0000   1.0000
     1.0000   1.0000   1.0000   1.0000   1.0000   1.0000   1.0000   1.0000
     1.0000   1.0000   1.0000   1.0000   1.0000   1.0000   1.0000   1.0000
     1.0000   1.0000   1.0000   1.0000   1.0000   1.0000   1.0000   1.0000
     1.0000   1.0000   1.0000   1.0000   1.0000   1.0000   1.0000   1.0000
     1.0000   1.0000   1.0000   1.0000   1.0000   1.0000   1.0000   1.0000
     1.0000   1.0000   1.0000   1.0000   1.0000   1.0000   1.0000   1.0000
     1.0000   1.0000   1.0000   1.0000   1.0000   1.0000   1.0000   1.0000
     1.0000   1.0000   1.0000   1.0000   1.0000   1.0000   1.0000   1.0000
     1.0000   1.0000   1.0000   1.0000   1.0000   1.0000   1.0000   1.0000
     1.0000   1.0000   1.0000   1.0000   1.0000   1.0000   1.0000   1.0000
     1.0000   1.0000   1.0000   1.0000   1.0000   1.0000   1.0000   1.0000
     1.0000   1.0000   1.0000   1.0000   1.0000   1.0000   1.0000   1.0000
     1.0000   1.0000   1.0000   1.0000   1.0000   1.0000   1.0000   1.0000
     1.0000   1.0000   1.0000   1.0000   1.0000   1.0000   1.0000   1.0000
     1.0000   1.0000   1.0000   1.0000   1.0000   1.0000   1.0000   1.0000
     1.0000   1.0000   1.0000   1.0000   1.0000   1.0000   1.0000   1.0000
     1.0000   1.0000   1.0000   1.0000   1.0000   1.0000   1.0000   1.0000
     1.0000   1.0000   1.0000   1.0000   1.0000   1.0000   1.0000   1.0000
     1.0000   1.0000   1.0000   1.0000   1.0000   1.0000   1.0000   1.0000
     1.0000   1.0000   1.0000   1.0000   1.0000   1.0000   1.0000   1.0000
     1.0000   1.0000   1.0000   1.0000   1.0000   1.0000   1.0000   1.0000
     1.0000   1.0000   1.0000   1.0000   1.0000   1.0000   1.0000   1.0000
     1.0000   1.0000   1.0000   1.0000   1.0000   1.0000   1.0000   1.0000
     1.0000   1.0000   1.0000   1.0000   1.0000   1.0000   1.0000   1.0000
     1.0000   1.0000   1.0000   1.0000   1.0000   1.0000   1.0000   1.0000
     1.0000   1.0000   1.0000   1.0000   1.0000   1.0000   1.0000   1.0000
     1.0000   1.0000   1.0000   1.0000   1.0000   1.0000   1.0000   1.0000
     1.0000   1.0000   1.0000   1.0000   1.0000   1.0000   1.0000   1.0000
     1.0000   1.0000   1.0000   1.0000   1.0000   1.0000   1.0000   1.0000
     1.0000   1.0000   1.0000   1.0000   1.0000   1.0000   1.0000   1.0000
     1.0000   1.0000   1.0000   1.0000   1.0000   1.0000   1.0000   1.0000
     1.0000   1.0000   1.0000   1.0000   1.0000   1.0000   1.0000   1.0000
     1.0000   1.0000   1.0000   1.0000   1.0000   1.0000   1.0000   1.0000
     1.0000   1.0000   1.0000   1.0000   1.0000   1.0000   1.0000   1.0000
     1.0000   1.0000   1.0000   1.0000   1.0000   1.0000   1.0000   1.0000
     1.0000   1.0000   1.0000   1.0000   1.0000   1.0000   1.0000   1.0000
     1.0000   1.0000   1.0000   1.0000   1.0000   1.0000   1.0000   1.0000
     1.0000   1.0000   1.0000   1.0000   1.0000   1.0000   1.0000   1.0000
     1.0000   1.0000   1.0000   1.0000   1.0000   1.0000   1.0000   1.0000
     1.0000   1.0000   1.0000   1.0000   1.0000   1.0000   1.0000   1.0000
     1.0000   1.0000   1.0000   1.0000   1.0000   1.0000   1.0000   1.0000
     1.0000   1.0000   1.0000   1.0000   1.0000   1.0000   1.0000   1.0000
     1.0000   1.0000   1.0000   1.0000   1.0000   1.0000   1.0000   1.0000
     1.0000   1.0000   1.0000   1.0000   1.0000   1.0000   1.0000   1.0000
     1.0000   1.0000   1.0000   1.0000   1.0000   1.0000   1.0000   1.0000
     1.0000   1.0000   1.0000   1.0000   1.0000   1.0000   1.0000   0.9045
     0.8017   0.7752   0.0512   0.0338   0.0237   0.0183   0.0068   0.0038
     0.0003   0.0001   0.0001   0.0000   0.0000   0.0000   0.0000   0.0000
     0.0000   0.0000   0.0000   0.0000   0.0000   0.0000   0.0000   0.0000
     0.0000   0.0000   0.0000   0.0000   0.0000   0.0000   0.0000   0.0000
     0.0000   0.0000   0.0000   0.0000   0.0000   0.0000   0.0000   0.0000
     0.0000   0.0000   0.0000   0.0000   0.0000   0.0000   0.0000   0.0000
     0.0000   0.0000   0.0000   0.0000   0.0000   0.0000   0.0000   0.0000
     0.0000   0.0000   0.0000   0.0000   0.0000   0.0000   0.0000   0.0000
     0.0000   0.0000   0.0000   0.0000   0.0000   0.0000   0.0000   0.0000
     0.0000   0.0000   0.0000   0.0000   0.0000   0.0000   0.0000   0.0000
     0.0000   0.0000   0.0000   0.0000   0.0000   0.0000   0.0000   0.0000
     0.0000   0.0000   0.0000   0.0000   0.0000   0.0000   0.0000   0.0000
     0.0000   0.0000   0.0000   0.0000   0.0000   0.0000   0.0000   0.0000
     0.0000   0.0000   0.0000   0.0000   0.0000   0.0000   0.0000

          k =-0.3540-0.3522 0.3527 ( 64024 PWs)   bands (ev):

   -17.7523 -17.6911 -17.6819 -17.6351 -17.6150 -17.6027 -17.6011 -17.5854
   -17.5699 -17.5621 -17.5602 -17.5554 -17.5518 -17.5423 -17.5384 -17.5313
   -17.5276 -17.5223 -17.5089 -17.4947 -17.4896 -17.4871 -17.4798 -17.4783
   -17.4745 -17.4732 -17.4712 -17.4624 -17.4623 -17.4588 -17.4509 -17.4506
   -17.4485 -17.4395 -17.4377 -17.4330 -17.4313 -17.4311 -17.4278 -17.4221
   -17.4196 -17.4170 -17.4108 -17.4095 -17.4089 -17.4075 -17.4045 -17.4021
   -17.4003 -17.3975 -17.3961 -17.3957 -17.3908 -17.3884 -17.3850 -17.3813
   -17.3794 -17.3778 -17.3758 -17.3662 -17.3654 -17.3580 -17.3558 -17.3532
   -17.3496 -17.3479 -17.3450 -17.3439 -17.3402 -17.3343 -17.3332 -17.3326
   -17.3296 -17.3288 -17.3276 -17.3255 -17.3240 -17.3228 -17.3226 -17.3222
   -17.3190 -17.3178 -17.3162 -17.3153 -17.3144 -17.3136 -17.3132 -17.3130
   -17.3125 -17.3108 -17.3095 -17.3075 -17.3048 -17.3026 -17.3023 -17.2977
   -17.2927 -17.2924 -17.2919 -17.2908 -17.2902 -17.2891 -17.2878 -17.2862
   -17.2839 -17.2816 -17.2799 -17.2765 -17.2750 -17.2738 -17.2700 -17.2698
   -17.2681 -17.2657 -17.2648 -17.2634 -17.2620 -17.2616 -17.2603 -17.2598
   -17.2580 -17.2573 -17.2562 -17.2557 -17.2555 -17.2546 -17.2537 -17.2528
   -17.2521 -17.2498 -17.2486 -17.2476 -17.2459 -17.2446 -17.2421 -17.2406
   -17.2403 -17.2400 -17.2384 -17.2379 -17.2356 -17.2348 -17.2341 -17.2311
   -17.2300 -17.2294 -17.2289 -17.2269 -17.2266 -17.2261 -17.2254 -17.2252
   -17.2239 -17.2235 -17.2221 -17.2212 -17.2208 -17.2198 -17.2194 -17.2194
   -17.2180 -17.2161 -17.2157 -17.2157 -17.2154 -17.2148 -17.2117 -17.2112
   -17.2076 -17.2060 -17.2052 -17.2045 -17.2002 -17.1991 -17.1975 -17.1937
   -17.1924 -17.1922 -17.1893 -17.1888 -17.1885 -17.1873 -17.1865 -17.1838
   -17.1830 -17.1820 -17.1810 -17.1791 -17.1775 -17.1775 -17.1767 -17.1757
   -17.1756 -17.1736 -17.1728 -17.1697 -17.1691 -17.1670 -17.1653 -17.1650
   -17.1641 -17.1611 -17.1584 -17.1563 -17.1546 -17.1508 -17.1492 -17.1491
   -17.1479 -17.1461 -17.1457 -17.1451 -17.1448 -17.1428 -17.1411 -17.1386
   -17.1378 -17.1368 -17.1348 -17.1347 -17.1323 -17.1309 -17.1297 -17.1283
   -17.1274 -17.1248 -17.1235 -17.1210 -17.1204 -17.1180 -17.1158 -17.1151
   -17.1136 -17.1109 -17.1104 -17.1076 -17.1061 -17.1054 -17.1049 -17.1029
   -17.1012 -17.1006 -17.0997 -17.0994 -17.0977 -17.0964 -17.0951 -17.0951
   -17.0947 -17.0934 -17.0924 -17.0902 -17.0894 -17.0883 -17.0874 -17.0833
   -17.0818 -17.0780 -17.0772 -17.0761 -17.0758 -17.0748 -17.0741 -17.0740
   -17.0679 -17.0669 -17.0626 -17.0585 -17.0565 -17.0549 -17.0537 -17.0503
   -17.0449 -17.0430 -17.0412 -17.0399 -17.0389 -17.0340 -17.0297 -17.0166
   -17.0148 -17.0134 -17.0024 -16.9985 -16.9974 -16.9901 -16.9764 -16.9687
   -16.9572 -16.9311  -5.2610  -5.1148  -4.8407  -4.7843  -4.6592  -4.6127
    -4.5513  -4.4976  -4.2996  -4.2347  -4.1249  -4.1097  -4.0192  -3.9343
    -3.8945  -3.7869  -3.7233  -3.6410  -3.5880  -3.5670  -3.5202  -3.4457
    -3.3953  -3.3082  -3.2570  -3.2378  -3.1866  -3.1535  -3.0960  -3.0335
    -2.9897  -2.9762  -2.9596  -2.8670  -2.8409  -2.7928  -2.7557  -2.7084
    -2.6809  -2.6545  -2.5996  -2.4961  -2.4046  -2.3090  -2.2266  -2.2071
    -2.2006  -2.0818  -2.0612  -2.0402  -1.9734  -1.9367  -1.9257  -1.8945
    -1.8509  -1.7804  -1.7577  -1.7147  -1.6973  -1.6565  -1.5970  -1.5693
    -1.4423  -1.4331  -0.5608  -0.5157  -0.4883  -0.4650  -0.4585  -0.3927
    -0.3343  -0.3167  -0.2882  -0.2425  -0.2193  -0.1621  -0.1539  -0.1404
    -0.0875  -0.0558  -0.0442   0.0357   0.0437   0.0687   0.1076   0.1727
     0.1882   0.2051   0.2439   0.2934   0.3076   0.3217   0.3490   0.3619
     0.6916   0.7369   0.8301   0.8733   0.8950   0.9264   0.9582   0.9796
     1.0440   1.0807   1.0926   1.1311   1.1789   1.2480   1.5729   1.7345
     1.7533   1.8376   1.8982   1.9443   2.1121   2.1681   2.1946   2.2267
     2.2910   2.3344   2.9052   2.9168   2.9503   2.9683   2.9885   3.0107
     3.0156   3.0337   3.0372   3.0631   3.0690   3.0740   3.1013   3.1225
     3.1455   3.1658   3.1929   3.2223   3.4506   3.4657   3.5029   3.5417
     3.5563   3.5697   3.6023   3.6126   3.6367   3.6513   3.6608   3.6632
     3.6808   3.7102   3.7243   3.7360   3.7501   3.7608   3.7846   3.7863
     3.8041   3.8362   3.8743   3.9037   4.0304   4.0610   4.0742   4.0908
     4.1136   4.1279   4.1517   4.1718   4.1757   4.1873   4.2112   4.2276
     4.2855   4.3089   4.3531   4.3835   4.3886   4.4063   4.4199   4.4460
     4.4554   4.5046   4.5104   4.5479   4.5794   4.6001   4.6326   4.6815
     4.6880   4.7296   4.7431   4.7483   4.7498   4.8017   4.8198   4.8412
     4.8455   4.8827   4.9055   4.9538   4.9618   4.9748   5.0076   5.0448
     5.0621   5.1058   5.1282   5.1315   5.1613   5.1823   5.2099   5.2246
     5.2364   5.2427   5.2572   5.2781   5.3009   5.3196   5.3262   5.3514
     5.3682   5.4666   5.4757   5.5342   5.5703   5.6009   5.6608   5.6937
     5.7325   5.7414   5.7762   5.8110   5.8348   5.8601   5.8748   5.8883
     5.9156   5.9402   5.9578   6.0107   6.0330   6.0575   6.1481   6.1960
     6.3870   6.4070   6.4518   6.4601   6.4798   6.5709   6.8749   6.9489
     7.0599   7.1136   7.8535   7.9018   7.9199   7.9869   8.0228   8.0704
     8.1297   8.2126   8.2551   8.3548   8.3740   8.4148   8.4492   8.4666
     8.7075   8.7413   8.7665   8.7987   8.8279   8.8512   8.8713   8.8750
     8.8978   8.9097   8.9437   8.9538   8.9714   8.9892   9.0036   9.0087
     9.0275   9.0611   9.1240   9.1302   9.1511   9.1681   9.1982   9.2064
     9.2222   9.2644   9.2676   9.3096   9.3405   9.3496   9.3713   9.3844
     9.4116   9.4377   9.4491   9.4529   9.4753   9.4888   9.5260   9.5374
     9.5498   9.5718   9.5906   9.6205   9.6946   9.7215   9.7757   9.7813
     9.7948   9.8275   9.8525   9.8779   9.8813   9.9085   9.9251   9.9407
     9.9776   9.9944  10.0258  10.0416  10.0468  10.0880  10.1210  10.1487
    10.1915  10.2008  10.2823  10.3130  10.3290  10.3492  10.3682  10.3849
    10.4317  10.4450  10.4690  10.4827  10.5093  10.5259  10.5397  10.5484
    10.5773  10.6039  10.6072  10.6254  10.6473  10.6492  10.6731  10.6886
    10.7031  10.7441  10.7501  10.7768  10.8003  10.8339  10.8646

     occupation numbers 
     1.0000   1.0000   1.0000   1.0000   1.0000   1.0000   1.0000   1.0000
     1.0000   1.0000   1.0000   1.0000   1.0000   1.0000   1.0000   1.0000
     1.0000   1.0000   1.0000   1.0000   1.0000   1.0000   1.0000   1.0000
     1.0000   1.0000   1.0000   1.0000   1.0000   1.0000   1.0000   1.0000
     1.0000   1.0000   1.0000   1.0000   1.0000   1.0000   1.0000   1.0000
     1.0000   1.0000   1.0000   1.0000   1.0000   1.0000   1.0000   1.0000
     1.0000   1.0000   1.0000   1.0000   1.0000   1.0000   1.0000   1.0000
     1.0000   1.0000   1.0000   1.0000   1.0000   1.0000   1.0000   1.0000
     1.0000   1.0000   1.0000   1.0000   1.0000   1.0000   1.0000   1.0000
     1.0000   1.0000   1.0000   1.0000   1.0000   1.0000   1.0000   1.0000
     1.0000   1.0000   1.0000   1.0000   1.0000   1.0000   1.0000   1.0000
     1.0000   1.0000   1.0000   1.0000   1.0000   1.0000   1.0000   1.0000
     1.0000   1.0000   1.0000   1.0000   1.0000   1.0000   1.0000   1.0000
     1.0000   1.0000   1.0000   1.0000   1.0000   1.0000   1.0000   1.0000
     1.0000   1.0000   1.0000   1.0000   1.0000   1.0000   1.0000   1.0000
     1.0000   1.0000   1.0000   1.0000   1.0000   1.0000   1.0000   1.0000
     1.0000   1.0000   1.0000   1.0000   1.0000   1.0000   1.0000   1.0000
     1.0000   1.0000   1.0000   1.0000   1.0000   1.0000   1.0000   1.0000
     1.0000   1.0000   1.0000   1.0000   1.0000   1.0000   1.0000   1.0000
     1.0000   1.0000   1.0000   1.0000   1.0000   1.0000   1.0000   1.0000
     1.0000   1.0000   1.0000   1.0000   1.0000   1.0000   1.0000   1.0000
     1.0000   1.0000   1.0000   1.0000   1.0000   1.0000   1.0000   1.0000
     1.0000   1.0000   1.0000   1.0000   1.0000   1.0000   1.0000   1.0000
     1.0000   1.0000   1.0000   1.0000   1.0000   1.0000   1.0000   1.0000
     1.0000   1.0000   1.0000   1.0000   1.0000   1.0000   1.0000   1.0000
     1.0000   1.0000   1.0000   1.0000   1.0000   1.0000   1.0000   1.0000
     1.0000   1.0000   1.0000   1.0000   1.0000   1.0000   1.0000   1.0000
     1.0000   1.0000   1.0000   1.0000   1.0000   1.0000   1.0000   1.0000
     1.0000   1.0000   1.0000   1.0000   1.0000   1.0000   1.0000   1.0000
     1.0000   1.0000   1.0000   1.0000   1.0000   1.0000   1.0000   1.0000
     1.0000   1.0000   1.0000   1.0000   1.0000   1.0000   1.0000   1.0000
     1.0000   1.0000   1.0000   1.0000   1.0000   1.0000   1.0000   1.0000
     1.0000   1.0000   1.0000   1.0000   1.0000   1.0000   1.0000   1.0000
     1.0000   1.0000   1.0000   1.0000   1.0000   1.0000   1.0000   1.0000
     1.0000   1.0000   1.0000   1.0000   1.0000   1.0000   1.0000   1.0000
     1.0000   1.0000   1.0000   1.0000   1.0000   1.0000   1.0000   1.0000
     1.0000   1.0000   1.0000   1.0000   1.0000   1.0000   1.0000   1.0000
     1.0000   1.0000   1.0000   1.0000   1.0000   1.0000   1.0000   1.0000
     1.0000   1.0000   1.0000   1.0000   1.0000   1.0000   1.0000   1.0000
     1.0000   1.0000   1.0000   1.0000   1.0000   1.0000   1.0000   1.0000
     1.0000   1.0000   1.0000   1.0000   1.0000   1.0000   1.0000   1.0000
     1.0000   1.0000   1.0000   1.0000   1.0000   1.0000   1.0000   1.0000
     1.0000   1.0000   1.0000   1.0000   1.0000   1.0000   1.0000   1.0000
     1.0000   1.0000   1.0000   1.0000   1.0000   1.0000   1.0000   1.0000
     1.0000   1.0000   1.0000   1.0000   1.0000   1.0000   1.0000   1.0000
     1.0000   1.0000   1.0000   1.0000   1.0000   1.0000   1.0000   1.0000
     1.0000   1.0000   1.0000   1.0000   1.0000   1.0000   1.0000   1.0000
     1.0000   1.0000   1.0000   1.0000   1.0000   1.0000   1.0000   1.0000
     1.0000   1.0000   1.0000   1.0000   1.0000   1.0000   1.0000   1.0000
     1.0000   1.0000   1.0000   1.0000   1.0000   1.0000   1.0000   1.0000
     1.0000   1.0000   1.0000   1.0000   1.0000   1.0000   1.0000   1.0000
     1.0000   1.0000   1.0000   1.0000   1.0000   1.0000   1.0000   1.0000
     1.0000   1.0000   1.0000   1.0000   1.0000   1.0000   1.0000   1.0000
     1.0000   1.0000   1.0000   1.0000   1.0000   1.0000   1.0000   1.0000
     1.0000   1.0000   1.0000   1.0000   1.0000   1.0000   1.0000   1.0000
     1.0000   1.0000   1.0000   1.0000   1.0000   1.0000   1.0000   1.0000
     1.0000   1.0000   1.0000   1.0000   1.0000   1.0000   1.0000   1.0000
     1.0000   1.0000   1.0000   1.0000   1.0000   1.0000   1.0000   1.0000
     1.0000   1.0000   1.0000   1.0000   1.0000   1.0000   1.0000   1.0000
     1.0000   1.0000   1.0000   1.0000   1.0000   1.0000   1.0000   1.0000
     1.0000   1.0000   1.0000   1.0000   1.0000   1.0000   1.0000   1.0000
     1.0000   1.0000   1.0000   1.0000   1.0000   1.0000   1.0000   1.0000
     1.0000   1.0000   1.0000   1.0000   1.0000   1.0000   1.0000   1.0000
     1.0000   1.0000   1.0000   1.0000   1.0000   1.0000   1.0000   1.0000
     1.0000   1.0000   1.0000   1.0000   1.0000   1.0000   1.0000   1.0000
     1.0000   1.0000   1.0000   1.0000   1.0000   1.0000   1.0000   1.0000
     1.0000   1.0000   1.0000   1.0000   1.0000   1.0000   1.0000   1.0000
     1.0000   1.0000   1.0000   1.0000   1.0000   1.0000   1.0000   0.9997
     0.9961   0.9890   0.0023   0.0008   0.0005   0.0001   0.0000   0.0000
     0.0000   0.0000   0.0000   0.0000   0.0000   0.0000   0.0000   0.0000
     0.0000   0.0000   0.0000   0.0000   0.0000   0.0000   0.0000   0.0000
     0.0000   0.0000   0.0000   0.0000   0.0000   0.0000   0.0000   0.0000
     0.0000   0.0000   0.0000   0.0000   0.0000   0.0000   0.0000   0.0000
     0.0000   0.0000   0.0000   0.0000   0.0000   0.0000   0.0000   0.0000
     0.0000   0.0000   0.0000   0.0000   0.0000   0.0000   0.0000   0.0000
     0.0000   0.0000   0.0000   0.0000   0.0000   0.0000   0.0000   0.0000
     0.0000   0.0000   0.0000   0.0000   0.0000   0.0000   0.0000   0.0000
     0.0000   0.0000   0.0000   0.0000   0.0000   0.0000   0.0000   0.0000
     0.0000   0.0000   0.0000   0.0000   0.0000   0.0000   0.0000   0.0000
     0.0000   0.0000   0.0000   0.0000   0.0000   0.0000   0.0000   0.0000
     0.0000   0.0000   0.0000   0.0000   0.0000   0.0000   0.0000   0.0000
     0.0000   0.0000   0.0000   0.0000   0.0000   0.0000   0.0000

          k =-0.3531 0.3542-0.3537 ( 63998 PWs)   bands (ev):

   -17.7523 -17.6911 -17.6819 -17.6351 -17.6150 -17.6027 -17.6012 -17.5854
   -17.5699 -17.5621 -17.5602 -17.5554 -17.5518 -17.5423 -17.5384 -17.5313
   -17.5276 -17.5223 -17.5089 -17.4947 -17.4896 -17.4871 -17.4798 -17.4783
   -17.4745 -17.4732 -17.4712 -17.4623 -17.4623 -17.4590 -17.4509 -17.4506
   -17.4485 -17.4395 -17.4377 -17.4330 -17.4313 -17.4311 -17.4278 -17.4221
   -17.4197 -17.4169 -17.4108 -17.4094 -17.4090 -17.4074 -17.4045 -17.4020
   -17.4002 -17.3976 -17.3961 -17.3957 -17.3908 -17.3884 -17.3850 -17.3813
   -17.3794 -17.3778 -17.3758 -17.3662 -17.3653 -17.3579 -17.3559 -17.3532
   -17.3497 -17.3478 -17.3449 -17.3440 -17.3402 -17.3342 -17.3332 -17.3326
   -17.3296 -17.3288 -17.3276 -17.3255 -17.3240 -17.3228 -17.3226 -17.3222
   -17.3194 -17.3175 -17.3163 -17.3152 -17.3143 -17.3141 -17.3134 -17.3130
   -17.3126 -17.3109 -17.3091 -17.3075 -17.3048 -17.3026 -17.3023 -17.2977
   -17.2927 -17.2925 -17.2917 -17.2909 -17.2902 -17.2892 -17.2878 -17.2861
   -17.2839 -17.2816 -17.2800 -17.2765 -17.2750 -17.2738 -17.2700 -17.2698
   -17.2682 -17.2657 -17.2645 -17.2633 -17.2620 -17.2618 -17.2603 -17.2599
   -17.2581 -17.2573 -17.2568 -17.2555 -17.2552 -17.2544 -17.2536 -17.2527
   -17.2522 -17.2500 -17.2486 -17.2475 -17.2457 -17.2447 -17.2425 -17.2405
   -17.2403 -17.2400 -17.2383 -17.2380 -17.2354 -17.2346 -17.2345 -17.2311
   -17.2300 -17.2293 -17.2291 -17.2267 -17.2266 -17.2261 -17.2255 -17.2252
   -17.2238 -17.2235 -17.2221 -17.2213 -17.2209 -17.2198 -17.2194 -17.2193
   -17.2180 -17.2163 -17.2157 -17.2156 -17.2154 -17.2147 -17.2117 -17.2113
   -17.2076 -17.2061 -17.2052 -17.2045 -17.2003 -17.1990 -17.1974 -17.1939
   -17.1925 -17.1920 -17.1895 -17.1888 -17.1886 -17.1874 -17.1864 -17.1835
   -17.1830 -17.1820 -17.1811 -17.1791 -17.1775 -17.1772 -17.1767 -17.1762
   -17.1756 -17.1736 -17.1728 -17.1698 -17.1691 -17.1667 -17.1656 -17.1650
   -17.1640 -17.1610 -17.1584 -17.1565 -17.1546 -17.1507 -17.1492 -17.1491
   -17.1478 -17.1461 -17.1457 -17.1451 -17.1448 -17.1427 -17.1411 -17.1386
   -17.1379 -17.1368 -17.1348 -17.1346 -17.1325 -17.1308 -17.1295 -17.1283
   -17.1274 -17.1248 -17.1236 -17.1210 -17.1204 -17.1183 -17.1157 -17.1152
   -17.1136 -17.1109 -17.1104 -17.1076 -17.1061 -17.1055 -17.1049 -17.1027
   -17.1013 -17.1005 -17.0999 -17.0994 -17.0977 -17.0964 -17.0951 -17.0950
   -17.0946 -17.0934 -17.0924 -17.0903 -17.0894 -17.0883 -17.0873 -17.0832
   -17.0818 -17.0779 -17.0772 -17.0763 -17.0758 -17.0750 -17.0740 -17.0737
   -17.0683 -17.0668 -17.0622 -17.0585 -17.0563 -17.0552 -17.0537 -17.0504
   -17.0448 -17.0436 -17.0407 -17.0399 -17.0390 -17.0340 -17.0297 -17.0166
   -17.0147 -17.0135 -17.0024 -16.9986 -16.9973 -16.9900 -16.9764 -16.9687
   -16.9572 -16.9311  -5.2904  -5.0475  -4.8217  -4.7928  -4.6958  -4.6314
    -4.5978  -4.5030  -4.2742  -4.2035  -4.1338  -4.0838  -4.0351  -3.9769
    -3.8676  -3.8182  -3.7001  -3.6013  -3.5922  -3.5259  -3.5096  -3.4504
    -3.3615  -3.2893  -3.2726  -3.2426  -3.1923  -3.1105  -3.0990  -3.0883
    -3.0360  -2.9684  -2.9471  -2.9048  -2.8953  -2.8241  -2.7737  -2.7540
    -2.6829  -2.6570  -2.4769  -2.4080  -2.3706  -2.3458  -2.2805  -2.2474
    -2.2295  -2.1138  -2.0397  -2.0190  -1.9750  -1.9411  -1.8747  -1.8628
    -1.8498  -1.7838  -1.7694  -1.7605  -1.6980  -1.6046  -1.5778  -1.5142
    -1.5030  -1.4439  -0.6122  -0.5144  -0.4797  -0.4630  -0.4188  -0.4010
    -0.3609  -0.3113  -0.2909  -0.2454  -0.2378  -0.1704  -0.1435  -0.1311
    -0.1067  -0.0852  -0.0455   0.0018   0.0385   0.0993   0.1360   0.1604
     0.1814   0.2209   0.2367   0.2858   0.3189   0.3539   0.3936   0.4320
     0.7009   0.7941   0.8119   0.8239   0.8971   0.9216   0.9401   0.9578
     0.9912   1.0763   1.1035   1.1357   1.1560   1.2616   1.6712   1.6812
     1.7461   1.8008   1.8843   1.9089   2.1117   2.1396   2.2148   2.2713
     2.3296   2.3745   2.8721   2.8960   2.9305   2.9431   2.9732   2.9836
     2.9984   3.0111   3.0412   3.0626   3.0703   3.1023   3.1138   3.1332
     3.1464   3.1493   3.1993   3.2091   3.4173   3.4811   3.4990   3.5388
     3.5553   3.5781   3.5962   3.6102   3.6181   3.6457   3.6530   3.6653
     3.6868   3.7008   3.7174   3.7480   3.7589   3.7718   3.7946   3.8153
     3.8241   3.8378   3.8740   3.9100   4.0225   4.0631   4.0704   4.0910
     4.1101   4.1287   4.1380   4.1529   4.1976   4.2013   4.2053   4.2226
     4.3042   4.3228   4.3787   4.3834   4.3913   4.3982   4.4301   4.4434
     4.4491   4.4804   4.4999   4.5330   4.6244   4.6405   4.6586   4.6797
     4.6898   4.7195   4.7268   4.7735   4.8004   4.8065   4.8257   4.8485
     4.8551   4.8864   4.9106   4.9172   4.9349   4.9735   5.0565   5.0805
     5.0888   5.1132   5.1295   5.1527   5.1629   5.1746   5.2150   5.2195
     5.2252   5.2373   5.2733   5.2804   5.2979   5.3058   5.3284   5.3631
     5.4232   5.4440   5.5056   5.5374   5.5519   5.5936   5.6181   5.6505
     5.7252   5.7413   5.7577   5.8112   5.8175   5.8479   5.8566   5.9161
     5.9291   5.9590   5.9743   6.0164   6.0468   6.0492   6.0955   6.1658
     6.3084   6.3965   6.4206   6.4521   6.4930   6.5621   6.8752   6.9836
     7.0392   7.0913   7.8675   7.8830   7.9190   7.9543   7.9922   8.0257
     8.1321   8.1719   8.2298   8.3196   8.3837   8.4142   8.4573   8.4777
     8.6741   8.7230   8.7418   8.7861   8.8054   8.8251   8.8688   8.8739
     8.8932   8.9312   8.9400   8.9567   8.9793   9.0019   9.0405   9.0518
     9.0716   9.0843   9.0966   9.1422   9.1447   9.1807   9.2010   9.2129
     9.2214   9.2578   9.2654   9.2915   9.3283   9.3590   9.3746   9.4024
     9.4147   9.4494   9.4563   9.4735   9.4774   9.4870   9.5022   9.5331
     9.5360   9.5684   9.5902   9.6084   9.7263   9.7744   9.7807   9.7884
     9.8360   9.8505   9.8680   9.8699   9.8750   9.9216   9.9411   9.9566
    10.0050  10.0261  10.0363  10.0430  10.0659  10.0979  10.1417  10.1625
    10.1843  10.2179  10.2788  10.3152  10.3553  10.3667  10.4022  10.4184
    10.4324  10.4563  10.4893  10.5085  10.5195  10.5368  10.5429  10.5709
    10.5942  10.6144  10.6450  10.6579  10.6749  10.6933  10.7114  10.7424
    10.7502  10.7612  10.7653  10.7958  10.8077  10.8401  10.8719

     occupation numbers 
     1.0000   1.0000   1.0000   1.0000   1.0000   1.0000   1.0000   1.0000
     1.0000   1.0000   1.0000   1.0000   1.0000   1.0000   1.0000   1.0000
     1.0000   1.0000   1.0000   1.0000   1.0000   1.0000   1.0000   1.0000
     1.0000   1.0000   1.0000   1.0000   1.0000   1.0000   1.0000   1.0000
     1.0000   1.0000   1.0000   1.0000   1.0000   1.0000   1.0000   1.0000
     1.0000   1.0000   1.0000   1.0000   1.0000   1.0000   1.0000   1.0000
     1.0000   1.0000   1.0000   1.0000   1.0000   1.0000   1.0000   1.0000
     1.0000   1.0000   1.0000   1.0000   1.0000   1.0000   1.0000   1.0000
     1.0000   1.0000   1.0000   1.0000   1.0000   1.0000   1.0000   1.0000
     1.0000   1.0000   1.0000   1.0000   1.0000   1.0000   1.0000   1.0000
     1.0000   1.0000   1.0000   1.0000   1.0000   1.0000   1.0000   1.0000
     1.0000   1.0000   1.0000   1.0000   1.0000   1.0000   1.0000   1.0000
     1.0000   1.0000   1.0000   1.0000   1.0000   1.0000   1.0000   1.0000
     1.0000   1.0000   1.0000   1.0000   1.0000   1.0000   1.0000   1.0000
     1.0000   1.0000   1.0000   1.0000   1.0000   1.0000   1.0000   1.0000
     1.0000   1.0000   1.0000   1.0000   1.0000   1.0000   1.0000   1.0000
     1.0000   1.0000   1.0000   1.0000   1.0000   1.0000   1.0000   1.0000
     1.0000   1.0000   1.0000   1.0000   1.0000   1.0000   1.0000   1.0000
     1.0000   1.0000   1.0000   1.0000   1.0000   1.0000   1.0000   1.0000
     1.0000   1.0000   1.0000   1.0000   1.0000   1.0000   1.0000   1.0000
     1.0000   1.0000   1.0000   1.0000   1.0000   1.0000   1.0000   1.0000
     1.0000   1.0000   1.0000   1.0000   1.0000   1.0000   1.0000   1.0000
     1.0000   1.0000   1.0000   1.0000   1.0000   1.0000   1.0000   1.0000
     1.0000   1.0000   1.0000   1.0000   1.0000   1.0000   1.0000   1.0000
     1.0000   1.0000   1.0000   1.0000   1.0000   1.0000   1.0000   1.0000
     1.0000   1.0000   1.0000   1.0000   1.0000   1.0000   1.0000   1.0000
     1.0000   1.0000   1.0000   1.0000   1.0000   1.0000   1.0000   1.0000
     1.0000   1.0000   1.0000   1.0000   1.0000   1.0000   1.0000   1.0000
     1.0000   1.0000   1.0000   1.0000   1.0000   1.0000   1.0000   1.0000
     1.0000   1.0000   1.0000   1.0000   1.0000   1.0000   1.0000   1.0000
     1.0000   1.0000   1.0000   1.0000   1.0000   1.0000   1.0000   1.0000
     1.0000   1.0000   1.0000   1.0000   1.0000   1.0000   1.0000   1.0000
     1.0000   1.0000   1.0000   1.0000   1.0000   1.0000   1.0000   1.0000
     1.0000   1.0000   1.0000   1.0000   1.0000   1.0000   1.0000   1.0000
     1.0000   1.0000   1.0000   1.0000   1.0000   1.0000   1.0000   1.0000
     1.0000   1.0000   1.0000   1.0000   1.0000   1.0000   1.0000   1.0000
     1.0000   1.0000   1.0000   1.0000   1.0000   1.0000   1.0000   1.0000
     1.0000   1.0000   1.0000   1.0000   1.0000   1.0000   1.0000   1.0000
     1.0000   1.0000   1.0000   1.0000   1.0000   1.0000   1.0000   1.0000
     1.0000   1.0000   1.0000   1.0000   1.0000   1.0000   1.0000   1.0000
     1.0000   1.0000   1.0000   1.0000   1.0000   1.0000   1.0000   1.0000
     1.0000   1.0000   1.0000   1.0000   1.0000   1.0000   1.0000   1.0000
     1.0000   1.0000   1.0000   1.0000   1.0000   1.0000   1.0000   1.0000
     1.0000   1.0000   1.0000   1.0000   1.0000   1.0000   1.0000   1.0000
     1.0000   1.0000   1.0000   1.0000   1.0000   1.0000   1.0000   1.0000
     1.0000   1.0000   1.0000   1.0000   1.0000   1.0000   1.0000   1.0000
     1.0000   1.0000   1.0000   1.0000   1.0000   1.0000   1.0000   1.0000
     1.0000   1.0000   1.0000   1.0000   1.0000   1.0000   1.0000   1.0000
     1.0000   1.0000   1.0000   1.0000   1.0000   1.0000   1.0000   1.0000
     1.0000   1.0000   1.0000   1.0000   1.0000   1.0000   1.0000   1.0000
     1.0000   1.0000   1.0000   1.0000   1.0000   1.0000   1.0000   1.0000
     1.0000   1.0000   1.0000   1.0000   1.0000   1.0000   1.0000   1.0000
     1.0000   1.0000   1.0000   1.0000   1.0000   1.0000   1.0000   1.0000
     1.0000   1.0000   1.0000   1.0000   1.0000   1.0000   1.0000   1.0000
     1.0000   1.0000   1.0000   1.0000   1.0000   1.0000   1.0000   1.0000
     1.0000   1.0000   1.0000   1.0000   1.0000   1.0000   1.0000   1.0000
     1.0000   1.0000   1.0000   1.0000   1.0000   1.0000   1.0000   1.0000
     1.0000   1.0000   1.0000   1.0000   1.0000   1.0000   1.0000   1.0000
     1.0000   1.0000   1.0000   1.0000   1.0000   1.0000   1.0000   1.0000
     1.0000   1.0000   1.0000   1.0000   1.0000   1.0000   1.0000   1.0000
     1.0000   1.0000   1.0000   1.0000   1.0000   1.0000   1.0000   1.0000
     1.0000   1.0000   1.0000   1.0000   1.0000   1.0000   1.0000   1.0000
     1.0000   1.0000   1.0000   1.0000   1.0000   1.0000   1.0000   1.0000
     1.0000   1.0000   1.0000   1.0000   1.0000   1.0000   1.0000   1.0000
     1.0000   1.0000   1.0000   1.0000   1.0000   1.0000   1.0000   1.0000
     1.0000   1.0000   1.0000   1.0000   1.0000   1.0000   1.0000   1.0000
     1.0000   1.0000   1.0000   1.0000   1.0000   1.0000   1.0000   1.0000
     1.0000   1.0000   1.0000   1.0000   1.0000   1.0000   1.0000   0.9993
     0.9975   0.9928   0.0017   0.0012   0.0005   0.0002   0.0001   0.0000
     0.0000   0.0000   0.0000   0.0000   0.0000   0.0000   0.0000   0.0000
     0.0000   0.0000   0.0000   0.0000   0.0000   0.0000   0.0000   0.0000
     0.0000   0.0000   0.0000   0.0000   0.0000   0.0000   0.0000   0.0000
     0.0000   0.0000   0.0000   0.0000   0.0000   0.0000   0.0000   0.0000
     0.0000   0.0000   0.0000   0.0000   0.0000   0.0000   0.0000   0.0000
     0.0000   0.0000   0.0000   0.0000   0.0000   0.0000   0.0000   0.0000
     0.0000   0.0000   0.0000   0.0000   0.0000   0.0000   0.0000   0.0000
     0.0000   0.0000   0.0000   0.0000   0.0000   0.0000   0.0000   0.0000
     0.0000   0.0000   0.0000   0.0000   0.0000   0.0000   0.0000   0.0000
     0.0000   0.0000   0.0000   0.0000   0.0000   0.0000   0.0000   0.0000
     0.0000   0.0000   0.0000   0.0000   0.0000   0.0000   0.0000   0.0000
     0.0000   0.0000   0.0000   0.0000   0.0000   0.0000   0.0000   0.0000
     0.0000   0.0000   0.0000   0.0000   0.0000   0.0000   0.0000

          k =-0.7071 0.0020-0.0010 ( 63998 PWs)   bands (ev):

   -17.7524 -17.6911 -17.6820 -17.6351 -17.6150 -17.6027 -17.6012 -17.5855
   -17.5699 -17.5621 -17.5602 -17.5554 -17.5518 -17.5423 -17.5384 -17.5313
   -17.5276 -17.5223 -17.5089 -17.4947 -17.4896 -17.4871 -17.4798 -17.4783
   -17.4745 -17.4732 -17.4712 -17.4624 -17.4623 -17.4589 -17.4509 -17.4507
   -17.4485 -17.4395 -17.4377 -17.4330 -17.4313 -17.4311 -17.4278 -17.4221
   -17.4196 -17.4170 -17.4108 -17.4096 -17.4088 -17.4075 -17.4045 -17.4021
   -17.4003 -17.3975 -17.3961 -17.3957 -17.3908 -17.3884 -17.3850 -17.3814
   -17.3794 -17.3778 -17.3759 -17.3662 -17.3653 -17.3580 -17.3558 -17.3532
   -17.3496 -17.3479 -17.3450 -17.3439 -17.3403 -17.3343 -17.3332 -17.3326
   -17.3296 -17.3288 -17.3275 -17.3255 -17.3240 -17.3228 -17.3226 -17.3222
   -17.3190 -17.3178 -17.3162 -17.3153 -17.3143 -17.3136 -17.3132 -17.3130
   -17.3125 -17.3109 -17.3094 -17.3075 -17.3048 -17.3025 -17.3023 -17.2977
   -17.2927 -17.2925 -17.2919 -17.2908 -17.2902 -17.2892 -17.2879 -17.2862
   -17.2841 -17.2816 -17.2798 -17.2765 -17.2750 -17.2738 -17.2700 -17.2698
   -17.2681 -17.2657 -17.2648 -17.2634 -17.2620 -17.2616 -17.2603 -17.2598
   -17.2581 -17.2573 -17.2561 -17.2557 -17.2554 -17.2545 -17.2537 -17.2529
   -17.2521 -17.2499 -17.2486 -17.2475 -17.2459 -17.2446 -17.2421 -17.2405
   -17.2403 -17.2400 -17.2384 -17.2379 -17.2357 -17.2348 -17.2342 -17.2311
   -17.2300 -17.2294 -17.2289 -17.2268 -17.2266 -17.2261 -17.2255 -17.2252
   -17.2239 -17.2235 -17.2221 -17.2212 -17.2208 -17.2198 -17.2194 -17.2194
   -17.2180 -17.2161 -17.2158 -17.2157 -17.2154 -17.2148 -17.2118 -17.2112
   -17.2076 -17.2060 -17.2052 -17.2045 -17.2002 -17.1991 -17.1976 -17.1937
   -17.1924 -17.1922 -17.1894 -17.1888 -17.1885 -17.1874 -17.1865 -17.1838
   -17.1830 -17.1819 -17.1810 -17.1791 -17.1776 -17.1774 -17.1767 -17.1759
   -17.1756 -17.1736 -17.1728 -17.1698 -17.1691 -17.1670 -17.1653 -17.1649
   -17.1642 -17.1611 -17.1584 -17.1565 -17.1545 -17.1508 -17.1492 -17.1491
   -17.1479 -17.1462 -17.1457 -17.1451 -17.1448 -17.1427 -17.1411 -17.1386
   -17.1379 -17.1368 -17.1348 -17.1348 -17.1323 -17.1309 -17.1295 -17.1283
   -17.1274 -17.1248 -17.1235 -17.1211 -17.1204 -17.1180 -17.1158 -17.1152
   -17.1137 -17.1109 -17.1104 -17.1076 -17.1061 -17.1055 -17.1048 -17.1029
   -17.1012 -17.1006 -17.0999 -17.0994 -17.0977 -17.0964 -17.0951 -17.0950
   -17.0946 -17.0934 -17.0924 -17.0902 -17.0894 -17.0883 -17.0874 -17.0831
   -17.0815 -17.0780 -17.0772 -17.0763 -17.0758 -17.0750 -17.0741 -17.0740
   -17.0680 -17.0670 -17.0626 -17.0585 -17.0565 -17.0550 -17.0537 -17.0504
   -17.0449 -17.0430 -17.0413 -17.0398 -17.0389 -17.0340 -17.0297 -17.0164
   -17.0148 -17.0134 -17.0024 -16.9985 -16.9975 -16.9900 -16.9764 -16.9688
   -16.9572 -16.9311  -5.2290  -5.0921  -4.8862  -4.8243  -4.7832  -4.7651
    -4.3487  -4.2976  -4.2413  -4.1356  -4.0896  -4.0649  -4.0052  -3.9527
    -3.9035  -3.8809  -3.8283  -3.7995  -3.6378  -3.6335  -3.5652  -3.5163
    -3.3551  -3.3205  -3.2774  -3.2388  -3.2110  -3.0959  -3.0763  -3.0269
    -2.9554  -2.9330  -2.8557  -2.8160  -2.7826  -2.7463  -2.6635  -2.6327
    -2.6045  -2.5846  -2.5357  -2.4793  -2.4205  -2.3801  -2.3708  -2.3194
    -2.3099  -2.2399  -2.2236  -2.1510  -2.1073  -2.0710  -2.0255  -1.9558
    -1.9018  -1.8859  -1.6312  -1.5378  -1.4964  -1.4819  -1.2876  -1.1725
    -1.0893  -1.0732  -0.9770  -0.9431  -0.9247  -0.8787  -0.6353  -0.5722
    -0.4964  -0.4587  -0.1781  -0.1551  -0.1501  -0.0971  -0.0561  -0.0249
    -0.0003   0.0511   0.0849   0.0957   0.1311   0.1463   0.1737   0.2137
     0.2754   0.3623   0.3942   0.4089   0.4359   0.4825   0.5103   0.5438
     0.5608   0.5990   0.6627   0.6804   0.7597   0.8013   0.8344   0.8389
     0.9556   0.9608   1.0810   1.1636   1.4758   1.5119   1.5344   1.5595
     1.5679   1.6160   1.6686   1.7647   2.2679   2.3277   2.3971   2.4194
     2.4839   2.5159   2.5589   2.6369   2.7407   2.7896   2.7992   2.8144
     2.8403   2.8832   2.8904   2.9062   2.9260   2.9504   2.9681   3.0178
     3.4475   3.4832   3.4880   3.5118   3.5281   3.5340   3.5637   3.5730
     3.6034   3.6193   3.6510   3.6662   3.6722   3.6785   3.6898   3.6929
     3.7165   3.7352   3.7478   3.7569   3.7700   3.7834   3.8336   3.8543
     4.0625   4.0819   4.0929   4.1399   4.2062   4.2150   4.2300   4.2333
     4.2553   4.2795   4.2884   4.3078   4.3386   4.3548   4.3662   4.3709
     4.3782   4.3910   4.4069   4.4160   4.4305   4.4459   4.4503   4.4774
     4.4874   4.4964   4.5076   4.5186   4.5303   4.5527   4.5818   4.5943
     4.5990   4.6228   4.6391   4.6486   4.6569   4.6804   4.6915   4.7077
     4.7181   4.7382   4.7430   4.7826   4.8657   4.9057   4.9200   4.9674
     4.9792   5.0060   5.0262   5.0352   5.1172   5.1703   5.1969   5.2072
     5.2539   5.2657   5.2742   5.3091   5.3724   5.4086   5.4297   5.4564
     5.4656   5.4836   5.5106   5.5177   5.5358   5.5418   5.5655   5.5827
     5.5962   5.6178   5.6845   5.7013   5.7342   5.7505   5.7543   5.7807
     5.7869   5.8395   5.8634   5.8829   5.9122   5.9389   5.9622   5.9906
     6.0212   6.0768   6.3095   6.3587   6.4988   6.5371   6.8470   6.9570
     6.9796   7.0413   7.6350   7.6928   8.1731   8.2184   8.2455   8.2840
     8.5433   8.6048   8.7294   8.7729   8.7945   8.8156   8.8259   8.8519
     8.8710   8.8900   8.9106   8.9263   8.9534   8.9606   8.9738   8.9939
     9.0046   9.0151   9.0356   9.0375   9.0546   9.0740   9.0931   9.1078
[...]
     atom   77 type  1   force =   0.00000000E+00  0.00000000E+00  0.00000000E+00
     atom   78 type  2   force =   0.00000000E+00  0.00000000E+00  0.00000000E+00
     atom   79 type  1   force =   0.00000000E+00  0.00000000E+00  0.00000000E+00
     atom   80 type  2   force =   0.00000000E+00  0.00000000E+00  0.00000000E+00
     atom   81 type  1   force =   0.00000000E+00  0.00000000E+00  0.00000000E+00
     atom   82 type  1   force =   0.00000000E+00  0.00000000E+00  0.00000000E+00
     atom   83 type  2   force =   0.00000000E+00  0.00000000E+00  0.00000000E+00
     atom   84 type  2   force =   0.00000000E+00  0.00000000E+00  0.00000000E+00
     atom   85 type  2   force =   0.00000000E+00  0.00000000E+00  0.00000000E+00
     atom   86 type  1   force =   0.00000000E+00  0.00000000E+00  0.00000000E+00
     atom   87 type  2   force =   0.00000000E+00  0.00000000E+00  0.00000000E+00
     atom   88 type  1   force =   0.00000000E+00  0.00000000E+00  0.00000000E+00
     atom   89 type  2   force =   0.00000000E+00  0.00000000E+00  0.00000000E+00
     atom   90 type  1   force =   0.00000000E+00  0.00000000E+00  0.00000000E+00
     atom   91 type  1   force =   0.00000000E+00  0.00000000E+00  0.00000000E+00
     atom   92 type  2   force =   0.00000000E+00  0.00000000E+00  0.00000000E+00
     atom   93 type  1   force =   0.00000000E+00  0.00000000E+00  0.00000000E+00
     atom   94 type  2   force =   0.00000000E+00  0.00000000E+00  0.00000000E+00
     atom   95 type  1   force =   0.00000000E+00  0.00000000E+00  0.00000000E+00
     atom   96 type  1   force =   0.00000000E+00  0.00000000E+00  0.00000000E+00
     atom   97 type  1   force =   0.00000000E+00  0.00000000E+00  0.00000000E+00
     atom   98 type  1   force =   0.00000000E+00  0.00000000E+00  0.00000000E+00
     atom   99 type  1   force =   0.00000000E+00  0.00000000E+00  0.00000000E+00
     atom  100 type  1   force =   0.00000000E+00  0.00000000E+00  0.00000000E+00
     atom  101 type  1   force =   0.00000000E+00  0.00000000E+00  0.00000000E+00
     atom  102 type  1   force =   0.00000000E+00  0.00000000E+00  0.00000000E+00
     atom  103 type  2   force =   0.00000000E+00  0.00000000E+00  0.00000000E+00
     atom  104 type  1   force =   0.00000000E+00  0.00000000E+00  0.00000000E+00
     atom  105 type  1   force =   0.00000000E+00  0.00000000E+00  0.00000000E+00
     atom  106 type  2   force =   0.00000000E+00  0.00000000E+00  0.00000000E+00
     atom  107 type  1   force =   0.00000000E+00  0.00000000E+00  0.00000000E+00
     atom  108 type  2   force =   0.00000000E+00  0.00000000E+00  0.00000000E+00
     atom  109 type  1   force =   0.00000000E+00  0.00000000E+00  0.00000000E+00
     atom  110 type  1   force =   0.00000000E+00  0.00000000E+00  0.00000000E+00
     atom  111 type  1   force =   0.00000000E+00  0.00000000E+00  0.00000000E+00
     atom  112 type  2   force =   0.00000000E+00  0.00000000E+00  0.00000000E+00
     atom  113 type  1   force =   0.00000000E+00  0.00000000E+00  0.00000000E+00
     atom  114 type  2   force =   0.00000000E+00  0.00000000E+00  0.00000000E+00
     atom  115 type  1   force =   0.00000000E+00  0.00000000E+00  0.00000000E+00
     atom  116 type  2   force =   0.00000000E+00  0.00000000E+00  0.00000000E+00
     atom  117 type  1   force =   0.00000000E+00  0.00000000E+00  0.00000000E+00
     atom  118 type  2   force =   0.00000000E+00  0.00000000E+00  0.00000000E+00
     atom  119 type  2   force =   0.00000000E+00  0.00000000E+00  0.00000000E+00
     atom  120 type  1   force =   0.00000000E+00  0.00000000E+00  0.00000000E+00
     atom  121 type  1   force =   0.00000000E+00  0.00000000E+00  0.00000000E+00
     atom  122 type  1   force =   0.00000000E+00  0.00000000E+00  0.00000000E+00
     atom  123 type  1   force =   0.00000000E+00  0.00000000E+00  0.00000000E+00
     atom  124 type  2   force =   0.00000000E+00  0.00000000E+00  0.00000000E+00
     atom  125 type  1   force =   0.00000000E+00  0.00000000E+00  0.00000000E+00
     atom  126 type  2   force =   0.00000000E+00  0.00000000E+00  0.00000000E+00
     atom  127 type  1   force =   0.00000000E+00  0.00000000E+00  0.00000000E+00
     atom  128 type  2   force =   0.00000000E+00  0.00000000E+00  0.00000000E+00
     The SCF correction term to forces
     atom    1 type  2   force =   0.25172149E-04  0.88027812E-07  0.55044573E-06
     atom    2 type  1   force =   0.64938759E-05  0.30623411E-05  0.27877474E-05
     atom    3 type  1   force =   0.51414652E-05  0.17150157E-05  0.16672656E-05
     atom    4 type  2   force =  -0.82707686E-07 -0.38788776E-05  0.51353125E-05
     atom    5 type  2   force =  -0.62163836E-05 -0.16385763E-04 -0.72516619E-07
     atom    6 type  2   force =  -0.15510682E-04 -0.21139189E-04  0.90283381E-05
     atom    7 type  2   force =  -0.51183156E-05 -0.23578370E-04 -0.58105274E-05
     atom    8 type  2   force =   0.31707851E-05 -0.24476233E-05  0.40336094E-05
     atom    9 type  1   force =   0.32834272E-05  0.39991009E-05  0.11899052E-05
     atom   10 type  1   force =   0.60437212E-06  0.24118584E-05 -0.13465295E-05
     atom   11 type  2   force =   0.82332949E-06 -0.20085026E-05 -0.49014497E-05
     atom   12 type  1   force =  -0.23493471E-05 -0.55857600E-06 -0.16903203E-05
     atom   13 type  2   force =  -0.30936613E-05 -0.24177695E-04  0.13669715E-05
     atom   14 type  1   force =  -0.21666243E-05 -0.32898137E-05  0.32749680E-05
     atom   15 type  2   force =   0.76827323E-05 -0.35302491E-05  0.21897416E-04
     atom   16 type  1   force =   0.12675733E-05  0.34067167E-05  0.44277142E-05
     atom   17 type  1   force =  -0.88360901E-07  0.31988194E-07 -0.27747288E-05
     atom   18 type  2   force =  -0.92402595E-05  0.35420842E-05 -0.19084483E-04
     atom   19 type  1   force =  -0.17179985E-05  0.48051094E-06 -0.43691846E-05
     atom   20 type  1   force =  -0.16589341E-05  0.41668693E-05 -0.15901172E-05
     atom   21 type  1   force =  -0.11177168E-05  0.79955630E-06  0.15665780E-05
     atom   22 type  1   force =  -0.43610436E-06  0.12717553E-05  0.29493263E-05
     atom   23 type  1   force =   0.10592998E-05  0.23618275E-06  0.30600293E-05
     atom   24 type  1   force =  -0.95672441E-06 -0.88162827E-06  0.14096498E-06
     atom   25 type  1   force =  -0.17420612E-05 -0.96356240E-06 -0.63436123E-05
     atom   26 type  2   force =   0.11062493E-05  0.67280247E-05 -0.74265451E-05
     atom   27 type  2   force =   0.88451973E-05  0.16749848E-04 -0.12767223E-04
     atom   28 type  2   force =   0.15709536E-04  0.15217847E-04  0.12481218E-04
     atom   29 type  1   force =   0.38899656E-06  0.14015006E-05  0.13930450E-05
     atom   30 type  2   force =  -0.95220025E-05 -0.11013293E-05  0.37114470E-05
     atom   31 type  1   force =  -0.38491863E-05 -0.14520003E-05 -0.17799576E-05
     atom   32 type  2   force =  -0.20197453E-04 -0.60478327E-05 -0.10987641E-04
     atom   33 type  2   force =   0.13146589E-04  0.44835993E-05  0.15394916E-04
     atom   34 type  2   force =   0.16863939E-04  0.43287192E-05  0.72093858E-05
     atom   35 type  2   force =   0.14554390E-05  0.91597752E-05 -0.32621539E-05
     atom   36 type  2   force =  -0.30547835E-05 -0.12721479E-04 -0.47604339E-05
     atom   37 type  2   force =  -0.24455103E-04 -0.10219220E-04  0.28187633E-05
     atom   38 type  2   force =  -0.14013872E-04 -0.75174376E-05  0.13099060E-04
     atom   39 type  2   force =  -0.30589036E-05  0.72632419E-05  0.22746385E-04
     atom   40 type  1   force =   0.26681629E-05  0.11996719E-05  0.57032499E-05
     atom   41 type  1   force =  -0.53281555E-06  0.88981145E-06 -0.16140369E-06
     atom   42 type  1   force =  -0.20543313E-05  0.14462689E-05 -0.25811740E-05
     atom   43 type  1   force =  -0.11537986E-05 -0.66702344E-06 -0.19131827E-05
     atom   44 type  2   force =  -0.55957670E-05 -0.57918365E-05  0.12273289E-05
     atom   45 type  2   force =   0.60114215E-05 -0.72640937E-06  0.21806520E-04
     atom   46 type  1   force =   0.61438625E-06  0.53396721E-06  0.55051350E-05
     atom   47 type  1   force =   0.96842924E-06  0.14547528E-05  0.42552045E-05
     atom   48 type  1   force =  -0.11432665E-05  0.11978052E-05  0.14248838E-06
     atom   49 type  1   force =  -0.26905240E-05  0.22751678E-05 -0.38448319E-05
     atom   50 type  2   force =  -0.81165604E-05  0.21997755E-04 -0.12934651E-04
     atom   51 type  1   force =   0.62311876E-06  0.44856676E-05 -0.71525319E-06
     atom   52 type  1   force =   0.47275895E-08  0.45172859E-05  0.96582529E-07
     atom   53 type  1   force =  -0.10205382E-05  0.28664744E-05  0.31943525E-05
     atom   54 type  1   force =  -0.34475392E-05 -0.96311397E-06  0.21659994E-05
     atom   55 type  2   force =  -0.16712574E-04 -0.52798580E-05 -0.18253461E-05
     atom   56 type  2   force =  -0.12253198E-04 -0.52441946E-05 -0.50600571E-05
     atom   57 type  2   force =  -0.44262421E-05  0.17181879E-04  0.11272086E-05
     atom   58 type  2   force =   0.13944715E-04  0.23553383E-04  0.62452701E-05
     atom   59 type  1   force =   0.26857018E-05  0.64322435E-05  0.78019790E-06
     atom   60 type  1   force =   0.32714338E-06  0.28624140E-05  0.11988145E-05
     atom   61 type  2   force =  -0.17563448E-04  0.17199415E-05  0.87544819E-05
     atom   62 type  1   force =  -0.65946501E-05 -0.18093526E-05  0.10732152E-05
     atom   63 type  1   force =  -0.67719539E-05 -0.16981888E-05  0.79664491E-06
     atom   64 type  2   force =  -0.20454941E-04  0.13556533E-05  0.71452760E-05
     atom   65 type  2   force =   0.27052816E-05  0.22310573E-05 -0.92348965E-05
     atom   66 type  2   force =   0.47779058E-05 -0.51545320E-05 -0.19689342E-05
     atom   67 type  2   force =   0.28082809E-05 -0.15149115E-05 -0.10096915E-04
     atom   68 type  1   force =   0.77442512E-06 -0.61394805E-06  0.10302723E-05
     atom   69 type  2   force =  -0.49026328E-05 -0.65110076E-05  0.13906586E-04
     atom   70 type  2   force =   0.64972320E-05  0.35354716E-05  0.20751573E-04
     atom   71 type  1   force =   0.10459537E-05 -0.30054884E-06  0.40613235E-05
     atom   72 type  2   force =   0.28308878E-05 -0.11521746E-04  0.65028366E-05
     atom   73 type  1   force =   0.66099285E-06 -0.89292031E-06 -0.32295171E-05
     atom   74 type  1   force =   0.11634885E-05  0.87685772E-06 -0.26320121E-05
     atom   75 type  2   force =   0.32391408E-05  0.82964689E-05  0.25309334E-05
     atom   76 type  1   force =   0.26494880E-05  0.27069818E-05  0.14497266E-05
     atom   77 type  1   force =   0.58294000E-06  0.35784925E-06  0.46747475E-05
     atom   78 type  2   force =  -0.93906745E-05 -0.22402430E-05  0.67581407E-05
     atom   79 type  1   force =  -0.15209849E-05 -0.26674702E-05  0.51344860E-06
     atom   80 type  2   force =  -0.94327753E-05 -0.39466580E-05 -0.13151354E-04
     atom   81 type  1   force =   0.68791554E-06  0.30817514E-05 -0.42456500E-06
     atom   82 type  1   force =   0.19616966E-05  0.44353920E-05 -0.44645023E-06
     atom   83 type  2   force =   0.68058782E-05  0.10604483E-04 -0.57751693E-05
     atom   84 type  2   force =   0.48279023E-05  0.35530470E-05 -0.64403528E-06
     atom   85 type  2   force =  -0.53028467E-05 -0.43131491E-05  0.69471177E-06
     atom   86 type  1   force =  -0.35376438E-05 -0.44725455E-05 -0.13042532E-06
     atom   87 type  2   force =  -0.12805443E-04 -0.77826286E-05  0.47028058E-05
     atom   88 type  1   force =   0.19734508E-06 -0.11184706E-06  0.45801629E-06
     atom   89 type  2   force =   0.23974935E-05  0.20604064E-04  0.87179011E-05
     atom   90 type  1   force =   0.21913689E-05  0.30734401E-05 -0.25684745E-05
     atom   91 type  1   force =   0.37090077E-06  0.96184581E-06 -0.22178747E-05
     atom   92 type  2   force =  -0.83435427E-05 -0.44113960E-05 -0.16469565E-04
     atom   93 type  1   force =  -0.31413297E-05 -0.29591756E-05 -0.23234867E-05
     atom   94 type  2   force =  -0.73417372E-05 -0.75657644E-05 -0.45771183E-05
     atom   95 type  1   force =  -0.23534555E-05  0.14885430E-05  0.17669916E-05
     atom   96 type  1   force =   0.13024428E-06  0.19293901E-05  0.13609697E-05
     atom   97 type  1   force =   0.22659252E-05 -0.24508684E-05 -0.29446651E-05
     atom   98 type  1   force =   0.45945229E-05 -0.18894126E-05 -0.32788606E-05
     atom   99 type  1   force =   0.42543839E-05 -0.69281583E-06 -0.82870833E-06
     atom  100 type  1   force =   0.48195818E-05  0.11285914E-05  0.13497799E-05
     atom  101 type  1   force =   0.30323364E-05 -0.60105041E-06  0.42541053E-05
     atom  102 type  1   force =   0.77391816E-06 -0.48517534E-05  0.19587532E-05
     atom  103 type  2   force =  -0.19459140E-05 -0.19767248E-04  0.84354313E-05
     atom  104 type  1   force =   0.61621254E-06 -0.53766006E-05 -0.18541417E-05
     atom  105 type  1   force =   0.41595799E-05  0.70714855E-06 -0.21970051E-05
     atom  106 type  2   force =   0.14535839E-04  0.11859669E-04 -0.71375864E-05
     atom  107 type  1   force =   0.51451535E-05  0.12569758E-05 -0.49454728E-06
     atom  108 type  2   force =   0.74886023E-05  0.10348305E-06 -0.81877470E-05
     atom  109 type  1   force =  -0.17278990E-05 -0.30822512E-05 -0.97751975E-06
     atom  110 type  1   force =  -0.38029140E-05 -0.45798566E-05 -0.18491413E-05
     atom  111 type  1   force =  -0.24681826E-05 -0.46383771E-05 -0.26511643E-05
     atom  112 type  2   force =   0.60262356E-05 -0.82523941E-05 -0.13128053E-04
     atom  113 type  1   force =   0.32018200E-05  0.19466916E-05 -0.50163119E-06
     atom  114 type  2   force =   0.74719930E-05  0.36929869E-05 -0.81029107E-05
     atom  115 type  1   force =   0.77645153E-06  0.37682025E-06 -0.32578410E-05
     atom  116 type  2   force =  -0.12067434E-05 -0.63578805E-05 -0.16955250E-04
     atom  117 type  1   force =  -0.24008874E-05 -0.41931945E-05 -0.18183345E-05
     atom  118 type  2   force =  -0.12193454E-04 -0.85169391E-05  0.13997708E-05
     atom  119 type  2   force =   0.76861952E-05 -0.53134978E-05  0.63129837E-05
     atom  120 type  1   force =   0.27929139E-05  0.10929144E-05  0.19796357E-05
     atom  121 type  1   force =   0.12271441E-05  0.57925111E-06 -0.42492500E-05
     atom  122 type  1   force =   0.10596726E-05 -0.15329949E-05 -0.61034046E-05
     atom  123 type  1   force =  -0.25840159E-06 -0.15317725E-05 -0.53796700E-05
     atom  124 type  2   force =   0.10843991E-04 -0.13150945E-04 -0.99613705E-05
     atom  125 type  1   force =   0.16275959E-06 -0.53783583E-06 -0.50139739E-07
     atom  126 type  2   force =   0.76675134E-05 -0.16592021E-05  0.12229953E-04
     atom  127 type  1   force =  -0.25230369E-06  0.10441901E-05  0.55606755E-06
     atom  128 type  2   force =  -0.19071052E-05  0.57669478E-06 -0.58968709E-05

     Total force =     0.767836     Total SCF correction =     0.000141


     entering subroutine stress ...

          total   stress  (Ry/bohr**3)                   (kbar)     P=    8.46
   0.0000541524  -0.0000217354  -0.0000169334          7.97     -3.20     -2.49
  -0.0000217354   0.0000546163  -0.0000204997         -3.20      8.03     -3.02
  -0.0000169334  -0.0000204997   0.0000636997         -2.49     -3.02      9.37

     kinetic stress (kbar)   6017.86     -1.64      1.47
                               -1.64   6016.64      3.00
                                1.47      3.00   6017.53

     local   stress (kbar)  -6490.18  -1828.35   3164.65
                            -1828.35  -6910.20   -350.38
                             3164.65   -350.38  -4610.34

     nonloc. stress (kbar)   2442.70     -0.20     -1.52
                               -0.20   2443.20     -1.57
                               -1.52     -1.57   2443.49

     hartree stress (kbar)  16515.33    939.12  -1544.84
                              939.12  16705.54    222.59
                            -1544.84    222.59  15569.73

     exc-cor stress (kbar)  10019.22     -0.03     -0.05
                               -0.03  10019.26     -0.12
                               -0.05     -0.12  10019.25

     corecor stress (kbar) -15253.23      0.05      0.14
                                0.05 -15253.22      0.08
                                0.14      0.08 -15253.28

     ewald   stress (kbar) -13243.72    887.84  -1622.34
                              887.84 -13013.17    123.38
                            -1622.34    123.38 -14177.02

     hubbard stress (kbar)      0.00      0.00      0.00
                                0.00      0.00      0.00
                                0.00      0.00      0.00

     london  stress (kbar)      0.00      0.00      0.00
                                0.00      0.00      0.00
                                0.00      0.00      0.00

     XDM     stress (kbar)      0.00      0.00      0.00
                                0.00      0.00      0.00
                                0.00      0.00      0.00

     dft-nl  stress (kbar)      0.00      0.00      0.00
                                0.00      0.00      0.00
                                0.00      0.00      0.00



     Writing output data file SiGe_zns.scf.in.super.444.c.011.save

     init_run     :   1000.23s CPU    767.64s WALL (       1 calls)
     electrons    :  48582.15s CPU  37564.81s WALL (       1 calls)
     forces       :    707.58s CPU    512.42s WALL (       1 calls)
     stress       :   3143.36s CPU   3127.11s WALL (       1 calls)

     Called by init_run:
     wfcinit      :    948.54s CPU    715.09s WALL (       1 calls)
     potinit      :      4.68s CPU      4.70s WALL (       1 calls)

     Called by electrons:
     c_bands      :  43452.71s CPU  33221.56s WALL (      16 calls)
     sum_band     :   4476.85s CPU   3685.53s WALL (      16 calls)
     v_of_rho     :      9.84s CPU     10.00s WALL (      16 calls)
     v_h          :      0.60s CPU      0.60s WALL (      16 calls)
     v_xc         :     10.57s CPU     10.74s WALL (      18 calls)
     newd         :    658.93s CPU    664.19s WALL (      16 calls)
     mix_rho      :     18.51s CPU     18.60s WALL (      16 calls)

     Called by c_bands:
     init_us_2    :     40.73s CPU     41.35s WALL (     280 calls)
     cegterg      :  43103.93s CPU  32857.17s WALL (     128 calls)

     Called by sum_band:
     sum_band:bec :     18.30s CPU     19.10s WALL (     128 calls)
     addusdens    :    474.63s CPU    480.47s WALL (      16 calls)

     Called by *egterg:
     h_psi        :  17518.39s CPU  13734.12s WALL (     517 calls)
     s_psi        :   5151.16s CPU   3101.22s WALL (     517 calls)
     g_psi        :      6.96s CPU      7.53s WALL (     381 calls)
     cdiaghg      :  11630.47s CPU  10118.17s WALL (     501 calls)
     cegterg:over :   4186.32s CPU   2846.20s WALL (     381 calls)
     cegterg:upda :   2054.18s CPU   1253.95s WALL (     381 calls)
     cegterg:last :   1395.52s CPU    838.73s WALL (     128 calls)

     Called by h_psi:
     h_psi:vloc   :   6909.49s CPU   7058.33s WALL (     517 calls)
     h_psi:vnl    :  10594.71s CPU   6661.08s WALL (     517 calls)
     add_vuspsi   :   5094.55s CPU   3102.89s WALL (     517 calls)

     General routines
     calbec       :   8633.22s CPU   5757.31s WALL (     661 calls)
     fft          :    206.11s CPU    209.77s WALL (     281 calls)
     ffts         :     11.94s CPU     12.04s WALL (     460 calls)
     fftw         :   7564.18s CPU   7728.86s WALL (  485760 calls)
     interpolate  :      2.87s CPU      2.98s WALL (      32 calls)

     Parallel routines
     fft_scatter  :   4607.55s CPU   4713.24s WALL (  486501 calls)

     PWSCF        :    14h51m CPU       11h40m WALL


   This run was terminated on:  16:13:29   4Feb2017            

=------------------------------------------------------------------------------=
   JOB DONE.
=------------------------------------------------------------------------------=
