
     Program PWSCF v.5.1 starts on  5Oct2017 at 13:30:55 

     This program is part of the open-source Quantum ESPRESSO suite
     for quantum simulation of materials; please cite
         "P. Giannozzi et al., J. Phys.:Condens. Matter 21 395502 (2009);
          URL http://www.quantum-espresso.org", 
     in publications or presentations arising from this work. More details at
     http://www.quantum-espresso.org/quote

     Parallel version (MPI), running on     4 processors
     R & G space division:  proc/nbgrp/npool/nimage =       4
     Reading input from /tmp/SiGe_zns.scf.in.super.222.a.01.2843/SiGe_zns.scf.in.super.222.a.01.t
Warning: card &IONS ignored
Warning: card   ION_DYNAMICS='BFGS', ignored
Warning: card / ignored
Warning: card &CELL ignored
Warning: card  CELL_DYNAMICS = 'BFGS' ignored
Warning: card / ignored
     Message from routine read_cards :
     DEPRECATED: no units specified in CELL_PARAMETERS card

     Current dimensions of program PWSCF are:
     Max number of different atomic species (ntypx) = 10
     Max number of k-points (npk) =  40000
     Max angular momentum in pseudopotentials (lmaxx) =  3
 kfg - two_fermi_energies  F

     Subspace diagonalization in iterative solution of the eigenvalue problem:
     a serial algorithm will be used


     Parallelization info
     --------------------
     sticks:   dense  smooth     PW     G-vecs:    dense   smooth      PW
     Min         759     526    148                27487    16044    2429
     Max         760     527    149                27489    16055    2431
     Sum        3037    2107    595               109951    64201    9721



     bravais-lattice index     =            0
     lattice parameter (alat)  =    14.807327753  a.u.
     unit-cell volume          =    2296.3400 (a.u.)^3
     number of atoms/cell      =           16
     number of atomic types    =            2
     number of electrons       =       144.00
     number of Kohn-Sham states=           86
     kinetic-energy cutoff     =      35.0000  Ry
     charge density cutoff     =     200.0000  Ry
     convergence threshold     =      1.0E-09
     mixing beta               =       0.3000
     number of iterations used =            8  local-TF  mixing
     Exchange-correlation      = SLA  PW   PSX  PSC ( 1  4 10  8 0)
     A smooth kinetic-energy cutoff is imposed at      34.5000 Ry
     height of the smooth step-function =             800.0000 Ry
     width of the smooth step-function  =               1.0000 Ry


     celldm(1)=  14.807328  celldm(2)=   0.000000  celldm(3)=   0.000000
     celldm(4)=   0.000000  celldm(5)=   0.000000  celldm(6)=   0.000000

     crystal axes: (cart. coord. in units of alat)
               a(1) = (  -0.000479117996   0.707205093623   0.707008292738 )  
               a(2) = (   0.707018562228   0.000484696692   0.706851543314 )  
               a(3) = (   0.707341803989   0.707149876644  -0.000465849909 )  

     reciprocal axes: (cart. coord. in units 2 pi/alat)
               b(1) = ( -0.706698  0.707355  0.706380 )  
               b(2) = (  0.707320 -0.707046  0.707722 )  
               b(3) = (  0.706268  0.707202 -0.706920 )  


     PseudoPot. # 1 for Si read from file:
     /users/kfg/psuedo/gbrv_1.5/si.pbesol.UPF
     MD5 check sum: ef58ba74faed4df802eb8a9742fc00a8
     Pseudo is Ultrasoft + core correction, Zval =  4.0
     Generated by new atomic code, or converted to UPF format
     Using radial grid of  899 points,  6 beta functions with: 
                l(1) =   0
                l(2) =   0
                l(3) =   1
                l(4) =   1
                l(5) =   2
                l(6) =   2
     Q(r) pseudized with  8 coefficients,  rinner =    0.900   0.900   0.900
                                                       0.900   0.900

     PseudoPot. # 2 for Ge read from file:
     /users/kfg/psuedo/gbrv_1.5/ge.pbesol.UPF
     MD5 check sum: 7bed0412183f5e553a4d27ec7023354d
     Pseudo is Ultrasoft + core correction, Zval = 14.0
     Generated by new atomic code, or converted to UPF format
     Using radial grid of  873 points,  6 beta functions with: 
                l(1) =   0
                l(2) =   0
                l(3) =   1
                l(4) =   1
                l(5) =   2
                l(6) =   2
     Q(r) pseudized with  8 coefficients,  rinner =    1.400   1.400   1.400
                                                       1.400   1.400

     atomic species   valence    mass     pseudopotential
        Si             4.00    28.08550     Si( 1.00)
        Ge            14.00    72.64000     Ge( 1.00)

     No symmetry found


                                    s                        frac. trans.

      isym =  1     identity                                     

 cryst.   s( 1) = (     1          0          0      )
                  (     0          1          0      )
                  (     0          0          1      )

 cart.    s( 1) = (  1.0000000  0.0000000  0.0000000 )
                  (  0.0000000  1.0000000  0.0000000 )
                  (  0.0000000  0.0000000  1.0000000 )


     point group C_1 (1)    
     there are  1 classes
     the character table:

       E    
A      1.00

     the symmetry operations in each class:
     E        1

   Cartesian axes

     site n.     atom                  positions (alat units)
         1           Si  tau(   1) = (   -0.01309721346   -0.00579821653   -0.01002369708  )
         2           Ge  tau(   2) = (    0.17331436885    0.18090749155    0.17182665101  )
         3           Si  tau(   3) = (    0.34253213746    0.34812269431   -0.00401613383  )
         4           Ge  tau(   4) = (    0.52227167472    0.52675544757    0.18913591035  )
         5           Si  tau(   5) = (    0.34763963932    0.00064653585    0.36410003969  )
         6           Ge  tau(   6) = (    0.53998092690    0.18929950312    0.53557641737  )
         7           Si  tau(   7) = (    0.71125517456    0.35333710636    0.35374371480  )
         8           Ge  tau(   8) = (    0.87733848100    0.52679373002    0.52045614522  )
         9           Si  tau(   9) = (   -0.00355101098    0.34404557448    0.36061655931  )
        10           Ge  tau(  10) = (    0.17216464443    0.53846406133    0.53902846134  )
        11           Si  tau(  11) = (    0.36668132503    0.70508639037    0.36440195734  )
        12           Ge  tau(  12) = (    0.52861420241    0.89460818182    0.52934278931  )
        13           Si  tau(  13) = (    0.35126334132    0.35591799351    0.69686623475  )
        14           Ge  tau(  14) = (    0.52894241994    0.52912080184    0.87838714708  )
        15           Si  tau(  15) = (    0.71005582204    0.71970996558    0.70662771263  )
        16           Ge  tau(  16) = (    0.88802574960    0.87186215949    0.89659299967  )

   Crystallographic axes

     site n.     atom                  positions (cryst. coord.)
         1           Si  tau(   1) = (   -0.00192616185   -0.01225830681   -0.00626470235  )
         2           Ge  tau(   2) = (    0.12685979777    0.11628433157    0.12887682904  )
         3           Si  tau(   3) = (    0.00134268658   -0.00670114489    0.49095163417  )
         4           Ge  tau(   4) = (    0.13711661075    0.13082862887    0.60768230896  )
         5           Si  tau(   5) = (    0.01197405429    0.50311691911   -0.01140555306  )
         6           Ge  tau(   6) = (    0.13061894460    0.62713506926    0.13663461321  )
         7           Si  tau(   7) = (   -0.00283032350    0.50361169390    0.50214903284  )
         8           Ge  tau(   8) = (    0.12025665990    0.61643000891    0.62426487028  )
         9           Si  tau(   9) = (    0.50060408861    0.00944857097   -0.01412538826  )
        10           Ge  tau(  10) = (    0.63997566038    0.12253901499    0.12134714732  )
        11           Si  tau(  11) = (    0.49701964682    0.01872794286    0.50001067498  )
        12           Ge  tau(  12) = (    0.63315208464    0.11599796845    0.63180889009  )
        13           Si  tau(  13) = (    0.49577553906    0.48999278219    0.00716327511  )
        14           Ge  tau(  14) = (    0.62094868997    0.62167276507    0.12682092672  )
        15           Si  tau(  15) = (    0.50644304426    0.49346472472    0.51094074434  )
        16           Ge  tau(  16) = (    0.62248533134    0.64621044760    0.60994728366  )

     number of k points=    36  gaussian smearing, width (Ry)=  0.0150
                       cart. coord. in units 2pi/alat
        k(    1) = (   0.0000000   0.0000000   0.0000000), wk =   0.0312500
        k(    2) = (   0.1765671   0.1768004  -0.1767300), wk =   0.0625000
        k(    3) = (  -0.3531341  -0.3536009   0.3534600), wk =   0.0312500
        k(    4) = (   0.1768300  -0.1767614   0.1769305), wk =   0.0625000
        k(    5) = (   0.3533971   0.0000390   0.0002005), wk =   0.0625000
        k(    6) = (  -0.1763041  -0.5303623   0.5303905), wk =   0.0625000
        k(    7) = (   0.0002630  -0.3535619   0.3536605), wk =   0.0625000
        k(    8) = (  -0.3536600   0.3535229  -0.3538610), wk =   0.0312500
        k(    9) = (  -0.1770930   0.5303233  -0.5305910), wk =   0.0625000
        k(   10) = (  -0.7067941  -0.0000780  -0.0004009), wk =   0.0312500
        k(   11) = (  -0.1766745   0.1768387   0.1765949), wk =   0.0625000
        k(   12) = (  -0.0001074   0.3536392  -0.0001351), wk =   0.0625000
        k(   13) = (  -0.5298086  -0.1767621   0.5300550), wk =   0.0625000
        k(   14) = (  -0.3532415   0.0000383   0.3533250), wk =   0.0625000
        k(   15) = (   0.0001555   0.0000773   0.3535254), wk =   0.0625000
        k(   16) = (   0.1767226   0.1768778   0.1767954), wk =   0.0625000
        k(   17) = (  -0.3529786  -0.3535236   0.7069854), wk =   0.0625000
        k(   18) = (  -0.1764115  -0.1767231   0.5302554), wk =   0.0625000
        k(   19) = (  -0.5303345   0.5303616  -0.1772660), wk =   0.0625000
        k(   20) = (  -0.3537674   0.7071621  -0.3539960), wk =   0.0625000
        k(   21) = (  -0.8834686   0.1767607   0.1761940), wk =   0.0625000
        k(   22) = (  -0.7069015   0.3535612  -0.0005360), wk =   0.0625000
        k(   23) = (  -0.3535045   0.3536002  -0.0003355), wk =   0.0625000
        k(   24) = (  -0.1769374   0.5304006  -0.1770655), wk =   0.0625000
        k(   25) = (  -0.7066386  -0.0000007   0.3531245), wk =   0.0625000
        k(   26) = (  -0.5300715   0.1767997   0.1763945), wk =   0.0625000
        k(   27) = (   0.3533489  -0.3536775  -0.3531899), wk =   0.0312500
        k(   28) = (   0.5299160  -0.1768770  -0.5299199), wk =   0.0625000
        k(   29) = (   0.0002148  -0.7072784   0.0002701), wk =   0.0312500
        k(   30) = (   0.5301789  -0.5304389  -0.1762594), wk =   0.0625000
        k(   31) = (   0.7067460  -0.3536385  -0.3529894), wk =   0.0625000
        k(   32) = (   0.1770448  -0.8840398   0.1772006), wk =   0.0625000
        k(   33) = (   0.3536119  -0.7072394   0.0004706), wk =   0.0625000
        k(   34) = (  -0.0003111  -0.0001546  -0.7070508), wk =   0.0312500
        k(   35) = (   0.1762560   0.1766458  -0.8837808), wk =   0.0625000
        k(   36) = (  -0.3534452  -0.3537555  -0.3535908), wk =   0.0312500

                       cryst. coord.
        k(    1) = (   0.0000000   0.0000000   0.0000000), wk =   0.0312500
        k(    2) = (   0.0000000   0.0000000   0.2500000), wk =   0.0625000
        k(    3) = (  -0.0000000  -0.0000000  -0.5000000), wk =   0.0312500
        k(    4) = (   0.0000000   0.2500000   0.0000000), wk =   0.0625000
        k(    5) = (   0.0000000   0.2500000   0.2500000), wk =   0.0625000
        k(    6) = (  -0.0000000   0.2500000  -0.5000000), wk =   0.0625000
        k(    7) = (  -0.0000000   0.2500000  -0.2500000), wk =   0.0625000
        k(    8) = (   0.0000000  -0.5000000  -0.0000000), wk =   0.0312500
        k(    9) = (   0.0000000  -0.5000000   0.2500000), wk =   0.0625000
        k(   10) = (  -0.0000000  -0.5000000  -0.5000000), wk =   0.0312500
        k(   11) = (   0.2500000   0.0000000   0.0000000), wk =   0.0625000
        k(   12) = (   0.2500000   0.0000000   0.2500000), wk =   0.0625000
        k(   13) = (   0.2500000   0.0000000  -0.5000000), wk =   0.0625000
        k(   14) = (   0.2500000  -0.0000000  -0.2500000), wk =   0.0625000
        k(   15) = (   0.2500000   0.2500000   0.0000000), wk =   0.0625000
        k(   16) = (   0.2500000   0.2500000   0.2500000), wk =   0.0625000
        k(   17) = (   0.2500000   0.2500000  -0.5000000), wk =   0.0625000
        k(   18) = (   0.2500000   0.2500000  -0.2500000), wk =   0.0625000
        k(   19) = (   0.2500000  -0.5000000  -0.0000000), wk =   0.0625000
        k(   20) = (   0.2500000  -0.5000000   0.2500000), wk =   0.0625000
        k(   21) = (   0.2500000  -0.5000000  -0.5000000), wk =   0.0625000
        k(   22) = (   0.2500000  -0.5000000  -0.2500000), wk =   0.0625000
        k(   23) = (   0.2500000  -0.2500000  -0.0000000), wk =   0.0625000
        k(   24) = (   0.2500000  -0.2500000   0.2500000), wk =   0.0625000
        k(   25) = (   0.2500000  -0.2500000  -0.5000000), wk =   0.0625000
        k(   26) = (   0.2500000  -0.2500000  -0.2500000), wk =   0.0625000
        k(   27) = (  -0.5000000  -0.0000000  -0.0000000), wk =   0.0312500
        k(   28) = (  -0.5000000   0.0000000   0.2500000), wk =   0.0625000
        k(   29) = (  -0.5000000  -0.0000000  -0.5000000), wk =   0.0312500
        k(   30) = (  -0.5000000   0.2500000  -0.0000000), wk =   0.0625000
        k(   31) = (  -0.5000000   0.2500000   0.2500000), wk =   0.0625000
        k(   32) = (  -0.5000000   0.2500000  -0.5000000), wk =   0.0625000
        k(   33) = (  -0.5000000   0.2500000  -0.2500000), wk =   0.0625000
        k(   34) = (  -0.5000000  -0.5000000  -0.0000000), wk =   0.0312500
        k(   35) = (  -0.5000000  -0.5000000   0.2500000), wk =   0.0625000
        k(   36) = (  -0.5000000  -0.5000000  -0.5000000), wk =   0.0312500

     Dense  grid:   109951 G-vectors     FFT dimensions: (  72,  72,  72)

     Smooth grid:    64201 G-vectors     FFT dimensions: (  60,  60,  60)

     Largest allocated arrays     est. size (Mb)     dimensions
        Kohn-Sham Wavefunctions         2.66 Mb     (    2027,   86)
        NL pseudopotentials             8.91 Mb     (    2027,  288)
        Each V/rho on FFT grid          1.42 Mb     (   93312)
        Each G-vector array             0.21 Mb     (   27489)
        G-vector shells                 0.21 Mb     (   27021)
     Largest temporary arrays     est. size (Mb)     dimensions
        Auxiliary wavefunctions        10.64 Mb     (    2027,  344)
        Each subspace H/S matrix        1.81 Mb     (     344,  344)
        Each <psi_i|beta_j> matrix      0.38 Mb     (     288,   86)
        Arrays for rho mixing          11.39 Mb     (   93312,    8)

     Check: negative/imaginary core charge=   -0.000001    0.000000

     Initial potential from superposition of free atoms

     starting charge  143.98835, renormalised to  144.00000
     Starting wfc are  104 randomized atomic wfcs

     total cpu time spent up to now is       54.9 secs

     Self-consistent Calculation

     iteration #  1     ecut=    35.00 Ry     beta=0.30
     Davidson diagonalization with overlap
     ethr =  1.00E-02,  avg # of iterations =  3.0

     Threshold (ethr) on eigenvalues was too large:
     Diagonalizing with lowered threshold

     Davidson diagonalization with overlap
     ethr =  2.42E-04,  avg # of iterations =  4.9

     total cpu time spent up to now is      343.6 secs

     total energy              =   -1781.94115163 Ry
     Harris-Foulkes estimate   =   -1781.97777790 Ry
     estimated scf accuracy    <       0.34820638 Ry

     iteration #  2     ecut=    35.00 Ry     beta=0.30
     Davidson diagonalization with overlap
     ethr =  2.42E-04,  avg # of iterations =  1.0

     total cpu time spent up to now is      444.4 secs

     total energy              =   -1781.87222602 Ry
     Harris-Foulkes estimate   =   -1781.94309055 Ry
     estimated scf accuracy    <       0.21456038 Ry

     iteration #  3     ecut=    35.00 Ry     beta=0.30
     Davidson diagonalization with overlap
     ethr =  1.49E-04,  avg # of iterations =  2.6

     total cpu time spent up to now is      559.8 secs

     total energy              =   -1781.88550525 Ry
     Harris-Foulkes estimate   =   -1781.88550438 Ry
     estimated scf accuracy    <       0.00355730 Ry

     iteration #  4     ecut=    35.00 Ry     beta=0.30
     Davidson diagonalization with overlap
     ethr =  2.47E-06,  avg # of iterations =  7.8

     total cpu time spent up to now is      842.9 secs

     total energy              =   -1781.88604306 Ry
     Harris-Foulkes estimate   =   -1781.88640046 Ry
     estimated scf accuracy    <       0.00170634 Ry

     iteration #  5     ecut=    35.00 Ry     beta=0.30
     Davidson diagonalization with overlap
     ethr =  1.18E-06,  avg # of iterations =  2.0

     total cpu time spent up to now is      994.1 secs

     total energy              =   -1781.88609150 Ry
     Harris-Foulkes estimate   =   -1781.88613429 Ry
     estimated scf accuracy    <       0.00013549 Ry

     iteration #  6     ecut=    35.00 Ry     beta=0.30
     Davidson diagonalization with overlap
     ethr =  9.41E-08,  avg # of iterations =  2.1

     total cpu time spent up to now is     1145.3 secs

     total energy              =   -1781.88609545 Ry
     Harris-Foulkes estimate   =   -1781.88610365 Ry
     estimated scf accuracy    <       0.00002737 Ry

     iteration #  7     ecut=    35.00 Ry     beta=0.30
     Davidson diagonalization with overlap
     ethr =  1.90E-08,  avg # of iterations =  2.0

     total cpu time spent up to now is     1322.3 secs

     total energy              =   -1781.88609767 Ry
     Harris-Foulkes estimate   =   -1781.88609797 Ry
     estimated scf accuracy    <       0.00000398 Ry

     iteration #  8     ecut=    35.00 Ry     beta=0.30
     Davidson diagonalization with overlap
     ethr =  2.77E-09,  avg # of iterations =  1.9

     total cpu time spent up to now is     1478.8 secs

     total energy              =   -1781.88609760 Ry
     Harris-Foulkes estimate   =   -1781.88609787 Ry
     estimated scf accuracy    <       0.00000167 Ry

     iteration #  9     ecut=    35.00 Ry     beta=0.30
     Davidson diagonalization with overlap
     ethr =  1.16E-09,  avg # of iterations =  2.0

     total cpu time spent up to now is     1666.8 secs

     total energy              =   -1781.88609785 Ry
     Harris-Foulkes estimate   =   -1781.88609782 Ry
     estimated scf accuracy    <       0.00000023 Ry

     iteration # 10     ecut=    35.00 Ry     beta=0.30
     Davidson diagonalization with overlap
     ethr =  1.61E-10,  avg # of iterations =  2.1

     total cpu time spent up to now is     1843.3 secs

     total energy              =   -1781.88609786 Ry
     Harris-Foulkes estimate   =   -1781.88609787 Ry
     estimated scf accuracy    <       0.00000008 Ry

     iteration # 11     ecut=    35.00 Ry     beta=0.30
     Davidson diagonalization with overlap
     ethr =  5.29E-11,  avg # of iterations =  2.1

     total cpu time spent up to now is     2021.4 secs

     total energy              =   -1781.88609790 Ry
     Harris-Foulkes estimate   =   -1781.88609788 Ry
     estimated scf accuracy    <          3.2E-09 Ry

     iteration # 12     ecut=    35.00 Ry     beta=0.30
     Davidson diagonalization with overlap
     ethr =  2.19E-12,  avg # of iterations =  3.0

     total cpu time spent up to now is     2228.0 secs

     End of self-consistent calculation

          k = 0.0000 0.0000 0.0000 (  7991 PWs)   bands (ev):

   -17.2330 -17.2250 -17.2143 -17.1962 -17.1926 -17.1903 -17.1833 -17.1740
   -17.1596 -17.1580 -17.1282 -17.1218 -17.1073 -17.1063 -17.1014 -17.0925
   -17.0908 -17.0893 -17.0833 -17.0809 -17.0758 -17.0742 -17.0699 -17.0690
   -17.0663 -17.0601 -17.0509 -17.0501 -17.0432 -17.0421 -16.9420 -16.9306
   -16.9186 -16.9054 -16.9041 -16.7313 -16.7274 -16.7255 -16.7093 -16.7076
    -5.1525  -3.2117  -3.0491  -2.8461  -2.7107  -1.6893  -1.5061  -1.3411
    -0.7126  -0.6452  -0.6161  -0.0501   0.0447   0.2032   0.3330   4.2195
     4.2520   4.2856   4.3313   4.3855   4.3985   5.7129   5.7769   5.9007
     5.9975   6.0619   6.1220   6.1675   6.3027   7.3370   7.3954   7.5352
     7.5717   7.7763   7.9458   8.0260   8.0844   8.1143   8.1628   8.2106
     8.2283   8.2905   8.9640   9.7293   9.7862   9.8375

     occupation numbers 
     1.0000   1.0000   1.0000   1.0000   1.0000   1.0000   1.0000   1.0000
     1.0000   1.0000   1.0000   1.0000   1.0000   1.0000   1.0000   1.0000
     1.0000   1.0000   1.0000   1.0000   1.0000   1.0000   1.0000   1.0000
     1.0000   1.0000   1.0000   1.0000   1.0000   1.0000   1.0000   1.0000
     1.0000   1.0000   1.0000   1.0000   1.0000   1.0000   1.0000   1.0000
     1.0000   1.0000   1.0000   1.0000   1.0000   1.0000   1.0000   1.0000
     1.0000   1.0000   1.0000   1.0000   1.0000   1.0000   1.0000   1.0000
     1.0000   1.0000   1.0000   1.0000   1.0000   1.0000   1.0000   1.0000
     1.0000   1.0000   1.0000   1.0000   1.0000   0.9235   0.8472   0.5224
     0.4220   0.0532   0.0026   0.0004   0.0001   0.0000   0.0000   0.0000
     0.0000   0.0000   0.0000   0.0000   0.0000   0.0000

          k = 0.1766 0.1768-0.1767 (  8014 PWs)   bands (ev):

   -17.2327 -17.2247 -17.2141 -17.1960 -17.1926 -17.1903 -17.1830 -17.1737
   -17.1595 -17.1579 -17.1282 -17.1216 -17.1071 -17.1060 -17.1011 -17.0921
   -17.0906 -17.0893 -17.0833 -17.0808 -17.0755 -17.0740 -17.0703 -17.0690
   -17.0663 -17.0600 -17.0510 -17.0501 -17.0432 -17.0421 -16.9419 -16.9305
   -16.9185 -16.9055 -16.9041 -16.7312 -16.7273 -16.7254 -16.7093 -16.7076
    -4.9625  -3.5626  -3.0714  -2.8500  -2.6514  -2.1625  -1.9901  -1.8114
    -0.1632  -0.1203  -0.0180   0.2096   0.4181   0.5162   1.0570   3.6777
     3.7535   3.8098   4.4021   4.4412   4.5429   4.6737   4.8433   4.9539
     5.4628   5.5453   5.7575   5.7853   6.1177   6.1843   7.0630   7.2317
     7.9266   8.0124   8.3035   8.3186   8.9147   8.9997   9.1197   9.1914
     9.2350   9.2750   9.4094  10.2402  10.2709  10.7074

     occupation numbers 
     1.0000   1.0000   1.0000   1.0000   1.0000   1.0000   1.0000   1.0000
     1.0000   1.0000   1.0000   1.0000   1.0000   1.0000   1.0000   1.0000
     1.0000   1.0000   1.0000   1.0000   1.0000   1.0000   1.0000   1.0000
     1.0000   1.0000   1.0000   1.0000   1.0000   1.0000   1.0000   1.0000
     1.0000   1.0000   1.0000   1.0000   1.0000   1.0000   1.0000   1.0000
     1.0000   1.0000   1.0000   1.0000   1.0000   1.0000   1.0000   1.0000
     1.0000   1.0000   1.0000   1.0000   1.0000   1.0000   1.0000   1.0000
     1.0000   1.0000   1.0000   1.0000   1.0000   1.0000   1.0000   1.0000
     1.0000   1.0000   1.0000   1.0000   1.0000   1.0000   0.9996   0.9846
     0.0040   0.0006   0.0000   0.0000   0.0000   0.0000   0.0000   0.0000
     0.0000   0.0000   0.0000   0.0000   0.0000   0.0000

          k =-0.3531-0.3536 0.3535 (  8042 PWs)   bands (ev):

   -17.2327 -17.2244 -17.2139 -17.1957 -17.1926 -17.1903 -17.1828 -17.1734
   -17.1594 -17.1578 -17.1280 -17.1216 -17.1069 -17.1057 -17.1010 -17.0917
   -17.0903 -17.0893 -17.0833 -17.0807 -17.0751 -17.0737 -17.0709 -17.0690
   -17.0664 -17.0598 -17.0511 -17.0501 -17.0432 -17.0421 -16.9419 -16.9303
   -16.9183 -16.9055 -16.9042 -16.7310 -16.7272 -16.7252 -16.7094 -16.7076
    -4.5232  -4.2500  -2.8987  -2.6675  -2.6034  -2.4875  -2.3926  -2.1959
     0.2151   0.2702   0.3416   0.6150   0.7314   0.8673   2.8719   2.9481
     3.4750   3.4923   3.5888   3.6435   3.8647   3.9280   4.7742   4.8269
     4.9191   4.9969   5.2452   5.2849   6.2885   6.4186   6.6369   6.9093
     8.3415   8.3932   8.5875   8.6797   8.7707   8.8332   9.0017   9.0257
    10.6797  10.7803  10.8433  11.1575  11.3612  11.5490

     occupation numbers 
     1.0000   1.0000   1.0000   1.0000   1.0000   1.0000   1.0000   1.0000
     1.0000   1.0000   1.0000   1.0000   1.0000   1.0000   1.0000   1.0000
     1.0000   1.0000   1.0000   1.0000   1.0000   1.0000   1.0000   1.0000
     1.0000   1.0000   1.0000   1.0000   1.0000   1.0000   1.0000   1.0000
     1.0000   1.0000   1.0000   1.0000   1.0000   1.0000   1.0000   1.0000
     1.0000   1.0000   1.0000   1.0000   1.0000   1.0000   1.0000   1.0000
     1.0000   1.0000   1.0000   1.0000   1.0000   1.0000   1.0000   1.0000
     1.0000   1.0000   1.0000   1.0000   1.0000   1.0000   1.0000   1.0000
     1.0000   1.0000   1.0000   1.0000   1.0000   1.0000   1.0000   1.0000
     0.0000   0.0000   0.0000   0.0000   0.0000   0.0000   0.0000   0.0000
     0.0000   0.0000   0.0000   0.0000   0.0000   0.0000

          k = 0.1768-0.1768 0.1769 (  8014 PWs)   bands (ev):

   -17.2329 -17.2248 -17.2141 -17.1960 -17.1925 -17.1902 -17.1830 -17.1738
   -17.1595 -17.1579 -17.1278 -17.1210 -17.1070 -17.1062 -17.1017 -17.0923
   -17.0909 -17.0892 -17.0832 -17.0808 -17.0757 -17.0742 -17.0699 -17.0690
   -17.0663 -17.0599 -17.0510 -17.0501 -17.0432 -17.0421 -16.9419 -16.9305
   -16.9185 -16.9054 -16.9040 -16.7312 -16.7273 -16.7254 -16.7093 -16.7076
    -4.9600  -3.5886  -3.0152  -2.8121  -2.7451  -2.1584  -1.9611  -1.8098
    -0.2517  -0.0846   0.0638   0.2301   0.3336   0.5103   1.0790   3.6798
     3.7654   3.8058   4.4306   4.4694   4.5023   4.7300   4.8721   4.9090
     5.4239   5.5700   5.6539   5.7963   6.0631   6.3360   7.0675   7.1909
     7.9290   8.1025   8.1490   8.2806   9.0270   9.0391   9.0900   9.2096
     9.2206   9.2572   9.3527  10.1288  10.3036  10.6873

     occupation numbers 
     1.0000   1.0000   1.0000   1.0000   1.0000   1.0000   1.0000   1.0000
     1.0000   1.0000   1.0000   1.0000   1.0000   1.0000   1.0000   1.0000
     1.0000   1.0000   1.0000   1.0000   1.0000   1.0000   1.0000   1.0000
     1.0000   1.0000   1.0000   1.0000   1.0000   1.0000   1.0000   1.0000
     1.0000   1.0000   1.0000   1.0000   1.0000   1.0000   1.0000   1.0000
     1.0000   1.0000   1.0000   1.0000   1.0000   1.0000   1.0000   1.0000
     1.0000   1.0000   1.0000   1.0000   1.0000   1.0000   1.0000   1.0000
     1.0000   1.0000   1.0000   1.0000   1.0000   1.0000   1.0000   1.0000
     1.0000   1.0000   1.0000   1.0000   1.0000   1.0000   0.9995   0.9927
     0.0038   0.0001   0.0000   0.0000   0.0000   0.0000   0.0000   0.0000
     0.0000   0.0000   0.0000   0.0000   0.0000   0.0000

          k = 0.3534 0.0000 0.0002 (  8044 PWs)   bands (ev):

   -17.2327 -17.2246 -17.2141 -17.1960 -17.1925 -17.1901 -17.1828 -17.1737
   -17.1595 -17.1577 -17.1280 -17.1211 -17.1071 -17.1061 -17.1014 -17.0920
   -17.0908 -17.0892 -17.0834 -17.0807 -17.0754 -17.0740 -17.0702 -17.0689
   -17.0663 -17.0600 -17.0508 -17.0501 -17.0433 -17.0420 -16.9418 -16.9304
   -16.9184 -16.9054 -16.9039 -16.7312 -16.7272 -16.7254 -16.7094 -16.7075
    -4.8940  -3.3727  -3.1790  -2.9694  -2.9111  -2.7218  -1.4530  -1.3935
    -0.5893  -0.5150   0.3928   0.4927   0.6704   0.8121   1.1211   3.6933
     3.7129   3.7891   3.8197   4.4378   4.4907   4.5589   4.6708   4.8037
     4.9070   5.5101   5.8829   5.9361   6.0773   6.1507   6.5603   6.6521
     7.7851   8.6440   8.9474   9.0219   9.0872   9.1083   9.1740   9.2593
     9.3215   9.4572   9.4803  10.5273  10.6503  10.7495

     occupation numbers 
     1.0000   1.0000   1.0000   1.0000   1.0000   1.0000   1.0000   1.0000
     1.0000   1.0000   1.0000   1.0000   1.0000   1.0000   1.0000   1.0000
     1.0000   1.0000   1.0000   1.0000   1.0000   1.0000   1.0000   1.0000
     1.0000   1.0000   1.0000   1.0000   1.0000   1.0000   1.0000   1.0000
     1.0000   1.0000   1.0000   1.0000   1.0000   1.0000   1.0000   1.0000
     1.0000   1.0000   1.0000   1.0000   1.0000   1.0000   1.0000   1.0000
     1.0000   1.0000   1.0000   1.0000   1.0000   1.0000   1.0000   1.0000
     1.0000   1.0000   1.0000   1.0000   1.0000   1.0000   1.0000   1.0000
     1.0000   1.0000   1.0000   1.0000   1.0000   1.0000   1.0000   1.0000
     0.0469   0.0000   0.0000   0.0000   0.0000   0.0000   0.0000   0.0000
     0.0000   0.0000   0.0000   0.0000   0.0000   0.0000

          k =-0.1763-0.5304 0.5304 (  8031 PWs)   bands (ev):

   -17.2326 -17.2243 -17.2139 -17.1958 -17.1924 -17.1901 -17.1826 -17.1734
   -17.1594 -17.1577 -17.1279 -17.1210 -17.1070 -17.1058 -17.1012 -17.0916
   -17.0905 -17.0892 -17.0834 -17.0807 -17.0751 -17.0736 -17.0708 -17.0689
   -17.0663 -17.0599 -17.0509 -17.0501 -17.0432 -17.0420 -16.9418 -16.9303
   -16.9183 -16.9054 -16.9040 -16.7311 -16.7271 -16.7253 -16.7093 -16.7075
    -4.4751  -3.9487  -3.4603  -3.0632  -2.9738  -2.3273  -1.8920  -1.7741
    -0.1510  -0.0096   0.3047   0.9419   1.1376   1.8739   2.2547   3.0460
     3.1263   3.1850   3.7139   3.7869   3.9142   4.1504   4.2779   4.6011
     4.8142   5.0130   5.2862   5.3298   5.5230   5.9217   6.0506   6.6356
     8.4714   9.0041   9.2388   9.4464   9.5563   9.6208   9.8541  10.0186
    10.2798  10.4304  10.7285  10.7860  11.0221  11.2018

     occupation numbers 
     1.0000   1.0000   1.0000   1.0000   1.0000   1.0000   1.0000   1.0000
     1.0000   1.0000   1.0000   1.0000   1.0000   1.0000   1.0000   1.0000
     1.0000   1.0000   1.0000   1.0000   1.0000   1.0000   1.0000   1.0000
     1.0000   1.0000   1.0000   1.0000   1.0000   1.0000   1.0000   1.0000
     1.0000   1.0000   1.0000   1.0000   1.0000   1.0000   1.0000   1.0000
     1.0000   1.0000   1.0000   1.0000   1.0000   1.0000   1.0000   1.0000
     1.0000   1.0000   1.0000   1.0000   1.0000   1.0000   1.0000   1.0000
     1.0000   1.0000   1.0000   1.0000   1.0000   1.0000   1.0000   1.0000
     1.0000   1.0000   1.0000   1.0000   1.0000   1.0000   1.0000   1.0000
     0.0000   0.0000   0.0000   0.0000   0.0000   0.0000   0.0000   0.0000
     0.0000   0.0000   0.0000   0.0000   0.0000   0.0000

          k = 0.0003-0.3536 0.3537 (  8048 PWs)   bands (ev):

   -17.2326 -17.2246 -17.2139 -17.1957 -17.1925 -17.1902 -17.1828 -17.1735
   -17.1593 -17.1578 -17.1278 -17.1210 -17.1069 -17.1060 -17.1014 -17.0919
   -17.0907 -17.0892 -17.0832 -17.0808 -17.0754 -17.0740 -17.0704 -17.0689
   -17.0663 -17.0598 -17.0511 -17.0500 -17.0431 -17.0421 -16.9418 -16.9304
   -16.9184 -16.9054 -16.9041 -16.7311 -16.7272 -16.7253 -16.7093 -16.7077
    -4.6544  -3.7228  -3.6115  -2.8002  -2.6269  -2.3885  -2.3022  -1.6301
    -0.3299   0.0603   0.2167   0.8037   0.9541   1.6231   1.6795   2.9499
     3.5871   3.6809   3.7675   3.9105   4.2259   4.3994   4.4450   4.7314
     4.9674   5.0447   5.3040   5.4006   5.6299   5.7364   5.9134   7.1149
     8.3596   9.0486   9.1061   9.2218   9.2539   9.6764   9.7804   9.8936
    10.0214  10.0551  10.3689  10.4103  10.6473  10.6809

     occupation numbers 
     1.0000   1.0000   1.0000   1.0000   1.0000   1.0000   1.0000   1.0000
     1.0000   1.0000   1.0000   1.0000   1.0000   1.0000   1.0000   1.0000
     1.0000   1.0000   1.0000   1.0000   1.0000   1.0000   1.0000   1.0000
     1.0000   1.0000   1.0000   1.0000   1.0000   1.0000   1.0000   1.0000
     1.0000   1.0000   1.0000   1.0000   1.0000   1.0000   1.0000   1.0000
     1.0000   1.0000   1.0000   1.0000   1.0000   1.0000   1.0000   1.0000
     1.0000   1.0000   1.0000   1.0000   1.0000   1.0000   1.0000   1.0000
     1.0000   1.0000   1.0000   1.0000   1.0000   1.0000   1.0000   1.0000
     1.0000   1.0000   1.0000   1.0000   1.0000   1.0000   1.0000   0.9985
     0.0000   0.0000   0.0000   0.0000   0.0000   0.0000   0.0000   0.0000
     0.0000   0.0000   0.0000   0.0000   0.0000   0.0000

          k =-0.3537 0.3535-0.3539 (  8036 PWs)   bands (ev):

   -17.2326 -17.2246 -17.2139 -17.1957 -17.1924 -17.1902 -17.1828 -17.1735
   -17.1593 -17.1579 -17.1274 -17.1204 -17.1068 -17.1062 -17.1019 -17.0921
   -17.0910 -17.0890 -17.0830 -17.0806 -17.0758 -17.0741 -17.0700 -17.0691
   -17.0662 -17.0598 -17.0510 -17.0501 -17.0432 -17.0421 -16.9417 -16.9305
   -16.9184 -16.9054 -16.9039 -16.7310 -16.7272 -16.7253 -16.7094 -16.7076
    -4.4785  -4.3087  -2.8252  -2.7178  -2.6236  -2.5351  -2.3273  -2.1939
     0.1159   0.3279   0.5127   0.5744   0.6503   0.8025   2.9255   2.9865
     3.4219   3.4977   3.5565   3.6607   3.8961   3.9959   4.7953   4.8502
     4.9563   5.0119   5.1460   5.1996   6.1692   6.6258   6.6979   6.7845
     8.3883   8.4233   8.5992   8.6451   8.7439   8.8541   8.8982   8.9485
    10.4685  10.8324  11.0262  11.0815  11.5102  11.6056

     occupation numbers 
     1.0000   1.0000   1.0000   1.0000   1.0000   1.0000   1.0000   1.0000
     1.0000   1.0000   1.0000   1.0000   1.0000   1.0000   1.0000   1.0000
     1.0000   1.0000   1.0000   1.0000   1.0000   1.0000   1.0000   1.0000
     1.0000   1.0000   1.0000   1.0000   1.0000   1.0000   1.0000   1.0000
     1.0000   1.0000   1.0000   1.0000   1.0000   1.0000   1.0000   1.0000
     1.0000   1.0000   1.0000   1.0000   1.0000   1.0000   1.0000   1.0000
     1.0000   1.0000   1.0000   1.0000   1.0000   1.0000   1.0000   1.0000
     1.0000   1.0000   1.0000   1.0000   1.0000   1.0000   1.0000   1.0000
     1.0000   1.0000   1.0000   1.0000   1.0000   1.0000   1.0000   1.0000
     0.0000   0.0000   0.0000   0.0000   0.0000   0.0000   0.0000   0.0000
     0.0000   0.0000   0.0000   0.0000   0.0000   0.0000

          k =-0.1771 0.5303-0.5306 (  8035 PWs)   bands (ev):

   -17.2326 -17.2244 -17.2139 -17.1958 -17.1924 -17.1900 -17.1826 -17.1735
   -17.1593 -17.1577 -17.1277 -17.1204 -17.1069 -17.1060 -17.1018 -17.0917
   -17.0910 -17.0891 -17.0832 -17.0806 -17.0753 -17.0739 -17.0703 -17.0690
   -17.0662 -17.0599 -17.0510 -17.0501 -17.0432 -17.0420 -16.9418 -16.9304
   -16.9184 -16.9054 -16.9038 -16.7311 -16.7271 -16.7253 -16.7093 -16.7075
    -4.4584  -3.9960  -3.4142  -3.0883  -2.9464  -2.3826  -1.8545  -1.7589
    -0.1666  -0.0049   0.2619   1.0189   1.1093   1.8320   2.2664   3.0097
     3.1567   3.2707   3.5147   3.8763   4.0172   4.2216   4.2950   4.5204
     4.7974   4.9993   5.2489   5.3590   5.4336   5.9823   6.0907   6.6079
     8.5150   8.9347   9.2329   9.4168   9.5100   9.5956   9.9875  10.0519
    10.1689  10.4853  10.6691  10.7936  10.9655  11.2080

     occupation numbers 
     1.0000   1.0000   1.0000   1.0000   1.0000   1.0000   1.0000   1.0000
     1.0000   1.0000   1.0000   1.0000   1.0000   1.0000   1.0000   1.0000
     1.0000   1.0000   1.0000   1.0000   1.0000   1.0000   1.0000   1.0000
     1.0000   1.0000   1.0000   1.0000   1.0000   1.0000   1.0000   1.0000
     1.0000   1.0000   1.0000   1.0000   1.0000   1.0000   1.0000   1.0000
     1.0000   1.0000   1.0000   1.0000   1.0000   1.0000   1.0000   1.0000
     1.0000   1.0000   1.0000   1.0000   1.0000   1.0000   1.0000   1.0000
     1.0000   1.0000   1.0000   1.0000   1.0000   1.0000   1.0000   1.0000
     1.0000   1.0000   1.0000   1.0000   1.0000   1.0000   1.0000   1.0000
     0.0000   0.0000   0.0000   0.0000   0.0000   0.0000   0.0000   0.0000
     0.0000   0.0000   0.0000   0.0000   0.0000   0.0000

          k =-0.7068-0.0001-0.0004 (  8016 PWs)   bands (ev):

   -17.2324 -17.2241 -17.2138 -17.1957 -17.1923 -17.1898 -17.1823 -17.1733
   -17.1593 -17.1574 -17.1277 -17.1203 -17.1069 -17.1057 -17.1015 -17.0912
   -17.0909 -17.0890 -17.0834 -17.0806 -17.0748 -17.0735 -17.0706 -17.0688
   -17.0661 -17.0598 -17.0507 -17.0500 -17.0432 -17.0418 -16.9416 -16.9302
   -16.9182 -16.9053 -16.9036 -16.7310 -16.7269 -16.7252 -16.7092 -16.7073
    -4.1750  -4.1015  -3.4340  -3.2519  -3.0493  -2.9270  -1.3990  -1.3320
    -0.4860  -0.4104   1.2874   1.3032   1.3656   1.4097   3.0418   3.1054
     3.2250   3.2596   3.3347   3.4305   3.4576   3.5523   3.6244   3.8627
     5.2278   5.2997   5.3732   5.4436   5.8635   5.9373   6.0910   6.1421
     8.2838   8.2878   9.4446   9.4769   9.5098   9.5144  10.1843  10.2885
    11.4827  11.5092  11.5992  11.6408  11.6912  11.7494

     occupation numbers 
     1.0000   1.0000   1.0000   1.0000   1.0000   1.0000   1.0000   1.0000
     1.0000   1.0000   1.0000   1.0000   1.0000   1.0000   1.0000   1.0000
     1.0000   1.0000   1.0000   1.0000   1.0000   1.0000   1.0000   1.0000
     1.0000   1.0000   1.0000   1.0000   1.0000   1.0000   1.0000   1.0000
     1.0000   1.0000   1.0000   1.0000   1.0000   1.0000   1.0000   1.0000
     1.0000   1.0000   1.0000   1.0000   1.0000   1.0000   1.0000   1.0000
     1.0000   1.0000   1.0000   1.0000   1.0000   1.0000   1.0000   1.0000
     1.0000   1.0000   1.0000   1.0000   1.0000   1.0000   1.0000   1.0000
     1.0000   1.0000   1.0000   1.0000   1.0000   1.0000   1.0000   1.0000
     0.0000   0.0000   0.0000   0.0000   0.0000   0.0000   0.0000   0.0000
     0.0000   0.0000   0.0000   0.0000   0.0000   0.0000

          k =-0.1767 0.1768 0.1766 (  8015 PWs)   bands (ev):

   -17.2327 -17.2248 -17.2139 -17.1959 -17.1927 -17.1903 -17.1830 -17.1739
   -17.1596 -17.1580 -17.1280 -17.1211 -17.1071 -17.1061 -17.1015 -17.0921
   -17.0909 -17.0893 -17.0829 -17.0807 -17.0756 -17.0743 -17.0699 -17.0689
   -17.0663 -17.0602 -17.0509 -17.0501 -17.0433 -17.0421 -16.9419 -16.9305
   -16.9185 -16.9054 -16.9040 -16.7312 -16.7273 -16.7254 -16.7093 -16.7076
    -4.9578  -3.5822  -3.0190  -2.8374  -2.7381  -2.1729  -1.9966  -1.7659
    -0.1205  -0.0653  -0.0149   0.2596   0.2963   0.5405   1.0263   3.6691
     3.7058   3.7438   4.4542   4.5076   4.5356   4.6930   4.7485   4.8787
     5.4413   5.6493   5.6969   5.7765   6.1710   6.3059   7.0712   7.2045
     7.9703   8.1345   8.2085   8.3528   8.9629   9.0202   9.1057   9.1521
     9.2249   9.2480   9.3365  10.1994  10.2620  10.7412

     occupation numbers 
     1.0000   1.0000   1.0000   1.0000   1.0000   1.0000   1.0000   1.0000
     1.0000   1.0000   1.0000   1.0000   1.0000   1.0000   1.0000   1.0000
     1.0000   1.0000   1.0000   1.0000   1.0000   1.0000   1.0000   1.0000
     1.0000   1.0000   1.0000   1.0000   1.0000   1.0000   1.0000   1.0000
     1.0000   1.0000   1.0000   1.0000   1.0000   1.0000   1.0000   1.0000
     1.0000   1.0000   1.0000   1.0000   1.0000   1.0000   1.0000   1.0000
     1.0000   1.0000   1.0000   1.0000   1.0000   1.0000   1.0000   1.0000
     1.0000   1.0000   1.0000   1.0000   1.0000   1.0000   1.0000   1.0000
     1.0000   1.0000   1.0000   1.0000   1.0000   1.0000   0.9995   0.9905
     0.0015   0.0000   0.0000   0.0000   0.0000   0.0000   0.0000   0.0000
     0.0000   0.0000   0.0000   0.0000   0.0000   0.0000

          k =-0.0001 0.3536-0.0001 (  8044 PWs)   bands (ev):

   -17.2327 -17.2246 -17.2139 -17.1959 -17.1927 -17.1902 -17.1830 -17.1739
   -17.1595 -17.1578 -17.1278 -17.1211 -17.1069 -17.1062 -17.1014 -17.0921
   -17.0908 -17.0893 -17.0828 -17.0806 -17.0753 -17.0742 -17.0704 -17.0690
   -17.0661 -17.0602 -17.0509 -17.0500 -17.0433 -17.0421 -16.9418 -16.9305
   -16.9184 -16.9054 -16.9040 -16.7312 -16.7273 -16.7254 -16.7093 -16.7076
    -4.8948  -3.3630  -3.2090  -2.9740  -2.8986  -2.6840  -1.5148  -1.3593
    -0.6152  -0.5261   0.4094   0.5251   0.6650   0.8034   1.1285   3.6901
     3.7475   3.7895   3.8343   4.4139   4.5255   4.6016   4.6564   4.7834
     4.9053   5.5341   5.7594   5.9209   6.0320   6.1514   6.5823   6.6878
     7.7760   8.6324   8.8794   9.0477   9.0983   9.1268   9.1734   9.3108
     9.3569   9.4289   9.4805  10.5389  10.6747  10.7568

     occupation numbers 
     1.0000   1.0000   1.0000   1.0000   1.0000   1.0000   1.0000   1.0000
     1.0000   1.0000   1.0000   1.0000   1.0000   1.0000   1.0000   1.0000
     1.0000   1.0000   1.0000   1.0000   1.0000   1.0000   1.0000   1.0000
     1.0000   1.0000   1.0000   1.0000   1.0000   1.0000   1.0000   1.0000
     1.0000   1.0000   1.0000   1.0000   1.0000   1.0000   1.0000   1.0000
     1.0000   1.0000   1.0000   1.0000   1.0000   1.0000   1.0000   1.0000
     1.0000   1.0000   1.0000   1.0000   1.0000   1.0000   1.0000   1.0000
     1.0000   1.0000   1.0000   1.0000   1.0000   1.0000   1.0000   1.0000
     1.0000   1.0000   1.0000   1.0000   1.0000   1.0000   1.0000   1.0000
     0.0534   0.0000   0.0000   0.0000   0.0000   0.0000   0.0000   0.0000
     0.0000   0.0000   0.0000   0.0000   0.0000   0.0000

          k =-0.5298-0.1768 0.5301 (  8034 PWs)   bands (ev):

   -17.2325 -17.2243 -17.2137 -17.1957 -17.1926 -17.1902 -17.1828 -17.1736
   -17.1594 -17.1577 -17.1278 -17.1210 -17.1068 -17.1059 -17.1012 -17.0918
   -17.0905 -17.0891 -17.0829 -17.0805 -17.0750 -17.0738 -17.0709 -17.0689
   -17.0662 -17.0601 -17.0509 -17.0500 -17.0433 -17.0421 -16.9418 -16.9305
   -16.9182 -16.9054 -16.9040 -16.7310 -16.7272 -16.7252 -16.7093 -16.7076
    -4.4792  -3.9357  -3.4818  -3.1064  -2.8988  -2.3028  -1.9442  -1.7717
    -0.1407  -0.0574   0.2965   0.9902   1.1680   1.8633   2.2140   3.0668
     3.1033   3.2773   3.7033   3.8055   3.9056   4.1806   4.2736   4.5749
     4.8706   4.9761   5.1795   5.2515   5.5306   5.9410   6.0660   6.6799
     8.4984   9.0471   9.1759   9.4801   9.5497   9.6122   9.8708   9.9733
    10.2333  10.4245  10.6846  10.7837  10.9615  11.2212

     occupation numbers 
     1.0000   1.0000   1.0000   1.0000   1.0000   1.0000   1.0000   1.0000
     1.0000   1.0000   1.0000   1.0000   1.0000   1.0000   1.0000   1.0000
     1.0000   1.0000   1.0000   1.0000   1.0000   1.0000   1.0000   1.0000
     1.0000   1.0000   1.0000   1.0000   1.0000   1.0000   1.0000   1.0000
     1.0000   1.0000   1.0000   1.0000   1.0000   1.0000   1.0000   1.0000
     1.0000   1.0000   1.0000   1.0000   1.0000   1.0000   1.0000   1.0000
     1.0000   1.0000   1.0000   1.0000   1.0000   1.0000   1.0000   1.0000
     1.0000   1.0000   1.0000   1.0000   1.0000   1.0000   1.0000   1.0000
     1.0000   1.0000   1.0000   1.0000   1.0000   1.0000   1.0000   1.0000
     0.0000   0.0000   0.0000   0.0000   0.0000   0.0000   0.0000   0.0000
     0.0000   0.0000   0.0000   0.0000   0.0000   0.0000

          k =-0.3532 0.0000 0.3533 (  8046 PWs)   bands (ev):

   -17.2325 -17.2245 -17.2137 -17.1957 -17.1926 -17.1903 -17.1827 -17.1736
   -17.1594 -17.1579 -17.1279 -17.1211 -17.1069 -17.1059 -17.1013 -17.0918
   -17.0907 -17.0892 -17.0830 -17.0806 -17.0753 -17.0741 -17.0703 -17.0689
   -17.0663 -17.0601 -17.0509 -17.0502 -17.0433 -17.0421 -16.9418 -16.9303
   -16.9185 -16.9055 -16.9040 -16.7311 -16.7272 -16.7253 -16.7093 -16.7076
    -4.6487  -3.7397  -3.6035  -2.7668  -2.6134  -2.4932  -2.2816  -1.5990
    -0.3432   0.1545   0.2142   0.8103   0.9533   1.5883   1.6800   2.8957
     3.5091   3.6345   3.7462   3.9330   4.2504   4.3430   4.4536   4.7614
     5.0028   5.0762   5.3068   5.4366   5.6484   5.7682   5.8542   7.1644
     8.4042   9.0375   9.1303   9.2428   9.3325   9.6664   9.8010   9.8843
     9.9977  10.0189  10.3879  10.4892  10.5799  10.7175

     occupation numbers 
     1.0000   1.0000   1.0000   1.0000   1.0000   1.0000   1.0000   1.0000
     1.0000   1.0000   1.0000   1.0000   1.0000   1.0000   1.0000   1.0000
     1.0000   1.0000   1.0000   1.0000   1.0000   1.0000   1.0000   1.0000
     1.0000   1.0000   1.0000   1.0000   1.0000   1.0000   1.0000   1.0000
     1.0000   1.0000   1.0000   1.0000   1.0000   1.0000   1.0000   1.0000
     1.0000   1.0000   1.0000   1.0000   1.0000   1.0000   1.0000   1.0000
     1.0000   1.0000   1.0000   1.0000   1.0000   1.0000   1.0000   1.0000
     1.0000   1.0000   1.0000   1.0000   1.0000   1.0000   1.0000   1.0000
     1.0000   1.0000   1.0000   1.0000   1.0000   1.0000   1.0000   0.9957
     0.0000   0.0000   0.0000   0.0000   0.0000   0.0000   0.0000   0.0000
     0.0000   0.0000   0.0000   0.0000   0.0000   0.0000

          k = 0.0002 0.0001 0.3535 (  8044 PWs)   bands (ev):

   -17.2326 -17.2249 -17.2138 -17.1958 -17.1925 -17.1904 -17.1830 -17.1738
   -17.1593 -17.1579 -17.1280 -17.1216 -17.1069 -17.1060 -17.1013 -17.0921
   -17.0906 -17.0891 -17.0828 -17.0806 -17.0756 -17.0744 -17.0698 -17.0688
   -17.0663 -17.0601 -17.0509 -17.0501 -17.0432 -17.0422 -16.9419 -16.9304
   -16.9185 -16.9053 -16.9041 -16.7311 -16.7273 -16.7253 -16.7092 -16.7076
    -4.8995  -3.3249  -3.1626  -3.0765  -2.8934  -2.6466  -1.6329  -1.2727
    -0.5897  -0.5334   0.4327   0.5070   0.6440   0.7494   1.1936   3.7155
     3.7794   3.7922   3.8235   4.4861   4.4998   4.5421   4.7010   4.7636
     4.8418   5.6072   5.7169   5.7913   5.9846   6.2801   6.5954   6.6670
     7.8050   8.6575   8.7858   9.0372   9.0570   9.1789   9.2100   9.3121
     9.3706   9.4319   9.4938  10.5475  10.7257  10.8451

     occupation numbers 
     1.0000   1.0000   1.0000   1.0000   1.0000   1.0000   1.0000   1.0000
     1.0000   1.0000   1.0000   1.0000   1.0000   1.0000   1.0000   1.0000
     1.0000   1.0000   1.0000   1.0000   1.0000   1.0000   1.0000   1.0000
     1.0000   1.0000   1.0000   1.0000   1.0000   1.0000   1.0000   1.0000
     1.0000   1.0000   1.0000   1.0000   1.0000   1.0000   1.0000   1.0000
     1.0000   1.0000   1.0000   1.0000   1.0000   1.0000   1.0000   1.0000
     1.0000   1.0000   1.0000   1.0000   1.0000   1.0000   1.0000   1.0000
     1.0000   1.0000   1.0000   1.0000   1.0000   1.0000   1.0000   1.0000
     1.0000   1.0000   1.0000   1.0000   1.0000   1.0000   1.0000   1.0000
     0.0349   0.0000   0.0000   0.0000   0.0000   0.0000   0.0000   0.0000
     0.0000   0.0000   0.0000   0.0000   0.0000   0.0000

          k = 0.1767 0.1769 0.1768 (  8013 PWs)   bands (ev):

   -17.2327 -17.2247 -17.2139 -17.1960 -17.1927 -17.1903 -17.1832 -17.1739
   -17.1596 -17.1579 -17.1281 -17.1217 -17.1070 -17.1062 -17.1012 -17.0921
   -17.0907 -17.0893 -17.0828 -17.0805 -17.0753 -17.0742 -17.0703 -17.0689
   -17.0661 -17.0603 -17.0508 -17.0501 -17.0434 -17.0422 -16.9419 -16.9305
   -16.9185 -16.9054 -16.9040 -16.7311 -16.7273 -16.7254 -16.7093 -16.7076
    -4.9626  -3.5874  -3.0437  -2.8647  -2.6486  -2.1358  -1.9359  -1.8214
    -0.3068  -0.1009   0.0235   0.1710   0.4093   0.4408   1.1558   3.7394
     3.7878   3.8124   4.3859   4.4127   4.5450   4.8198   4.8610   5.0439
     5.5160   5.5757   5.6339   5.7186   6.0296   6.2110   7.0472   7.1629
     7.8551   8.0371   8.2072   8.2508   8.9344   9.0153   9.1121   9.1599
     9.2108   9.3912   9.4248  10.1561  10.2645  10.6329

     occupation numbers 
     1.0000   1.0000   1.0000   1.0000   1.0000   1.0000   1.0000   1.0000
     1.0000   1.0000   1.0000   1.0000   1.0000   1.0000   1.0000   1.0000
     1.0000   1.0000   1.0000   1.0000   1.0000   1.0000   1.0000   1.0000
     1.0000   1.0000   1.0000   1.0000   1.0000   1.0000   1.0000   1.0000
     1.0000   1.0000   1.0000   1.0000   1.0000   1.0000   1.0000   1.0000
     1.0000   1.0000   1.0000   1.0000   1.0000   1.0000   1.0000   1.0000
     1.0000   1.0000   1.0000   1.0000   1.0000   1.0000   1.0000   1.0000
     1.0000   1.0000   1.0000   1.0000   1.0000   1.0000   1.0000   1.0000
     1.0000   1.0000   1.0000   1.0000   1.0000   1.0000   0.9997   0.9958
     0.0154   0.0003   0.0000   0.0000   0.0000   0.0000   0.0000   0.0000
     0.0000   0.0000   0.0000   0.0000   0.0000   0.0000

          k =-0.3530-0.3535 0.7070 (  8047 PWs)   bands (ev):

   -17.2325 -17.2244 -17.2138 -17.1958 -17.1927 -17.1902 -17.1829 -17.1737
   -17.1595 -17.1577 -17.1281 -17.1216 -17.1069 -17.1059 -17.1009 -17.0918
   -17.0904 -17.0892 -17.0829 -17.0805 -17.0751 -17.0738 -17.0708 -17.0690
   -17.0661 -17.0602 -17.0509 -17.0501 -17.0434 -17.0421 -16.9418 -16.9305
   -16.9184 -16.9055 -16.9040 -16.7311 -16.7272 -16.7253 -16.7094 -16.7075
    -4.6555  -3.8210  -3.4706  -2.9011  -2.5192  -2.4895  -2.1926  -1.6695
    -0.2876   0.0119   0.1565   0.8120   0.8929   1.5666   1.7884   2.9501
     3.5041   3.6920   3.9380   3.9874   4.2492   4.3300   4.6139   4.6744
     4.9943   5.1418   5.2757   5.3880   5.4327   5.7795   5.8198   7.0565
     8.3265   8.9292   9.1538   9.1905   9.2977   9.6294   9.7936   9.9680
    10.0337  10.1898  10.3561  10.4292  10.5272  10.6482

     occupation numbers 
     1.0000   1.0000   1.0000   1.0000   1.0000   1.0000   1.0000   1.0000
     1.0000   1.0000   1.0000   1.0000   1.0000   1.0000   1.0000   1.0000
     1.0000   1.0000   1.0000   1.0000   1.0000   1.0000   1.0000   1.0000
     1.0000   1.0000   1.0000   1.0000   1.0000   1.0000   1.0000   1.0000
     1.0000   1.0000   1.0000   1.0000   1.0000   1.0000   1.0000   1.0000
     1.0000   1.0000   1.0000   1.0000   1.0000   1.0000   1.0000   1.0000
     1.0000   1.0000   1.0000   1.0000   1.0000   1.0000   1.0000   1.0000
     1.0000   1.0000   1.0000   1.0000   1.0000   1.0000   1.0000   1.0000
     1.0000   1.0000   1.0000   1.0000   1.0000   1.0000   1.0000   0.9996
     0.0000   0.0000   0.0000   0.0000   0.0000   0.0000   0.0000   0.0000
     0.0000   0.0000   0.0000   0.0000   0.0000   0.0000

          k =-0.1764-0.1767 0.5303 (  8031 PWs)   bands (ev):

   -17.2324 -17.2247 -17.2135 -17.1956 -17.1925 -17.1902 -17.1828 -17.1735
   -17.1593 -17.1578 -17.1279 -17.1216 -17.1068 -17.1057 -17.1010 -17.0918
   -17.0904 -17.0891 -17.0829 -17.0806 -17.0753 -17.0741 -17.0703 -17.0688
   -17.0664 -17.0600 -17.0510 -17.0501 -17.0431 -17.0421 -16.9419 -16.9303
   -16.9184 -16.9054 -16.9040 -16.7310 -16.7272 -16.7252 -16.7092 -16.7076
    -4.4902  -3.9454  -3.3900  -3.1807  -2.8330  -2.3962  -2.0268  -1.6573
    -0.1239  -0.0803   0.3309   0.9539   1.1015   1.9201   2.2730   3.0313
     3.1300   3.3676   3.5271   3.8335   3.9071   4.2297   4.3011   4.5462
     4.8703   4.8914   5.1998   5.2500   5.5780   5.9851   6.1218   6.5452
     8.4831   8.8445   9.2268   9.4628   9.5832   9.7130   9.9491  10.0401
    10.1517  10.5110  10.7377  10.9153  11.0151  11.1495

     occupation numbers 
     1.0000   1.0000   1.0000   1.0000   1.0000   1.0000   1.0000   1.0000
     1.0000   1.0000   1.0000   1.0000   1.0000   1.0000   1.0000   1.0000
     1.0000   1.0000   1.0000   1.0000   1.0000   1.0000   1.0000   1.0000
     1.0000   1.0000   1.0000   1.0000   1.0000   1.0000   1.0000   1.0000
     1.0000   1.0000   1.0000   1.0000   1.0000   1.0000   1.0000   1.0000
     1.0000   1.0000   1.0000   1.0000   1.0000   1.0000   1.0000   1.0000
     1.0000   1.0000   1.0000   1.0000   1.0000   1.0000   1.0000   1.0000
     1.0000   1.0000   1.0000   1.0000   1.0000   1.0000   1.0000   1.0000
     1.0000   1.0000   1.0000   1.0000   1.0000   1.0000   1.0000   1.0000
     0.0000   0.0000   0.0000   0.0000   0.0000   0.0000   0.0000   0.0000
     0.0000   0.0000   0.0000   0.0000   0.0000   0.0000

          k =-0.5303 0.5304-0.1773 (  8036 PWs)   bands (ev):

   -17.2324 -17.2248 -17.2136 -17.1956 -17.1924 -17.1902 -17.1828 -17.1735
   -17.1592 -17.1578 -17.1277 -17.1210 -17.1067 -17.1060 -17.1016 -17.0919
   -17.0907 -17.0890 -17.0827 -17.0805 -17.0756 -17.0743 -17.0698 -17.0689
   -17.0663 -17.0600 -17.0509 -17.0501 -17.0432 -17.0421 -16.9418 -16.9304
   -16.9184 -16.9053 -16.9040 -16.7310 -16.7272 -16.7252 -16.7092 -16.7076
    -4.4810  -3.9544  -3.4304  -3.1555  -2.8313  -2.3393  -2.0220  -1.7191
    -0.1335   0.0022   0.2425   0.9537   1.1586   1.8813   2.2348   3.0297
     3.1199   3.4228   3.5961   3.8258   3.9507   4.2190   4.2682   4.5064
     4.8617   4.9723   5.1469   5.3276   5.3988   6.0181   6.0896   6.6173
     8.5404   8.9498   9.2103   9.4378   9.5477   9.6161   9.9145  10.0019
    10.1173  10.4899  10.6699  10.8538  10.9127  11.2542

     occupation numbers 
     1.0000   1.0000   1.0000   1.0000   1.0000   1.0000   1.0000   1.0000
     1.0000   1.0000   1.0000   1.0000   1.0000   1.0000   1.0000   1.0000
     1.0000   1.0000   1.0000   1.0000   1.0000   1.0000   1.0000   1.0000
     1.0000   1.0000   1.0000   1.0000   1.0000   1.0000   1.0000   1.0000
     1.0000   1.0000   1.0000   1.0000   1.0000   1.0000   1.0000   1.0000
     1.0000   1.0000   1.0000   1.0000   1.0000   1.0000   1.0000   1.0000
     1.0000   1.0000   1.0000   1.0000   1.0000   1.0000   1.0000   1.0000
     1.0000   1.0000   1.0000   1.0000   1.0000   1.0000   1.0000   1.0000
     1.0000   1.0000   1.0000   1.0000   1.0000   1.0000   1.0000   1.0000
     0.0000   0.0000   0.0000   0.0000   0.0000   0.0000   0.0000   0.0000
     0.0000   0.0000   0.0000   0.0000   0.0000   0.0000

          k =-0.3538 0.7072-0.3540 (  8048 PWs)   bands (ev):

   -17.2325 -17.2246 -17.2137 -17.1958 -17.1925 -17.1903 -17.1829 -17.1737
   -17.1594 -17.1578 -17.1277 -17.1210 -17.1068 -17.1061 -17.1015 -17.0920
   -17.0909 -17.0890 -17.0827 -17.0804 -17.0753 -17.0742 -17.0704 -17.0689
   -17.0661 -17.0602 -17.0508 -17.0502 -17.0434 -17.0422 -16.9418 -16.9304
   -16.9184 -16.9054 -16.9039 -16.7310 -16.7272 -16.7253 -16.7093 -16.7076
    -4.6534  -3.7639  -3.5865  -2.7795  -2.6303  -2.3940  -2.2433  -1.6651
    -0.2473  -0.0321   0.1399   0.8168   0.8856   1.6051   1.7587   2.9433
     3.5785   3.7425   3.8458   3.9171   4.3364   4.4143   4.5069   4.7071
     4.9847   5.0376   5.2633   5.4504   5.5141   5.6853   5.9050   7.0068
     8.2889   9.0084   9.1134   9.1625   9.2786   9.7151   9.7687   9.8885
    10.0580  10.1261  10.3734  10.4301  10.5095  10.5843

     occupation numbers 
     1.0000   1.0000   1.0000   1.0000   1.0000   1.0000   1.0000   1.0000
     1.0000   1.0000   1.0000   1.0000   1.0000   1.0000   1.0000   1.0000
     1.0000   1.0000   1.0000   1.0000   1.0000   1.0000   1.0000   1.0000
     1.0000   1.0000   1.0000   1.0000   1.0000   1.0000   1.0000   1.0000
     1.0000   1.0000   1.0000   1.0000   1.0000   1.0000   1.0000   1.0000
     1.0000   1.0000   1.0000   1.0000   1.0000   1.0000   1.0000   1.0000
     1.0000   1.0000   1.0000   1.0000   1.0000   1.0000   1.0000   1.0000
     1.0000   1.0000   1.0000   1.0000   1.0000   1.0000   1.0000   1.0000
     1.0000   1.0000   1.0000   1.0000   1.0000   1.0000   1.0000   0.9999
     0.0000   0.0000   0.0000   0.0000   0.0000   0.0000   0.0000   0.0000
     0.0000   0.0000   0.0000   0.0000   0.0000   0.0000

          k =-0.8835 0.1768 0.1762 (  8034 PWs)   bands (ev):

   -17.2325 -17.2243 -17.2137 -17.1958 -17.1925 -17.1902 -17.1827 -17.1737
   -17.1594 -17.1576 -17.1279 -17.1210 -17.1070 -17.1059 -17.1012 -17.0917
   -17.0908 -17.0891 -17.0830 -17.0804 -17.0749 -17.0738 -17.0708 -17.0689
   -17.0660 -17.0602 -17.0508 -17.0501 -17.0434 -17.0422 -16.9417 -16.9304
   -16.9184 -16.9054 -16.9039 -16.7311 -16.7270 -16.7253 -16.7093 -16.7075
    -4.4736  -3.9587  -3.4850  -3.0296  -2.9581  -2.3423  -1.8518  -1.7677
    -0.1691  -0.0616   0.2523   0.9836   1.0744   1.8222   2.2945   3.0315
     3.1708   3.3969   3.6647   3.8561   3.9562   4.1424   4.2789   4.5974
     4.7811   5.0166   5.2688   5.3216   5.4278   5.9894   6.0268   6.5703
     8.5020   8.9496   9.2121   9.4011   9.4998   9.5399   9.9131   9.9803
    10.1775  10.4516  10.7273  10.7866  10.9453  11.1625

     occupation numbers 
     1.0000   1.0000   1.0000   1.0000   1.0000   1.0000   1.0000   1.0000
     1.0000   1.0000   1.0000   1.0000   1.0000   1.0000   1.0000   1.0000
     1.0000   1.0000   1.0000   1.0000   1.0000   1.0000   1.0000   1.0000
     1.0000   1.0000   1.0000   1.0000   1.0000   1.0000   1.0000   1.0000
     1.0000   1.0000   1.0000   1.0000   1.0000   1.0000   1.0000   1.0000
     1.0000   1.0000   1.0000   1.0000   1.0000   1.0000   1.0000   1.0000
     1.0000   1.0000   1.0000   1.0000   1.0000   1.0000   1.0000   1.0000
     1.0000   1.0000   1.0000   1.0000   1.0000   1.0000   1.0000   1.0000
     1.0000   1.0000   1.0000   1.0000   1.0000   1.0000   1.0000   1.0000
     0.0000   0.0000   0.0000   0.0000   0.0000   0.0000   0.0000   0.0000
     0.0000   0.0000   0.0000   0.0000   0.0000   0.0000

          k =-0.7069 0.3536-0.0005 (  8016 PWs)   bands (ev):

   -17.2324 -17.2246 -17.2136 -17.1957 -17.1925 -17.1901 -17.1827 -17.1735
   -17.1593 -17.1577 -17.1279 -17.1211 -17.1069 -17.1058 -17.1014 -17.0916
   -17.0906 -17.0891 -17.0830 -17.0805 -17.0753 -17.0741 -17.0703 -17.0688
   -17.0663 -17.0601 -17.0509 -17.0501 -17.0432 -17.0421 -16.9418 -16.9303
   -16.9185 -16.9053 -16.9039 -16.7311 -16.7272 -16.7253 -16.7092 -16.7075
    -4.1326  -3.9458  -3.7930  -3.6076  -2.4134  -2.2292  -2.1339  -1.8907
     0.1086   0.1916   0.3625   0.4376   2.3306   2.3853   2.5410   2.6384
     2.8840   2.9937   3.0744   3.3068   4.2832   4.3244   4.4161   4.5148
     4.5691   4.7248   4.8291   4.8848   5.6276   5.8308   5.9459   6.0707
     9.4305   9.5416   9.6271   9.7131   9.9689  10.0198  10.0837  10.1087
    10.5230  10.6453  10.7391  10.8569  11.3555  11.5689

     occupation numbers 
     1.0000   1.0000   1.0000   1.0000   1.0000   1.0000   1.0000   1.0000
     1.0000   1.0000   1.0000   1.0000   1.0000   1.0000   1.0000   1.0000
     1.0000   1.0000   1.0000   1.0000   1.0000   1.0000   1.0000   1.0000
     1.0000   1.0000   1.0000   1.0000   1.0000   1.0000   1.0000   1.0000
     1.0000   1.0000   1.0000   1.0000   1.0000   1.0000   1.0000   1.0000
     1.0000   1.0000   1.0000   1.0000   1.0000   1.0000   1.0000   1.0000
     1.0000   1.0000   1.0000   1.0000   1.0000   1.0000   1.0000   1.0000
     1.0000   1.0000   1.0000   1.0000   1.0000   1.0000   1.0000   1.0000
     1.0000   1.0000   1.0000   1.0000   1.0000   1.0000   1.0000   1.0000
     0.0000   0.0000   0.0000   0.0000   0.0000   0.0000   0.0000   0.0000
     0.0000   0.0000   0.0000   0.0000   0.0000   0.0000

          k =-0.3535 0.3536-0.0003 (  8048 PWs)   bands (ev):

   -17.2326 -17.2246 -17.2137 -17.1957 -17.1927 -17.1901 -17.1827 -17.1737
   -17.1595 -17.1578 -17.1276 -17.1204 -17.1069 -17.1061 -17.1019 -17.0920
   -17.0910 -17.0892 -17.0829 -17.0806 -17.0755 -17.0743 -17.0699 -17.0690
   -17.0663 -17.0601 -17.0509 -17.0502 -17.0434 -17.0421 -16.9418 -16.9304
   -16.9184 -16.9055 -16.9039 -16.7311 -16.7272 -16.7253 -16.7094 -16.7075
    -4.6376  -3.8584  -3.4581  -2.8252  -2.6260  -2.4975  -2.2112  -1.6500
    -0.2976   0.0649   0.3216   0.7640   0.9471   1.5143   1.7569   2.8685
     3.4624   3.6469   3.8053   3.9220   4.3104   4.3913   4.4750   4.7739
     5.0051   5.0660   5.2774   5.3824   5.5060   5.7410   6.0197   7.1226
     8.4212   8.9652   9.1258   9.1882   9.3950   9.6671   9.8186   9.8877
    10.0096  10.0583  10.4098  10.4225  10.5117  10.7776

     occupation numbers 
     1.0000   1.0000   1.0000   1.0000   1.0000   1.0000   1.0000   1.0000
     1.0000   1.0000   1.0000   1.0000   1.0000   1.0000   1.0000   1.0000
     1.0000   1.0000   1.0000   1.0000   1.0000   1.0000   1.0000   1.0000
     1.0000   1.0000   1.0000   1.0000   1.0000   1.0000   1.0000   1.0000
     1.0000   1.0000   1.0000   1.0000   1.0000   1.0000   1.0000   1.0000
     1.0000   1.0000   1.0000   1.0000   1.0000   1.0000   1.0000   1.0000
     1.0000   1.0000   1.0000   1.0000   1.0000   1.0000   1.0000   1.0000
     1.0000   1.0000   1.0000   1.0000   1.0000   1.0000   1.0000   1.0000
     1.0000   1.0000   1.0000   1.0000   1.0000   1.0000   1.0000   0.9982
     0.0000   0.0000   0.0000   0.0000   0.0000   0.0000   0.0000   0.0000
     0.0000   0.0000   0.0000   0.0000   0.0000   0.0000

          k =-0.1769 0.5304-0.1771 (  8030 PWs)   bands (ev):

   -17.2325 -17.2244 -17.2137 -17.1957 -17.1925 -17.1901 -17.1827 -17.1737
   -17.1593 -17.1578 -17.1275 -17.1204 -17.1068 -17.1061 -17.1017 -17.0920
   -17.0909 -17.0891 -17.0827 -17.0805 -17.0753 -17.0741 -17.0704 -17.0690
   -17.0661 -17.0601 -17.0508 -17.0501 -17.0433 -17.0421 -16.9417 -16.9305
   -16.9183 -16.9054 -16.9039 -16.7311 -16.7272 -16.7252 -16.7093 -16.7075
    -4.4615  -3.9888  -3.4456  -3.0606  -2.9317  -2.3463  -1.9062  -1.7786
    -0.1551  -0.0715   0.4058   0.9753   1.0286   1.8499   2.3269   3.0533
     3.1285   3.2427   3.6451   3.8385   3.9152   4.2218   4.2799   4.5246
     4.8059   5.0062   5.2638   5.4128   5.4621   5.8352   6.1436   6.5685
     8.4292   8.9646   9.2021   9.4076   9.5579   9.6482   9.9678  10.0055
    10.1406  10.4570  10.7783  10.8382  11.1193  11.1666

     occupation numbers 
     1.0000   1.0000   1.0000   1.0000   1.0000   1.0000   1.0000   1.0000
     1.0000   1.0000   1.0000   1.0000   1.0000   1.0000   1.0000   1.0000
     1.0000   1.0000   1.0000   1.0000   1.0000   1.0000   1.0000   1.0000
     1.0000   1.0000   1.0000   1.0000   1.0000   1.0000   1.0000   1.0000
     1.0000   1.0000   1.0000   1.0000   1.0000   1.0000   1.0000   1.0000
     1.0000   1.0000   1.0000   1.0000   1.0000   1.0000   1.0000   1.0000
     1.0000   1.0000   1.0000   1.0000   1.0000   1.0000   1.0000   1.0000
     1.0000   1.0000   1.0000   1.0000   1.0000   1.0000   1.0000   1.0000
     1.0000   1.0000   1.0000   1.0000   1.0000   1.0000   1.0000   1.0000
     0.0000   0.0000   0.0000   0.0000   0.0000   0.0000   0.0000   0.0000
     0.0000   0.0000   0.0000   0.0000   0.0000   0.0000

          k =-0.7066-0.0000 0.3531 (  8008 PWs)   bands (ev):

   -17.2326 -17.2242 -17.2138 -17.1957 -17.1925 -17.1901 -17.1825 -17.1737
   -17.1593 -17.1577 -17.1277 -17.1204 -17.1069 -17.1060 -17.1016 -17.0916
   -17.0910 -17.0891 -17.0830 -17.0805 -17.0750 -17.0738 -17.0709 -17.0689
   -17.0661 -17.0602 -17.0508 -17.0500 -17.0433 -17.0421 -16.9417 -16.9305
   -16.9183 -16.9053 -16.9039 -16.7311 -16.7271 -16.7253 -16.7092 -16.7075
    -4.0512  -4.0042  -3.7988  -3.6577  -2.3553  -2.2261  -2.1591  -1.8739
     0.0214   0.1741   0.3866   0.5247   2.3068   2.3707   2.4898   2.6534
     2.8846   2.9743   3.1306   3.2909   4.2276   4.3209   4.4576   4.5107
     4.6078   4.7103   4.8168   4.9715   5.5783   5.8274   5.9098   6.1274
     9.4087   9.5193   9.6010   9.7066   9.9390   9.9950  10.1076  10.1864
    10.5921  10.6412  10.7510  10.8283  11.4069  11.5417

     occupation numbers 
     1.0000   1.0000   1.0000   1.0000   1.0000   1.0000   1.0000   1.0000
     1.0000   1.0000   1.0000   1.0000   1.0000   1.0000   1.0000   1.0000
     1.0000   1.0000   1.0000   1.0000   1.0000   1.0000   1.0000   1.0000
     1.0000   1.0000   1.0000   1.0000   1.0000   1.0000   1.0000   1.0000
     1.0000   1.0000   1.0000   1.0000   1.0000   1.0000   1.0000   1.0000
     1.0000   1.0000   1.0000   1.0000   1.0000   1.0000   1.0000   1.0000
     1.0000   1.0000   1.0000   1.0000   1.0000   1.0000   1.0000   1.0000
     1.0000   1.0000   1.0000   1.0000   1.0000   1.0000   1.0000   1.0000
     1.0000   1.0000   1.0000   1.0000   1.0000   1.0000   1.0000   1.0000
     0.0000   0.0000   0.0000   0.0000   0.0000   0.0000   0.0000   0.0000
     0.0000   0.0000   0.0000   0.0000   0.0000   0.0000

          k =-0.5301 0.1768 0.1764 (  8034 PWs)   bands (ev):

   -17.2324 -17.2244 -17.2137 -17.1958 -17.1926 -17.1901 -17.1824 -17.1736
   -17.1594 -17.1578 -17.1279 -17.1204 -17.1069 -17.1058 -17.1017 -17.0915
   -17.0911 -17.0892 -17.0831 -17.0805 -17.0752 -17.0741 -17.0703 -17.0689
   -17.0662 -17.0602 -17.0509 -17.0501 -17.0433 -17.0420 -16.9417 -16.9303
   -16.9184 -16.9054 -16.9039 -16.7311 -16.7271 -16.7253 -16.7093 -16.7075
    -4.4477  -4.0006  -3.4542  -3.0358  -2.9587  -2.3963  -1.8751  -1.7578
    -0.1113  -0.0400   0.3861   0.9946   1.0561   1.8616   2.2452   2.9912
     3.0811   3.2235   3.5211   3.8222   3.9976   4.2035   4.2678   4.5018
     4.8680   5.0915   5.2350   5.4160   5.4849   5.9616   6.1494   6.5388
     8.5153   8.9690   9.2679   9.4385   9.5365   9.6699   9.9402   9.9736
    10.1674  10.4591  10.7469  10.8861  11.0950  11.1769

     occupation numbers 
     1.0000   1.0000   1.0000   1.0000   1.0000   1.0000   1.0000   1.0000
     1.0000   1.0000   1.0000   1.0000   1.0000   1.0000   1.0000   1.0000
     1.0000   1.0000   1.0000   1.0000   1.0000   1.0000   1.0000   1.0000
     1.0000   1.0000   1.0000   1.0000   1.0000   1.0000   1.0000   1.0000
     1.0000   1.0000   1.0000   1.0000   1.0000   1.0000   1.0000   1.0000
     1.0000   1.0000   1.0000   1.0000   1.0000   1.0000   1.0000   1.0000
     1.0000   1.0000   1.0000   1.0000   1.0000   1.0000   1.0000   1.0000
     1.0000   1.0000   1.0000   1.0000   1.0000   1.0000   1.0000   1.0000
     1.0000   1.0000   1.0000   1.0000   1.0000   1.0000   1.0000   1.0000
     0.0000   0.0000   0.0000   0.0000   0.0000   0.0000   0.0000   0.0000
     0.0000   0.0000   0.0000   0.0000   0.0000   0.0000

          k = 0.3533-0.3537-0.3532 (  8042 PWs)   bands (ev):

   -17.2323 -17.2246 -17.2135 -17.1957 -17.1928 -17.1903 -17.1825 -17.1737
   -17.1596 -17.1580 -17.1279 -17.1204 -17.1067 -17.1059 -17.1018 -17.0916
   -17.0912 -17.0894 -17.0825 -17.0805 -17.0751 -17.0746 -17.0699 -17.0689
   -17.0662 -17.0605 -17.0510 -17.0502 -17.0435 -17.0422 -16.9417 -16.9304
   -16.9183 -16.9054 -16.9040 -16.7310 -16.7272 -16.7254 -16.7093 -16.7076
    -4.4080  -4.3787  -2.7895  -2.6893  -2.6425  -2.6179  -2.4227  -2.0883
     0.3095   0.3474   0.4458   0.5696   0.6522   0.8182   2.8254   2.8824
     3.3824   3.4159   3.5086   3.6265   3.7756   4.0929   4.8750   4.9574
     5.0041   5.0588   5.1120   5.1478   6.3620   6.5762   6.6976   6.7385
     8.4919   8.5945   8.6108   8.6810   8.7311   8.7848   8.9013   8.9456
    10.6413  10.8285  10.9686  11.0757  11.5044  11.5485

     occupation numbers 
     1.0000   1.0000   1.0000   1.0000   1.0000   1.0000   1.0000   1.0000
     1.0000   1.0000   1.0000   1.0000   1.0000   1.0000   1.0000   1.0000
     1.0000   1.0000   1.0000   1.0000   1.0000   1.0000   1.0000   1.0000
     1.0000   1.0000   1.0000   1.0000   1.0000   1.0000   1.0000   1.0000
     1.0000   1.0000   1.0000   1.0000   1.0000   1.0000   1.0000   1.0000
     1.0000   1.0000   1.0000   1.0000   1.0000   1.0000   1.0000   1.0000
     1.0000   1.0000   1.0000   1.0000   1.0000   1.0000   1.0000   1.0000
     1.0000   1.0000   1.0000   1.0000   1.0000   1.0000   1.0000   1.0000
     1.0000   1.0000   1.0000   1.0000   1.0000   1.0000   1.0000   1.0000
     0.0000   0.0000   0.0000   0.0000   0.0000   0.0000   0.0000   0.0000
     0.0000   0.0000   0.0000   0.0000   0.0000   0.0000

          k = 0.5299-0.1769-0.5299 (  8032 PWs)   bands (ev):

   -17.2324 -17.2244 -17.2135 -17.1957 -17.1927 -17.1901 -17.1827 -17.1738
   -17.1595 -17.1578 -17.1277 -17.1204 -17.1067 -17.1060 -17.1017 -17.0917
   -17.0910 -17.0892 -17.0825 -17.0804 -17.0749 -17.0744 -17.0704 -17.0689
   -17.0661 -17.0604 -17.0508 -17.0501 -17.0434 -17.0422 -16.9417 -16.9305
   -16.9183 -16.9053 -16.9039 -16.7310 -16.7272 -16.7253 -16.7093 -16.7075
    -4.4498  -4.0033  -3.4341  -3.1042  -2.8923  -2.3777  -1.9539  -1.7090
    -0.1136  -0.0227   0.2672   1.0330   1.1571   1.8709   2.1795   2.9692
     3.0796   3.3399   3.4867   3.8651   4.0080   4.2264   4.2960   4.4686
     4.8429   5.0570   5.1672   5.3229   5.4883   6.0115   6.1087   6.6204
     8.5398   8.9515   9.3163   9.4388   9.5463   9.6351   9.9238  10.0414
    10.1484  10.4594  10.6353  10.8667  10.9586  11.2263

     occupation numbers 
     1.0000   1.0000   1.0000   1.0000   1.0000   1.0000   1.0000   1.0000
     1.0000   1.0000   1.0000   1.0000   1.0000   1.0000   1.0000   1.0000
     1.0000   1.0000   1.0000   1.0000   1.0000   1.0000   1.0000   1.0000
     1.0000   1.0000   1.0000   1.0000   1.0000   1.0000   1.0000   1.0000
     1.0000   1.0000   1.0000   1.0000   1.0000   1.0000   1.0000   1.0000
     1.0000   1.0000   1.0000   1.0000   1.0000   1.0000   1.0000   1.0000
     1.0000   1.0000   1.0000   1.0000   1.0000   1.0000   1.0000   1.0000
     1.0000   1.0000   1.0000   1.0000   1.0000   1.0000   1.0000   1.0000
     1.0000   1.0000   1.0000   1.0000   1.0000   1.0000   1.0000   1.0000
     0.0000   0.0000   0.0000   0.0000   0.0000   0.0000   0.0000   0.0000
     0.0000   0.0000   0.0000   0.0000   0.0000   0.0000

          k = 0.0002-0.7073 0.0003 (  8012 PWs)   bands (ev):

   -17.2323 -17.2241 -17.2133 -17.1955 -17.1926 -17.1899 -17.1826 -17.1737
   -17.1593 -17.1576 -17.1274 -17.1203 -17.1066 -17.1060 -17.1015 -17.0917
   -17.0907 -17.0890 -17.0823 -17.0802 -17.0749 -17.0738 -17.0709 -17.0688
   -17.0659 -17.0603 -17.0507 -17.0498 -17.0433 -17.0420 -16.9416 -16.9304
   -16.9181 -16.9052 -16.9038 -16.7309 -16.7271 -16.7251 -16.7091 -16.7074
    -4.2051  -4.0736  -3.4458  -3.2380  -3.0315  -2.9215  -1.4654  -1.2960
    -0.5217  -0.4080   1.2483   1.3270   1.3656   1.4612   3.0654   3.1547
     3.2513   3.2798   3.3074   3.4546   3.4884   3.5342   3.6893   3.7816
     5.1617   5.2719   5.3267   5.4117   5.7491   6.0207   6.1047   6.1822
     8.2387   8.2994   9.3484   9.4608   9.5305   9.5745  10.2014  10.3496
    11.4396  11.5422  11.5921  11.7003  11.7210  11.7503

     occupation numbers 
     1.0000   1.0000   1.0000   1.0000   1.0000   1.0000   1.0000   1.0000
     1.0000   1.0000   1.0000   1.0000   1.0000   1.0000   1.0000   1.0000
     1.0000   1.0000   1.0000   1.0000   1.0000   1.0000   1.0000   1.0000
     1.0000   1.0000   1.0000   1.0000   1.0000   1.0000   1.0000   1.0000
     1.0000   1.0000   1.0000   1.0000   1.0000   1.0000   1.0000   1.0000
     1.0000   1.0000   1.0000   1.0000   1.0000   1.0000   1.0000   1.0000
     1.0000   1.0000   1.0000   1.0000   1.0000   1.0000   1.0000   1.0000
     1.0000   1.0000   1.0000   1.0000   1.0000   1.0000   1.0000   1.0000
     1.0000   1.0000   1.0000   1.0000   1.0000   1.0000   1.0000   1.0000
     0.0000   0.0000   0.0000   0.0000   0.0000   0.0000   0.0000   0.0000
     0.0000   0.0000   0.0000   0.0000   0.0000   0.0000

          k = 0.5302-0.5304-0.1763 (  8030 PWs)   bands (ev):

   -17.2322 -17.2247 -17.2134 -17.1956 -17.1927 -17.1903 -17.1828 -17.1736
   -17.1594 -17.1579 -17.1279 -17.1210 -17.1067 -17.1058 -17.1015 -17.0918
   -17.0907 -17.0892 -17.0825 -17.0804 -17.0751 -17.0747 -17.0698 -17.0688
   -17.0663 -17.0603 -17.0509 -17.0502 -17.0433 -17.0422 -16.9418 -16.9303
   -16.9184 -16.9053 -16.9040 -16.7310 -16.7272 -16.7252 -16.7092 -16.7076
    -4.4698  -3.9699  -3.4261  -3.1555  -2.8354  -2.3563  -2.0275  -1.7085
    -0.1158   0.0104   0.2999   0.9632   1.1507   1.8981   2.1970   2.9852
     3.0810   3.3093   3.5767   3.8421   3.9401   4.2323   4.3002   4.4628
     4.9232   5.0245   5.1586   5.3458   5.4059   6.0228   6.1103   6.6064
     8.5333   8.9571   9.2919   9.4554   9.5861   9.6742   9.9043   9.9625
    10.1666  10.4633  10.6660  10.8914  11.0043  11.2301

     occupation numbers 
     1.0000   1.0000   1.0000   1.0000   1.0000   1.0000   1.0000   1.0000
     1.0000   1.0000   1.0000   1.0000   1.0000   1.0000   1.0000   1.0000
     1.0000   1.0000   1.0000   1.0000   1.0000   1.0000   1.0000   1.0000
     1.0000   1.0000   1.0000   1.0000   1.0000   1.0000   1.0000   1.0000
     1.0000   1.0000   1.0000   1.0000   1.0000   1.0000   1.0000   1.0000
     1.0000   1.0000   1.0000   1.0000   1.0000   1.0000   1.0000   1.0000
     1.0000   1.0000   1.0000   1.0000   1.0000   1.0000   1.0000   1.0000
     1.0000   1.0000   1.0000   1.0000   1.0000   1.0000   1.0000   1.0000
     1.0000   1.0000   1.0000   1.0000   1.0000   1.0000   1.0000   1.0000
     0.0000   0.0000   0.0000   0.0000   0.0000   0.0000   0.0000   0.0000
     0.0000   0.0000   0.0000   0.0000   0.0000   0.0000

          k = 0.7067-0.3536-0.3530 (  8046 PWs)   bands (ev):

   -17.2324 -17.2245 -17.2135 -17.1957 -17.1927 -17.1903 -17.1829 -17.1738
   -17.1595 -17.1579 -17.1279 -17.1211 -17.1068 -17.1060 -17.1013 -17.0918
   -17.0908 -17.0893 -17.0826 -17.0803 -17.0749 -17.0745 -17.0704 -17.0688
   -17.0661 -17.0604 -17.0509 -17.0501 -17.0434 -17.0423 -16.9418 -16.9304
   -16.9184 -16.9053 -16.9041 -16.7311 -16.7273 -16.7253 -16.7092 -16.7077
    -4.6489  -3.7304  -3.6339  -2.7541  -2.6578  -2.3987  -2.2605  -1.6336
    -0.3148   0.0810   0.1692   0.7895   0.9064   1.5876   1.7428   2.9198
     3.5384   3.6963   3.8414   3.8914   4.3183   4.3936   4.4411   4.7580
     4.9521   5.0781   5.2488   5.4916   5.6259   5.6759   5.9226   7.0480
     8.3624   9.0329   9.0913   9.2112   9.3022   9.6821   9.7650   9.8659
     9.9955  10.0937  10.3343  10.4910  10.5338  10.6759

     occupation numbers 
     1.0000   1.0000   1.0000   1.0000   1.0000   1.0000   1.0000   1.0000
     1.0000   1.0000   1.0000   1.0000   1.0000   1.0000   1.0000   1.0000
     1.0000   1.0000   1.0000   1.0000   1.0000   1.0000   1.0000   1.0000
     1.0000   1.0000   1.0000   1.0000   1.0000   1.0000   1.0000   1.0000
     1.0000   1.0000   1.0000   1.0000   1.0000   1.0000   1.0000   1.0000
     1.0000   1.0000   1.0000   1.0000   1.0000   1.0000   1.0000   1.0000
     1.0000   1.0000   1.0000   1.0000   1.0000   1.0000   1.0000   1.0000
     1.0000   1.0000   1.0000   1.0000   1.0000   1.0000   1.0000   1.0000
     1.0000   1.0000   1.0000   1.0000   1.0000   1.0000   1.0000   0.9997
     0.0000   0.0000   0.0000   0.0000   0.0000   0.0000   0.0000   0.0000
     0.0000   0.0000   0.0000   0.0000   0.0000   0.0000

          k = 0.1770-0.8840 0.1772 (  8029 PWs)   bands (ev):

   -17.2324 -17.2243 -17.2135 -17.1956 -17.1927 -17.1902 -17.1829 -17.1739
   -17.1595 -17.1577 -17.1277 -17.1210 -17.1068 -17.1061 -17.1012 -17.0918
   -17.0907 -17.0892 -17.0825 -17.0803 -17.0749 -17.0740 -17.0709 -17.0689
   -17.0659 -17.0605 -17.0507 -17.0500 -17.0434 -17.0422 -16.9417 -16.9305
   -16.9183 -16.9053 -16.9040 -16.7311 -16.7272 -16.7252 -16.7093 -16.7076
    -4.4738  -3.9708  -3.4629  -3.0320  -2.9541  -2.3408  -1.8688  -1.7676
    -0.2003  -0.0566   0.2753   0.9945   1.0385   1.8557   2.3131   3.0320
     3.1807   3.3917   3.6799   3.8534   3.9456   4.1972   4.2510   4.5989
     4.8088   4.9551   5.2123   5.3730   5.4371   5.9620   6.0197   6.5438
     8.4543   8.8356   9.2235   9.4790   9.5280   9.5806   9.9771  10.0164
    10.1843  10.4361  10.7506  10.8031  10.9829  11.1327

     occupation numbers 
     1.0000   1.0000   1.0000   1.0000   1.0000   1.0000   1.0000   1.0000
     1.0000   1.0000   1.0000   1.0000   1.0000   1.0000   1.0000   1.0000
     1.0000   1.0000   1.0000   1.0000   1.0000   1.0000   1.0000   1.0000
     1.0000   1.0000   1.0000   1.0000   1.0000   1.0000   1.0000   1.0000
     1.0000   1.0000   1.0000   1.0000   1.0000   1.0000   1.0000   1.0000
     1.0000   1.0000   1.0000   1.0000   1.0000   1.0000   1.0000   1.0000
     1.0000   1.0000   1.0000   1.0000   1.0000   1.0000   1.0000   1.0000
     1.0000   1.0000   1.0000   1.0000   1.0000   1.0000   1.0000   1.0000
     1.0000   1.0000   1.0000   1.0000   1.0000   1.0000   1.0000   1.0000
     0.0000   0.0000   0.0000   0.0000   0.0000   0.0000   0.0000   0.0000
     0.0000   0.0000   0.0000   0.0000   0.0000   0.0000

          k = 0.3536-0.7072 0.0005 (  8010 PWs)   bands (ev):

   -17.2323 -17.2246 -17.2133 -17.1955 -17.1926 -17.1902 -17.1829 -17.1737
   -17.1593 -17.1577 -17.1277 -17.1211 -17.1067 -17.1059 -17.1013 -17.0919
   -17.0906 -17.0890 -17.0824 -17.0804 -17.0750 -17.0744 -17.0704 -17.0689
   -17.0662 -17.0604 -17.0508 -17.0501 -17.0433 -17.0421 -16.9418 -16.9305
   -16.9184 -16.9053 -16.9039 -16.7310 -16.7273 -16.7252 -16.7092 -16.7075
    -4.1390  -3.9255  -3.8359  -3.5723  -2.3850  -2.2443  -2.1120  -1.9422
     0.0583   0.2506   0.3756   0.4094   2.3239   2.4317   2.5007   2.6936
     2.8863   2.9709   3.1332   3.2786   4.2797   4.3731   4.4340   4.4683
     4.6077   4.7013   4.7550   4.8706   5.5798   5.8044   5.9752   6.1060
     9.4306   9.5222   9.5951   9.7261   9.9448  10.0159  10.0655  10.1537
    10.5423  10.6366  10.7819  10.8262  11.3689  11.5559

     occupation numbers 
     1.0000   1.0000   1.0000   1.0000   1.0000   1.0000   1.0000   1.0000
     1.0000   1.0000   1.0000   1.0000   1.0000   1.0000   1.0000   1.0000
     1.0000   1.0000   1.0000   1.0000   1.0000   1.0000   1.0000   1.0000
     1.0000   1.0000   1.0000   1.0000   1.0000   1.0000   1.0000   1.0000
     1.0000   1.0000   1.0000   1.0000   1.0000   1.0000   1.0000   1.0000
     1.0000   1.0000   1.0000   1.0000   1.0000   1.0000   1.0000   1.0000
     1.0000   1.0000   1.0000   1.0000   1.0000   1.0000   1.0000   1.0000
     1.0000   1.0000   1.0000   1.0000   1.0000   1.0000   1.0000   1.0000
     1.0000   1.0000   1.0000   1.0000   1.0000   1.0000   1.0000   1.0000
     0.0000   0.0000   0.0000   0.0000   0.0000   0.0000   0.0000   0.0000
     0.0000   0.0000   0.0000   0.0000   0.0000   0.0000

          k =-0.0003-0.0002-0.7071 (  8024 PWs)   bands (ev):

   -17.2321 -17.2247 -17.2131 -17.1954 -17.1923 -17.1902 -17.1827 -17.1734
   -17.1590 -17.1578 -17.1278 -17.1214 -17.1065 -17.1056 -17.1011 -17.0917
   -17.0903 -17.0888 -17.0824 -17.0802 -17.0750 -17.0747 -17.0697 -17.0685
   -17.0662 -17.0601 -17.0508 -17.0500 -17.0430 -17.0421 -16.9417 -16.9302
   -16.9184 -16.9051 -16.9039 -16.7309 -16.7271 -16.7250 -16.7090 -16.7075
    -4.3116  -3.9332  -3.4236  -3.2471  -3.0529  -2.9332  -1.5888  -1.2038
    -0.4965  -0.4288   1.2580   1.2790   1.3840   1.4919   3.0674   3.1374
     3.2492   3.3222   3.3583   3.4340   3.5085   3.5797   3.6644   3.7699
     5.0394   5.1569   5.3546   5.6325   5.7202   5.7858   6.1836   6.2423
     8.2175   8.3211   9.3290   9.3564   9.5423   9.7146  10.2502  10.4150
    11.3708  11.5047  11.5212  11.7086  11.7533  11.7879

     occupation numbers 
     1.0000   1.0000   1.0000   1.0000   1.0000   1.0000   1.0000   1.0000
     1.0000   1.0000   1.0000   1.0000   1.0000   1.0000   1.0000   1.0000
     1.0000   1.0000   1.0000   1.0000   1.0000   1.0000   1.0000   1.0000
     1.0000   1.0000   1.0000   1.0000   1.0000   1.0000   1.0000   1.0000
     1.0000   1.0000   1.0000   1.0000   1.0000   1.0000   1.0000   1.0000
     1.0000   1.0000   1.0000   1.0000   1.0000   1.0000   1.0000   1.0000
     1.0000   1.0000   1.0000   1.0000   1.0000   1.0000   1.0000   1.0000
     1.0000   1.0000   1.0000   1.0000   1.0000   1.0000   1.0000   1.0000
     1.0000   1.0000   1.0000   1.0000   1.0000   1.0000   1.0000   1.0000
     0.0000   0.0000   0.0000   0.0000   0.0000   0.0000   0.0000   0.0000
     0.0000   0.0000   0.0000   0.0000   0.0000   0.0000

          k = 0.1763 0.1766-0.8838 (  8036 PWs)   bands (ev):

   -17.2323 -17.2247 -17.2133 -17.1956 -17.1926 -17.1903 -17.1829 -17.1738
   -17.1594 -17.1578 -17.1279 -17.1216 -17.1068 -17.1058 -17.1010 -17.0919
   -17.0905 -17.0891 -17.0825 -17.0803 -17.0749 -17.0745 -17.0703 -17.0688
   -17.0661 -17.0603 -17.0508 -17.0501 -17.0434 -17.0422 -16.9418 -16.9304
   -16.9185 -16.9053 -16.9040 -16.7311 -16.7272 -16.7252 -16.7092 -16.7076
    -4.4887  -3.9582  -3.3961  -3.1768  -2.8386  -2.3234  -2.0291  -1.6739
    -0.1676  -0.0862   0.2916   0.9351   1.0954   1.8405   2.3365   3.0961
     3.1913   3.2204   3.7770   3.8265   3.9993   4.2035   4.3018   4.6020
     4.8175   4.9080   5.1503   5.3630   5.5024   5.7934   6.0122   6.6536
     8.4298   8.9812   9.1771   9.3891   9.5572   9.6655   9.8149  10.0746
    10.2224  10.4604  10.5205  10.9114  10.9809  11.2077

     occupation numbers 
     1.0000   1.0000   1.0000   1.0000   1.0000   1.0000   1.0000   1.0000
     1.0000   1.0000   1.0000   1.0000   1.0000   1.0000   1.0000   1.0000
     1.0000   1.0000   1.0000   1.0000   1.0000   1.0000   1.0000   1.0000
     1.0000   1.0000   1.0000   1.0000   1.0000   1.0000   1.0000   1.0000
     1.0000   1.0000   1.0000   1.0000   1.0000   1.0000   1.0000   1.0000
     1.0000   1.0000   1.0000   1.0000   1.0000   1.0000   1.0000   1.0000
     1.0000   1.0000   1.0000   1.0000   1.0000   1.0000   1.0000   1.0000
     1.0000   1.0000   1.0000   1.0000   1.0000   1.0000   1.0000   1.0000
     1.0000   1.0000   1.0000   1.0000   1.0000   1.0000   1.0000   1.0000
     0.0000   0.0000   0.0000   0.0000   0.0000   0.0000   0.0000   0.0000
     0.0000   0.0000   0.0000   0.0000   0.0000   0.0000

          k =-0.3534-0.3538-0.3536 (  8038 PWs)   bands (ev):

   -17.2324 -17.2245 -17.2135 -17.1957 -17.1927 -17.1903 -17.1830 -17.1740
   -17.1596 -17.1578 -17.1279 -17.1216 -17.1069 -17.1059 -17.1009 -17.0920
   -17.0906 -17.0892 -17.0826 -17.0803 -17.0748 -17.0741 -17.0708 -17.0688
   -17.0658 -17.0604 -17.0508 -17.0501 -17.0436 -17.0424 -16.9417 -16.9304
   -16.9184 -16.9054 -16.9041 -16.7311 -16.7271 -16.7252 -16.7093 -16.7077
    -4.5121  -4.2774  -2.8997  -2.7535  -2.5275  -2.4751  -2.2931  -2.1972
    -0.0053   0.2921   0.4184   0.4959   0.7386   0.8103   2.8358   3.2016
     3.4173   3.5376   3.6503   3.8454   3.9531   3.9941   4.7193   4.8033
     4.9884   5.0160   5.1350   5.1666   6.1169   6.4634   6.6254   6.8991
     8.2776   8.4465   8.4892   8.5597   8.7522   8.8313   8.9348   8.9896
    10.4831  10.6649  11.0140  11.1834  11.3520  11.5622

     occupation numbers 
     1.0000   1.0000   1.0000   1.0000   1.0000   1.0000   1.0000   1.0000
     1.0000   1.0000   1.0000   1.0000   1.0000   1.0000   1.0000   1.0000
     1.0000   1.0000   1.0000   1.0000   1.0000   1.0000   1.0000   1.0000
     1.0000   1.0000   1.0000   1.0000   1.0000   1.0000   1.0000   1.0000
     1.0000   1.0000   1.0000   1.0000   1.0000   1.0000   1.0000   1.0000
     1.0000   1.0000   1.0000   1.0000   1.0000   1.0000   1.0000   1.0000
     1.0000   1.0000   1.0000   1.0000   1.0000   1.0000   1.0000   1.0000
     1.0000   1.0000   1.0000   1.0000   1.0000   1.0000   1.0000   1.0000
     1.0000   1.0000   1.0000   1.0000   1.0000   1.0000   1.0000   1.0000
     0.0000   0.0000   0.0000   0.0000   0.0000   0.0000   0.0000   0.0000
     0.0000   0.0000   0.0000   0.0000   0.0000   0.0000

     the Fermi energy is     7.5433 ev

!    total energy              =   -1781.88609792 Ry
     Harris-Foulkes estimate   =   -1781.88609790 Ry
     estimated scf accuracy    <          7.6E-10 Ry

     The total energy is the sum of the following terms:

     one-electron contribution =   -1184.03911100 Ry
     hartree contribution      =     707.45256427 Ry
     xc contribution           =    -495.15846749 Ry
     ewald contribution        =    -810.14033654 Ry
     smearing contrib. (-TS)   =      -0.00074716 Ry

     convergence has been achieved in  12 iterations

     Forces acting on atoms (Ry/au):

     atom    1 type  1   force =   0.77277013E-02  0.18089089E-01  0.72885193E-01
     atom    2 type  2   force =  -0.20075421E-01 -0.52767453E-01  0.21864561E-01
     atom    3 type  1   force =   0.15252910E-01  0.40599964E-01  0.10997283E-01
     atom    4 type  2   force =   0.15685244E-01 -0.19098675E-01 -0.56900660E-01
     atom    5 type  1   force =   0.35957585E-01  0.19082964E-01 -0.44674412E-01
     atom    6 type  2   force =  -0.42035339E-01 -0.26904691E-01 -0.29349092E-01
     atom    7 type  1   force =  -0.93521447E-02 -0.16269696E-01 -0.28823986E-01
     atom    8 type  2   force =   0.82380951E-02  0.32093933E-01  0.50367860E-01
     atom    9 type  1   force =   0.27967010E-01  0.65919611E-01 -0.46992311E-01
     atom   10 type  2   force =   0.79377197E-02 -0.31435034E-01 -0.44317816E-01
     atom   11 type  1   force =  -0.42519714E-01  0.13991594E-02  0.93295465E-02
     atom   12 type  2   force =  -0.64330350E-03 -0.28130346E-01  0.37724640E-01
     atom   13 type  1   force =  -0.97166031E-02 -0.89995239E-02  0.57508883E-01
     atom   14 type  2   force =  -0.48071564E-03  0.14020703E-01  0.21633805E-01
     atom   15 type  1   force =  -0.14012242E-01 -0.41923807E-01 -0.32507656E-03
     atom   16 type  2   force =   0.20069218E-01  0.34323803E-01 -0.30928417E-01
     The non-local contrib.  to forces
     atom    1 type  1   force =  -0.57978287E-02 -0.26360488E-02  0.56973143E-01
     atom    2 type  2   force =  -0.17527591E-03  0.28173648E-01 -0.62625606E-03
     atom    3 type  1   force =   0.34405002E-01  0.37403592E-01  0.53815630E-02
     atom    4 type  2   force =   0.13191793E-01  0.11342926E-01 -0.14164942E-01
     atom    5 type  1   force =   0.25220447E-01  0.24738224E-01 -0.19839799E-01
     atom    6 type  2   force =  -0.92438463E-02 -0.22720960E-01 -0.10397612E-01
     atom    7 type  1   force =  -0.12930712E-01 -0.14449752E-01 -0.39091836E-01
     atom    8 type  2   force =   0.25177635E-02 -0.93383712E-02  0.35741454E-01
     atom    9 type  1   force =   0.29115650E-01  0.45859349E-01 -0.20439479E-01
     atom   10 type  2   force =   0.84008583E-02  0.90978039E-02 -0.19902390E-01
     atom   11 type  1   force =  -0.33088694E-01 -0.24540556E-03  0.71949106E-02
     atom   12 type  2   force =  -0.28598946E-01 -0.24512833E-01  0.14447223E-01
     atom   13 type  1   force =  -0.23757146E-01 -0.25728979E-01  0.30536602E-01
     atom   14 type  2   force =   0.20379592E-01  0.99075670E-02  0.11911309E-01
     atom   15 type  1   force =  -0.16909828E-02 -0.21014394E-01 -0.15606509E-01
     atom   16 type  2   force =  -0.84676775E-02  0.26979470E-01  0.92571602E-02
     The ionic contribution  to forces
     atom    1 type  1   force =  -0.53310497E+00 -0.44944010E+00  0.70736789E+00
     atom    2 type  2   force =   0.38339151E+00 -0.78268601E+00  0.12356678E+01
     atom    3 type  1   force =   0.37325570E+00  0.60454193E+00  0.18406760E+00
     atom    4 type  2   force =   0.10140948E+00 -0.37506024E+00 -0.16253414E+01
     atom    5 type  1   force =   0.46705512E+00  0.43920229E+00  0.29215812E-01
     atom    6 type  2   force =  -0.18960132E+01 -0.13577323E+01 -0.53253346E+00
     atom    7 type  1   force =  -0.42876536E-01 -0.17857938E+00 -0.10034295E+01
     atom    8 type  2   force =   0.94412845E+00  0.18732516E+01  0.70729479E+00
     atom    9 type  1   force =   0.54279480E+00  0.51181554E+00 -0.12080733E+00
     atom   10 type  2   force =  -0.51814456E+00 -0.11668507E+01 -0.14920856E+00
     atom   11 type  1   force =  -0.49017107E-02 -0.17313395E+00  0.17642407E+00
     atom   12 type  2   force =   0.88383897E+00  0.18869320E+00  0.10875216E+01
     atom   13 type  1   force =  -0.76631141E+00 -0.47588330E+00  0.31730006E+00
     atom   14 type  2   force =  -0.68123232E-01  0.98189354E+00  0.79878529E+00
     atom   15 type  1   force =   0.10544597E+00  0.10272403E+00 -0.11842708E+00
     atom   16 type  2   force =   0.28155615E-01  0.25724380E+00 -0.16938976E+01
     The local contribution  to forces
     atom    1 type  1   force =   0.54558934E+00  0.46964377E+00 -0.68595615E+00
     atom    2 type  2   force =  -0.40508011E+00  0.69790885E+00 -0.12123100E+01
     atom    3 type  1   force =  -0.38939191E+00 -0.59768153E+00 -0.17802533E+00
     atom    4 type  2   force =  -0.98135327E-01  0.34243023E+00  0.15777523E+01
     atom    5 type  1   force =  -0.45367849E+00 -0.44231127E+00 -0.55653638E-01
     atom    6 type  2   force =   0.18609760E+01  0.13523110E+01  0.51096227E+00
     atom    7 type  1   force =   0.45431767E-01  0.17531692E+00  0.10095618E+01
     atom    8 type  2   force =  -0.93883494E+00 -0.18299114E+01 -0.68760910E+00
     atom    9 type  1   force =  -0.54094959E+00 -0.48740374E+00  0.92323344E-01
     atom   10 type  2   force =   0.51812630E+00  0.11255358E+01  0.12026079E+00
     atom   11 type  1   force =  -0.71735350E-02  0.17463901E+00 -0.17317490E+00
     atom   12 type  2   force =  -0.85759268E+00 -0.19392271E+00 -0.10603125E+01
     atom   13 type  1   force =   0.77767095E+00  0.49004840E+00 -0.28747833E+00
     atom   14 type  2   force =   0.48345271E-01 -0.97641886E+00 -0.78728688E+00
     atom   15 type  1   force =  -0.11791591E+00 -0.12536646E+00  0.13212240E+00
     atom   16 type  2   force =   0.30873965E-02 -0.24758435E+00  0.16531472E+01
     The core correction contribution to forces
     atom    1 type  1   force =   0.10394557E-02  0.51890965E-03 -0.54956420E-02
     atom    2 type  2   force =   0.17960763E-02  0.38326530E-02 -0.84804000E-03
     atom    3 type  1   force =  -0.30141192E-02 -0.36605945E-02 -0.42428959E-03
     atom    4 type  2   force =  -0.77620294E-03  0.21834101E-02  0.48420957E-02
     atom    5 type  1   force =  -0.26409128E-02 -0.25456354E-02  0.16050791E-02
     atom    6 type  2   force =   0.22241993E-02  0.12255063E-02  0.26189854E-02
     atom    7 type  1   force =   0.10243677E-02  0.14441812E-02  0.41321329E-02
     atom    8 type  2   force =   0.44149191E-03 -0.18869372E-02 -0.50695839E-02
     atom    9 type  1   force =  -0.29930101E-02 -0.43505605E-02  0.19333241E-02
     atom   10 type  2   force =  -0.45337632E-03  0.75756092E-03  0.45450873E-02
     atom   11 type  1   force =   0.26434952E-02  0.14002055E-03 -0.11153722E-02
     atom   12 type  2   force =   0.17390999E-02  0.16236079E-02 -0.39282289E-02
     atom   13 type  1   force =   0.26769911E-02  0.25634928E-02 -0.28462904E-02
     atom   14 type  2   force =  -0.10920757E-02 -0.13633123E-02 -0.17771711E-02
     atom   15 type  1   force =   0.15045995E-03  0.17353356E-02  0.15874166E-02
     atom   16 type  2   force =  -0.27199640E-02 -0.23110355E-02  0.54204748E-03
     The Hubbard contrib.    to forces
     atom    1 type  1   force =   0.00000000E+00  0.00000000E+00  0.00000000E+00
     atom    2 type  2   force =   0.00000000E+00  0.00000000E+00  0.00000000E+00
     atom    3 type  1   force =   0.00000000E+00  0.00000000E+00  0.00000000E+00
     atom    4 type  2   force =   0.00000000E+00  0.00000000E+00  0.00000000E+00
     atom    5 type  1   force =   0.00000000E+00  0.00000000E+00  0.00000000E+00
     atom    6 type  2   force =   0.00000000E+00  0.00000000E+00  0.00000000E+00
     atom    7 type  1   force =   0.00000000E+00  0.00000000E+00  0.00000000E+00
     atom    8 type  2   force =   0.00000000E+00  0.00000000E+00  0.00000000E+00
     atom    9 type  1   force =   0.00000000E+00  0.00000000E+00  0.00000000E+00
     atom   10 type  2   force =   0.00000000E+00  0.00000000E+00  0.00000000E+00
     atom   11 type  1   force =   0.00000000E+00  0.00000000E+00  0.00000000E+00
     atom   12 type  2   force =   0.00000000E+00  0.00000000E+00  0.00000000E+00
     atom   13 type  1   force =   0.00000000E+00  0.00000000E+00  0.00000000E+00
     atom   14 type  2   force =   0.00000000E+00  0.00000000E+00  0.00000000E+00
     atom   15 type  1   force =   0.00000000E+00  0.00000000E+00  0.00000000E+00
     atom   16 type  2   force =   0.00000000E+00  0.00000000E+00  0.00000000E+00
     The SCF correction term to forces
     atom    1 type  1   force =   0.14769208E-05  0.32740036E-05 -0.28980371E-05
     atom    2 type  2   force =  -0.78438909E-05  0.41213971E-05 -0.17749144E-04
     atom    3 type  1   force =  -0.19952419E-05 -0.27140412E-05 -0.10996335E-05
     atom    4 type  2   force =  -0.47299300E-05  0.57191539E-05  0.12468394E-04
     atom    5 type  1   force =   0.11913952E-05  0.71420610E-07 -0.70963032E-06
     atom    6 type  2   force =   0.21273344E-04  0.12790358E-04  0.18846848E-05
     atom    7 type  1   force =  -0.12618892E-05 -0.95325405E-06  0.45439707E-05
     atom    8 type  2   force =  -0.14896373E-04 -0.20295922E-04  0.11452345E-04
     atom    9 type  1   force =  -0.10706221E-05 -0.25596404E-06 -0.10175595E-05
     atom   10 type  2   force =   0.82682817E-05  0.25181431E-04 -0.11593375E-04
     atom   11 type  1   force =   0.50095479E-06  0.20785790E-06  0.19926483E-05
     atom   12 type  2   force =  -0.29973185E-04 -0.10896868E-04 -0.23580469E-05
     atom   13 type  1   force =   0.37843660E-05  0.15756462E-05 -0.20126249E-05
     atom   14 type  2   force =   0.94990074E-05  0.24891251E-05  0.24046654E-05
     atom   15 type  1   force =  -0.20080715E-05 -0.15972707E-05 -0.15286565E-06
     atom   16 type  2   force =   0.13617611E-04 -0.33575299E-05  0.23949658E-04

     Total force =     0.223919     Total SCF correction =     0.000069


     entering subroutine stress ...

          total   stress  (Ry/bohr**3)                   (kbar)     P=    3.73
   0.0000348794  -0.0000194819  -0.0000564286          5.13     -2.87     -8.30
  -0.0000194819   0.0000282666  -0.0000057913         -2.87      4.16     -0.85
  -0.0000564286  -0.0000057913   0.0000128977         -8.30     -0.85      1.90

     kinetic stress (kbar)   6399.00      4.78      6.45
                                4.78   6400.37      0.91
                                6.45      0.91   6400.15

     local   stress (kbar)  -1106.89    241.72    250.96
                              241.72  -1037.17     64.93
                              250.96     64.93   -980.76

     nonloc. stress (kbar)   2495.78     -3.77     -6.42
                               -3.77   2494.40     -1.11
                               -6.42     -1.11   2493.18

     hartree stress (kbar)  15126.25    -77.42    -62.55
                              -77.42  15105.26    -20.68
                              -62.55    -20.68  15088.38

     exc-cor stress (kbar)  10917.44     -0.13     -0.20
                               -0.13  10917.39     -0.03
                               -0.20     -0.03  10917.36

     corecor stress (kbar) -16573.72      0.32      0.59
                                0.32 -16573.61      0.10
                                0.59      0.10 -16573.49

     ewald   stress (kbar) -17252.72   -168.38   -197.13
                             -168.38 -17302.49    -44.96
                             -197.13    -44.96 -17342.92

     hubbard stress (kbar)      0.00      0.00      0.00
                                0.00      0.00      0.00
                                0.00      0.00      0.00

     london  stress (kbar)      0.00      0.00      0.00
                                0.00      0.00      0.00
                                0.00      0.00      0.00

     XDM     stress (kbar)      0.00      0.00      0.00
                                0.00      0.00      0.00
                                0.00      0.00      0.00

     dft-nl  stress (kbar)      0.00      0.00      0.00
                                0.00      0.00      0.00
                                0.00      0.00      0.00



     Writing output data file SiGe_zns.scf.in.super.222.a.011.save

     init_run     :     53.77s CPU     54.64s WALL (       1 calls)
     electrons    :   2011.12s CPU   2173.18s WALL (       1 calls)
     forces       :     26.45s CPU     23.11s WALL (       1 calls)
     stress       :     88.07s CPU     88.35s WALL (       1 calls)

     Called by init_run:
     wfcinit      :     46.39s CPU     47.04s WALL (       1 calls)
     potinit      :      2.11s CPU      2.14s WALL (       1 calls)

     Called by electrons:
     c_bands      :   1692.11s CPU   1830.58s WALL (      13 calls)
     sum_band     :    294.71s CPU    315.85s WALL (      13 calls)
     v_of_rho     :      2.32s CPU      2.61s WALL (      13 calls)
     v_h          :      0.11s CPU      0.15s WALL (      13 calls)
     v_xc         :      2.53s CPU      2.81s WALL (      15 calls)
     newd         :     20.42s CPU     22.15s WALL (      13 calls)
     mix_rho      :      2.86s CPU      3.27s WALL (      13 calls)

     Called by c_bands:
     init_us_2    :      8.96s CPU      9.89s WALL (    1044 calls)
     cegterg      :   1646.56s CPU   1780.10s WALL (     468 calls)

     Called by sum_band:
     sum_band:bec :      0.92s CPU      0.91s WALL (     468 calls)
     addusdens    :     19.68s CPU     20.07s WALL (      13 calls)

     Called by *egterg:
     h_psi        :   1079.70s CPU   1168.87s WALL (    1821 calls)
     s_psi        :    127.79s CPU     98.01s WALL (    1821 calls)
     g_psi        :      1.52s CPU      1.56s WALL (    1317 calls)
     cdiaghg      :    148.99s CPU    234.05s WALL (    1749 calls)
     cegterg:over :    144.90s CPU    134.16s WALL (    1317 calls)
     cegterg:upda :     63.52s CPU     57.89s WALL (    1317 calls)
     cegterg:last :     36.42s CPU     29.10s WALL (     468 calls)

     Called by h_psi:
     h_psi:vloc   :    792.89s CPU    932.31s WALL (    1821 calls)
     h_psi:vnl    :    284.36s CPU    233.96s WALL (    1821 calls)
     add_vuspsi   :    128.86s CPU    101.34s WALL (    1821 calls)

     General routines
     calbec       :    237.77s CPU    202.17s WALL (    2361 calls)
     fft          :      3.29s CPU      3.63s WALL (     233 calls)
     ffts         :      1.64s CPU      1.92s WALL (     365 calls)
     fftw         :    894.67s CPU   1050.52s WALL (  236242 calls)
     interpolate  :      0.35s CPU      0.45s WALL (      26 calls)

     Parallel routines
     fft_scatter  :    454.10s CPU    545.73s WALL (  236840 calls)

     PWSCF        : 36m22.37s CPU    39m 3.13s WALL


   This run was terminated on:  14: 9:59   5Oct2017            

=------------------------------------------------------------------------------=
   JOB DONE.
=------------------------------------------------------------------------------=
