
     Program PWSCF v.5.1 starts on 27Sep2017 at 10:47: 8 

     This program is part of the open-source Quantum ESPRESSO suite
     for quantum simulation of materials; please cite
         "P. Giannozzi et al., J. Phys.:Condens. Matter 21 395502 (2009);
          URL http://www.quantum-espresso.org", 
     in publications or presentations arising from this work. More details at
     http://www.quantum-espresso.org/quote

     Parallel version (MPI), running on     8 processors
     R & G space division:  proc/nbgrp/npool/nimage =       8
     Reading input from /tmp/SiGe_zns.scf.in.super.222.largedist.03.18456/SiGe_zns.scf.in.super.222.largedist.03.t
Warning: card &IONS ignored
Warning: card   ION_DYNAMICS='BFGS', ignored
Warning: card / ignored
Warning: card &CELL ignored
Warning: card  CELL_DYNAMICS = 'BFGS' ignored
Warning: card / ignored
     Message from routine read_cards :
     DEPRECATED: no units specified in CELL_PARAMETERS card

     Current dimensions of program PWSCF are:
     Max number of different atomic species (ntypx) = 10
     Max number of k-points (npk) =  40000
     Max angular momentum in pseudopotentials (lmaxx) =  3
 kfg - two_fermi_energies  F

     Subspace diagonalization in iterative solution of the eigenvalue problem:
     a serial algorithm will be used


     Parallelization info
     --------------------
     sticks:   dense  smooth     PW     G-vecs:    dense   smooth      PW
     Min         377     262     74                13732     8027    1217
     Max         378     263     75                13734     8045    1219
     Sum        3019    2101    595               109863    64283    9741



     bravais-lattice index     =            0
     lattice parameter (alat)  =    14.831252672  a.u.
     unit-cell volume          =    2299.0910 (a.u.)^3
     number of atoms/cell      =           16
     number of atomic types    =            2
     number of electrons       =       144.00
     number of Kohn-Sham states=           86
     kinetic-energy cutoff     =      35.0000  Ry
     charge density cutoff     =     200.0000  Ry
     convergence threshold     =      1.0E-09
     mixing beta               =       0.3000
     number of iterations used =            8  local-TF  mixing
     Exchange-correlation      = SLA  PW   PSX  PSC ( 1  4 10  8 0)
     A smooth kinetic-energy cutoff is imposed at      34.5000 Ry
     height of the smooth step-function =             800.0000 Ry
     width of the smooth step-function  =               1.0000 Ry


     celldm(1)=  14.831253  celldm(2)=   0.000000  celldm(3)=   0.000000
     celldm(4)=   0.000000  celldm(5)=   0.000000  celldm(6)=   0.000000

     crystal axes: (cart. coord. in units of alat)
               a(1) = (   0.000896766189   0.705367889994   0.708840839382 )  
               a(2) = (   0.700112816082  -0.004379401719   0.705007397046 )  
               a(3) = (   0.710844314204   0.706480640539   0.002287749094 )  

     reciprocal axes: (cart. coord. in units 2 pi/alat)
               b(1) = ( -0.706773  0.708852  0.706270 )  
               b(2) = (  0.708312 -0.714988  0.710589 )  
               b(3) = (  0.710051  0.703300 -0.700752 )  


     PseudoPot. # 1 for Si read from file:
     /users/kfg/psuedo/gbrv_1.5/si.pbesol.UPF
     MD5 check sum: ef58ba74faed4df802eb8a9742fc00a8
     Pseudo is Ultrasoft + core correction, Zval =  4.0
     Generated by new atomic code, or converted to UPF format
     Using radial grid of  899 points,  6 beta functions with: 
                l(1) =   0
                l(2) =   0
                l(3) =   1
                l(4) =   1
                l(5) =   2
                l(6) =   2
     Q(r) pseudized with  8 coefficients,  rinner =    0.900   0.900   0.900
                                                       0.900   0.900

     PseudoPot. # 2 for Ge read from file:
     /users/kfg/psuedo/gbrv_1.5/ge.pbesol.UPF
     MD5 check sum: 7bed0412183f5e553a4d27ec7023354d
     Pseudo is Ultrasoft + core correction, Zval = 14.0
     Generated by new atomic code, or converted to UPF format
     Using radial grid of  873 points,  6 beta functions with: 
                l(1) =   0
                l(2) =   0
                l(3) =   1
                l(4) =   1
                l(5) =   2
                l(6) =   2
     Q(r) pseudized with  8 coefficients,  rinner =    1.400   1.400   1.400
                                                       1.400   1.400

     atomic species   valence    mass     pseudopotential
        Si             4.00    28.08550     Si( 1.00)
        Ge            14.00    72.64000     Ge( 1.00)

     No symmetry found


                                    s                        frac. trans.

      isym =  1     identity                                     

 cryst.   s( 1) = (     1          0          0      )
                  (     0          1          0      )
                  (     0          0          1      )

 cart.    s( 1) = (  1.0000000  0.0000000  0.0000000 )
                  (  0.0000000  1.0000000  0.0000000 )
                  ( -0.0000000 -0.0000000  1.0000000 )


     point group C_1 (1)    
     there are  1 classes
     the character table:

       E    
A      1.00

     the symmetry operations in each class:
     E        1

   Cartesian axes

     site n.     atom                  positions (alat units)
         1           Si  tau(   1) = (   -0.00462107791   -0.00167128661    0.01831536508  )
         2           Ge  tau(   2) = (    0.15774191374    0.16896351631    0.17818669538  )
         3           Si  tau(   3) = (    0.33662096405    0.36414260506   -0.01594768324  )
         4           Ge  tau(   4) = (    0.54277262871    0.53361848625    0.17091855267  )
         5           Si  tau(   5) = (    0.33695241513    0.00312050123    0.34881754692  )
         6           Ge  tau(   6) = (    0.53233174354    0.18313802670    0.51489089145  )
         7           Si  tau(   7) = (    0.70595390283    0.36547381408    0.36517632352  )
         8           Ge  tau(   8) = (    0.86283471799    0.53514661339    0.51481492749  )
         9           Si  tau(   9) = (   -0.00011165468    0.36424345964    0.34618978600  )
        10           Ge  tau(  10) = (    0.18985280732    0.54526759697    0.52664755516  )
        11           Si  tau(  11) = (    0.35148331859    0.70794484549    0.34314152821  )
        12           Ge  tau(  12) = (    0.52733481721    0.86758371002    0.53894701709  )
        13           Si  tau(  13) = (    0.34705654971    0.34671119346    0.72263352059  )
        14           Ge  tau(  14) = (    0.54465009149    0.53529862570    0.90223633795  )
        15           Si  tau(  15) = (    0.69302876822    0.71197197602    0.71169505300  )
        16           Ge  tau(  16) = (    0.87497998965    0.88272445180    0.89193152259  )

   Crystallographic axes

     site n.     atom                  positions (cryst. coord.)
         1           Si  tau(   1) = (    0.01501694428    0.01093648028   -0.01729114851  )
         2           Ge  tau(   2) = (    0.13413014117    0.11754108748    0.10597202102  )
         3           Si  tau(   3) = (    0.00894503207   -0.03325718663    0.50629472283  )
         4           Ge  tau(   4) = (    0.11535374873    0.12437436089    0.64091825764  )
         5           Si  tau(   5) = (    0.01042227808    0.48430221436   -0.00298675575  )
         6           Ge  tau(   6) = (    0.11723166689    0.61199123825    0.14597247646  )
         7           Si  tau(   7) = (    0.01803035312    0.49821647742    0.50240254535  )
         8           Ge  tau(   8) = (    0.13310922416    0.59435455221    0.62826712111  )
         9           Si  tau(   9) = (    0.50277675327   -0.01451019375    0.01349978405  )
        10           Ge  tau(  10) = (    0.62428604359    0.11884511228    0.14924221852  )
        11           Si  tau(  11) = (    0.49575924022   -0.01337969250    0.50701120549  )
        12           Ge  tau(  12) = (    0.62292383749    0.13617536626    0.60693751416  )
        13           Si  tau(  13) = (    0.51085057568    0.51142533242   -0.01611744411  )
        14           Ge  tau(  14) = (    0.63172526427    0.64416922253    0.13096039647  )
        15           Si  tau(  15) = (    0.51751687087    0.48755176145    0.49409333784  )
        16           Ge  tau(  16) = (    0.63725232405    0.62241805523    0.61707698453  )

     number of k points=    36  gaussian smearing, width (Ry)=  0.0150
                       cart. coord. in units 2pi/alat
        k(    1) = (   0.0000000   0.0000000   0.0000000), wk =   0.0312500
        k(    2) = (   0.1775127   0.1758249  -0.1751881), wk =   0.0625000
        k(    3) = (  -0.3550253  -0.3516499   0.3503761), wk =   0.0312500
        k(    4) = (   0.1770780  -0.1787470   0.1776472), wk =   0.0625000
        k(    5) = (   0.3545907  -0.0029221   0.0024592), wk =   0.0625000
        k(    6) = (  -0.1779473  -0.5303969   0.5280234), wk =   0.0625000
        k(    7) = (  -0.0004347  -0.3545720   0.3528353), wk =   0.0625000
        k(    8) = (  -0.3541560   0.3574940  -0.3552945), wk =   0.0312500
        k(    9) = (  -0.1766434   0.5333190  -0.5304825), wk =   0.0625000
        k(   10) = (  -0.7091813   0.0058442  -0.0049183), wk =   0.0312500
        k(   11) = (  -0.1766933   0.1772129   0.1765674), wk =   0.0625000
        k(   12) = (   0.0008194   0.3530378   0.0013793), wk =   0.0625000
        k(   13) = (  -0.5317186  -0.1744370   0.5269435), wk =   0.0625000
        k(   14) = (  -0.3542059   0.0013879   0.3517555), wk =   0.0625000
        k(   15) = (   0.0003847  -0.0015341   0.3542146), wk =   0.0625000
        k(   16) = (   0.1778974   0.1742908   0.1790266), wk =   0.0625000
        k(   17) = (  -0.3546406  -0.3531840   0.7045908), wk =   0.0625000
        k(   18) = (  -0.1771279  -0.1773591   0.5294027), wk =   0.0625000
        k(   19) = (  -0.5308493   0.5347069  -0.1787271), wk =   0.0625000
        k(   20) = (  -0.3533366   0.7105319  -0.3539151), wk =   0.0625000
        k(   21) = (  -0.8858746   0.1830570   0.1716491), wk =   0.0625000
        k(   22) = (  -0.7083620   0.3588820  -0.0035390), wk =   0.0625000
        k(   23) = (  -0.3537713   0.3559599  -0.0010798), wk =   0.0625000
        k(   24) = (  -0.1762586   0.5317848  -0.1762679), wk =   0.0625000
        k(   25) = (  -0.7087966   0.0043100   0.3492963), wk =   0.0625000
        k(   26) = (  -0.5312840   0.1801350   0.1741082), wk =   0.0625000
        k(   27) = (   0.3533866  -0.3544258  -0.3531348), wk =   0.0312500
        k(   28) = (   0.5308992  -0.1786008  -0.5283228), wk =   0.0625000
        k(   29) = (  -0.0016388  -0.7060756  -0.0027586), wk =   0.0312500
        k(   30) = (   0.5304646  -0.5331728  -0.1754875), wk =   0.0625000
        k(   31) = (   0.7079772  -0.3573478  -0.3506756), wk =   0.0625000
        k(   32) = (   0.1754392  -0.8848227   0.1748886), wk =   0.0625000
        k(   33) = (   0.3529519  -0.7089977  -0.0002995), wk =   0.0625000
        k(   34) = (  -0.0007695   0.0030683  -0.7084292), wk =   0.0312500
        k(   35) = (   0.1767432   0.1788932  -0.8836173), wk =   0.0625000
        k(   36) = (  -0.3557948  -0.3485816  -0.3580531), wk =   0.0312500

                       cryst. coord.
        k(    1) = (   0.0000000   0.0000000   0.0000000), wk =   0.0312500
        k(    2) = (   0.0000000   0.0000000   0.2500000), wk =   0.0625000
        k(    3) = (  -0.0000000  -0.0000000  -0.5000000), wk =   0.0312500
        k(    4) = (  -0.0000000   0.2500000  -0.0000000), wk =   0.0625000
        k(    5) = (   0.0000000   0.2500000   0.2500000), wk =   0.0625000
        k(    6) = (   0.0000000   0.2500000  -0.5000000), wk =   0.0625000
        k(    7) = (  -0.0000000   0.2500000  -0.2500000), wk =   0.0625000
        k(    8) = (   0.0000000  -0.5000000   0.0000000), wk =   0.0312500
        k(    9) = (  -0.0000000  -0.5000000   0.2500000), wk =   0.0625000
        k(   10) = (  -0.0000000  -0.5000000  -0.5000000), wk =   0.0312500
        k(   11) = (   0.2500000  -0.0000000   0.0000000), wk =   0.0625000
        k(   12) = (   0.2500000   0.0000000   0.2500000), wk =   0.0625000
        k(   13) = (   0.2500000  -0.0000000  -0.5000000), wk =   0.0625000
        k(   14) = (   0.2500000   0.0000000  -0.2500000), wk =   0.0625000
        k(   15) = (   0.2500000   0.2500000  -0.0000000), wk =   0.0625000
        k(   16) = (   0.2500000   0.2500000   0.2500000), wk =   0.0625000
        k(   17) = (   0.2500000   0.2500000  -0.5000000), wk =   0.0625000
        k(   18) = (   0.2500000   0.2500000  -0.2500000), wk =   0.0625000
        k(   19) = (   0.2500000  -0.5000000   0.0000000), wk =   0.0625000
        k(   20) = (   0.2500000  -0.5000000   0.2500000), wk =   0.0625000
        k(   21) = (   0.2500000  -0.5000000  -0.5000000), wk =   0.0625000
        k(   22) = (   0.2500000  -0.5000000  -0.2500000), wk =   0.0625000
        k(   23) = (   0.2500000  -0.2500000  -0.0000000), wk =   0.0625000
        k(   24) = (   0.2500000  -0.2500000   0.2500000), wk =   0.0625000
        k(   25) = (   0.2500000  -0.2500000  -0.5000000), wk =   0.0625000
        k(   26) = (   0.2500000  -0.2500000  -0.2500000), wk =   0.0625000
        k(   27) = (  -0.5000000   0.0000000  -0.0000000), wk =   0.0312500
        k(   28) = (  -0.5000000   0.0000000   0.2500000), wk =   0.0625000
        k(   29) = (  -0.5000000  -0.0000000  -0.5000000), wk =   0.0312500
        k(   30) = (  -0.5000000   0.2500000  -0.0000000), wk =   0.0625000
        k(   31) = (  -0.5000000   0.2500000   0.2500000), wk =   0.0625000
        k(   32) = (  -0.5000000   0.2500000  -0.5000000), wk =   0.0625000
        k(   33) = (  -0.5000000   0.2500000  -0.2500000), wk =   0.0625000
        k(   34) = (  -0.5000000  -0.5000000   0.0000000), wk =   0.0312500
        k(   35) = (  -0.5000000  -0.5000000   0.2500000), wk =   0.0625000
        k(   36) = (  -0.5000000  -0.5000000  -0.5000000), wk =   0.0312500

     Dense  grid:   109863 G-vectors     FFT dimensions: (  72,  72,  72)

     Smooth grid:    64283 G-vectors     FFT dimensions: (  60,  60,  60)

     Largest allocated arrays     est. size (Mb)     dimensions
        Kohn-Sham Wavefunctions         1.34 Mb     (    1021,   86)
        NL pseudopotentials             4.49 Mb     (    1021,  288)
        Each V/rho on FFT grid          0.71 Mb     (   46656)
        Each G-vector array             0.10 Mb     (   13733)
        G-vector shells                 0.10 Mb     (   13532)
     Largest temporary arrays     est. size (Mb)     dimensions
        Auxiliary wavefunctions         5.36 Mb     (    1021,  344)
        Each subspace H/S matrix        1.81 Mb     (     344,  344)
        Each <psi_i|beta_j> matrix      0.38 Mb     (     288,   86)
        Arrays for rho mixing           5.70 Mb     (   46656,    8)

     Check: negative/imaginary core charge=   -0.000001    0.000000

     Initial potential from superposition of free atoms

     starting charge  143.98835, renormalised to  144.00000
     Starting wfc are  104 randomized atomic wfcs

     total cpu time spent up to now is       31.4 secs

     per-process dynamical memory:    72.5 Mb

     Self-consistent Calculation

     iteration #  1     ecut=    35.00 Ry     beta=0.30
     Davidson diagonalization with overlap
     ethr =  1.00E-02,  avg # of iterations =  3.0

     Threshold (ethr) on eigenvalues was too large:
     Diagonalizing with lowered threshold

     Davidson diagonalization with overlap
     ethr =  2.47E-04,  avg # of iterations =  5.5

     total cpu time spent up to now is      222.0 secs

     total energy              =   -1781.84363823 Ry
     Harris-Foulkes estimate   =   -1781.88156668 Ry
     estimated scf accuracy    <       0.35409810 Ry

     iteration #  2     ecut=    35.00 Ry     beta=0.30
     Davidson diagonalization with overlap
     ethr =  2.46E-04,  avg # of iterations =  1.0

     total cpu time spent up to now is      288.7 secs

     total energy              =   -1781.77203293 Ry
     Harris-Foulkes estimate   =   -1781.84560690 Ry
     estimated scf accuracy    <       0.21765737 Ry

     iteration #  3     ecut=    35.00 Ry     beta=0.30
     Davidson diagonalization with overlap
     ethr =  1.51E-04,  avg # of iterations =  2.3

     total cpu time spent up to now is      366.8 secs

     total energy              =   -1781.78659882 Ry
     Harris-Foulkes estimate   =   -1781.78670459 Ry
     estimated scf accuracy    <       0.00359652 Ry

     iteration #  4     ecut=    35.00 Ry     beta=0.30
     Davidson diagonalization with overlap
     ethr =  2.50E-06,  avg # of iterations =  8.0

     total cpu time spent up to now is      529.1 secs

     total energy              =   -1781.78707915 Ry
     Harris-Foulkes estimate   =   -1781.78736368 Ry
     estimated scf accuracy    <       0.00167239 Ry

     iteration #  5     ecut=    35.00 Ry     beta=0.30
     Davidson diagonalization with overlap
     ethr =  1.16E-06,  avg # of iterations =  2.0

     total cpu time spent up to now is      609.6 secs

     total energy              =   -1781.78719698 Ry
     Harris-Foulkes estimate   =   -1781.78721088 Ry
     estimated scf accuracy    <       0.00007746 Ry

     iteration #  6     ecut=    35.00 Ry     beta=0.30
     Davidson diagonalization with overlap
     ethr =  5.38E-08,  avg # of iterations =  1.8

     total cpu time spent up to now is      679.7 secs

     total energy              =   -1781.78718793 Ry
     Harris-Foulkes estimate   =   -1781.78720066 Ry
     estimated scf accuracy    <       0.00003326 Ry

     iteration #  7     ecut=    35.00 Ry     beta=0.30
     Davidson diagonalization with overlap
     ethr =  2.31E-08,  avg # of iterations =  2.1

     total cpu time spent up to now is      761.4 secs

     total energy              =   -1781.78719215 Ry
     Harris-Foulkes estimate   =   -1781.78719204 Ry
     estimated scf accuracy    <       0.00000354 Ry

     iteration #  8     ecut=    35.00 Ry     beta=0.30
     Davidson diagonalization with overlap
     ethr =  2.46E-09,  avg # of iterations =  2.0

     total cpu time spent up to now is      844.2 secs

     total energy              =   -1781.78719238 Ry
     Harris-Foulkes estimate   =   -1781.78719256 Ry
     estimated scf accuracy    <       0.00000104 Ry

     iteration #  9     ecut=    35.00 Ry     beta=0.30
     Davidson diagonalization with overlap
     ethr =  7.22E-10,  avg # of iterations =  2.1

     total cpu time spent up to now is      935.9 secs

     total energy              =   -1781.78719260 Ry
     Harris-Foulkes estimate   =   -1781.78719254 Ry
     estimated scf accuracy    <       0.00000016 Ry

     iteration # 10     ecut=    35.00 Ry     beta=0.30
     Davidson diagonalization with overlap
     ethr =  1.11E-10,  avg # of iterations =  1.9

     total cpu time spent up to now is     1010.6 secs

     total energy              =   -1781.78719262 Ry
     Harris-Foulkes estimate   =   -1781.78719261 Ry
     estimated scf accuracy    <       0.00000006 Ry

     iteration # 11     ecut=    35.00 Ry     beta=0.30
     Davidson diagonalization with overlap
     ethr =  3.88E-11,  avg # of iterations =  2.2

     total cpu time spent up to now is     1099.2 secs

     total energy              =   -1781.78719265 Ry
     Harris-Foulkes estimate   =   -1781.78719263 Ry
     estimated scf accuracy    <          2.8E-09 Ry

     iteration # 12     ecut=    35.00 Ry     beta=0.30
     Davidson diagonalization with overlap
     ethr =  1.97E-12,  avg # of iterations =  2.3

     total cpu time spent up to now is     1189.9 secs

     total energy              =   -1781.78719266 Ry
     Harris-Foulkes estimate   =   -1781.78719265 Ry
     estimated scf accuracy    <          2.0E-09 Ry

     iteration # 13     ecut=    35.00 Ry     beta=0.30
     Davidson diagonalization with overlap
     ethr =  1.39E-12,  avg # of iterations =  2.1

     total cpu time spent up to now is     1280.6 secs

     End of self-consistent calculation

          k = 0.0000 0.0000 0.0000 (  7963 PWs)   bands (ev):

   -17.3850 -17.3454 -17.3352 -17.3144 -17.3107 -17.2043 -17.1997 -17.1910
   -17.1865 -17.1685 -17.1676 -17.1648 -17.1579 -17.1509 -17.1434 -17.1390
   -17.1235 -17.1060 -17.0964 -17.0918 -17.0865 -17.0798 -17.0642 -17.0508
   -17.0472 -17.0354 -17.0334 -17.0176 -17.0099 -17.0070 -17.0007 -16.9972
   -16.9944 -16.9841 -16.9821 -16.8874 -16.8723 -16.8674 -16.8557 -16.8510
    -5.2367  -3.2824  -3.1950  -3.1194  -2.6290  -1.7194  -1.5920  -1.4812
    -0.8561  -0.7160  -0.4463  -0.1147   0.1751   0.2749   0.3426   4.0502
     4.2081   4.2681   4.3026   4.3680   4.4381   5.5397   5.6418   5.7361
     5.9372   6.0306   6.1646   6.2323   6.4267   7.2586   7.3784   7.4312
     7.5921   7.7825   7.8089   7.9137   7.9766   8.0639   8.1558   8.2417
     8.3444   8.5085   8.9104   9.5561   9.7438   9.8407

     occupation numbers 
     1.0000   1.0000   1.0000   1.0000   1.0000   1.0000   1.0000   1.0000
     1.0000   1.0000   1.0000   1.0000   1.0000   1.0000   1.0000   1.0000
     1.0000   1.0000   1.0000   1.0000   1.0000   1.0000   1.0000   1.0000
     1.0000   1.0000   1.0000   1.0000   1.0000   1.0000   1.0000   1.0000
     1.0000   1.0000   1.0000   1.0000   1.0000   1.0000   1.0000   1.0000
     1.0000   1.0000   1.0000   1.0000   1.0000   1.0000   1.0000   1.0000
     1.0000   1.0000   1.0000   1.0000   1.0000   1.0000   1.0000   1.0000
     1.0000   1.0000   1.0000   1.0000   1.0000   1.0000   1.0000   1.0000
     1.0000   1.0000   1.0000   1.0000   1.0000   0.9590   0.8185   0.7066
     0.2839   0.0293   0.0191   0.0026   0.0006   0.0001   0.0000   0.0000
     0.0000   0.0000   0.0000   0.0000   0.0000   0.0000

          k = 0.1775 0.1758-0.1752 (  8033 PWs)   bands (ev):

   -17.3848 -17.3451 -17.3351 -17.3142 -17.3107 -17.2040 -17.1994 -17.1907
   -17.1863 -17.1683 -17.1674 -17.1647 -17.1576 -17.1507 -17.1434 -17.1390
   -17.1232 -17.1060 -17.0963 -17.0917 -17.0865 -17.0797 -17.0640 -17.0508
   -17.0470 -17.0352 -17.0333 -17.0174 -17.0097 -17.0069 -17.0006 -16.9972
   -16.9944 -16.9841 -16.9821 -16.8871 -16.8721 -16.8672 -16.8557 -16.8510
    -5.0535  -3.7049  -3.1323  -3.0327  -2.6745  -2.1926  -1.9976  -1.9203
    -0.2435  -0.1745  -0.0050   0.3413   0.4280   0.5124   1.0271   3.5656
     3.6367   3.7478   4.3803   4.4332   4.5061   4.6253   4.7160   4.8871
     5.2879   5.5923   5.6714   5.8427   6.1244   6.4546   7.1167   7.3115
     7.9162   8.0083   8.1645   8.3462   8.7908   8.9664   9.0249   9.1665
     9.2186   9.2912   9.4486  10.0549  10.3383  10.5627

     occupation numbers 
     1.0000   1.0000   1.0000   1.0000   1.0000   1.0000   1.0000   1.0000
     1.0000   1.0000   1.0000   1.0000   1.0000   1.0000   1.0000   1.0000
     1.0000   1.0000   1.0000   1.0000   1.0000   1.0000   1.0000   1.0000
     1.0000   1.0000   1.0000   1.0000   1.0000   1.0000   1.0000   1.0000
     1.0000   1.0000   1.0000   1.0000   1.0000   1.0000   1.0000   1.0000
     1.0000   1.0000   1.0000   1.0000   1.0000   1.0000   1.0000   1.0000
     1.0000   1.0000   1.0000   1.0000   1.0000   1.0000   1.0000   1.0000
     1.0000   1.0000   1.0000   1.0000   1.0000   1.0000   1.0000   1.0000
     1.0000   1.0000   1.0000   1.0000   1.0000   1.0000   0.9968   0.9152
     0.0024   0.0003   0.0000   0.0000   0.0000   0.0000   0.0000   0.0000
     0.0000   0.0000   0.0000   0.0000   0.0000   0.0000

          k =-0.3550-0.3516 0.3504 (  8048 PWs)   bands (ev):

   -17.3846 -17.3451 -17.3350 -17.3141 -17.3107 -17.2039 -17.1994 -17.1906
   -17.1860 -17.1683 -17.1671 -17.1647 -17.1573 -17.1506 -17.1435 -17.1391
   -17.1231 -17.1059 -17.0961 -17.0917 -17.0867 -17.0795 -17.0640 -17.0508
   -17.0469 -17.0354 -17.0333 -17.0172 -17.0095 -17.0068 -17.0006 -16.9973
   -16.9945 -16.9842 -16.9820 -16.8872 -16.8719 -16.8670 -16.8559 -16.8511
    -4.6486  -4.3327  -3.0296  -2.8230  -2.7125  -2.4608  -2.3176  -2.2966
     0.1449   0.2769   0.3407   0.6621   0.7336   0.9180   2.7065   2.8256
     3.2648   3.3735   3.5158   3.5756   3.8394   3.9582   4.6908   4.8742
     4.9577   5.0731   5.1885   5.3161   6.2178   6.6366   6.8060   6.8995
     8.3000   8.4594   8.4785   8.5966   8.7701   8.8155   9.0531   9.2040
    10.4677  10.7897  10.9897  11.0822  11.2632  11.4044

     occupation numbers 
     1.0000   1.0000   1.0000   1.0000   1.0000   1.0000   1.0000   1.0000
     1.0000   1.0000   1.0000   1.0000   1.0000   1.0000   1.0000   1.0000
     1.0000   1.0000   1.0000   1.0000   1.0000   1.0000   1.0000   1.0000
     1.0000   1.0000   1.0000   1.0000   1.0000   1.0000   1.0000   1.0000
     1.0000   1.0000   1.0000   1.0000   1.0000   1.0000   1.0000   1.0000
     1.0000   1.0000   1.0000   1.0000   1.0000   1.0000   1.0000   1.0000
     1.0000   1.0000   1.0000   1.0000   1.0000   1.0000   1.0000   1.0000
     1.0000   1.0000   1.0000   1.0000   1.0000   1.0000   1.0000   1.0000
     1.0000   1.0000   1.0000   1.0000   1.0000   1.0000   1.0000   1.0000
     0.0000   0.0000   0.0000   0.0000   0.0000   0.0000   0.0000   0.0000
     0.0000   0.0000   0.0000   0.0000   0.0000   0.0000

          k = 0.1771-0.1787 0.1776 (  8012 PWs)   bands (ev):

   -17.3848 -17.3452 -17.3351 -17.3143 -17.3106 -17.2035 -17.2001 -17.1908
   -17.1862 -17.1683 -17.1676 -17.1646 -17.1579 -17.1506 -17.1435 -17.1391
   -17.1231 -17.1056 -17.0965 -17.0918 -17.0866 -17.0795 -17.0641 -17.0509
   -17.0472 -17.0354 -17.0334 -17.0175 -17.0098 -17.0068 -17.0007 -16.9972
   -16.9943 -16.9842 -16.9822 -16.8873 -16.8722 -16.8673 -16.8558 -16.8510
    -5.0466  -3.6718  -3.1483  -3.0507  -2.7120  -2.2198  -2.1156  -1.7793
    -0.2764  -0.1774   0.1326   0.1976   0.4761   0.6112   1.0328   3.5442
     3.6448   3.8055   4.3255   4.4211   4.4679   4.5724   4.6905   4.9389
     5.3350   5.5589   5.6665   5.8529   6.1468   6.4040   7.0747   7.2546
     7.8387   7.9293   8.1444   8.4087   8.7798   8.9396   9.0823   9.1541
     9.1951   9.3458   9.4951  10.0762  10.2775  10.6406

     occupation numbers 
     1.0000   1.0000   1.0000   1.0000   1.0000   1.0000   1.0000   1.0000
     1.0000   1.0000   1.0000   1.0000   1.0000   1.0000   1.0000   1.0000
     1.0000   1.0000   1.0000   1.0000   1.0000   1.0000   1.0000   1.0000
     1.0000   1.0000   1.0000   1.0000   1.0000   1.0000   1.0000   1.0000
     1.0000   1.0000   1.0000   1.0000   1.0000   1.0000   1.0000   1.0000
     1.0000   1.0000   1.0000   1.0000   1.0000   1.0000   1.0000   1.0000
     1.0000   1.0000   1.0000   1.0000   1.0000   1.0000   1.0000   1.0000
     1.0000   1.0000   1.0000   1.0000   1.0000   1.0000   1.0000   1.0000
     1.0000   1.0000   1.0000   1.0000   1.0000   1.0000   0.9987   0.9614
     0.0113   0.0018   0.0000   0.0000   0.0000   0.0000   0.0000   0.0000
     0.0000   0.0000   0.0000   0.0000   0.0000   0.0000

          k = 0.3546-0.0029 0.0025 (  8032 PWs)   bands (ev):

   -17.3848 -17.3450 -17.3350 -17.3142 -17.3107 -17.2033 -17.2000 -17.1909
   -17.1861 -17.1683 -17.1676 -17.1645 -17.1577 -17.1506 -17.1434 -17.1391
   -17.1233 -17.1055 -17.0965 -17.0916 -17.0865 -17.0794 -17.0640 -17.0508
   -17.0471 -17.0353 -17.0333 -17.0174 -17.0098 -17.0068 -17.0006 -16.9972
   -16.9943 -16.9842 -16.9820 -16.8872 -16.8721 -16.8673 -16.8558 -16.8509
    -4.9910  -3.4718  -3.3450  -3.1592  -2.8489  -2.7306  -1.5644  -1.4209
    -0.7632  -0.3844   0.2745   0.5113   0.6870   0.8303   1.1956   3.5824
     3.6647   3.7720   3.8338   4.2798   4.4538   4.5275   4.6822   4.8361
     4.9084   5.3235   5.7820   5.9890   6.0859   6.3545   6.4668   6.7412
     7.6930   8.4437   8.8092   8.8943   8.9604   9.0906   9.1170   9.2508
     9.3453   9.3824   9.6508  10.4332  10.5019  10.7633

     occupation numbers 
     1.0000   1.0000   1.0000   1.0000   1.0000   1.0000   1.0000   1.0000
     1.0000   1.0000   1.0000   1.0000   1.0000   1.0000   1.0000   1.0000
     1.0000   1.0000   1.0000   1.0000   1.0000   1.0000   1.0000   1.0000
     1.0000   1.0000   1.0000   1.0000   1.0000   1.0000   1.0000   1.0000
     1.0000   1.0000   1.0000   1.0000   1.0000   1.0000   1.0000   1.0000
     1.0000   1.0000   1.0000   1.0000   1.0000   1.0000   1.0000   1.0000
     1.0000   1.0000   1.0000   1.0000   1.0000   1.0000   1.0000   1.0000
     1.0000   1.0000   1.0000   1.0000   1.0000   1.0000   1.0000   1.0000
     1.0000   1.0000   1.0000   1.0000   1.0000   1.0000   1.0000   1.0000
     0.1020   0.0000   0.0000   0.0000   0.0000   0.0000   0.0000   0.0000
     0.0000   0.0000   0.0000   0.0000   0.0000   0.0000

          k =-0.1779-0.5304 0.5280 (  8027 PWs)   bands (ev):

   -17.3846 -17.3449 -17.3349 -17.3141 -17.3106 -17.2032 -17.1998 -17.1907
   -17.1859 -17.1682 -17.1673 -17.1644 -17.1574 -17.1506 -17.1434 -17.1390
   -17.1231 -17.1055 -17.0964 -17.0915 -17.0865 -17.0793 -17.0639 -17.0507
   -17.0469 -17.0353 -17.0333 -17.0172 -17.0097 -17.0067 -17.0006 -16.9972
   -16.9943 -16.9841 -16.9819 -16.8872 -16.8719 -16.8672 -16.8557 -16.8509
    -4.6149  -4.0349  -3.5014  -3.1749  -3.0149  -2.4769  -1.8803  -1.7922
    -0.2879  -0.0080   0.3335   0.9422   1.2760   1.8020   2.1135   2.8788
     3.0557   3.2221   3.5135   3.7862   4.0708   4.1440   4.3067   4.5939
     4.7741   4.9314   5.0248   5.3120   5.5553   6.0361   6.1718   6.7636
     8.4488   8.9274   9.2304   9.3698   9.5849   9.6755   9.7729  10.0474
    10.0871  10.4025  10.6020  10.7145  10.8084  11.2452

     occupation numbers 
     1.0000   1.0000   1.0000   1.0000   1.0000   1.0000   1.0000   1.0000
     1.0000   1.0000   1.0000   1.0000   1.0000   1.0000   1.0000   1.0000
     1.0000   1.0000   1.0000   1.0000   1.0000   1.0000   1.0000   1.0000
     1.0000   1.0000   1.0000   1.0000   1.0000   1.0000   1.0000   1.0000
     1.0000   1.0000   1.0000   1.0000   1.0000   1.0000   1.0000   1.0000
     1.0000   1.0000   1.0000   1.0000   1.0000   1.0000   1.0000   1.0000
     1.0000   1.0000   1.0000   1.0000   1.0000   1.0000   1.0000   1.0000
     1.0000   1.0000   1.0000   1.0000   1.0000   1.0000   1.0000   1.0000
     1.0000   1.0000   1.0000   1.0000   1.0000   1.0000   1.0000   1.0000
     0.0000   0.0000   0.0000   0.0000   0.0000   0.0000   0.0000   0.0000
     0.0000   0.0000   0.0000   0.0000   0.0000   0.0000

          k =-0.0004-0.3546 0.3528 (  8046 PWs)   bands (ev):

   -17.3847 -17.3450 -17.3350 -17.3142 -17.3105 -17.2033 -17.1998 -17.1906
   -17.1861 -17.1681 -17.1674 -17.1646 -17.1576 -17.1505 -17.1435 -17.1391
   -17.1228 -17.1056 -17.0964 -17.0917 -17.0865 -17.0794 -17.0640 -17.0508
   -17.0470 -17.0353 -17.0333 -17.0174 -17.0097 -17.0069 -17.0005 -16.9972
   -16.9943 -16.9841 -16.9822 -16.8871 -16.8721 -16.8671 -16.8557 -16.8511
    -4.7509  -3.9514  -3.5073  -2.9308  -2.7385  -2.6085  -2.3091  -1.5443
    -0.4998   0.1787   0.3900   0.6967   1.0588   1.4580   1.7575   2.8789
     3.4032   3.4967   3.7285   3.8821   4.0969   4.1846   4.4540   4.6626
     4.9337   5.0493   5.1814   5.5712   5.5954   5.9404   6.0507   7.2676
     8.3627   8.8340   8.9964   9.2598   9.4209   9.6364   9.7352   9.8305
     9.9219  10.0512  10.2321  10.4410  10.6814  10.7584

     occupation numbers 
     1.0000   1.0000   1.0000   1.0000   1.0000   1.0000   1.0000   1.0000
     1.0000   1.0000   1.0000   1.0000   1.0000   1.0000   1.0000   1.0000
     1.0000   1.0000   1.0000   1.0000   1.0000   1.0000   1.0000   1.0000
     1.0000   1.0000   1.0000   1.0000   1.0000   1.0000   1.0000   1.0000
     1.0000   1.0000   1.0000   1.0000   1.0000   1.0000   1.0000   1.0000
     1.0000   1.0000   1.0000   1.0000   1.0000   1.0000   1.0000   1.0000
     1.0000   1.0000   1.0000   1.0000   1.0000   1.0000   1.0000   1.0000
     1.0000   1.0000   1.0000   1.0000   1.0000   1.0000   1.0000   1.0000
     1.0000   1.0000   1.0000   1.0000   1.0000   1.0000   1.0000   0.9533
     0.0000   0.0000   0.0000   0.0000   0.0000   0.0000   0.0000   0.0000
     0.0000   0.0000   0.0000   0.0000   0.0000   0.0000

          k =-0.3542 0.3575-0.3553 (  8014 PWs)   bands (ev):

   -17.3847 -17.3450 -17.3350 -17.3143 -17.3104 -17.2023 -17.2007 -17.1905
   -17.1859 -17.1681 -17.1676 -17.1644 -17.1579 -17.1504 -17.1434 -17.1391
   -17.1226 -17.1050 -17.0966 -17.0918 -17.0866 -17.0792 -17.0639 -17.0508
   -17.0471 -17.0353 -17.0333 -17.0174 -17.0098 -17.0066 -17.0004 -16.9972
   -16.9942 -16.9843 -16.9822 -16.8870 -16.8721 -16.8672 -16.8557 -16.8509
    -4.6050  -4.3436  -3.0369  -2.8175  -2.7058  -2.6668  -2.4182  -2.0984
     0.1733   0.1815   0.5050   0.6393   0.7892   1.0134   2.7702   2.8578
     3.1958   3.4019   3.4602   3.5055   3.8676   3.9725   4.6620   4.8872
     4.9140   4.9743   5.1979   5.3194   6.2058   6.6634   6.7310   6.7705
     8.2029   8.4270   8.4922   8.5169   8.7025   8.9722   8.9746   9.0684
    10.4910  10.8466  10.9457  11.0672  11.3970  11.4485

     occupation numbers 
     1.0000   1.0000   1.0000   1.0000   1.0000   1.0000   1.0000   1.0000
     1.0000   1.0000   1.0000   1.0000   1.0000   1.0000   1.0000   1.0000
     1.0000   1.0000   1.0000   1.0000   1.0000   1.0000   1.0000   1.0000
     1.0000   1.0000   1.0000   1.0000   1.0000   1.0000   1.0000   1.0000
     1.0000   1.0000   1.0000   1.0000   1.0000   1.0000   1.0000   1.0000
     1.0000   1.0000   1.0000   1.0000   1.0000   1.0000   1.0000   1.0000
     1.0000   1.0000   1.0000   1.0000   1.0000   1.0000   1.0000   1.0000
     1.0000   1.0000   1.0000   1.0000   1.0000   1.0000   1.0000   1.0000
     1.0000   1.0000   1.0000   1.0000   1.0000   1.0000   1.0000   1.0000
     0.0000   0.0000   0.0000   0.0000   0.0000   0.0000   0.0000   0.0000
     0.0000   0.0000   0.0000   0.0000   0.0000   0.0000

          k =-0.1766 0.5333-0.5305 (  8032 PWs)   bands (ev):

   -17.3847 -17.3449 -17.3349 -17.3142 -17.3105 -17.2022 -17.2007 -17.1907
   -17.1858 -17.1681 -17.1676 -17.1643 -17.1577 -17.1504 -17.1434 -17.1391
   -17.1230 -17.1050 -17.0966 -17.0917 -17.0865 -17.0791 -17.0640 -17.0508
   -17.0470 -17.0353 -17.0333 -17.0174 -17.0098 -17.0066 -17.0006 -16.9971
   -16.9942 -16.9841 -16.9821 -16.8872 -16.8720 -16.8672 -16.8557 -16.8509
    -4.5925  -4.0436  -3.4951  -3.1977  -3.0236  -2.4985  -1.9616  -1.7185
    -0.2881   0.0504   0.3105   0.9549   1.3128   1.8740   2.1422   2.9239
     3.0915   3.1038   3.4641   3.7595   4.0771   4.1581   4.2176   4.5595
     4.7846   4.9147   5.1419   5.2796   5.5443   6.0131   6.1816   6.7115
     8.4716   8.9227   9.1649   9.2974   9.4264   9.6974   9.8086   9.9307
    10.1264  10.2956  10.6456  10.6927  10.8357  11.2801

     occupation numbers 
     1.0000   1.0000   1.0000   1.0000   1.0000   1.0000   1.0000   1.0000
     1.0000   1.0000   1.0000   1.0000   1.0000   1.0000   1.0000   1.0000
     1.0000   1.0000   1.0000   1.0000   1.0000   1.0000   1.0000   1.0000
     1.0000   1.0000   1.0000   1.0000   1.0000   1.0000   1.0000   1.0000
     1.0000   1.0000   1.0000   1.0000   1.0000   1.0000   1.0000   1.0000
     1.0000   1.0000   1.0000   1.0000   1.0000   1.0000   1.0000   1.0000
     1.0000   1.0000   1.0000   1.0000   1.0000   1.0000   1.0000   1.0000
     1.0000   1.0000   1.0000   1.0000   1.0000   1.0000   1.0000   1.0000
     1.0000   1.0000   1.0000   1.0000   1.0000   1.0000   1.0000   1.0000
     0.0000   0.0000   0.0000   0.0000   0.0000   0.0000   0.0000   0.0000
     0.0000   0.0000   0.0000   0.0000   0.0000   0.0000

          k =-0.7092 0.0058-0.0049 (  8056 PWs)   bands (ev):

   -17.3845 -17.3447 -17.3348 -17.3140 -17.3105 -17.2019 -17.2005 -17.1907
   -17.1857 -17.1681 -17.1674 -17.1641 -17.1574 -17.1504 -17.1433 -17.1390
   -17.1230 -17.1050 -17.0965 -17.0914 -17.0864 -17.0790 -17.0638 -17.0506
   -17.0468 -17.0352 -17.0332 -17.0172 -17.0096 -17.0066 -17.0005 -16.9971
   -16.9941 -16.9841 -16.9818 -16.8870 -16.8718 -16.8671 -16.8556 -16.8507
    -4.4721  -3.9396  -3.5592  -3.3792  -3.1913  -2.8694  -1.5079  -1.3438
    -0.6811  -0.2574   1.1449   1.1985   1.2706   1.6722   2.9143   2.9931
     3.1435   3.2331   3.3222   3.4595   3.5529   3.5772   3.7015   3.8026
     5.0743   5.1301   5.4913   5.5702   5.6667   5.9538   6.0631   6.3336
     8.0718   8.3343   9.1255   9.2864   9.3795   9.8198   9.9925  10.3517
    11.2052  11.4029  11.4231  11.5014  11.6625  11.7178

     occupation numbers 
     1.0000   1.0000   1.0000   1.0000   1.0000   1.0000   1.0000   1.0000
     1.0000   1.0000   1.0000   1.0000   1.0000   1.0000   1.0000   1.0000
     1.0000   1.0000   1.0000   1.0000   1.0000   1.0000   1.0000   1.0000
     1.0000   1.0000   1.0000   1.0000   1.0000   1.0000   1.0000   1.0000
     1.0000   1.0000   1.0000   1.0000   1.0000   1.0000   1.0000   1.0000
     1.0000   1.0000   1.0000   1.0000   1.0000   1.0000   1.0000   1.0000
     1.0000   1.0000   1.0000   1.0000   1.0000   1.0000   1.0000   1.0000
     1.0000   1.0000   1.0000   1.0000   1.0000   1.0000   1.0000   1.0000
     1.0000   1.0000   1.0000   1.0000   1.0000   1.0000   1.0000   1.0000
     0.0000   0.0000   0.0000   0.0000   0.0000   0.0000   0.0000   0.0000
     0.0000   0.0000   0.0000   0.0000   0.0000   0.0000

          k =-0.1767 0.1772 0.1766 (  8029 PWs)   bands (ev):

   -17.3848 -17.3453 -17.3349 -17.3142 -17.3107 -17.2035 -17.2001 -17.1909
   -17.1862 -17.1684 -17.1675 -17.1646 -17.1578 -17.1506 -17.1434 -17.1390
   -17.1232 -17.1057 -17.0965 -17.0917 -17.0864 -17.0796 -17.0641 -17.0508
   -17.0471 -17.0353 -17.0334 -17.0175 -17.0097 -17.0068 -17.0007 -16.9971
   -16.9943 -16.9841 -16.9821 -16.8873 -16.8721 -16.8673 -16.8557 -16.8510
    -5.0535  -3.7339  -3.1579  -3.0472  -2.5428  -2.2027  -2.0142  -1.8216
    -0.3409  -0.2366  -0.0815   0.1124   0.3790   0.5965   1.2033   3.6995
     3.7727   3.8245   4.1870   4.4708   4.5910   4.7490   4.8695   5.1371
     5.2782   5.4243   5.6978   5.9049   6.0666   6.2117   6.9340   7.2080
     7.6251   8.0075   8.0791   8.2815   8.7505   8.8059   9.0545   9.1744
     9.2729   9.3518   9.4219  10.1403  10.2389  10.5078

     occupation numbers 
     1.0000   1.0000   1.0000   1.0000   1.0000   1.0000   1.0000   1.0000
     1.0000   1.0000   1.0000   1.0000   1.0000   1.0000   1.0000   1.0000
     1.0000   1.0000   1.0000   1.0000   1.0000   1.0000   1.0000   1.0000
     1.0000   1.0000   1.0000   1.0000   1.0000   1.0000   1.0000   1.0000
     1.0000   1.0000   1.0000   1.0000   1.0000   1.0000   1.0000   1.0000
     1.0000   1.0000   1.0000   1.0000   1.0000   1.0000   1.0000   1.0000
     1.0000   1.0000   1.0000   1.0000   1.0000   1.0000   1.0000   1.0000
     1.0000   1.0000   1.0000   1.0000   1.0000   1.0000   1.0000   1.0000
     1.0000   1.0000   1.0000   1.0000   1.0000   1.0000   1.0000   0.9817
     0.2119   0.0003   0.0000   0.0000   0.0000   0.0000   0.0000   0.0000
     0.0000   0.0000   0.0000   0.0000   0.0000   0.0000

          k = 0.0008 0.3530 0.0014 (  8041 PWs)   bands (ev):

   -17.3847 -17.3452 -17.3349 -17.3143 -17.3105 -17.2033 -17.1999 -17.1907
   -17.1862 -17.1682 -17.1675 -17.1645 -17.1577 -17.1506 -17.1434 -17.1389
   -17.1230 -17.1057 -17.0964 -17.0917 -17.0863 -17.0797 -17.0640 -17.0508
   -17.0472 -17.0352 -17.0332 -17.0174 -17.0098 -17.0068 -17.0005 -16.9971
   -16.9942 -16.9841 -16.9820 -16.8872 -16.8721 -16.8672 -16.8556 -16.8509
    -4.9876  -3.5539  -3.3142  -3.1438  -2.8161  -2.6982  -1.5845  -1.4553
    -0.6468  -0.4494   0.2339   0.4849   0.7572   0.8544   1.1161   3.5871
     3.6463   3.7549   3.7878   4.2464   4.5347   4.5975   4.6549   4.7736
     4.9258   5.4189   5.6673   5.9815   6.1124   6.3200   6.6526   6.7155
     7.7542   8.3833   8.7736   8.8418   9.0076   9.0577   9.1804   9.2745
     9.3512   9.4594   9.5895  10.4306  10.5535  10.6763

     occupation numbers 
     1.0000   1.0000   1.0000   1.0000   1.0000   1.0000   1.0000   1.0000
     1.0000   1.0000   1.0000   1.0000   1.0000   1.0000   1.0000   1.0000
     1.0000   1.0000   1.0000   1.0000   1.0000   1.0000   1.0000   1.0000
     1.0000   1.0000   1.0000   1.0000   1.0000   1.0000   1.0000   1.0000
     1.0000   1.0000   1.0000   1.0000   1.0000   1.0000   1.0000   1.0000
     1.0000   1.0000   1.0000   1.0000   1.0000   1.0000   1.0000   1.0000
     1.0000   1.0000   1.0000   1.0000   1.0000   1.0000   1.0000   1.0000
     1.0000   1.0000   1.0000   1.0000   1.0000   1.0000   1.0000   1.0000
     1.0000   1.0000   1.0000   1.0000   1.0000   1.0000   1.0000   1.0000
     0.0451   0.0000   0.0000   0.0000   0.0000   0.0000   0.0000   0.0000
     0.0000   0.0000   0.0000   0.0000   0.0000   0.0000

          k =-0.5317-0.1744 0.5269 (  8047 PWs)   bands (ev):

   -17.3845 -17.3451 -17.3348 -17.3142 -17.3105 -17.2032 -17.1997 -17.1905
   -17.1861 -17.1681 -17.1674 -17.1644 -17.1574 -17.1505 -17.1434 -17.1390
   -17.1228 -17.1056 -17.0963 -17.0916 -17.0864 -17.0795 -17.0640 -17.0508
   -17.0470 -17.0352 -17.0332 -17.0172 -17.0097 -17.0068 -17.0005 -16.9971
   -16.9943 -16.9841 -16.9820 -16.8871 -16.8720 -16.8671 -16.8557 -16.8510
    -4.5957  -4.0770  -3.5665  -3.1302  -2.8860  -2.5220  -1.9758  -1.7522
    -0.2187   0.0065   0.4433   0.8103   1.0368   1.9342   2.1870   2.9621
     3.0621   3.3340   3.4674   3.6433   3.7714   4.1512   4.2553   4.4845
     4.8443   5.0093   5.2038   5.5255   5.6930   5.9301   6.2631   6.6181
     8.4228   8.9038   9.1363   9.3257   9.5115   9.6484   9.7415   9.9377
    10.2820  10.3402  10.7631  10.9314  11.1139  11.2095

     occupation numbers 
     1.0000   1.0000   1.0000   1.0000   1.0000   1.0000   1.0000   1.0000
     1.0000   1.0000   1.0000   1.0000   1.0000   1.0000   1.0000   1.0000
     1.0000   1.0000   1.0000   1.0000   1.0000   1.0000   1.0000   1.0000
     1.0000   1.0000   1.0000   1.0000   1.0000   1.0000   1.0000   1.0000
     1.0000   1.0000   1.0000   1.0000   1.0000   1.0000   1.0000   1.0000
     1.0000   1.0000   1.0000   1.0000   1.0000   1.0000   1.0000   1.0000
     1.0000   1.0000   1.0000   1.0000   1.0000   1.0000   1.0000   1.0000
     1.0000   1.0000   1.0000   1.0000   1.0000   1.0000   1.0000   1.0000
     1.0000   1.0000   1.0000   1.0000   1.0000   1.0000   1.0000   1.0000
     0.0000   0.0000   0.0000   0.0000   0.0000   0.0000   0.0000   0.0000
     0.0000   0.0000   0.0000   0.0000   0.0000   0.0000

          k =-0.3542 0.0014 0.3518 (  8035 PWs)   bands (ev):

   -17.3847 -17.3451 -17.3349 -17.3141 -17.3107 -17.2033 -17.1998 -17.1907
   -17.1860 -17.1683 -17.1673 -17.1646 -17.1576 -17.1505 -17.1434 -17.1391
   -17.1230 -17.1056 -17.0964 -17.0916 -17.0865 -17.0794 -17.0639 -17.0508
   -17.0469 -17.0352 -17.0334 -17.0174 -17.0096 -17.0068 -17.0006 -16.9971
   -16.9944 -16.9841 -16.9821 -16.8871 -16.8720 -16.8672 -16.8558 -16.8510
    -4.7662  -3.9038  -3.6609  -2.8732  -2.6791  -2.4204  -2.2388  -1.7481
    -0.3483  -0.0228   0.1919   0.6722   0.9146   1.5102   1.7965   2.9320
     3.4737   3.6371   3.8304   3.8966   4.2875   4.4012   4.4761   4.7316
     4.8258   5.0469   5.2836   5.4038   5.6061   5.8060   6.0053   7.0674
     8.2592   8.8423   8.9521   9.1820   9.2831   9.5509   9.6893   9.8498
    10.0250  10.0616  10.1279  10.3689  10.5822  10.6964

     occupation numbers 
     1.0000   1.0000   1.0000   1.0000   1.0000   1.0000   1.0000   1.0000
     1.0000   1.0000   1.0000   1.0000   1.0000   1.0000   1.0000   1.0000
     1.0000   1.0000   1.0000   1.0000   1.0000   1.0000   1.0000   1.0000
     1.0000   1.0000   1.0000   1.0000   1.0000   1.0000   1.0000   1.0000
     1.0000   1.0000   1.0000   1.0000   1.0000   1.0000   1.0000   1.0000
     1.0000   1.0000   1.0000   1.0000   1.0000   1.0000   1.0000   1.0000
     1.0000   1.0000   1.0000   1.0000   1.0000   1.0000   1.0000   1.0000
     1.0000   1.0000   1.0000   1.0000   1.0000   1.0000   1.0000   1.0000
     1.0000   1.0000   1.0000   1.0000   1.0000   1.0000   1.0000   0.9989
     0.0000   0.0000   0.0000   0.0000   0.0000   0.0000   0.0000   0.0000
     0.0000   0.0000   0.0000   0.0000   0.0000   0.0000

          k = 0.0004-0.0015 0.3542 (  8040 PWs)   bands (ev):

   -17.3848 -17.3452 -17.3349 -17.3142 -17.3107 -17.2041 -17.1995 -17.1907
   -17.1862 -17.1682 -17.1673 -17.1648 -17.1577 -17.1506 -17.1433 -17.1389
   -17.1232 -17.1059 -17.0961 -17.0917 -17.0864 -17.0793 -17.0639 -17.0508
   -17.0469 -17.0354 -17.0334 -17.0175 -17.0097 -17.0069 -17.0006 -16.9971
   -16.9944 -16.9841 -16.9822 -16.8872 -16.8722 -16.8672 -16.8556 -16.8510
    -4.9900  -3.5210  -3.3020  -3.1948  -2.8839  -2.5808  -1.6662  -1.4031
    -0.7413  -0.4575   0.3202   0.5194   0.6754   0.8232   1.2166   3.6405
     3.6952   3.7548   3.8115   4.3164   4.4337   4.5778   4.6834   4.7610
     4.9383   5.5062   5.5667   5.8811   6.0196   6.1916   6.6415   6.8215
     7.7213   8.4135   8.8059   8.8713   8.9905   9.0691   9.1595   9.2290
     9.3776   9.4895   9.5864  10.4890  10.6175  10.7285

     occupation numbers 
     1.0000   1.0000   1.0000   1.0000   1.0000   1.0000   1.0000   1.0000
     1.0000   1.0000   1.0000   1.0000   1.0000   1.0000   1.0000   1.0000
     1.0000   1.0000   1.0000   1.0000   1.0000   1.0000   1.0000   1.0000
     1.0000   1.0000   1.0000   1.0000   1.0000   1.0000   1.0000   1.0000
     1.0000   1.0000   1.0000   1.0000   1.0000   1.0000   1.0000   1.0000
     1.0000   1.0000   1.0000   1.0000   1.0000   1.0000   1.0000   1.0000
     1.0000   1.0000   1.0000   1.0000   1.0000   1.0000   1.0000   1.0000
     1.0000   1.0000   1.0000   1.0000   1.0000   1.0000   1.0000   1.0000
     1.0000   1.0000   1.0000   1.0000   1.0000   1.0000   1.0000   1.0000
     0.0712   0.0000   0.0000   0.0000   0.0000   0.0000   0.0000   0.0000
     0.0000   0.0000   0.0000   0.0000   0.0000   0.0000

          k = 0.1779 0.1743 0.1790 (  8020 PWs)   bands (ev):

   -17.3848 -17.3451 -17.3349 -17.3144 -17.3108 -17.2041 -17.1995 -17.1909
   -17.1862 -17.1684 -17.1675 -17.1647 -17.1576 -17.1507 -17.1434 -17.1389
   -17.1234 -17.1059 -17.0961 -17.0917 -17.0865 -17.0795 -17.0640 -17.0508
   -17.0472 -17.0354 -17.0333 -17.0174 -17.0098 -17.0068 -17.0007 -16.9972
   -16.9944 -16.9841 -16.9821 -16.8873 -16.8721 -16.8673 -16.8557 -16.8510
    -5.0520  -3.6852  -3.1796  -3.0468  -2.6875  -2.1638  -2.0244  -1.7690
    -0.4064  -0.2039  -0.0264   0.2301   0.4257   0.6268   1.1047   3.5603
     3.6839   3.8016   4.3285   4.4121   4.4867   4.7285   4.8434   5.0373
     5.4517   5.5262   5.6769   5.7397   6.0683   6.2242   7.0722   7.3468
     7.8570   7.9154   8.1351   8.2166   8.8164   8.9164   9.0003   9.0823
     9.1864   9.3717   9.4329  10.0049  10.1449  10.5287

     occupation numbers 
     1.0000   1.0000   1.0000   1.0000   1.0000   1.0000   1.0000   1.0000
     1.0000   1.0000   1.0000   1.0000   1.0000   1.0000   1.0000   1.0000
     1.0000   1.0000   1.0000   1.0000   1.0000   1.0000   1.0000   1.0000
     1.0000   1.0000   1.0000   1.0000   1.0000   1.0000   1.0000   1.0000
     1.0000   1.0000   1.0000   1.0000   1.0000   1.0000   1.0000   1.0000
     1.0000   1.0000   1.0000   1.0000   1.0000   1.0000   1.0000   1.0000
     1.0000   1.0000   1.0000   1.0000   1.0000   1.0000   1.0000   1.0000
     1.0000   1.0000   1.0000   1.0000   1.0000   1.0000   1.0000   1.0000
     1.0000   1.0000   1.0000   1.0000   1.0000   1.0000   0.9988   0.8705
     0.0080   0.0025   0.0000   0.0000   0.0000   0.0000   0.0000   0.0000
     0.0000   0.0000   0.0000   0.0000   0.0000   0.0000

          k =-0.3546-0.3532 0.7046 (  8036 PWs)   bands (ev):

   -17.3846 -17.3450 -17.3349 -17.3143 -17.3106 -17.2039 -17.1993 -17.1907
   -17.1861 -17.1684 -17.1674 -17.1645 -17.1574 -17.1506 -17.1434 -17.1389
   -17.1232 -17.1058 -17.0961 -17.0917 -17.0864 -17.0794 -17.0639 -17.0507
   -17.0471 -17.0353 -17.0333 -17.0173 -17.0098 -17.0068 -17.0006 -16.9972
   -16.9944 -16.9842 -16.9819 -16.8871 -16.8720 -16.8672 -16.8558 -16.8509
    -4.7621  -3.9212  -3.5884  -2.8943  -2.7742  -2.4886  -2.2274  -1.6451
    -0.3517  -0.1203   0.3324   0.7823   1.0140   1.4492   1.7382   2.8267
     3.3936   3.5345   3.8340   3.9404   4.2528   4.3237   4.4835   4.7483
     4.9010   5.0670   5.2134   5.4696   5.5595   5.7914   6.0391   7.2294
     8.3078   8.9123   8.9977   9.1172   9.2920   9.6070   9.7309   9.7678
     9.9782  10.1547  10.3389  10.4427  10.5749  10.6352

     occupation numbers 
     1.0000   1.0000   1.0000   1.0000   1.0000   1.0000   1.0000   1.0000
     1.0000   1.0000   1.0000   1.0000   1.0000   1.0000   1.0000   1.0000
     1.0000   1.0000   1.0000   1.0000   1.0000   1.0000   1.0000   1.0000
     1.0000   1.0000   1.0000   1.0000   1.0000   1.0000   1.0000   1.0000
     1.0000   1.0000   1.0000   1.0000   1.0000   1.0000   1.0000   1.0000
     1.0000   1.0000   1.0000   1.0000   1.0000   1.0000   1.0000   1.0000
     1.0000   1.0000   1.0000   1.0000   1.0000   1.0000   1.0000   1.0000
     1.0000   1.0000   1.0000   1.0000   1.0000   1.0000   1.0000   1.0000
     1.0000   1.0000   1.0000   1.0000   1.0000   1.0000   1.0000   0.9739
     0.0000   0.0000   0.0000   0.0000   0.0000   0.0000   0.0000   0.0000
     0.0000   0.0000   0.0000   0.0000   0.0000   0.0000

          k =-0.1771-0.1774 0.5294 (  8039 PWs)   bands (ev):

   -17.3846 -17.3450 -17.3348 -17.3140 -17.3105 -17.2039 -17.1993 -17.1905
   -17.1860 -17.1681 -17.1670 -17.1646 -17.1575 -17.1505 -17.1433 -17.1389
   -17.1230 -17.1058 -17.0961 -17.0916 -17.0864 -17.0792 -17.0639 -17.0507
   -17.0468 -17.0353 -17.0333 -17.0174 -17.0095 -17.0068 -17.0006 -16.9972
   -16.9944 -16.9841 -16.9820 -16.8871 -16.8720 -16.8670 -16.8557 -16.8510
    -4.6036  -4.0758  -3.4994  -3.1368  -3.0239  -2.3582  -2.0202  -1.7899
    -0.3046   0.0460   0.2891   0.9848   1.1990   1.7848   2.2029   2.9630
     3.0622   3.2058   3.5692   3.7693   3.9553   4.0974   4.2854   4.5279
     4.7721   4.9694   5.1230   5.4097   5.4796   6.0126   6.1923   6.7258
     8.4511   8.8327   9.1168   9.3308   9.6215   9.6500   9.8837  10.0598
    10.2089  10.4159  10.6083  10.7200  10.9680  11.2508

     occupation numbers 
     1.0000   1.0000   1.0000   1.0000   1.0000   1.0000   1.0000   1.0000
     1.0000   1.0000   1.0000   1.0000   1.0000   1.0000   1.0000   1.0000
     1.0000   1.0000   1.0000   1.0000   1.0000   1.0000   1.0000   1.0000
     1.0000   1.0000   1.0000   1.0000   1.0000   1.0000   1.0000   1.0000
     1.0000   1.0000   1.0000   1.0000   1.0000   1.0000   1.0000   1.0000
     1.0000   1.0000   1.0000   1.0000   1.0000   1.0000   1.0000   1.0000
     1.0000   1.0000   1.0000   1.0000   1.0000   1.0000   1.0000   1.0000
     1.0000   1.0000   1.0000   1.0000   1.0000   1.0000   1.0000   1.0000
     1.0000   1.0000   1.0000   1.0000   1.0000   1.0000   1.0000   1.0000
     0.0000   0.0000   0.0000   0.0000   0.0000   0.0000   0.0000   0.0000
     0.0000   0.0000   0.0000   0.0000   0.0000   0.0000

          k =-0.5308 0.5347-0.1787 (  8036 PWs)   bands (ev):

   -17.3846 -17.3450 -17.3348 -17.3142 -17.3105 -17.2033 -17.1999 -17.1905
   -17.1860 -17.1682 -17.1673 -17.1645 -17.1577 -17.1504 -17.1434 -17.1390
   -17.1228 -17.1054 -17.0963 -17.0917 -17.0864 -17.0791 -17.0639 -17.0508
   -17.0469 -17.0354 -17.0334 -17.0174 -17.0097 -17.0068 -17.0005 -16.9972
   -16.9943 -16.9842 -16.9821 -16.8871 -16.8721 -16.8671 -16.8557 -16.8510
    -4.5835  -4.0629  -3.5607  -3.1843  -2.8755  -2.4873  -2.0962  -1.7071
    -0.2140  -0.0329   0.4548   0.8829   1.0862   1.9858   2.2246   2.9554
     3.0755   3.3330   3.4852   3.6916   3.8294   4.1580   4.2433   4.4608
     4.7734   4.9476   5.1438   5.3628   5.7090   5.9316   6.2625   6.5215
     8.3614   8.8141   9.1227   9.3333   9.5186   9.6599   9.8029   9.8949
    10.2759  10.3490  10.7437  10.9824  11.0863  11.2757

     occupation numbers 
     1.0000   1.0000   1.0000   1.0000   1.0000   1.0000   1.0000   1.0000
     1.0000   1.0000   1.0000   1.0000   1.0000   1.0000   1.0000   1.0000
     1.0000   1.0000   1.0000   1.0000   1.0000   1.0000   1.0000   1.0000
     1.0000   1.0000   1.0000   1.0000   1.0000   1.0000   1.0000   1.0000
     1.0000   1.0000   1.0000   1.0000   1.0000   1.0000   1.0000   1.0000
     1.0000   1.0000   1.0000   1.0000   1.0000   1.0000   1.0000   1.0000
     1.0000   1.0000   1.0000   1.0000   1.0000   1.0000   1.0000   1.0000
     1.0000   1.0000   1.0000   1.0000   1.0000   1.0000   1.0000   1.0000
     1.0000   1.0000   1.0000   1.0000   1.0000   1.0000   1.0000   1.0000
     0.0000   0.0000   0.0000   0.0000   0.0000   0.0000   0.0000   0.0000
     0.0000   0.0000   0.0000   0.0000   0.0000   0.0000

          k =-0.3533 0.7105-0.3539 (  8039 PWs)   bands (ev):

   -17.3846 -17.3450 -17.3349 -17.3143 -17.3107 -17.2033 -17.1999 -17.1907
   -17.1860 -17.1683 -17.1675 -17.1646 -17.1577 -17.1505 -17.1433 -17.1390
   -17.1231 -17.1054 -17.0963 -17.0917 -17.0865 -17.0792 -17.0640 -17.0509
   -17.0471 -17.0354 -17.0332 -17.0174 -17.0098 -17.0067 -17.0007 -16.9972
   -16.9944 -16.9842 -16.9821 -16.8872 -16.8721 -16.8672 -16.8557 -16.8510
    -4.7505  -3.8815  -3.6258  -2.9436  -2.7896  -2.5236  -2.1830  -1.6105
    -0.4650  -0.0176   0.3790   0.6867   1.0914   1.5346   1.7558   2.8489
     3.4552   3.5595   3.7092   3.8757   4.2097   4.3303   4.4244   4.7362
     4.9442   5.0601   5.2086   5.4785   5.5703   5.7106   6.1210   7.1961
     8.2752   8.8263   9.0191   9.1289   9.2849   9.6101   9.6539   9.7966
     9.9030  10.0758  10.2782  10.4071  10.5458  10.6496

     occupation numbers 
     1.0000   1.0000   1.0000   1.0000   1.0000   1.0000   1.0000   1.0000
     1.0000   1.0000   1.0000   1.0000   1.0000   1.0000   1.0000   1.0000
     1.0000   1.0000   1.0000   1.0000   1.0000   1.0000   1.0000   1.0000
     1.0000   1.0000   1.0000   1.0000   1.0000   1.0000   1.0000   1.0000
     1.0000   1.0000   1.0000   1.0000   1.0000   1.0000   1.0000   1.0000
     1.0000   1.0000   1.0000   1.0000   1.0000   1.0000   1.0000   1.0000
     1.0000   1.0000   1.0000   1.0000   1.0000   1.0000   1.0000   1.0000
     1.0000   1.0000   1.0000   1.0000   1.0000   1.0000   1.0000   1.0000
     1.0000   1.0000   1.0000   1.0000   1.0000   1.0000   1.0000   0.9851
     0.0000   0.0000   0.0000   0.0000   0.0000   0.0000   0.0000   0.0000
     0.0000   0.0000   0.0000   0.0000   0.0000   0.0000

          k =-0.8859 0.1831 0.1716 (  8042 PWs)   bands (ev):

   -17.3847 -17.3448 -17.3348 -17.3142 -17.3106 -17.2031 -17.1997 -17.1908
   -17.1859 -17.1682 -17.1675 -17.1644 -17.1575 -17.1506 -17.1434 -17.1390
   -17.1232 -17.1055 -17.0963 -17.0916 -17.0864 -17.0791 -17.0638 -17.0508
   -17.0470 -17.0353 -17.0332 -17.0174 -17.0098 -17.0067 -17.0006 -16.9972
   -16.9943 -16.9841 -16.9820 -16.8871 -16.8720 -16.8672 -16.8557 -16.8509
    -4.6084  -4.0364  -3.5213  -3.2229  -2.9168  -2.5400  -1.9098  -1.6775
    -0.3155  -0.1148   0.4609   0.9276   0.9707   1.8796   2.2446   2.9934
     3.1258   3.2988   3.4876   3.7401   4.0584   4.1777   4.2475   4.5506
     4.7214   4.9869   5.1705   5.4065   5.7037   5.9287   6.0656   6.5790
     8.3408   8.7270   9.1052   9.2940   9.4118   9.5475   9.7479   9.9811
    10.2006  10.4783  10.7565  10.8563  11.0175  11.2435

     occupation numbers 
     1.0000   1.0000   1.0000   1.0000   1.0000   1.0000   1.0000   1.0000
     1.0000   1.0000   1.0000   1.0000   1.0000   1.0000   1.0000   1.0000
     1.0000   1.0000   1.0000   1.0000   1.0000   1.0000   1.0000   1.0000
     1.0000   1.0000   1.0000   1.0000   1.0000   1.0000   1.0000   1.0000
     1.0000   1.0000   1.0000   1.0000   1.0000   1.0000   1.0000   1.0000
     1.0000   1.0000   1.0000   1.0000   1.0000   1.0000   1.0000   1.0000
     1.0000   1.0000   1.0000   1.0000   1.0000   1.0000   1.0000   1.0000
     1.0000   1.0000   1.0000   1.0000   1.0000   1.0000   1.0000   1.0000
     1.0000   1.0000   1.0000   1.0000   1.0000   1.0000   1.0000   1.0000
     0.0000   0.0000   0.0000   0.0000   0.0000   0.0000   0.0000   0.0000
     0.0000   0.0000   0.0000   0.0000   0.0000   0.0000

          k =-0.7084 0.3589-0.0035 (  8052 PWs)   bands (ev):

   -17.3847 -17.3449 -17.3348 -17.3141 -17.3105 -17.2033 -17.1998 -17.1907
   -17.1859 -17.1681 -17.1673 -17.1644 -17.1576 -17.1505 -17.1434 -17.1389
   -17.1231 -17.1054 -17.0963 -17.0916 -17.0863 -17.0790 -17.0639 -17.0507
   -17.0468 -17.0354 -17.0334 -17.0174 -17.0097 -17.0068 -17.0006 -16.9972
   -16.9942 -16.9841 -16.9820 -16.8871 -16.8721 -16.8672 -16.8556 -16.8509
    -4.3584  -4.0367  -3.7606  -3.6520  -2.5079  -2.4091  -2.1789  -1.7967
    -0.1278   0.2081   0.3896   0.5036   2.2245   2.3031   2.4292   2.6319
     2.8824   3.0703   3.1777   3.3125   4.1897   4.2763   4.3590   4.4327
     4.5045   4.6355   4.8561   5.0173   5.5363   5.8240   6.0024   6.1949
     9.2630   9.3480   9.4985   9.6855   9.7722   9.8808  10.0649  10.1061
    10.4959  10.5587  10.6967  10.7622  11.3063  11.4553

     occupation numbers 
     1.0000   1.0000   1.0000   1.0000   1.0000   1.0000   1.0000   1.0000
     1.0000   1.0000   1.0000   1.0000   1.0000   1.0000   1.0000   1.0000
     1.0000   1.0000   1.0000   1.0000   1.0000   1.0000   1.0000   1.0000
     1.0000   1.0000   1.0000   1.0000   1.0000   1.0000   1.0000   1.0000
     1.0000   1.0000   1.0000   1.0000   1.0000   1.0000   1.0000   1.0000
     1.0000   1.0000   1.0000   1.0000   1.0000   1.0000   1.0000   1.0000
     1.0000   1.0000   1.0000   1.0000   1.0000   1.0000   1.0000   1.0000
     1.0000   1.0000   1.0000   1.0000   1.0000   1.0000   1.0000   1.0000
     1.0000   1.0000   1.0000   1.0000   1.0000   1.0000   1.0000   1.0000
     0.0000   0.0000   0.0000   0.0000   0.0000   0.0000   0.0000   0.0000
     0.0000   0.0000   0.0000   0.0000   0.0000   0.0000

          k =-0.3538 0.3560-0.0011 (  8048 PWs)   bands (ev):

   -17.3847 -17.3451 -17.3349 -17.3142 -17.3105 -17.2023 -17.2008 -17.1907
   -17.1860 -17.1682 -17.1676 -17.1644 -17.1578 -17.1504 -17.1435 -17.1390
   -17.1229 -17.1052 -17.0966 -17.0917 -17.0864 -17.0793 -17.0640 -17.0508
   -17.0471 -17.0353 -17.0333 -17.0174 -17.0097 -17.0067 -17.0006 -16.9972
   -16.9941 -16.9842 -16.9821 -16.8872 -16.8721 -16.8672 -16.8558 -16.8509
    -4.7500  -3.9359  -3.6215  -2.8477  -2.6825  -2.5072  -2.3161  -1.6767
    -0.2664  -0.0051   0.1089   0.7153   0.9491   1.5465   1.8266   2.8930
     3.4526   3.6142   3.8215   3.8972   4.2253   4.4945   4.5602   4.6480
     4.8650   5.0177   5.2854   5.4506   5.5768   5.6994   5.9368   7.0386
     8.1484   8.8738   9.0723   9.1064   9.2438   9.4881   9.6153   9.9199
    10.0082  10.0967  10.2148  10.4162  10.5092  10.7122

     occupation numbers 
     1.0000   1.0000   1.0000   1.0000   1.0000   1.0000   1.0000   1.0000
     1.0000   1.0000   1.0000   1.0000   1.0000   1.0000   1.0000   1.0000
     1.0000   1.0000   1.0000   1.0000   1.0000   1.0000   1.0000   1.0000
     1.0000   1.0000   1.0000   1.0000   1.0000   1.0000   1.0000   1.0000
     1.0000   1.0000   1.0000   1.0000   1.0000   1.0000   1.0000   1.0000
     1.0000   1.0000   1.0000   1.0000   1.0000   1.0000   1.0000   1.0000
     1.0000   1.0000   1.0000   1.0000   1.0000   1.0000   1.0000   1.0000
     1.0000   1.0000   1.0000   1.0000   1.0000   1.0000   1.0000   1.0000
     1.0000   1.0000   1.0000   1.0000   1.0000   1.0000   1.0000   0.9995
     0.0000   0.0000   0.0000   0.0000   0.0000   0.0000   0.0000   0.0000
     0.0000   0.0000   0.0000   0.0000   0.0000   0.0000

          k =-0.1763 0.5318-0.1763 (  8037 PWs)   bands (ev):

   -17.3846 -17.3451 -17.3348 -17.3143 -17.3104 -17.2023 -17.2006 -17.1905
   -17.1860 -17.1681 -17.1676 -17.1644 -17.1577 -17.1504 -17.1435 -17.1390
   -17.1226 -17.1053 -17.0966 -17.0916 -17.0864 -17.0795 -17.0640 -17.0508
   -17.0471 -17.0352 -17.0333 -17.0173 -17.0097 -17.0067 -17.0004 -16.9972
   -16.9941 -16.9841 -16.9821 -16.8871 -16.8721 -16.8671 -16.8557 -16.8510
    -4.5771  -4.0733  -3.5299  -3.1831  -3.0184  -2.3783  -2.0144  -1.7575
    -0.2782   0.0984   0.3237   0.8689   1.3015   1.8084   2.1998   2.9537
     3.0447   3.1250   3.5594   3.7211   3.9154   4.1365   4.2539   4.5108
     4.7419   5.0455   5.1705   5.3949   5.5831   6.0056   6.1787   6.6674
     8.4570   8.8307   9.0230   9.3412   9.4946   9.6677   9.8297  10.0394
    10.2657  10.3679  10.6473  10.7927  10.9864  11.2305

     occupation numbers 
     1.0000   1.0000   1.0000   1.0000   1.0000   1.0000   1.0000   1.0000
     1.0000   1.0000   1.0000   1.0000   1.0000   1.0000   1.0000   1.0000
     1.0000   1.0000   1.0000   1.0000   1.0000   1.0000   1.0000   1.0000
     1.0000   1.0000   1.0000   1.0000   1.0000   1.0000   1.0000   1.0000
     1.0000   1.0000   1.0000   1.0000   1.0000   1.0000   1.0000   1.0000
     1.0000   1.0000   1.0000   1.0000   1.0000   1.0000   1.0000   1.0000
     1.0000   1.0000   1.0000   1.0000   1.0000   1.0000   1.0000   1.0000
     1.0000   1.0000   1.0000   1.0000   1.0000   1.0000   1.0000   1.0000
     1.0000   1.0000   1.0000   1.0000   1.0000   1.0000   1.0000   1.0000
     0.0000   0.0000   0.0000   0.0000   0.0000   0.0000   0.0000   0.0000
     0.0000   0.0000   0.0000   0.0000   0.0000   0.0000

          k =-0.7088 0.0043 0.3493 (  8047 PWs)   bands (ev):

   -17.3846 -17.3449 -17.3348 -17.3142 -17.3105 -17.2021 -17.2006 -17.1907
   -17.1859 -17.1681 -17.1676 -17.1643 -17.1575 -17.1505 -17.1434 -17.1390
   -17.1229 -17.1053 -17.0966 -17.0916 -17.0863 -17.0794 -17.0640 -17.0508
   -17.0470 -17.0352 -17.0333 -17.0173 -17.0098 -17.0067 -17.0005 -16.9971
   -16.9942 -16.9840 -16.9820 -16.8872 -16.8720 -16.8672 -16.8556 -16.8509
    -4.3507  -4.0149  -3.8144  -3.6341  -2.6511  -2.3485  -2.0316  -1.8120
    -0.1879   0.2066   0.4242   0.5296   2.1377   2.3012   2.4763   2.5960
     2.8524   3.0405   3.1547   3.2858   4.1920   4.2034   4.3789   4.4350
     4.5592   4.6899   4.8935   5.0964   5.5710   5.8160   6.0949   6.1171
     9.1996   9.3793   9.5601   9.6596   9.7450   9.9109  10.0624  10.1991
    10.4481  10.5283  10.6853  10.8686  11.2982  11.4373

     occupation numbers 
     1.0000   1.0000   1.0000   1.0000   1.0000   1.0000   1.0000   1.0000
     1.0000   1.0000   1.0000   1.0000   1.0000   1.0000   1.0000   1.0000
     1.0000   1.0000   1.0000   1.0000   1.0000   1.0000   1.0000   1.0000
     1.0000   1.0000   1.0000   1.0000   1.0000   1.0000   1.0000   1.0000
     1.0000   1.0000   1.0000   1.0000   1.0000   1.0000   1.0000   1.0000
     1.0000   1.0000   1.0000   1.0000   1.0000   1.0000   1.0000   1.0000
     1.0000   1.0000   1.0000   1.0000   1.0000   1.0000   1.0000   1.0000
     1.0000   1.0000   1.0000   1.0000   1.0000   1.0000   1.0000   1.0000
     1.0000   1.0000   1.0000   1.0000   1.0000   1.0000   1.0000   1.0000
     0.0000   0.0000   0.0000   0.0000   0.0000   0.0000   0.0000   0.0000
     0.0000   0.0000   0.0000   0.0000   0.0000   0.0000

          k =-0.5313 0.1801 0.1741 (  8043 PWs)   bands (ev):

   -17.3847 -17.3450 -17.3349 -17.3141 -17.3105 -17.2022 -17.2006 -17.1908
   -17.1859 -17.1681 -17.1676 -17.1643 -17.1577 -17.1504 -17.1434 -17.1390
   -17.1231 -17.1052 -17.0966 -17.0916 -17.0864 -17.0793 -17.0639 -17.0507
   -17.0469 -17.0352 -17.0333 -17.0173 -17.0097 -17.0067 -17.0006 -16.9971
   -16.9941 -16.9841 -16.9820 -16.8871 -16.8720 -16.8672 -16.8557 -16.8509
    -4.6057  -4.0869  -3.4679  -3.2142  -2.9504  -2.4092  -1.9650  -1.7236
    -0.2728  -0.0618   0.2916   0.8692   0.9062   1.8131   2.3952   3.0567
     3.1725   3.3132   3.6957   3.8513   4.0256   4.0822   4.1732   4.5809
     4.6906   5.0808   5.1652   5.3413   5.6900   5.9421   6.0567   6.4243
     8.3030   8.6847   9.0588   9.2478   9.3489   9.5442   9.8864   9.9144
    10.1845  10.4922  10.5784  10.9473  11.0581  11.1354

     occupation numbers 
     1.0000   1.0000   1.0000   1.0000   1.0000   1.0000   1.0000   1.0000
     1.0000   1.0000   1.0000   1.0000   1.0000   1.0000   1.0000   1.0000
     1.0000   1.0000   1.0000   1.0000   1.0000   1.0000   1.0000   1.0000
     1.0000   1.0000   1.0000   1.0000   1.0000   1.0000   1.0000   1.0000
     1.0000   1.0000   1.0000   1.0000   1.0000   1.0000   1.0000   1.0000
     1.0000   1.0000   1.0000   1.0000   1.0000   1.0000   1.0000   1.0000
     1.0000   1.0000   1.0000   1.0000   1.0000   1.0000   1.0000   1.0000
     1.0000   1.0000   1.0000   1.0000   1.0000   1.0000   1.0000   1.0000
     1.0000   1.0000   1.0000   1.0000   1.0000   1.0000   1.0000   1.0000
     0.0000   0.0000   0.0000   0.0000   0.0000   0.0000   0.0000   0.0000
     0.0000   0.0000   0.0000   0.0000   0.0000   0.0000

          k = 0.3534-0.3544-0.3531 (  8046 PWs)   bands (ev):

   -17.3846 -17.3452 -17.3348 -17.3141 -17.3106 -17.2023 -17.2006 -17.1907
   -17.1862 -17.1682 -17.1676 -17.1645 -17.1578 -17.1504 -17.1435 -17.1389
   -17.1231 -17.1054 -17.0965 -17.0916 -17.0863 -17.0795 -17.0640 -17.0508
   -17.0470 -17.0352 -17.0333 -17.0174 -17.0097 -17.0068 -17.0006 -16.9972
   -16.9942 -16.9841 -16.9822 -16.8870 -16.8721 -16.8672 -16.8557 -16.8510
    -4.6266  -4.3864  -3.0697  -2.8209  -2.6773  -2.3950  -2.3048  -2.1568
    -0.0177   0.1594   0.2690   0.4544   0.5525   0.9040   2.9489   3.0702
     3.4974   3.5692   3.6880   3.8439   3.9436   4.1293   4.5529   4.8678
     4.9240   5.0190   5.0791   5.1888   6.2093   6.3398   6.5908   6.9474
     8.0327   8.2365   8.3675   8.5295   8.6294   8.8202   8.8518   8.9755
    10.4752  10.6692  10.8363  11.2054  11.2747  11.3063

     occupation numbers 
     1.0000   1.0000   1.0000   1.0000   1.0000   1.0000   1.0000   1.0000
     1.0000   1.0000   1.0000   1.0000   1.0000   1.0000   1.0000   1.0000
     1.0000   1.0000   1.0000   1.0000   1.0000   1.0000   1.0000   1.0000
     1.0000   1.0000   1.0000   1.0000   1.0000   1.0000   1.0000   1.0000
     1.0000   1.0000   1.0000   1.0000   1.0000   1.0000   1.0000   1.0000
     1.0000   1.0000   1.0000   1.0000   1.0000   1.0000   1.0000   1.0000
     1.0000   1.0000   1.0000   1.0000   1.0000   1.0000   1.0000   1.0000
     1.0000   1.0000   1.0000   1.0000   1.0000   1.0000   1.0000   1.0000
     1.0000   1.0000   1.0000   1.0000   1.0000   1.0000   1.0000   1.0000
     0.0001   0.0000   0.0000   0.0000   0.0000   0.0000   0.0000   0.0000
     0.0000   0.0000   0.0000   0.0000   0.0000   0.0000

          k = 0.5309-0.1786-0.5283 (  8050 PWs)   bands (ev):

   -17.3846 -17.3451 -17.3347 -17.3142 -17.3105 -17.2023 -17.2006 -17.1906
   -17.1861 -17.1681 -17.1676 -17.1644 -17.1577 -17.1504 -17.1435 -17.1389
   -17.1229 -17.1053 -17.0966 -17.0916 -17.0863 -17.0795 -17.0640 -17.0508
   -17.0471 -17.0352 -17.0333 -17.0173 -17.0097 -17.0067 -17.0005 -16.9971
   -16.9941 -16.9841 -16.9821 -16.8871 -16.8721 -16.8672 -16.8557 -16.8509
    -4.5889  -4.1165  -3.5381  -3.1062  -2.9686  -2.3986  -1.9578  -1.7174
    -0.2858  -0.0893   0.2453   0.8275   1.0877   1.7294   2.3544   3.0272
     3.1339   3.3167   3.6650   3.8474   4.0253   4.1396   4.2334   4.6796
     4.7928   5.0196   5.1056   5.3119   5.4179   6.0025   6.0946   6.6342
     8.4058   8.7568   9.0716   9.2367   9.4691   9.5302   9.7723   9.9769
    10.1059  10.3306  10.5196  10.8443  10.9063  11.1239

     occupation numbers 
     1.0000   1.0000   1.0000   1.0000   1.0000   1.0000   1.0000   1.0000
     1.0000   1.0000   1.0000   1.0000   1.0000   1.0000   1.0000   1.0000
     1.0000   1.0000   1.0000   1.0000   1.0000   1.0000   1.0000   1.0000
     1.0000   1.0000   1.0000   1.0000   1.0000   1.0000   1.0000   1.0000
     1.0000   1.0000   1.0000   1.0000   1.0000   1.0000   1.0000   1.0000
     1.0000   1.0000   1.0000   1.0000   1.0000   1.0000   1.0000   1.0000
     1.0000   1.0000   1.0000   1.0000   1.0000   1.0000   1.0000   1.0000
     1.0000   1.0000   1.0000   1.0000   1.0000   1.0000   1.0000   1.0000
     1.0000   1.0000   1.0000   1.0000   1.0000   1.0000   1.0000   1.0000
     0.0000   0.0000   0.0000   0.0000   0.0000   0.0000   0.0000   0.0000
     0.0000   0.0000   0.0000   0.0000   0.0000   0.0000

          k =-0.0016-0.7061-0.0028 (  8058 PWs)   bands (ev):

   -17.3844 -17.3450 -17.3345 -17.3142 -17.3102 -17.2021 -17.2004 -17.1904
   -17.1860 -17.1679 -17.1675 -17.1642 -17.1574 -17.1503 -17.1434 -17.1387
   -17.1226 -17.1053 -17.0965 -17.0915 -17.0860 -17.0795 -17.0639 -17.0506
   -17.0470 -17.0351 -17.0331 -17.0172 -17.0096 -17.0066 -17.0004 -16.9970
   -16.9939 -16.9839 -16.9818 -16.8870 -16.8719 -16.8670 -16.8555 -16.8508
    -4.3961  -4.1051  -3.6168  -3.2406  -3.1821  -2.8198  -1.5373  -1.3830
    -0.5670  -0.3052   1.0905   1.1715   1.2715   1.6432   2.9346   3.0215
     3.2137   3.2331   3.3298   3.3446   3.4456   3.5730   3.6884   3.8101
     5.1591   5.2150   5.4403   5.5455   5.6429   6.0178   6.2368   6.2958
     8.1726   8.3048   9.2370   9.3505   9.4449   9.6001  10.0024  10.2754
    11.2536  11.2924  11.3971  11.5428  11.6831  11.7448

     occupation numbers 
     1.0000   1.0000   1.0000   1.0000   1.0000   1.0000   1.0000   1.0000
     1.0000   1.0000   1.0000   1.0000   1.0000   1.0000   1.0000   1.0000
     1.0000   1.0000   1.0000   1.0000   1.0000   1.0000   1.0000   1.0000
     1.0000   1.0000   1.0000   1.0000   1.0000   1.0000   1.0000   1.0000
     1.0000   1.0000   1.0000   1.0000   1.0000   1.0000   1.0000   1.0000
     1.0000   1.0000   1.0000   1.0000   1.0000   1.0000   1.0000   1.0000
     1.0000   1.0000   1.0000   1.0000   1.0000   1.0000   1.0000   1.0000
     1.0000   1.0000   1.0000   1.0000   1.0000   1.0000   1.0000   1.0000
     1.0000   1.0000   1.0000   1.0000   1.0000   1.0000   1.0000   1.0000
     0.0000   0.0000   0.0000   0.0000   0.0000   0.0000   0.0000   0.0000
     0.0000   0.0000   0.0000   0.0000   0.0000   0.0000

          k = 0.5305-0.5332-0.1755 (  8029 PWs)   bands (ev):

   -17.3846 -17.3451 -17.3347 -17.3141 -17.3106 -17.2033 -17.1998 -17.1906
   -17.1860 -17.1681 -17.1673 -17.1646 -17.1577 -17.1504 -17.1434 -17.1388
   -17.1230 -17.1055 -17.0962 -17.0916 -17.0862 -17.0792 -17.0639 -17.0507
   -17.0468 -17.0353 -17.0334 -17.0174 -17.0097 -17.0068 -17.0006 -16.9971
   -16.9943 -16.9840 -16.9822 -16.8870 -16.8721 -16.8671 -16.8556 -16.8510
    -4.6020  -4.0849  -3.5504  -3.1799  -2.8786  -2.3237  -2.0755  -1.7237
    -0.2717  -0.1391   0.2802   0.8326   1.0694   1.8007   2.3095   3.0001
     3.1733   3.4269   3.7357   3.8578   4.0383   4.1175   4.2523   4.7117
     4.8217   4.8887   5.0008   5.3314   5.4186   5.8804   6.0598   6.6197
     8.2924   8.7939   9.0957   9.2234   9.4372   9.6029   9.8678   9.9877
    10.1467  10.3793  10.6270  10.8144  10.9504  11.2322

     occupation numbers 
     1.0000   1.0000   1.0000   1.0000   1.0000   1.0000   1.0000   1.0000
     1.0000   1.0000   1.0000   1.0000   1.0000   1.0000   1.0000   1.0000
     1.0000   1.0000   1.0000   1.0000   1.0000   1.0000   1.0000   1.0000
     1.0000   1.0000   1.0000   1.0000   1.0000   1.0000   1.0000   1.0000
     1.0000   1.0000   1.0000   1.0000   1.0000   1.0000   1.0000   1.0000
     1.0000   1.0000   1.0000   1.0000   1.0000   1.0000   1.0000   1.0000
     1.0000   1.0000   1.0000   1.0000   1.0000   1.0000   1.0000   1.0000
     1.0000   1.0000   1.0000   1.0000   1.0000   1.0000   1.0000   1.0000
     1.0000   1.0000   1.0000   1.0000   1.0000   1.0000   1.0000   1.0000
     0.0000   0.0000   0.0000   0.0000   0.0000   0.0000   0.0000   0.0000
     0.0000   0.0000   0.0000   0.0000   0.0000   0.0000

          k = 0.7080-0.3573-0.3507 (  8051 PWs)   bands (ev):

   -17.3846 -17.3451 -17.3347 -17.3143 -17.3106 -17.2034 -17.1999 -17.1907
   -17.1860 -17.1682 -17.1675 -17.1646 -17.1577 -17.1505 -17.1434 -17.1388
   -17.1232 -17.1056 -17.0963 -17.0917 -17.0862 -17.0793 -17.0640 -17.0508
   -17.0470 -17.0353 -17.0333 -17.0174 -17.0097 -17.0068 -17.0006 -16.9971
   -16.9943 -16.9840 -16.9821 -16.8872 -16.8720 -16.8672 -16.8556 -16.8511
    -4.7611  -3.9571  -3.5456  -3.0553  -2.6638  -2.3654  -2.1060  -1.8012
    -0.1963  -0.1177  -0.0360   0.7138   0.8827   1.5895   1.7904   2.9016
     3.4617   3.6986   3.8886   4.0922   4.2441   4.4868   4.6293   4.7431
     4.8438   4.9556   5.1930   5.3865   5.5635   5.6850   6.0646   6.9005
     8.1317   8.9020   8.9367   9.0279   9.1922   9.4440   9.5962   9.9271
    10.0591  10.1162  10.2396  10.3403  10.5264  10.6549

     occupation numbers 
     1.0000   1.0000   1.0000   1.0000   1.0000   1.0000   1.0000   1.0000
     1.0000   1.0000   1.0000   1.0000   1.0000   1.0000   1.0000   1.0000
     1.0000   1.0000   1.0000   1.0000   1.0000   1.0000   1.0000   1.0000
     1.0000   1.0000   1.0000   1.0000   1.0000   1.0000   1.0000   1.0000
     1.0000   1.0000   1.0000   1.0000   1.0000   1.0000   1.0000   1.0000
     1.0000   1.0000   1.0000   1.0000   1.0000   1.0000   1.0000   1.0000
     1.0000   1.0000   1.0000   1.0000   1.0000   1.0000   1.0000   1.0000
     1.0000   1.0000   1.0000   1.0000   1.0000   1.0000   1.0000   1.0000
     1.0000   1.0000   1.0000   1.0000   1.0000   1.0000   1.0000   1.0000
     0.0000   0.0000   0.0000   0.0000   0.0000   0.0000   0.0000   0.0000
     0.0000   0.0000   0.0000   0.0000   0.0000   0.0000

          k = 0.1754-0.8848 0.1749 (  8038 PWs)   bands (ev):

   -17.3846 -17.3450 -17.3346 -17.3143 -17.3106 -17.2032 -17.1998 -17.1906
   -17.1860 -17.1682 -17.1675 -17.1645 -17.1575 -17.1505 -17.1434 -17.1388
   -17.1230 -17.1056 -17.0963 -17.0917 -17.0862 -17.0794 -17.0639 -17.0508
   -17.0471 -17.0352 -17.0332 -17.0174 -17.0097 -17.0068 -17.0006 -16.9971
   -16.9943 -16.9840 -16.9819 -16.8871 -16.8720 -16.8671 -16.8556 -16.8510
    -4.5975  -4.0510  -3.5568  -3.1915  -3.0044  -2.3093  -2.0082  -1.7025
    -0.3315   0.0473   0.1638   0.9069   1.2856   1.7587   2.1466   2.8631
     3.0360   3.3889   3.6527   3.8972   3.9580   4.1686   4.2832   4.5616
     4.7914   4.9724   5.1002   5.4020   5.5022   5.8069   6.1921   6.7540
     8.4455   8.8446   9.1501   9.2642   9.4001   9.5537   9.8678   9.9902
    10.1548  10.4478  10.5235  10.7699  10.8501  11.1416

     occupation numbers 
     1.0000   1.0000   1.0000   1.0000   1.0000   1.0000   1.0000   1.0000
     1.0000   1.0000   1.0000   1.0000   1.0000   1.0000   1.0000   1.0000
     1.0000   1.0000   1.0000   1.0000   1.0000   1.0000   1.0000   1.0000
     1.0000   1.0000   1.0000   1.0000   1.0000   1.0000   1.0000   1.0000
     1.0000   1.0000   1.0000   1.0000   1.0000   1.0000   1.0000   1.0000
     1.0000   1.0000   1.0000   1.0000   1.0000   1.0000   1.0000   1.0000
     1.0000   1.0000   1.0000   1.0000   1.0000   1.0000   1.0000   1.0000
     1.0000   1.0000   1.0000   1.0000   1.0000   1.0000   1.0000   1.0000
     1.0000   1.0000   1.0000   1.0000   1.0000   1.0000   1.0000   1.0000
     0.0000   0.0000   0.0000   0.0000   0.0000   0.0000   0.0000   0.0000
     0.0000   0.0000   0.0000   0.0000   0.0000   0.0000

          k = 0.3530-0.7090-0.0003 (  8040 PWs)   bands (ev):

   -17.3846 -17.3451 -17.3346 -17.3142 -17.3105 -17.2033 -17.1998 -17.1904
   -17.1861 -17.1681 -17.1673 -17.1644 -17.1576 -17.1505 -17.1434 -17.1388
   -17.1228 -17.1056 -17.0963 -17.0916 -17.0863 -17.0793 -17.0639 -17.0507
   -17.0470 -17.0353 -17.0333 -17.0174 -17.0097 -17.0069 -17.0005 -16.9971
   -16.9942 -16.9841 -16.9820 -16.8871 -16.8721 -16.8671 -16.8556 -16.8509
    -4.3203  -4.0348  -3.9024  -3.5834  -2.5210  -2.2619  -2.1223  -1.9520
    -0.0735   0.2055   0.3521   0.4806   2.1209   2.3585   2.4866   2.6144
     2.9342   2.9859   3.1710   3.2801   4.1311   4.2694   4.4084   4.4968
     4.6160   4.6611   4.8004   4.9424   5.5711   5.7728   6.0993   6.1890
     9.2979   9.4112   9.4686   9.5966   9.7148   9.9365  10.1432  10.1889
    10.4786  10.5704  10.7256  10.8442  11.2660  11.4001

     occupation numbers 
     1.0000   1.0000   1.0000   1.0000   1.0000   1.0000   1.0000   1.0000
     1.0000   1.0000   1.0000   1.0000   1.0000   1.0000   1.0000   1.0000
     1.0000   1.0000   1.0000   1.0000   1.0000   1.0000   1.0000   1.0000
     1.0000   1.0000   1.0000   1.0000   1.0000   1.0000   1.0000   1.0000
     1.0000   1.0000   1.0000   1.0000   1.0000   1.0000   1.0000   1.0000
     1.0000   1.0000   1.0000   1.0000   1.0000   1.0000   1.0000   1.0000
     1.0000   1.0000   1.0000   1.0000   1.0000   1.0000   1.0000   1.0000
     1.0000   1.0000   1.0000   1.0000   1.0000   1.0000   1.0000   1.0000
     1.0000   1.0000   1.0000   1.0000   1.0000   1.0000   1.0000   1.0000
     0.0000   0.0000   0.0000   0.0000   0.0000   0.0000   0.0000   0.0000
     0.0000   0.0000   0.0000   0.0000   0.0000   0.0000

          k =-0.0008 0.0031-0.7084 (  8058 PWs)   bands (ev):

   -17.3845 -17.3449 -17.3345 -17.3139 -17.3105 -17.2039 -17.1993 -17.1904
   -17.1859 -17.1680 -17.1669 -17.1646 -17.1575 -17.1503 -17.1431 -17.1387
   -17.1228 -17.1056 -17.0958 -17.0915 -17.0862 -17.0788 -17.0637 -17.0506
   -17.0466 -17.0353 -17.0333 -17.0174 -17.0095 -17.0068 -17.0005 -16.9970
   -16.9943 -16.9839 -16.9821 -16.8870 -16.8720 -16.8669 -16.8554 -16.8509
    -4.4282  -4.0823  -3.4815  -3.3548  -3.2109  -2.7715  -1.6190  -1.3404
    -0.6537  -0.3210   1.1238   1.3259   1.3576   1.4556   2.9591   3.0959
     3.2442   3.3123   3.3522   3.4231   3.5495   3.5915   3.6793   3.7136
     4.9532   5.1444   5.4133   5.4700   5.6600   5.9260   6.1153   6.4120
     8.1090   8.2978   9.1630   9.3244   9.3755   9.6235  10.0978  10.5193
    11.2639  11.3751  11.4876  11.5405  11.6197  11.7731

     occupation numbers 
     1.0000   1.0000   1.0000   1.0000   1.0000   1.0000   1.0000   1.0000
     1.0000   1.0000   1.0000   1.0000   1.0000   1.0000   1.0000   1.0000
     1.0000   1.0000   1.0000   1.0000   1.0000   1.0000   1.0000   1.0000
     1.0000   1.0000   1.0000   1.0000   1.0000   1.0000   1.0000   1.0000
     1.0000   1.0000   1.0000   1.0000   1.0000   1.0000   1.0000   1.0000
     1.0000   1.0000   1.0000   1.0000   1.0000   1.0000   1.0000   1.0000
     1.0000   1.0000   1.0000   1.0000   1.0000   1.0000   1.0000   1.0000
     1.0000   1.0000   1.0000   1.0000   1.0000   1.0000   1.0000   1.0000
     1.0000   1.0000   1.0000   1.0000   1.0000   1.0000   1.0000   1.0000
     0.0000   0.0000   0.0000   0.0000   0.0000   0.0000   0.0000   0.0000
     0.0000   0.0000   0.0000   0.0000   0.0000   0.0000

          k = 0.1767 0.1789-0.8836 (  8041 PWs)   bands (ev):

   -17.3846 -17.3450 -17.3346 -17.3142 -17.3106 -17.2040 -17.1994 -17.1906
   -17.1859 -17.1682 -17.1673 -17.1646 -17.1576 -17.1506 -17.1432 -17.1388
   -17.1231 -17.1057 -17.0960 -17.0916 -17.0863 -17.0790 -17.0638 -17.0507
   -17.0470 -17.0354 -17.0333 -17.0174 -17.0097 -17.0068 -17.0006 -16.9971
   -16.9944 -16.9840 -16.9821 -16.8871 -16.8721 -16.8672 -16.8556 -16.8510
    -4.6008  -4.0587  -3.5465  -3.1168  -3.0528  -2.2873  -2.0466  -1.7470
    -0.3334   0.0502   0.1560   1.0050   1.1696   1.8226   2.1659   2.9693
     3.0578   3.2988   3.7708   3.8677   3.9401   4.1829   4.2187   4.5402
     4.7688   4.9791   5.1621   5.3330   5.4158   5.8069   6.1407   6.8072
     8.4273   8.9020   9.0745   9.3445   9.4464   9.5834   9.7422   9.8998
    10.1024  10.3235  10.5193  10.7043  10.8436  11.2610

     occupation numbers 
     1.0000   1.0000   1.0000   1.0000   1.0000   1.0000   1.0000   1.0000
     1.0000   1.0000   1.0000   1.0000   1.0000   1.0000   1.0000   1.0000
     1.0000   1.0000   1.0000   1.0000   1.0000   1.0000   1.0000   1.0000
     1.0000   1.0000   1.0000   1.0000   1.0000   1.0000   1.0000   1.0000
     1.0000   1.0000   1.0000   1.0000   1.0000   1.0000   1.0000   1.0000
     1.0000   1.0000   1.0000   1.0000   1.0000   1.0000   1.0000   1.0000
     1.0000   1.0000   1.0000   1.0000   1.0000   1.0000   1.0000   1.0000
     1.0000   1.0000   1.0000   1.0000   1.0000   1.0000   1.0000   1.0000
     1.0000   1.0000   1.0000   1.0000   1.0000   1.0000   1.0000   1.0000
     0.0000   0.0000   0.0000   0.0000   0.0000   0.0000   0.0000   0.0000
     0.0000   0.0000   0.0000   0.0000   0.0000   0.0000

          k =-0.3558-0.3486-0.3581 (  8040 PWs)   bands (ev):

   -17.3847 -17.3448 -17.3345 -17.3144 -17.3108 -17.2038 -17.1993 -17.1908
   -17.1860 -17.1684 -17.1675 -17.1646 -17.1576 -17.1507 -17.1433 -17.1389
   -17.1233 -17.1058 -17.0961 -17.0918 -17.0863 -17.0791 -17.0637 -17.0509
   -17.0472 -17.0352 -17.0332 -17.0175 -17.0098 -17.0068 -17.0006 -16.9972
   -16.9945 -16.9841 -16.9820 -16.8871 -16.8721 -16.8673 -16.8557 -16.8510
    -4.6444  -4.3216  -3.1175  -2.8364  -2.7011  -2.5668  -2.2905  -2.0217
    -0.0584   0.0498   0.4878   0.5741   0.7295   0.9758   2.5594   3.0882
     3.2924   3.5244   3.6303   3.6682   3.8982   4.1714   4.7736   4.8370
     5.0210   5.0444   5.1061   5.1243   6.0932   6.2070   6.9120   7.0557
     8.2737   8.3807   8.4297   8.5516   8.6165   8.6920   8.8950   9.0115
    10.3060  10.4392  11.1113  11.2672  11.3216  11.3871

     occupation numbers 
     1.0000   1.0000   1.0000   1.0000   1.0000   1.0000   1.0000   1.0000
     1.0000   1.0000   1.0000   1.0000   1.0000   1.0000   1.0000   1.0000
     1.0000   1.0000   1.0000   1.0000   1.0000   1.0000   1.0000   1.0000
     1.0000   1.0000   1.0000   1.0000   1.0000   1.0000   1.0000   1.0000
     1.0000   1.0000   1.0000   1.0000   1.0000   1.0000   1.0000   1.0000
     1.0000   1.0000   1.0000   1.0000   1.0000   1.0000   1.0000   1.0000
     1.0000   1.0000   1.0000   1.0000   1.0000   1.0000   1.0000   1.0000
     1.0000   1.0000   1.0000   1.0000   1.0000   1.0000   1.0000   1.0000
     1.0000   1.0000   1.0000   1.0000   1.0000   1.0000   1.0000   0.9992
     0.0000   0.0000   0.0000   0.0000   0.0000   0.0000   0.0000   0.0000
     0.0000   0.0000   0.0000   0.0000   0.0000   0.0000

     the Fermi energy is     7.5097 ev

!    total energy              =   -1781.78719267 Ry
     Harris-Foulkes estimate   =   -1781.78719266 Ry
     estimated scf accuracy    <          6.2E-11 Ry

     The total energy is the sum of the following terms:

     one-electron contribution =   -1188.43883608 Ry
     hartree contribution      =     709.44721625 Ry
     xc contribution           =    -495.17918863 Ry
     ewald contribution        =    -807.61501222 Ry
     smearing contrib. (-TS)   =      -0.00137199 Ry

     convergence has been achieved in  13 iterations

     Forces acting on atoms (Ry/au):

     atom    1 type  1   force =   0.17781228E-01  0.25847563E-01 -0.13760972E+00
     atom    2 type  2   force =   0.52243975E-01  0.76089688E-01 -0.58299611E-02
     atom    3 type  1   force =   0.30878989E-01 -0.38778093E-01  0.40600533E-01
     atom    4 type  2   force =  -0.91847320E-01 -0.58153982E-01  0.24766632E-01
     atom    5 type  1   force =   0.44063891E-01  0.47085846E-02  0.67542491E-02
     atom    6 type  2   force =  -0.48295164E-01 -0.35770881E-01  0.76793449E-01
     atom    7 type  1   force =  -0.43888580E-01 -0.61641310E-01 -0.91624529E-01
     atom    8 type  2   force =   0.60006031E-01  0.71608492E-01  0.83148791E-01
     atom    9 type  1   force =   0.45922418E-01 -0.67837796E-01  0.10665182E+00
     atom   10 type  2   force =  -0.38868078E-01 -0.52791130E-01  0.46591503E-01
     atom   11 type  1   force =   0.45251961E-01 -0.15097309E-02  0.95078922E-02
     atom   12 type  2   force =  -0.39670767E-01  0.88740231E-01 -0.59473214E-01
     atom   13 type  1   force =   0.39495046E-01  0.39053366E-01 -0.42206021E-01
     atom   14 type  2   force =  -0.10750149E+00  0.22230702E-01 -0.65083452E-01
     atom   15 type  1   force =   0.49812542E-01 -0.29049136E-01  0.18960808E-01
     atom   16 type  2   force =  -0.15384680E-01  0.17253431E-01 -0.11948781E-01
     The non-local contrib.  to forces
     atom    1 type  1   force =   0.17240870E-02  0.15844604E-01 -0.12762369E+00
     atom    2 type  2   force =   0.62820838E-01  0.32200104E-01  0.93613056E-02
     atom    3 type  1   force =   0.24978717E-01 -0.12977039E-01  0.45894657E-01
     atom    4 type  2   force =  -0.44123541E-01 -0.35913230E-01  0.16856835E-01
     atom    5 type  1   force =   0.36236105E-01 -0.10479396E-01  0.23654698E-01
     atom    6 type  2   force =   0.13109877E-01  0.70478561E-03 -0.29296776E-01
     atom    7 type  1   force =  -0.37330178E-01 -0.59378459E-01 -0.81310074E-01
     atom    8 type  2   force =   0.19451388E-01  0.32958469E-01  0.32996948E-01
     atom    9 type  1   force =   0.26764526E-01 -0.72498626E-01  0.90327077E-01
     atom   10 type  2   force =  -0.27728524E-01  0.86305625E-03  0.63898249E-02
     atom   11 type  1   force =   0.39431073E-01  0.25582422E-02 -0.10840791E-01
     atom   12 type  2   force =   0.25126873E-01  0.25461276E-01  0.70108077E-02
     atom   13 type  1   force =   0.23608676E-01  0.24608242E-01 -0.21768919E-01
     atom   14 type  2   force =  -0.50036111E-01  0.56388882E-01 -0.38051800E-01
     atom   15 type  1   force =   0.65854436E-01 -0.31799056E-01  0.13837433E-01
     atom   16 type  2   force =  -0.27251463E-01 -0.28812607E-02 -0.51713088E-02
     The ionic contribution  to forces
     atom    1 type  1   force =  -0.34511347E+00 -0.20832575E-01 -0.15203467E+01
     atom    2 type  2   force =   0.19283215E+01  0.24106049E+01 -0.14590560E+00
     atom    3 type  1   force =   0.26028514E+00  0.11484524E+00  0.50907305E+00
     atom    4 type  2   force =  -0.29547143E+01 -0.17126981E+01 -0.20704536E+01
     atom    5 type  1   force =   0.50877735E+00  0.70896714E-01  0.37908427E+00
     atom    6 type  2   force =  -0.22534581E+01 -0.69545143E+00  0.14862418E+01
     atom    7 type  1   force =  -0.36863408E+00 -0.64657638E+00 -0.61741033E+00
     atom    8 type  2   force =   0.26775392E+01  0.95387496E+00  0.24217577E+01
     atom    9 type  1   force =   0.36221672E+00 -0.77118805E+00  0.14860048E+01
     atom   10 type  2   force =  -0.33858626E+00 -0.22811987E+01  0.10908364E+01
     atom   11 type  1   force =   0.45234643E+00 -0.72797918E-01 -0.77476881E+00
     atom   12 type  2   force =  -0.19686601E+00  0.29614818E+01  0.23592609E-01
     atom   13 type  1   force =   0.28655957E+00 -0.30793918E-02 -0.12724429E+00
     atom   14 type  2   force =  -0.18575958E+01 -0.73578366E+00 -0.42163278E+00
     atom   15 type  1   force =   0.79134792E+00 -0.11676890E+00  0.21020873E+00
     atom   16 type  2   force =   0.10475742E+01  0.54467151E+00 -0.19290371E+01
     The local contribution  to forces
     atom    1 type  1   force =   0.36116865E+00  0.32179341E-01  0.14982526E+01
     atom    2 type  2   force =  -0.19322687E+01 -0.23590304E+01  0.13019745E+00
     atom    3 type  1   force =  -0.25233305E+00 -0.14175907E+00 -0.51013781E+00
     atom    4 type  2   force =   0.28983294E+01  0.16818494E+01  0.20801602E+01
     atom    5 type  1   force =  -0.49755711E+00 -0.56623557E-01 -0.39390095E+00
     atom    6 type  2   force =   0.21896875E+01  0.65542167E+00 -0.13769368E+01
     atom    7 type  1   force =   0.35870890E+00  0.63884710E+00  0.59968619E+00
     atom    8 type  2   force =  -0.26329728E+01 -0.90595543E+00 -0.23645856E+01
     atom    9 type  1   force =  -0.34032980E+00  0.76886160E+00 -0.14606050E+01
     atom   10 type  2   force =   0.32452318E+00  0.22247432E+01 -0.10461568E+01
     atom   11 type  1   force =  -0.44262461E+00  0.68872827E-01  0.79335808E+00
     atom   12 type  2   force =   0.13026678E+00 -0.28909104E+01 -0.94780244E-01
     atom   13 type  1   force =  -0.26824647E+00  0.19760610E-01  0.10506786E+00
     atom   14 type  2   force =   0.17909845E+01  0.70644260E+00  0.38935581E+00
     atom   15 type  1   force =  -0.80115484E+00  0.11653077E+00 -0.20364851E+00
     atom   16 type  2   force =  -0.10402704E+01 -0.52313193E+00  0.19219678E+01
     The core correction contribution to forces
     atom    1 type  1   force =   0.12811026E-05 -0.13433157E-02  0.12107044E-01
     atom    2 type  2   force =  -0.66336775E-02 -0.76847069E-02  0.51669703E-03
     atom    3 type  1   force =  -0.20509611E-02  0.11132117E-02 -0.42291045E-02
     atom    4 type  2   force =   0.86637859E-02  0.86117952E-02 -0.17979494E-02
     atom    5 type  1   force =  -0.33910143E-02  0.91579865E-03 -0.20835830E-02
     atom    6 type  2   force =   0.23623945E-02  0.35608933E-02 -0.32122787E-02
     atom    7 type  1   force =   0.33659086E-02  0.54660077E-02  0.74093315E-02
     atom    8 type  2   force =  -0.40185455E-02 -0.92768014E-02 -0.70231431E-02
     atom    9 type  1   force =  -0.27296303E-02  0.69885671E-02 -0.90744432E-02
     atom   10 type  2   force =   0.29252993E-02  0.27971497E-02 -0.44769708E-02
     atom   11 type  1   force =  -0.39011238E-02 -0.14219316E-03  0.17594254E-02
     atom   12 type  2   force =   0.18021110E-02 -0.72929956E-02  0.47057203E-02
     atom   13 type  1   force =  -0.24264554E-02 -0.22355929E-02  0.17390081E-02
     atom   14 type  2   force =   0.91492104E-02 -0.48229434E-02  0.52459399E-02
     atom   15 type  1   force =  -0.62353814E-02  0.29891379E-02 -0.14360577E-02
     atom   16 type  2   force =   0.45654481E-02 -0.14024607E-02  0.28899132E-03
     The Hubbard contrib.    to forces
     atom    1 type  1   force =   0.00000000E+00  0.00000000E+00  0.00000000E+00
     atom    2 type  2   force =   0.00000000E+00  0.00000000E+00  0.00000000E+00
     atom    3 type  1   force =   0.00000000E+00  0.00000000E+00  0.00000000E+00
     atom    4 type  2   force =   0.00000000E+00  0.00000000E+00  0.00000000E+00
     atom    5 type  1   force =   0.00000000E+00  0.00000000E+00  0.00000000E+00
     atom    6 type  2   force =   0.00000000E+00  0.00000000E+00  0.00000000E+00
     atom    7 type  1   force =   0.00000000E+00  0.00000000E+00  0.00000000E+00
     atom    8 type  2   force =   0.00000000E+00  0.00000000E+00  0.00000000E+00
     atom    9 type  1   force =   0.00000000E+00  0.00000000E+00  0.00000000E+00
     atom   10 type  2   force =   0.00000000E+00  0.00000000E+00  0.00000000E+00
     atom   11 type  1   force =   0.00000000E+00  0.00000000E+00  0.00000000E+00
     atom   12 type  2   force =   0.00000000E+00  0.00000000E+00  0.00000000E+00
     atom   13 type  1   force =   0.00000000E+00  0.00000000E+00  0.00000000E+00
     atom   14 type  2   force =   0.00000000E+00  0.00000000E+00  0.00000000E+00
     atom   15 type  1   force =   0.00000000E+00  0.00000000E+00  0.00000000E+00
     atom   16 type  2   force =   0.00000000E+00  0.00000000E+00  0.00000000E+00
     The SCF correction term to forces
     atom    1 type  1   force =   0.60791044E-06  0.14548654E-06  0.11241363E-05
     atom    2 type  2   force =   0.38954395E-05  0.34655916E-06  0.24994925E-06
     atom    3 type  1   force =  -0.93075478E-06  0.20214907E-06 -0.20663520E-06
     atom    4 type  2   force =  -0.26949682E-05 -0.31617873E-05  0.12102525E-05
     atom    5 type  1   force =  -0.15188812E-05 -0.33866487E-06 -0.12807650E-06
     atom    6 type  2   force =   0.30237332E-05 -0.61574283E-05 -0.24573969E-05
     atom    7 type  1   force =   0.79589996E-06  0.10611883E-05  0.41522556E-06
     atom    8 type  2   force =   0.67498707E-05  0.79348164E-05  0.29876327E-05
     atom    9 type  1   force =   0.52414832E-06 -0.65535231E-06 -0.51687791E-06
     atom   10 type  2   force =  -0.18469257E-05  0.48619085E-05 -0.92036862E-06
     atom   11 type  1   force =   0.11903829E-06 -0.52530639E-07  0.42329189E-07
     atom   12 type  2   force =  -0.59354447E-06  0.11169985E-05 -0.20489982E-05
     atom   13 type  1   force =  -0.34650073E-06  0.13519152E-06  0.38046475E-06
     atom   14 type  2   force =  -0.33693478E-05  0.64593834E-05 -0.55910765E-06
     atom   15 type  1   force =   0.33485688E-06 -0.45233367E-06 -0.72796519E-06
     atom   16 type  2   force =  -0.25836981E-05 -0.17945478E-05  0.28620446E-05

     Total force =     0.389213     Total SCF correction =     0.000018


     entering subroutine stress ...

          total   stress  (Ry/bohr**3)                   (kbar)     P=   14.18
   0.0000992399   0.0000539549   0.0001299649         14.60      7.94     19.12
   0.0000539549   0.0001171669  -0.0001352636          7.94     17.24    -19.90
   0.0001299649  -0.0001352636   0.0000727612         19.12    -19.90     10.70

     kinetic stress (kbar)   6397.59     -5.91     -0.89
                               -5.91   6393.36     14.27
                               -0.89     14.27   6398.10

     local   stress (kbar)  -1030.89   -167.58   -472.50
                             -167.58  -1381.54    689.69
                             -472.50    689.69   -997.39

     nonloc. stress (kbar)   2497.71      5.09      9.57
                                5.09   2501.20    -15.75
                                9.57    -15.75   2496.06

     hartree stress (kbar)  15087.03     31.00    145.36
                               31.00  15217.52   -183.32
                              145.36   -183.32  15088.72

     exc-cor stress (kbar)  10904.18      0.17      0.28
                                0.17  10904.29     -0.52
                                0.28     -0.52  10904.13

     corecor stress (kbar) -16554.32     -0.49     -0.88
                               -0.49 -16554.65      1.42
                               -0.88      1.42 -16554.12

     ewald   stress (kbar) -17286.70    145.65    338.19
                              145.65 -17062.95   -525.70
                              338.19   -525.70 -17324.80

     hubbard stress (kbar)      0.00      0.00      0.00
                                0.00      0.00      0.00
                                0.00      0.00      0.00

     london  stress (kbar)      0.00      0.00      0.00
                                0.00      0.00      0.00
                                0.00      0.00      0.00

     XDM     stress (kbar)      0.00      0.00      0.00
                                0.00      0.00      0.00
                                0.00      0.00      0.00

     dft-nl  stress (kbar)      0.00      0.00      0.00
                                0.00      0.00      0.00
                                0.00      0.00      0.00



     Writing output data file SiGe_zns.scf.in.super.222.largedist.033.save

     init_run     :     30.14s CPU     31.19s WALL (       1 calls)
     electrons    :   1152.64s CPU   1249.34s WALL (       1 calls)
     forces       :     13.15s CPU     12.28s WALL (       1 calls)
     stress       :     92.16s CPU     93.21s WALL (       1 calls)

     Called by init_run:
     wfcinit      :     26.17s CPU     27.21s WALL (       1 calls)
     potinit      :      0.97s CPU      0.97s WALL (       1 calls)

     Called by electrons:
     c_bands      :    974.02s CPU   1067.69s WALL (      14 calls)
     sum_band     :    163.13s CPU    165.86s WALL (      14 calls)
     v_of_rho     :      1.63s CPU      1.68s WALL (      14 calls)
     v_h          :      0.09s CPU      0.10s WALL (      14 calls)
     v_xc         :      1.78s CPU      1.81s WALL (      16 calls)
     newd         :     11.90s CPU     12.04s WALL (      14 calls)
     mix_rho      :      2.58s CPU      2.64s WALL (      14 calls)

     Called by c_bands:
     init_us_2    :      6.61s CPU      6.84s WALL (    1116 calls)
     cegterg      :    942.11s CPU   1034.01s WALL (     504 calls)

     Called by sum_band:
     sum_band:bec :      0.95s CPU      0.97s WALL (     504 calls)
     addusdens    :     12.63s CPU     12.89s WALL (      14 calls)

     Called by *egterg:
     h_psi        :    583.39s CPU    597.32s WALL (    1919 calls)
     s_psi        :     49.78s CPU     43.52s WALL (    1919 calls)
     g_psi        :      1.28s CPU      1.30s WALL (    1379 calls)
     cdiaghg      :    138.16s CPU    211.12s WALL (    1847 calls)
     cegterg:over :     87.19s CPU     90.99s WALL (    1379 calls)
     cegterg:upda :     25.93s CPU     27.50s WALL (    1379 calls)
     cegterg:last :     13.42s CPU     11.77s WALL (     504 calls)

     Called by h_psi:
     h_psi:vloc   :    451.36s CPU    468.99s WALL (    1919 calls)
     h_psi:vnl    :    130.32s CPU    126.55s WALL (    1919 calls)
     add_vuspsi   :     50.25s CPU     46.61s WALL (    1919 calls)

     General routines
     calbec       :    161.51s CPU    159.81s WALL (    2495 calls)
     fft          :      5.66s CPU      5.71s WALL (     249 calls)
     ffts         :      1.28s CPU      1.34s WALL (     406 calls)
     fftw         :    493.64s CPU    512.22s WALL (  257636 calls)
     interpolate  :      0.31s CPU      0.32s WALL (      28 calls)

     Parallel routines
     fft_scatter  :    288.00s CPU    297.85s WALL (  258291 calls)

     PWSCF        : 21m31.26s CPU    23m10.89s WALL


   This run was terminated on:  11:10:19  27Sep2017            

=------------------------------------------------------------------------------=
   JOB DONE.
=------------------------------------------------------------------------------=
