
     Program PWSCF v.5.1 starts on  4Feb2017 at  5:50:31 

     This program is part of the open-source Quantum ESPRESSO suite
     for quantum simulation of materials; please cite
         "P. Giannozzi et al., J. Phys.:Condens. Matter 21 395502 (2009);
          URL http://www.quantum-espresso.org", 
     in publications or presentations arising from this work. More details at
     http://www.quantum-espresso.org/quote

     Parallel version (MPI), running on    16 processors
     R & G space division:  proc/nbgrp/npool/nimage =      16
     Reading input from /tmp/SiGe_zns.scf.in.super.444.c.02.8361/SiGe_zns.scf.in.super.444.c.02.t
Warning: card &IONS ignored
Warning: card   ION_DYNAMICS='BFGS', ignored
Warning: card / ignored
Warning: card &CELL ignored
Warning: card  CELL_DYNAMICS = 'BFGS' ignored
Warning: card / ignored
     Message from routine read_cards :
     DEPRECATED: no units specified in CELL_PARAMETERS card

     Current dimensions of program PWSCF are:
     Max number of different atomic species (ntypx) = 10
     Max number of k-points (npk) =  40000
     Max angular momentum in pseudopotentials (lmaxx) =  3

     Subspace diagonalization in iterative solution of the eigenvalue problem:
     a serial algorithm will be used


     Parallelization info
     --------------------
     sticks:   dense  smooth     PW     G-vecs:    dense   smooth      PW
     Min         752     526    138                54512    31931    4310
     Max         753     527    139                54514    31959    4314
     Sum       12033    8431   2221               872203   511091   69009



     bravais-lattice index     =            0
     lattice parameter (alat)  =    29.543559773  a.u.
     unit-cell volume          =   18261.1080 (a.u.)^3
     number of atoms/cell      =          128
     number of atomic types    =            2
     number of electrons       =      1192.00
     number of Kohn-Sham states=          715
     kinetic-energy cutoff     =      35.0000  Ry
     charge density cutoff     =     200.0000  Ry
     convergence threshold     =      1.0E-09
     mixing beta               =       0.3000
     number of iterations used =            8  local-TF  mixing
     Exchange-correlation      = SLA  PW   PSX  PSC ( 1  4 10  8 0)
     A smooth kinetic-energy cutoff is imposed at      34.5000 Ry
     height of the smooth step-function =             800.0000 Ry
     width of the smooth step-function  =               1.0000 Ry


     celldm(1)=  29.543560  celldm(2)=   0.000000  celldm(3)=   0.000000
     celldm(4)=   0.000000  celldm(5)=   0.000000  celldm(6)=   0.000000

     crystal axes: (cart. coord. in units of alat)
               a(1) = (   0.000573507283   0.706948062503   0.707265231729 )  
               a(2) = (   0.707285973532   0.000059952805   0.707498224586 )  
               a(3) = (   0.708060049818   0.708812208361   0.000464751317 )  

     reciprocal axes: (cart. coord. in units 2 pi/alat)
               b(1) = ( -0.708138  0.706922  0.707866 )  
               b(2) = (  0.707441 -0.707153  0.706262 )  
               b(3) = (  0.706216  0.705808 -0.706064 )  


     PseudoPot. # 1 for Si read from file:
     /users/kfg/psuedo/gbrv_1.5/si.pbesol.UPF
     MD5 check sum: ef58ba74faed4df802eb8a9742fc00a8
     Pseudo is Ultrasoft + core correction, Zval =  4.0
     Generated by new atomic code, or converted to UPF format
     Using radial grid of  899 points,  6 beta functions with: 
                l(1) =   0
                l(2) =   0
                l(3) =   1
                l(4) =   1
                l(5) =   2
                l(6) =   2
     Q(r) pseudized with  8 coefficients,  rinner =    0.900   0.900   0.900
                                                       0.900   0.900

     PseudoPot. # 2 for Ge read from file:
     /users/kfg/psuedo/gbrv_1.5/ge.pbesol.UPF
     MD5 check sum: 7bed0412183f5e553a4d27ec7023354d
     Pseudo is Ultrasoft + core correction, Zval = 14.0
     Generated by new atomic code, or converted to UPF format
     Using radial grid of  873 points,  6 beta functions with: 
                l(1) =   0
                l(2) =   0
                l(3) =   1
                l(4) =   1
                l(5) =   2
                l(6) =   2
     Q(r) pseudized with  8 coefficients,  rinner =    1.400   1.400   1.400
                                                       1.400   1.400

     atomic species   valence    mass     pseudopotential
        Si             4.00    28.08550     Si( 1.00)
        Ge            14.00    72.64000     Ge( 1.00)

     No symmetry found


                                    s                        frac. trans.

      isym =  1     identity                                     

 cryst.   s( 1) = (     1          0          0      )
                  (     0          1          0      )
                  (     0          0          1      )

 cart.    s( 1) = (  1.0000000 -0.0000000  0.0000000 )
                  (  0.0000000  1.0000000  0.0000000 )
                  ( -0.0000000  0.0000000  1.0000000 )


     point group C_1 (1)    
     there are  1 classes
     the character table:

       E    
A      1.00

     the symmetry operations in each class:
     E        1

   Cartesian axes

     site n.     atom                  positions (alat units)
         1           Si  tau(   1) = (    0.00495433749    0.00442783031    0.00376783561  )
         2           Si  tau(   2) = (    0.08206595639    0.08907007144    0.08590104155  )
         3           Ge  tau(   3) = (    0.17229424891    0.18311943538   -0.00361769413  )
         4           Si  tau(   4) = (    0.26910647357    0.26361906298    0.08998307292  )
         5           Ge  tau(   5) = (    0.35379241724    0.36034245145   -0.00227922984  )
         6           Ge  tau(   6) = (    0.44581712176    0.44056010847    0.09189121651  )
         7           Si  tau(   7) = (    0.53710642662    0.53582683507   -0.00526225063  )
         8           Ge  tau(   8) = (    0.61280260285    0.62332025301    0.08399300988  )
         9           Si  tau(   9) = (    0.17501305020   -0.00238240776    0.17260080157  )
        10           Ge  tau(  10) = (    0.26853665737    0.08312762683    0.26774882055  )
        11           Si  tau(  11) = (    0.35126905042    0.17369394709    0.17102095676  )
        12           Ge  tau(  12) = (    0.44321646488    0.26242433606    0.27065400353  )
        13           Ge  tau(  13) = (    0.52840546196    0.35140989390    0.17658206314  )
        14           Ge  tau(  14) = (    0.61420478701    0.43986761481    0.26561205650  )
        15           Ge  tau(  15) = (    0.70454968294    0.53206046100    0.18333918153  )
        16           Ge  tau(  16) = (    0.79659661529    0.61746845557    0.27183256142  )
        17           Ge  tau(  17) = (    0.34725413221   -0.00149191029    0.34712288989  )
        18           Ge  tau(  18) = (    0.43926812748    0.09348869019    0.44794093764  )
        19           Si  tau(  19) = (    0.53194989406    0.17811361598    0.35044019094  )
        20           Ge  tau(  20) = (    0.61310368087    0.26780416908    0.44816061552  )
        21           Ge  tau(  21) = (    0.70529101723    0.35522132880    0.35166663627  )
        22           Ge  tau(  22) = (    0.80166289458    0.44310188094    0.44693868975  )
        23           Si  tau(  23) = (    0.89010487316    0.53649413775    0.35709256135  )
        24           Si  tau(  24) = (    0.97626838087    0.62456509713    0.44381622250  )
        25           Ge  tau(  25) = (    0.53369990256    0.00622192487    0.52707710696  )
        26           Ge  tau(  26) = (    0.61458374371    0.09066268459    0.62199972685  )
        27           Si  tau(  27) = (    0.70237333687    0.17895929805    0.52711949382  )
        28           Si  tau(  28) = (    0.79804387325    0.26746681713    0.61873485011  )
        29           Si  tau(  29) = (    0.88456411906    0.35818213041    0.52587257746  )
        30           Ge  tau(  30) = (    0.97798482342    0.44262618210    0.61895144431  )
        31           Ge  tau(  31) = (    1.05868373039    0.53669781519    0.53547279758  )
        32           Ge  tau(  32) = (    1.15271134407    0.61679457379    0.61659910357  )
        33           Ge  tau(  33) = (    0.00356785313    0.17410680993    0.17879857097  )
        34           Ge  tau(  34) = (    0.09038209083    0.26479818495    0.27142000804  )
        35           Ge  tau(  35) = (    0.17703770924    0.34780893807    0.17031087910  )
        36           Ge  tau(  36) = (    0.25958397321    0.44910503761    0.26256322209  )
        37           Ge  tau(  37) = (    0.36056202910    0.53750723286    0.18367643557  )
        38           Ge  tau(  38) = (    0.44826151982    0.62248620792    0.26080239125  )
        39           Ge  tau(  39) = (    0.53120986540    0.70859566506    0.17147617326  )
        40           Ge  tau(  40) = (    0.61808188899    0.79260918879    0.26783910039  )
        41           Si  tau(  41) = (    0.17694240207    0.17881438414    0.35561583214  )
        42           Si  tau(  42) = (    0.27084121391    0.26491713011    0.43542898846  )
        43           Si  tau(  43) = (    0.34835092228    0.35279085577    0.35504505073  )
        44           Ge  tau(  44) = (    0.43763133678    0.43667883695    0.44654357052  )
        45           Ge  tau(  45) = (    0.52874617524    0.52503948116    0.35645634134  )
        46           Si  tau(  46) = (    0.61671004632    0.61941904279    0.44515860346  )
        47           Ge  tau(  47) = (    0.70968459808    0.70637492829    0.36039771223  )
        48           Ge  tau(  48) = (    0.80176260524    0.79127581374    0.44327120093  )
        49           Ge  tau(  49) = (    0.35597612188    0.17516458046    0.53500670700  )
        50           Si  tau(  50) = (    0.43767355422    0.26252678908    0.61512535983  )
        51           Ge  tau(  51) = (    0.52982481565    0.35095424661    0.53480072889  )
        52           Ge  tau(  52) = (    0.61581154119    0.43675705846    0.62222795514  )
        53           Si  tau(  53) = (    0.70282276741    0.53275127749    0.52989459134  )
        54           Si  tau(  54) = (    0.80083079276    0.62219534255    0.62523621459  )
        55           Si  tau(  55) = (    0.88826460615    0.70458620698    0.53627977668  )
        56           Si  tau(  56) = (    0.97654000921    0.79283115619    0.62184411128  )
        57           Ge  tau(  57) = (    0.53488941449    0.17760959170    0.70328340291  )
        58           Si  tau(  58) = (    0.61244879849    0.27006341460    0.79140836089  )
        59           Si  tau(  59) = (    0.70328911587    0.35291796707    0.70829952005  )
        60           Ge  tau(  60) = (    0.80022925834    0.43603852591    0.79925195451  )
        61           Si  tau(  61) = (    0.88062676636    0.52951651688    0.70384058782  )
        62           Si  tau(  62) = (    0.96833270688    0.62354445486    0.79496393365  )
        63           Ge  tau(  63) = (    1.05804922480    0.70757493943    0.70267440053  )
        64           Ge  tau(  64) = (    1.14760390948    0.79687675264    0.79909684396  )
        65           Si  tau(  65) = (    0.00550226289    0.36013252549    0.34888086398  )
        66           Si  tau(  66) = (    0.08581771153    0.43838554624    0.44444543989  )
        67           Ge  tau(  67) = (    0.17257410476    0.52655022142    0.35592799794  )
        68           Si  tau(  68) = (    0.26489081091    0.61988486657    0.44130945616  )
        69           Ge  tau(  69) = (    0.35612790436    0.70195145170    0.36001176289  )
        70           Ge  tau(  70) = (    0.44011182555    0.78984859768    0.44759568339  )
        71           Ge  tau(  71) = (    0.53261214302    0.89169168635    0.34860083369  )
        72           Ge  tau(  72) = (    0.61396540884    0.97290307968    0.44659918436  )
        73           Si  tau(  73) = (    0.17586076046    0.35643398113    0.53112686329  )
        74           Si  tau(  74) = (    0.25924894169    0.44384264095    0.61760233688  )
        75           Ge  tau(  75) = (    0.35269833757    0.53056983803    0.52906943836  )
        76           Si  tau(  76) = (    0.44687113046    0.62582971580    0.62206092911  )
        77           Si  tau(  77) = (    0.53768745895    0.70748009000    0.52522248335  )
        78           Si  tau(  78) = (    0.62116517399    0.79547361948    0.62392973515  )
        79           Ge  tau(  79) = (    0.70777945924    0.88976224659    0.53260967130  )
        80           Ge  tau(  80) = (    0.80213423599    0.97459711687    0.61610250705  )
        81           Ge  tau(  81) = (    0.35610861745    0.34778153231    0.70105797183  )
        82           Si  tau(  82) = (    0.44329004232    0.44090201605    0.79796731037  )
        83           Ge  tau(  83) = (    0.52556148251    0.53383189606    0.71084046974  )
        84           Si  tau(  84) = (    0.62168404077    0.61290492366    0.80033345211  )
        85           Si  tau(  85) = (    0.71232913237    0.70799174870    0.71164644036  )
        86           Si  tau(  86) = (    0.79455714062    0.80109526140    0.79903128169  )
        87           Si  tau(  87) = (    0.88334464021    0.88335252392    0.70560541649  )
        88           Ge  tau(  88) = (    0.97139059312    0.97460682837    0.79850231097  )
        89           Ge  tau(  89) = (    0.53304626985    0.35178749749    0.88034687332  )
        90           Ge  tau(  90) = (    0.62362969839    0.44797270126    0.96697288987  )
        91           Si  tau(  91) = (    0.71131118168    0.53744726349    0.88832996050  )
        92           Si  tau(  92) = (    0.79603326339    0.61923450818    0.97759362633  )
        93           Ge  tau(  93) = (    0.88340115413    0.70818144163    0.88230676689  )
        94           Si  tau(  94) = (    0.96813701218    0.80208963784    0.96668068685  )
        95           Ge  tau(  95) = (    1.05546434903    0.89179599820    0.87977097577  )
        96           Si  tau(  96) = (    1.15314876080    0.98038290161    0.97461128438  )
        97           Ge  tau(  97) = (    0.00511914177    0.53271572619    0.53487785960  )
        98           Ge  tau(  98) = (    0.08529797806    0.61349678778    0.61914673911  )
        99           Si  tau(  99) = (    0.17751417122    0.71193136550    0.53408651227  )
       100           Ge  tau( 100) = (    0.26877159624    0.80210697800    0.61473253745  )
       101           Si  tau( 101) = (    0.35093484672    0.88842301652    0.52824006368  )
       102           Ge  tau( 102) = (    0.44107748840    0.97664448207    0.62196761010  )
       103           Si  tau( 103) = (    0.53287113471    1.06097094650    0.53634751526  )
       104           Si  tau( 104) = (    0.61804149456    1.14435600252    0.62078604760  )
       105           Ge  tau( 105) = (    0.17095305356    0.53128803441    0.70469559858  )
       106           Si  tau( 106) = (    0.26079714447    0.62519785452    0.79674585636  )
       107           Si  tau( 107) = (    0.36052784395    0.70925152800    0.70981130224  )
       108           Si  tau( 108) = (    0.43601261669    0.79622534397    0.79460769452  )
       109           Si  tau( 109) = (    0.52517221334    0.88254913721    0.70640185526  )
       110           Si  tau( 110) = (    0.61363163049    0.97802907192    0.79398618883  )
       111           Si  tau( 111) = (    0.70663862456    1.05624500939    0.70367043460  )
       112           Si  tau( 112) = (    0.79023494598    1.15647880800    0.80041593305  )
       113           Si  tau( 113) = (    0.35578419250    0.53384825679    0.87809181598  )
       114           Ge  tau( 114) = (    0.43969378081    0.61519350920    0.96777982275  )
       115           Si  tau( 115) = (    0.52624472658    0.70270986483    0.88075577617  )
       116           Ge  tau( 116) = (    0.61854383489    0.79537633754    0.96883690789  )
       117           Ge  tau( 117) = (    0.70695014038    0.88247498098    0.88384882867  )
       118           Si  tau( 118) = (    0.79568026646    0.96845768652    0.97336224946  )
       119           Ge  tau( 119) = (    0.88105533712    1.06589912793    0.87798536576  )
       120           Ge  tau( 120) = (    0.97503542613    1.14864688093    0.97086295732  )
       121           Ge  tau( 121) = (    0.52546045099    0.53313631364    1.05694390588  )
       122           Ge  tau( 122) = (    0.61872603530    0.62485486145    1.15048462714  )
       123           Si  tau( 123) = (    0.70411071954    0.71172414566    1.06186389292  )
       124           Si  tau( 124) = (    0.79664523607    0.79242316820    1.15437875412  )
       125           Ge  tau( 125) = (    0.88236252559    0.89076865665    1.05562291709  )
       126           Ge  tau( 126) = (    0.97505838144    0.96772323146    1.14816255263  )
       127           Si  tau( 127) = (    1.05996813669    1.06730077839    1.06663057312  )
       128           Si  tau( 128) = (    1.15045740428    1.14376665298    1.14794598609  )

   Crystallographic axes

     site n.     atom                  positions (cryst. coord.)
         1           Si  tau(   1) = (    0.00228889912    0.00303482699    0.00396369521  )
         2           Si  tau(   2) = (    0.06565800024    0.05573930064    0.06017099191  )
         3           Ge  tau(   3) = (    0.00488228889   -0.01016055086    0.25347830885  )
         4           Si  tau(   4) = (    0.05948962939    0.06750950577    0.31257776707  )
         5           Ge  tau(   5) = (    0.00258691655   -0.00613985298    0.50579546977  )
         6           Ge  tau(   6) = (    0.06078840678    0.06874505591    0.56091265913  )
         7           Si  tau(   7) = (   -0.00528243050   -0.00265717809    0.76121910996  )
         8           Ge  tau(   8) = (    0.06614601733    0.05205977442    0.81341055683  )
         9           Si  tau(   9) = (   -0.00343938943    0.24739756737    0.00004829170  )
        10           Ge  tau(  10) = (    0.05813396109    0.32029076227    0.05926920114  )
        11           Si  tau(  11) = (   -0.00489895470    0.24645951455    0.24991454096  )
        12           Ge  tau(  12) = (    0.06324189508    0.31912796910    0.30712855349  )
        13           Ge  tau(  13) = (   -0.00076807473    0.25002824352    0.49651782066  )
        14           Ge  tau(  14) = (    0.06402817855    0.31105156836    0.55668393541  )
        15           Ge  tau(  15) = (    0.00698657749    0.25166452858    0.74364721625  )
        16           Ge  tau(  16) = (    0.06482289302    0.31888529974    0.80645185302  )
        17           Ge  tau(  17) = (   -0.00124214029    0.49187661850   -0.00090753374  )
        18           Ge  tau(  18) = (    0.07210879683    0.56100923961    0.05992825943  )
        19           Si  tau(  19) = (   -0.00271684972    0.49787220294    0.25395222693  )
        20           Ge  tau(  20) = (    0.07239225938    0.56087500825    0.30557173392  )
        21           Ge  tau(  21) = (    0.00060328631    0.49612469628    0.50050646485  )
        22           Ge  tau(  22) = (    0.06192324026    0.56944415562    0.56332442039  )
        23           Si  tau(  23) = (    0.00171621182    0.50251404295    0.75513758326  )
        24           Si  tau(  24) = (    0.06434858995    0.56243962932    0.81691632773  )
        25           Ge  tau(  25) = (   -0.00043498284    0.74541600951    0.00914874955  )
        26           Ge  tau(  26) = (    0.06917361897    0.80996426809    0.05884770121  )
        27           Si  tau(  27) = (    0.00226287566    0.74262063286    0.25015799418  )
        28           Si  tau(  28) = (    0.06193424259    0.81241798540    0.31550503075  )
        29           Si  tau(  29) = (   -0.00093934997    0.74389118031    0.50620121868  )
        30           Ge  tau(  30) = (    0.05848862116    0.81600402636    0.56605803094  )
        31           Ge  tau(  31) = (    0.00875234299    0.74761283868    0.74838657620  )
        32           Ge  tau(  32) = (    0.05621653327    0.81478759464    0.81404291419  )
        33           Ge  tau(  33) = (    0.24711882296    0.00568257067   -0.00083760388  )
        34           Ge  tau(  34) = (    0.31531765759    0.06838085228    0.05908600011  )
        35           Ge  tau(  35) = (    0.24106401081   -0.00042632512    0.25026265936  )
        36           Ge  tau(  36) = (    0.31952060754    0.05149277539    0.31491765155  )
        37           Ge  tau(  37) = (    0.25466646203    0.00470010517    0.50432397318  )
        38           Ge  tau(  38) = (    0.30723147394    0.06112031640    0.57178169840  )
        39           Ge  tau(  39) = (    0.24613434817   -0.00417896825    0.75420782647  )
        40           Ge  tau(  40) = (    0.31222001206    0.06592493128    0.80681723179  )
        41           Si  tau(  41) = (    0.25283647197    0.24988521891    0.00008062620  )
        42           Si  tau(  42) = (    0.30370810506    0.31179427369    0.07081224072  )
        43           Si  tau(  43) = (    0.25403941806    0.24771546353    0.24432893240  )
        44           Ge  tau(  44) = (    0.31488751353    0.31617638677    0.30198515371  )
        45           Ge  tau(  45) = (    0.24906010515    0.25452500485    0.49230481469  )
        46           Si  tau(  46) = (    0.31627785328    0.31266050501    0.55841064482  )
        47           Ge  tau(  47) = (    0.25191078737    0.25707993226    0.74529144157  )
        48           Ge  tau(  48) = (    0.30538848325    0.32071217279    0.81172810345  )
        49           Ge  tau(  49) = (    0.25046040260    0.50581898892   -0.00272038367  )
        50           Si  tau(  50) = (    0.31107888824    0.55842141733    0.06006766295  )
        51           Ge  tau(  51) = (    0.25147538867    0.50435095250    0.24427340348  )
        52           Ge  tau(  52) = (    0.31312757827    0.56625230535    0.30382966423  )
        53           Si  tau(  53) = (    0.25401247678    0.49471339316    0.49822503839  )
        54           Si  tau(  54) = (    0.31532834056    0.56813382175    0.56325288590  )
        55           Si  tau(  55) = (    0.24868788307    0.50889851670    0.74596102289  )
        56           Si  tau(  56) = (    0.30912709790    0.56937631781    0.81017258278  )
        57           Ge  tau(  57) = (    0.24461082839    0.74950806880    0.00654264323  )
        58           Si  tau(  58) = (    0.31742638705    0.80123707408    0.06434907348  )
        59           Si  tau(  59) = (    0.25284075906    0.74821370872    0.24566143581  )
        60           Ge  tau(  60) = (    0.30733564750    0.82225044187    0.30857099606  )
        61           Si  tau(  61) = (    0.24894638056    0.74563819632    0.49869295168  )
        62           Si  tau(  62) = (    0.31781201033    0.80554979815    0.56265900932  )
        63           Ge  tau(  63) = (    0.24835478388    0.74441586890    0.75048986186  )
        64           Ge  tau(  64) = (    0.31632129333    0.81271999570    0.80868429690  )
        65           Si  tau(  65) = (    0.49765013686   -0.00437489522    0.01173792949  )
        66           Si  tau(  66) = (    0.56374140646    0.06460032816    0.05621485881  )
        67           Ge  tau(  67) = (    0.50197304199    0.00111286602    0.24220983105  )
        68           Si  tau(  68) = (    0.56301902479    0.06072129642    0.31299689088  )
        69           Ge  tau(  69) = (    0.49887744193    0.00981498578    0.49275452390  )
        70           Ge  tau(  70) = (    0.56353934338    0.06892912521    0.55226393341  )
        71           Ge  tau(  71) = (    0.49995646821   -0.00756738388    0.75936739965  )
        72           Ge  tau(  72) = (    0.56912694526    0.06176889480    0.80494689349  )
        73           Si  tau(  73) = (    0.50340390998    0.24747260265    0.00076004000  )
        74           Si  tau(  74) = (    0.56735772429    0.30572787146    0.06028658546  )
        75           Ge  tau(  75) = (    0.49982266411    0.24798091351    0.25000459191  )
        76           Si  tau(  76) = (    0.56630215166    0.31291566115    0.31808812554  )
        77           Si  tau(  77) = (    0.49116353561    0.25103015937    0.50822760376  )
        78           Si  tau(  78) = (    0.56412586003    0.31757402108    0.55959377052  )
        79           Ge  tau(  79) = (    0.50480340660    0.24767606714    0.75178954480  )
        80           Ge  tau(  80) = (    0.55706058243    0.31340309182    0.81935020473  )
        81           Ge  tau(  81) = (    0.48993533914    0.50112186181    0.00196476567  )
        82           Si  tau(  82) = (    0.56262660382    0.56539053833    0.06083463478  )
        83           Ge  tau(  83) = (    0.50838719347    0.49634263690    0.24604372701  )
        84           Si  tau(  84) = (    0.55956665802    0.57163244611    0.30654958450  )
        85           Si  tau(  85) = (    0.49981794864    0.50588122671    0.50029624931  )
        86           Si  tau(  86) = (    0.56926285448    0.55993086059    0.56238086089  )
        87           Si  tau(  87) = (    0.49840560044    0.49859109685    0.74910639539  )
        88           Ge  tau(  88) = (    0.56632514503    0.56195721196    0.81010268540  )
        89           Ge  tau(  89) = (    0.49438342544    0.75008696671    0.00315897906  )
        90           Ge  tau(  90) = (    0.55955291154    0.80733240888    0.07385517931  )
        91           Si  tau(  91) = (    0.50504527188    0.75054709971    0.25445595820  )
        92           Si  tau(  92) = (    0.56605426191    0.81569042136    0.30898824674  )
        93           Ge  tau(  93) = (    0.49961403098    0.74730139578    0.50074683172  )
        94           Si  tau(  94) = (    0.56572055434    0.80042964981    0.56729638018  )
        95           Ge  tau(  95) = (    0.50577579214    0.73739136880    0.75364753443  )
        96           Si  tau(  96) = (    0.56636000885    0.81083494483    0.81819580985  )
        97           Ge  tau(  97) = (    0.75158523829    0.00467399704    0.00195216440  )
        98           Ge  tau(  98) = (    0.81156454205    0.06378713702    0.05609240712  )
        99           Si  tau(  99) = (    0.75563715355   -0.00065853307    0.25075073654  )
       100           Ge  tau( 100) = (    0.81184801253    0.05708998020    0.32190356359  )
       101           Si  tau( 101) = (    0.75345878943   -0.00690943037    0.50192024800  )
       102           Ge  tau( 102) = (    0.81833759741    0.06067130800    0.56167015889  )
       103           Si  tau( 103) = (    0.75233977822    0.00550789482    0.74646776888  )
       104           Si  tau( 104) = (    0.81074530807    0.06643063877    0.80585123726  )
       105           Ge  tau( 105) = (    0.75335082088    0.24293716409   -0.00184313073  )
       106           Si  tau( 106) = (    0.82127497415    0.30509955132    0.06289509501  )
       107           Si  tau( 107) = (    0.74853332393    0.25481568540    0.25403353087  )
       108           Si  tau( 108) = (    0.81658787693    0.30660138951    0.30885718716  )
       109           Si  tau( 109) = (    0.75203692514    0.24633591042    0.49503001977  )
       110           Si  tau( 110) = (    0.81889029347    0.30325429682    0.56305179270  )
       111           Si  tau( 111) = (    0.74438969278    0.24995396627    0.74770886653  )
       112           Si  tau( 112) = (    0.82453228985    0.30654047672    0.80918319195  )
       113           Si  tau( 113) = (    0.74701597360    0.49434702388    0.00806578108  )
       114           Ge  tau( 114) = (    0.80858824317    0.55952780683    0.06141270080  )
       115           Si  tau( 115) = (    0.74756417545    0.49740819307    0.24575056175  )
       116           Ge  tau( 116) = (    0.81006127988    0.55938335231    0.31414745118  )
       117           Ge  tau( 117) = (    0.74886926270    0.50030960954    0.49806324936  )
       118           Si  tau( 118) = (    0.81018266250    0.56549794438    0.55821092687  )
       119           Ge  tau( 119) = (    0.75109485571    0.48962861723    0.75462120152  )
       120           Ge  tau( 120) = (    0.80878507799    0.56319458469    0.81381791280  )
       121           Ge  tau( 121) = (    0.75296172961    0.74120290263    0.00111036541  )
       122           Ge  tau( 122) = (    0.81796898199    0.80838801758    0.06566592500  )
       123           Si  tau( 123) = (    0.75618311881    0.74477324092    0.24985080898  )
       124           Si  tau( 124) = (    0.81319194810    0.81850913487    0.30683673556  )
       125           Ge  tau( 125) = (    0.75210904939    0.73985617975    0.50651252998  )
       126           Ge  tau( 126) = (    0.80637413123    0.81637160713    0.56095204524  )
       127           Si  tau( 127) = (    0.75892622402    0.74844067876    0.74876600227  )
       128           Si  tau( 128) = (    0.80646316062    0.81581341466    0.80922727772  )

     number of k points=     8  gaussian smearing, width (Ry)=  0.0150
                       cart. coord. in units 2pi/alat
        k(    1) = (   0.0000000   0.0000000   0.0000000), wk =   0.2500000
        k(    2) = (  -0.3531079  -0.3529038   0.3530318), wk =   0.2500000
        k(    3) = (  -0.3537204   0.3535766  -0.3531312), wk =   0.2500000
        k(    4) = (  -0.7068283   0.0006728  -0.0000994), wk =   0.2500000
        k(    5) = (   0.3540690  -0.3534612  -0.3539328), wk =   0.2500000
        k(    6) = (   0.0009611  -0.7063650  -0.0009010), wk =   0.2500000
        k(    7) = (   0.0003486   0.0001154  -0.7070640), wk =   0.2500000
        k(    8) = (  -0.3527593  -0.3527883  -0.3540322), wk =   0.2500000

                       cryst. coord.
        k(    1) = (   0.0000000   0.0000000   0.0000000), wk =   0.2500000
        k(    2) = (   0.0000000  -0.0000000  -0.5000000), wk =   0.2500000
        k(    3) = (  -0.0000000  -0.5000000   0.0000000), wk =   0.2500000
        k(    4) = (  -0.0000000  -0.5000000  -0.5000000), wk =   0.2500000
        k(    5) = (  -0.5000000   0.0000000  -0.0000000), wk =   0.2500000
        k(    6) = (  -0.5000000  -0.0000000  -0.5000000), wk =   0.2500000
        k(    7) = (  -0.5000000  -0.5000000  -0.0000000), wk =   0.2500000
        k(    8) = (  -0.5000000  -0.5000000  -0.5000000), wk =   0.2500000

     Dense  grid:   872203 G-vectors     FFT dimensions: ( 135, 135, 135)

     Smooth grid:   511091 G-vectors     FFT dimensions: ( 120, 120, 120)

     Largest allocated arrays     est. size (Mb)     dimensions
        Kohn-Sham Wavefunctions        43.69 Mb     (    4005,  715)
        NL pseudopotentials           140.80 Mb     (    4005, 2304)
        Each V/rho on FFT grid          2.50 Mb     (  164025)
        Each G-vector array             0.42 Mb     (   54512)
        G-vector shells                 0.41 Mb     (   53995)
     Largest temporary arrays     est. size (Mb)     dimensions
        Auxiliary wavefunctions       174.78 Mb     (    4005, 2860)
        Each subspace H/S matrix      124.81 Mb     (    2860, 2860)
        Each <psi_i|beta_j> matrix     25.14 Mb     (    2304,  715)
        Arrays for rho mixing          20.02 Mb     (  164025,    8)

     Check: negative/imaginary core charge=   -0.000001    0.000000

     Initial potential from superposition of free atoms

     starting charge 1191.90616, renormalised to 1192.00000
     Starting wfc are  852 randomized atomic wfcs

     total cpu time spent up to now is      694.3 secs

     Self-consistent Calculation

     iteration #  1     ecut=    35.00 Ry     beta=0.30
     Davidson diagonalization with overlap
     ethr =  1.00E-02,  avg # of iterations =  3.0

     Threshold (ethr) on eigenvalues was too large:
     Diagonalizing with lowered threshold

     Davidson diagonalization with overlap
     ethr =  2.42E-04,  avg # of iterations =  6.6

     total cpu time spent up to now is     6045.9 secs

     total energy              =  -15069.95764058 Ry
     Harris-Foulkes estimate   =  -15070.26465484 Ry
     estimated scf accuracy    <       2.88424265 Ry

     iteration #  2     ecut=    35.00 Ry     beta=0.30
     Davidson diagonalization with overlap
     ethr =  2.42E-04,  avg # of iterations =  1.0

     total cpu time spent up to now is     7660.5 secs

     total energy              =  -15069.37169827 Ry
     Harris-Foulkes estimate   =  -15069.97164689 Ry
     estimated scf accuracy    <       1.77700700 Ry

     iteration #  3     ecut=    35.00 Ry     beta=0.30
     Davidson diagonalization with overlap
     ethr =  1.49E-04,  avg # of iterations =  2.3

     total cpu time spent up to now is     9669.3 secs

     total energy              =  -15069.49146116 Ry
     Harris-Foulkes estimate   =  -15069.49158687 Ry
     estimated scf accuracy    <       0.02770224 Ry

     iteration #  4     ecut=    35.00 Ry     beta=0.30
     Davidson diagonalization with overlap
     ethr =  2.32E-06,  avg # of iterations = 10.3

     total cpu time spent up to now is    15356.7 secs

     total energy              =  -15069.49476064 Ry
     Harris-Foulkes estimate   =  -15069.49531168 Ry
     estimated scf accuracy    <       0.01294545 Ry

     iteration #  5     ecut=    35.00 Ry     beta=0.30
     Davidson diagonalization with overlap
     ethr =  1.09E-06,  avg # of iterations =  2.0

     total cpu time spent up to now is    17492.7 secs

     total energy              =  -15069.49586759 Ry
     Harris-Foulkes estimate   =  -15069.49598659 Ry
     estimated scf accuracy    <       0.00079445 Ry

     iteration #  6     ecut=    35.00 Ry     beta=0.30
     Davidson diagonalization with overlap
     ethr =  6.66E-08,  avg # of iterations =  2.0

     total cpu time spent up to now is    19291.8 secs

     total energy              =  -15069.49581374 Ry
     Harris-Foulkes estimate   =  -15069.49591133 Ry
     estimated scf accuracy    <       0.00035645 Ry

     iteration #  7     ecut=    35.00 Ry     beta=0.30
     Davidson diagonalization with overlap
     ethr =  2.99E-08,  avg # of iterations =  2.1

     total cpu time spent up to now is    21289.4 secs

     total energy              =  -15069.49585156 Ry
     Harris-Foulkes estimate   =  -15069.49584615 Ry
     estimated scf accuracy    <       0.00007339 Ry

     iteration #  8     ecut=    35.00 Ry     beta=0.30
     Davidson diagonalization with overlap
     ethr =  6.16E-09,  avg # of iterations =  1.6

     total cpu time spent up to now is    23014.3 secs

     total energy              =  -15069.49584672 Ry
     Harris-Foulkes estimate   =  -15069.49585490 Ry
     estimated scf accuracy    <       0.00003921 Ry

     iteration #  9     ecut=    35.00 Ry     beta=0.30
     Davidson diagonalization with overlap
     ethr =  3.29E-09,  avg # of iterations =  2.9

     total cpu time spent up to now is    25787.7 secs

     total energy              =  -15069.49585263 Ry
     Harris-Foulkes estimate   =  -15069.49585670 Ry
     estimated scf accuracy    <       0.00001224 Ry

     iteration # 10     ecut=    35.00 Ry     beta=0.30
     Davidson diagonalization with overlap
     ethr =  1.03E-09,  avg # of iterations =  2.0

     total cpu time spent up to now is    27612.6 secs

     total energy              =  -15069.49585255 Ry
     Harris-Foulkes estimate   =  -15069.49585359 Ry
     estimated scf accuracy    <       0.00000295 Ry

     iteration # 11     ecut=    35.00 Ry     beta=0.30
     Davidson diagonalization with overlap
     ethr =  2.48E-10,  avg # of iterations =  2.0

     total cpu time spent up to now is    30129.4 secs

     total energy              =  -15069.49585321 Ry
     Harris-Foulkes estimate   =  -15069.49585307 Ry
     estimated scf accuracy    <       0.00000016 Ry

     iteration # 12     ecut=    35.00 Ry     beta=0.30
     Davidson diagonalization with overlap
     ethr =  1.32E-11,  avg # of iterations =  2.5

     total cpu time spent up to now is    32146.0 secs

     total energy              =  -15069.49585331 Ry
     Harris-Foulkes estimate   =  -15069.49585323 Ry
     estimated scf accuracy    <       0.00000007 Ry

     iteration # 13     ecut=    35.00 Ry     beta=0.30
     Davidson diagonalization with overlap
     ethr =  5.64E-12,  avg # of iterations =  2.1

     total cpu time spent up to now is    34223.8 secs

     total energy              =  -15069.49585336 Ry
     Harris-Foulkes estimate   =  -15069.49585332 Ry
     estimated scf accuracy    <          5.7E-09 Ry

     iteration # 14     ecut=    35.00 Ry     beta=0.30
     Davidson diagonalization with overlap
     ethr =  4.76E-13,  avg # of iterations =  2.9

     total cpu time spent up to now is    36223.3 secs

     total energy              =  -15069.49585338 Ry
     Harris-Foulkes estimate   =  -15069.49585336 Ry
     estimated scf accuracy    <          3.7E-09 Ry

     iteration # 15     ecut=    35.00 Ry     beta=0.30
     Davidson diagonalization with overlap
     ethr =  3.09E-13,  avg # of iterations =  2.9

     total cpu time spent up to now is    38417.3 secs

     End of self-consistent calculation

          k = 0.0000 0.0000 0.0000 ( 63937 PWs)   bands (ev):

   -17.4260 -17.3983 -17.3685 -17.3506 -17.3378 -17.3112 -17.3059 -17.2755
   -17.2722 -17.2691 -17.2641 -17.2602 -17.2596 -17.2513 -17.2440 -17.2412
   -17.2366 -17.2359 -17.2292 -17.2275 -17.2260 -17.2144 -17.2118 -17.2102
   -17.2092 -17.2066 -17.2050 -17.2020 -17.1959 -17.1914 -17.1900 -17.1889
   -17.1831 -17.1798 -17.1756 -17.1729 -17.1706 -17.1690 -17.1685 -17.1630
   -17.1604 -17.1550 -17.1489 -17.1464 -17.1397 -17.1368 -17.1353 -17.1343
   -17.1329 -17.1329 -17.1311 -17.1292 -17.1251 -17.1185 -17.1182 -17.1178
   -17.1173 -17.1147 -17.1113 -17.1107 -17.1090 -17.1062 -17.1032 -17.1024
   -17.0996 -17.0990 -17.0964 -17.0935 -17.0918 -17.0884 -17.0873 -17.0866
   -17.0846 -17.0839 -17.0821 -17.0811 -17.0773 -17.0747 -17.0731 -17.0720
   -17.0717 -17.0668 -17.0651 -17.0645 -17.0608 -17.0598 -17.0575 -17.0542
   -17.0522 -17.0513 -17.0470 -17.0464 -17.0445 -17.0440 -17.0435 -17.0424
   -17.0394 -17.0392 -17.0388 -17.0369 -17.0356 -17.0347 -17.0327 -17.0312
   -17.0296 -17.0287 -17.0269 -17.0257 -17.0241 -17.0237 -17.0210 -17.0185
   -17.0178 -17.0164 -17.0159 -17.0145 -17.0136 -17.0132 -17.0122 -17.0102
   -17.0076 -17.0068 -17.0037 -17.0032 -17.0023 -17.0014 -17.0006 -16.9988
   -16.9986 -16.9980 -16.9965 -16.9961 -16.9956 -16.9924 -16.9922 -16.9916
   -16.9901 -16.9891 -16.9870 -16.9867 -16.9863 -16.9848 -16.9838 -16.9826
   -16.9820 -16.9817 -16.9796 -16.9786 -16.9775 -16.9760 -16.9756 -16.9739
   -16.9709 -16.9687 -16.9676 -16.9669 -16.9656 -16.9637 -16.9611 -16.9603
   -16.9593 -16.9588 -16.9571 -16.9570 -16.9552 -16.9541 -16.9528 -16.9516
   -16.9512 -16.9498 -16.9493 -16.9485 -16.9476 -16.9460 -16.9446 -16.9419
   -16.9393 -16.9381 -16.9365 -16.9360 -16.9345 -16.9329 -16.9314 -16.9303
   -16.9292 -16.9289 -16.9284 -16.9261 -16.9258 -16.9248 -16.9235 -16.9225
   -16.9222 -16.9216 -16.9209 -16.9201 -16.9192 -16.9189 -16.9173 -16.9171
   -16.9168 -16.9161 -16.9153 -16.9149 -16.9144 -16.9141 -16.9123 -16.9122
   -16.9113 -16.9109 -16.9087 -16.9078 -16.9063 -16.9044 -16.9041 -16.9021
   -16.9014 -16.9001 -16.9001 -16.8995 -16.8978 -16.8967 -16.8950 -16.8946
   -16.8937 -16.8932 -16.8923 -16.8911 -16.8900 -16.8890 -16.8876 -16.8874
   -16.8873 -16.8867 -16.8858 -16.8853 -16.8851 -16.8840 -16.8829 -16.8813
   -16.8800 -16.8795 -16.8778 -16.8772 -16.8762 -16.8745 -16.8742 -16.8726
   -16.8711 -16.8703 -16.8698 -16.8689 -16.8681 -16.8666 -16.8662 -16.8655
   -16.8649 -16.8642 -16.8641 -16.8634 -16.8632 -16.8620 -16.8611 -16.8591
   -16.8587 -16.8576 -16.8572 -16.8571 -16.8569 -16.8550 -16.8549 -16.8541
   -16.8536 -16.8517 -16.8500 -16.8489 -16.8467 -16.8455 -16.8453 -16.8449
   -16.8445 -16.8438 -16.8434 -16.8430 -16.8414 -16.8406 -16.8392 -16.8391
   -16.8385 -16.8360 -16.8344 -16.8339 -16.8332 -16.8324 -16.8323 -16.8316
   -16.8268 -16.8261 -16.8246 -16.8240 -16.8238 -16.8231 -16.8224 -16.8219
   -16.8181 -16.8174 -16.8155 -16.8153 -16.8145 -16.8141 -16.8129 -16.8120
   -16.8113 -16.8107 -16.8082 -16.8080 -16.8046 -16.8028 -16.8025 -16.8021
   -16.7973 -16.7957 -16.7951 -16.7882 -16.7881 -16.7866 -16.7861 -16.7841
   -16.7799 -16.7779 -16.7777 -16.7725 -16.7699 -16.7682 -16.7564 -16.7533
   -16.7525 -16.7493 -16.7413 -16.7239  -5.1472  -4.5733  -4.5165  -4.4539
    -4.4067  -4.3509  -4.3398  -4.3340  -4.2038  -4.1556  -4.0602  -4.0213
    -4.0106  -3.9718  -3.8100  -3.4351  -3.3586  -3.3273  -3.2778  -3.2616
    -3.1977  -3.1756  -3.1440  -3.1130  -3.0656  -3.0139  -2.9686  -2.9184
    -2.8529  -2.8310  -2.7945  -2.7496  -2.6787  -2.6016  -2.5835  -2.5556
    -2.5271  -2.4819  -2.4660  -2.4384  -2.3865  -2.3853  -2.3669  -2.3075
    -2.2875  -2.2570  -2.2410  -2.2078  -2.1789  -2.1436  -2.1151  -2.0847
    -2.0677  -2.0321  -1.9349  -1.1891  -1.1236  -1.0912  -1.0355  -0.9930
    -0.9640  -0.9595  -0.9303  -0.8803  -0.8695  -0.8100  -0.8043  -0.7307
    -0.7077  -0.6556  -0.6017  -0.5485  -0.5027  -0.0431   0.0780   0.1082
     0.1668   0.2538   0.2837   0.2907   0.3249   0.3676   0.3981   0.4208
     0.4732   0.4885   0.5482   0.5534   0.5870   0.6332   0.6565   0.6763
     0.7134   0.7262   0.7567   0.7764   0.8372   0.8661   0.8709   0.9076
     0.9160   1.2719   1.3275   1.3846   1.4142   1.4803   1.5222   1.5391
     1.5900   1.6285   1.6544   1.7414   1.7700   2.9436   2.9703   2.9999
     3.0653   3.0988   3.1459   3.2072   3.2328   3.2560   3.2908   3.3071
     3.3431   3.3597   3.3936   3.4096   3.4397   3.4472   3.4533   3.4590
     3.4884   3.5048   3.5086   3.5143   3.5360   3.5444   3.5546   3.5646
     3.5746   3.5879   3.5954   3.6122   3.6178   3.6408   3.6409   3.6612
     3.6675   3.6885   3.6911   3.7007   3.7245   3.7312   3.7337   3.7461
     3.7692   3.7777   3.7979   3.8071   3.8158   3.8261   3.8393   3.8564
     3.8626   3.8813   3.8931   3.9040   3.9220   3.9307   3.9501   3.9716
     3.9839   4.0002   4.0183   4.4284   4.4661   4.4855   4.5067   4.5218
     4.5369   4.9618   4.9897   5.0170   5.0305   5.0492   5.0592   5.0685
     5.0860   5.0889   5.1074   5.1313   5.1448   5.1618   5.1686   5.1805
     5.1986   5.2066   5.2192   5.2404   5.2575   5.2698   5.2773   5.2955
     5.3342   5.4133   5.4221   5.4430   5.4655   5.4893   5.4927   5.5160
     5.5463   5.5759   5.6017   5.6488   5.6988   5.9092   5.9387   5.9460
     5.9636   5.9869   6.0094   6.0327   6.0470   6.0900   6.1157   6.1176
     6.1513   6.1877   6.1960   6.2381   6.2596   6.2743   6.3064   6.3425
     6.3908   6.5125   6.5704   6.5788   6.6437   6.6616   6.6678   6.6790
     6.7367   6.7606   6.7781   6.8001   6.8249   6.8316   6.8929   6.9384
     7.0239   7.4860   7.5843   7.7220   7.9483   7.9787   8.0298   8.0504
     8.1178   8.1281   8.1873   8.2163   8.2390   8.3136   8.3371   8.3672
     8.4011   8.4311   8.4677   8.4876   8.6074   8.6087   8.6298   8.6609
     8.6685   8.6845   8.7117   8.7318   8.7472   8.7589   8.7750   8.7882
     8.7960   8.8250   8.8368   8.8664   8.8806   8.9072   8.9182   8.9345
     8.9411   8.9728   8.9865   8.9955   9.0063   9.0182   9.0355   9.0586
     9.0858   9.1001   9.1199   9.1893   9.2625   9.5377   9.5752   9.6026
     9.6059   9.6382   9.6578   9.6911   9.7188   9.7581   9.7704   9.8579
     9.9020   9.9336  10.0522  10.1237  10.3475  10.3677  10.4143  10.4355
    10.4715  10.5164  10.6968  10.7261  10.7452  10.8007  10.8273  10.8546
    10.8661  10.9039  10.9089  10.9653  10.9710  10.9926  11.0092  11.0196
    11.0574  11.0820  11.1197  11.1439  11.1543  11.1683  11.1728  11.2172
    11.2650  11.3273  11.5330  11.5599  11.6002  11.6109  11.6263  11.6533
    11.6880  11.6955  11.7033  11.7127  11.7307  11.7421  11.7606  11.7666
    11.7876  11.8036  11.8225  11.8266  11.8346  11.8481  11.8793  11.8885
    11.9032  11.9085  11.9128

     occupation numbers 
     1.0000   1.0000   1.0000   1.0000   1.0000   1.0000   1.0000   1.0000
     1.0000   1.0000   1.0000   1.0000   1.0000   1.0000   1.0000   1.0000
     1.0000   1.0000   1.0000   1.0000   1.0000   1.0000   1.0000   1.0000
     1.0000   1.0000   1.0000   1.0000   1.0000   1.0000   1.0000   1.0000
     1.0000   1.0000   1.0000   1.0000   1.0000   1.0000   1.0000   1.0000
     1.0000   1.0000   1.0000   1.0000   1.0000   1.0000   1.0000   1.0000
     1.0000   1.0000   1.0000   1.0000   1.0000   1.0000   1.0000   1.0000
     1.0000   1.0000   1.0000   1.0000   1.0000   1.0000   1.0000   1.0000
     1.0000   1.0000   1.0000   1.0000   1.0000   1.0000   1.0000   1.0000
     1.0000   1.0000   1.0000   1.0000   1.0000   1.0000   1.0000   1.0000
     1.0000   1.0000   1.0000   1.0000   1.0000   1.0000   1.0000   1.0000
     1.0000   1.0000   1.0000   1.0000   1.0000   1.0000   1.0000   1.0000
     1.0000   1.0000   1.0000   1.0000   1.0000   1.0000   1.0000   1.0000
     1.0000   1.0000   1.0000   1.0000   1.0000   1.0000   1.0000   1.0000
     1.0000   1.0000   1.0000   1.0000   1.0000   1.0000   1.0000   1.0000
     1.0000   1.0000   1.0000   1.0000   1.0000   1.0000   1.0000   1.0000
     1.0000   1.0000   1.0000   1.0000   1.0000   1.0000   1.0000   1.0000
     1.0000   1.0000   1.0000   1.0000   1.0000   1.0000   1.0000   1.0000
     1.0000   1.0000   1.0000   1.0000   1.0000   1.0000   1.0000   1.0000
     1.0000   1.0000   1.0000   1.0000   1.0000   1.0000   1.0000   1.0000
     1.0000   1.0000   1.0000   1.0000   1.0000   1.0000   1.0000   1.0000
     1.0000   1.0000   1.0000   1.0000   1.0000   1.0000   1.0000   1.0000
     1.0000   1.0000   1.0000   1.0000   1.0000   1.0000   1.0000   1.0000
     1.0000   1.0000   1.0000   1.0000   1.0000   1.0000   1.0000   1.0000
     1.0000   1.0000   1.0000   1.0000   1.0000   1.0000   1.0000   1.0000
     1.0000   1.0000   1.0000   1.0000   1.0000   1.0000   1.0000   1.0000
     1.0000   1.0000   1.0000   1.0000   1.0000   1.0000   1.0000   1.0000
     1.0000   1.0000   1.0000   1.0000   1.0000   1.0000   1.0000   1.0000
     1.0000   1.0000   1.0000   1.0000   1.0000   1.0000   1.0000   1.0000
     1.0000   1.0000   1.0000   1.0000   1.0000   1.0000   1.0000   1.0000
     1.0000   1.0000   1.0000   1.0000   1.0000   1.0000   1.0000   1.0000
     1.0000   1.0000   1.0000   1.0000   1.0000   1.0000   1.0000   1.0000
     1.0000   1.0000   1.0000   1.0000   1.0000   1.0000   1.0000   1.0000
     1.0000   1.0000   1.0000   1.0000   1.0000   1.0000   1.0000   1.0000
     1.0000   1.0000   1.0000   1.0000   1.0000   1.0000   1.0000   1.0000
     1.0000   1.0000   1.0000   1.0000   1.0000   1.0000   1.0000   1.0000
     1.0000   1.0000   1.0000   1.0000   1.0000   1.0000   1.0000   1.0000
     1.0000   1.0000   1.0000   1.0000   1.0000   1.0000   1.0000   1.0000
     1.0000   1.0000   1.0000   1.0000   1.0000   1.0000   1.0000   1.0000
     1.0000   1.0000   1.0000   1.0000   1.0000   1.0000   1.0000   1.0000
     1.0000   1.0000   1.0000   1.0000   1.0000   1.0000   1.0000   1.0000
     1.0000   1.0000   1.0000   1.0000   1.0000   1.0000   1.0000   1.0000
     1.0000   1.0000   1.0000   1.0000   1.0000   1.0000   1.0000   1.0000
     1.0000   1.0000   1.0000   1.0000   1.0000   1.0000   1.0000   1.0000
     1.0000   1.0000   1.0000   1.0000   1.0000   1.0000   1.0000   1.0000
     1.0000   1.0000   1.0000   1.0000   1.0000   1.0000   1.0000   1.0000
     1.0000   1.0000   1.0000   1.0000   1.0000   1.0000   1.0000   1.0000
     1.0000   1.0000   1.0000   1.0000   1.0000   1.0000   1.0000   1.0000
     1.0000   1.0000   1.0000   1.0000   1.0000   1.0000   1.0000   1.0000
     1.0000   1.0000   1.0000   1.0000   1.0000   1.0000   1.0000   1.0000
     1.0000   1.0000   1.0000   1.0000   1.0000   1.0000   1.0000   1.0000
     1.0000   1.0000   1.0000   1.0000   1.0000   1.0000   1.0000   1.0000
     1.0000   1.0000   1.0000   1.0000   1.0000   1.0000   1.0000   1.0000
     1.0000   1.0000   1.0000   1.0000   1.0000   1.0000   1.0000   1.0000
     1.0000   1.0000   1.0000   1.0000   1.0000   1.0000   1.0000   1.0000
     1.0000   1.0000   1.0000   1.0000   1.0000   1.0000   1.0000   1.0000
     1.0000   1.0000   1.0000   1.0000   1.0000   1.0000   1.0000   1.0000
     1.0000   1.0000   1.0000   1.0000   1.0000   1.0000   1.0000   1.0000
     1.0000   1.0000   1.0000   1.0000   1.0000   1.0000   1.0000   1.0000
     1.0000   1.0000   1.0000   1.0000   1.0000   1.0000   1.0000   1.0000
     1.0000   1.0000   1.0000   1.0000   1.0000   1.0000   1.0000   1.0000
     1.0000   1.0000   1.0000   1.0000   1.0000   1.0000   1.0000   1.0000
     1.0000   1.0000   1.0000   1.0000   1.0000   1.0000   1.0000   1.0000
     1.0000   1.0000   1.0000   1.0000   1.0000   1.0000   1.0000   1.0000
     1.0000   1.0000   1.0000   1.0000   1.0000   1.0000   1.0000   1.0000
     1.0000   1.0000   1.0000   1.0000   1.0000   1.0000   1.0000   1.0000
     1.0000   1.0000   1.0000   1.0000   1.0000   1.0000   1.0000   1.0000
     1.0000   1.0000   1.0000   1.0000   1.0000   1.0000   1.0000   1.0000
     1.0000   1.0000   1.0000   1.0000   1.0000   1.0000   1.0000   1.0000
     1.0000   1.0000   1.0000   1.0000   1.0000   1.0000   1.0000   1.0000
     1.0000   1.0000   1.0000   1.0000   1.0000   1.0000   1.0000   1.0000
     1.0000   1.0000   1.0000   1.0000   1.0000   1.0000   1.0000   1.0000
     1.0000   1.0000   1.0000   1.0000   1.0000   1.0000   1.0000   1.0000
     1.0000   1.0000   1.0000   1.0000   1.0000   1.0000   1.0000   1.0000
     1.0000   0.9632   0.8661   0.5613   0.0787   0.0521   0.0239   0.0169
     0.0048   0.0039   0.0011   0.0005   0.0003   0.0000   0.0000   0.0000
     0.0000   0.0000   0.0000   0.0000   0.0000   0.0000   0.0000   0.0000
     0.0000   0.0000   0.0000   0.0000   0.0000   0.0000   0.0000   0.0000
     0.0000   0.0000   0.0000   0.0000   0.0000   0.0000   0.0000   0.0000
     0.0000   0.0000   0.0000   0.0000   0.0000   0.0000   0.0000   0.0000
     0.0000   0.0000   0.0000   0.0000   0.0000   0.0000   0.0000   0.0000
     0.0000   0.0000   0.0000   0.0000   0.0000   0.0000   0.0000   0.0000
     0.0000   0.0000   0.0000   0.0000   0.0000   0.0000   0.0000   0.0000
     0.0000   0.0000   0.0000   0.0000   0.0000   0.0000   0.0000   0.0000
     0.0000   0.0000   0.0000   0.0000   0.0000   0.0000   0.0000   0.0000
     0.0000   0.0000   0.0000   0.0000   0.0000   0.0000   0.0000   0.0000
     0.0000   0.0000   0.0000   0.0000   0.0000   0.0000   0.0000   0.0000
     0.0000   0.0000   0.0000   0.0000   0.0000   0.0000   0.0000   0.0000
     0.0000   0.0000   0.0000   0.0000   0.0000   0.0000   0.0000   0.0000
     0.0000   0.0000   0.0000

          k =-0.3531-0.3529 0.3530 ( 63912 PWs)   bands (ev):

   -17.4261 -17.3984 -17.3685 -17.3506 -17.3378 -17.3112 -17.3059 -17.2756
   -17.2723 -17.2691 -17.2642 -17.2602 -17.2597 -17.2513 -17.2441 -17.2413
   -17.2366 -17.2360 -17.2293 -17.2275 -17.2261 -17.2145 -17.2120 -17.2103
   -17.2096 -17.2074 -17.2051 -17.2007 -17.1959 -17.1914 -17.1901 -17.1889
   -17.1831 -17.1798 -17.1757 -17.1728 -17.1706 -17.1692 -17.1685 -17.1630
   -17.1605 -17.1551 -17.1489 -17.1467 -17.1399 -17.1370 -17.1351 -17.1349
   -17.1329 -17.1324 -17.1313 -17.1289 -17.1251 -17.1187 -17.1185 -17.1178
   -17.1174 -17.1150 -17.1112 -17.1107 -17.1076 -17.1047 -17.1032 -17.1024
   -17.1001 -17.0993 -17.0963 -17.0935 -17.0915 -17.0884 -17.0873 -17.0866
   -17.0853 -17.0839 -17.0829 -17.0811 -17.0773 -17.0748 -17.0729 -17.0718
   -17.0716 -17.0678 -17.0665 -17.0644 -17.0612 -17.0602 -17.0568 -17.0549
   -17.0523 -17.0514 -17.0470 -17.0462 -17.0449 -17.0444 -17.0429 -17.0421
   -17.0394 -17.0392 -17.0373 -17.0360 -17.0356 -17.0348 -17.0325 -17.0315
   -17.0307 -17.0291 -17.0270 -17.0259 -17.0239 -17.0234 -17.0209 -17.0184
   -17.0178 -17.0164 -17.0160 -17.0145 -17.0135 -17.0133 -17.0122 -17.0099
   -17.0077 -17.0054 -17.0041 -17.0035 -17.0029 -17.0015 -17.0007 -16.9996
   -16.9987 -16.9982 -16.9969 -16.9965 -16.9956 -16.9925 -16.9922 -16.9915
   -16.9901 -16.9890 -16.9870 -16.9868 -16.9864 -16.9849 -16.9836 -16.9826
   -16.9820 -16.9814 -16.9800 -16.9787 -16.9773 -16.9760 -16.9754 -16.9739
   -16.9711 -16.9688 -16.9675 -16.9670 -16.9655 -16.9638 -16.9612 -16.9600
   -16.9592 -16.9587 -16.9572 -16.9570 -16.9553 -16.9543 -16.9528 -16.9519
   -16.9507 -16.9498 -16.9492 -16.9484 -16.9474 -16.9464 -16.9444 -16.9419
   -16.9395 -16.9382 -16.9368 -16.9358 -16.9346 -16.9335 -16.9313 -16.9303
   -16.9291 -16.9288 -16.9286 -16.9261 -16.9257 -16.9248 -16.9237 -16.9227
   -16.9223 -16.9219 -16.9210 -16.9202 -16.9192 -16.9188 -16.9173 -16.9170
   -16.9167 -16.9162 -16.9156 -16.9149 -16.9147 -16.9142 -16.9124 -16.9122
   -16.9114 -16.9110 -16.9088 -16.9078 -16.9064 -16.9044 -16.9041 -16.9021
   -16.9012 -16.9003 -16.9001 -16.8998 -16.8979 -16.8970 -16.8950 -16.8946
   -16.8938 -16.8932 -16.8923 -16.8912 -16.8893 -16.8887 -16.8885 -16.8876
   -16.8874 -16.8871 -16.8862 -16.8854 -16.8853 -16.8842 -16.8825 -16.8815
   -16.8796 -16.8795 -16.8779 -16.8774 -16.8761 -16.8745 -16.8740 -16.8728
   -16.8711 -16.8704 -16.8699 -16.8688 -16.8685 -16.8664 -16.8662 -16.8658
   -16.8649 -16.8643 -16.8641 -16.8634 -16.8633 -16.8619 -16.8609 -16.8590
   -16.8587 -16.8575 -16.8574 -16.8569 -16.8568 -16.8550 -16.8548 -16.8543
   -16.8536 -16.8518 -16.8500 -16.8494 -16.8467 -16.8453 -16.8453 -16.8448
   -16.8447 -16.8438 -16.8434 -16.8431 -16.8414 -16.8409 -16.8392 -16.8390
   -16.8384 -16.8362 -16.8343 -16.8340 -16.8331 -16.8325 -16.8324 -16.8319
   -16.8268 -16.8261 -16.8247 -16.8240 -16.8237 -16.8232 -16.8223 -16.8218
   -16.8184 -16.8176 -16.8156 -16.8155 -16.8145 -16.8141 -16.8129 -16.8118
   -16.8114 -16.8107 -16.8082 -16.8079 -16.8047 -16.8028 -16.8026 -16.8022
   -16.7974 -16.7958 -16.7951 -16.7882 -16.7881 -16.7867 -16.7860 -16.7841
   -16.7800 -16.7779 -16.7777 -16.7725 -16.7699 -16.7682 -16.7564 -16.7533
   -16.7526 -16.7493 -16.7413 -16.7239  -5.0059  -4.9259  -4.5569  -4.4829
    -4.4439  -4.4093  -4.3051  -4.2565  -4.0847  -4.0464  -3.9714  -3.9268
    -3.8269  -3.7999  -3.5879  -3.5674  -3.5412  -3.4437  -3.4125  -3.3110
    -3.2732  -3.2589  -3.1653  -3.1280  -3.0938  -3.0681  -2.9783  -2.9390
    -2.9229  -2.8982  -2.8546  -2.8335  -2.7863  -2.7441  -2.7107  -2.6852
    -2.6311  -2.5521  -2.5195  -2.5182  -2.3164  -2.2947  -2.2617  -2.1915
    -2.1369  -2.1187  -2.0303  -1.9746  -1.9524  -1.8246  -1.7930  -1.7772
    -1.7262  -1.6795  -1.6769  -1.6645  -1.5864  -1.5755  -1.5465  -1.4662
    -1.4323  -1.3812  -1.2881  -1.2442  -0.4442  -0.4250  -0.3366  -0.3033
    -0.2688  -0.2321  -0.1884  -0.1543  -0.1068  -0.0877  -0.0465   0.0077
     0.0538   0.0618   0.0853   0.1322   0.1845   0.2499   0.2961   0.3198
     0.3238   0.3598   0.4018   0.4126   0.4510   0.4958   0.5097   0.5717
     0.5939   0.7126   0.9098   0.9582   0.9842   1.0158   1.0883   1.1324
     1.1569   1.2203   1.2459   1.2793   1.2910   1.3239   1.3471   1.4033
     1.7767   1.9429   2.0117   2.0894   2.1551   2.1955   2.2946   2.3956
     2.4321   2.4921   2.5380   2.5726   3.1634   3.1835   3.2004   3.2182
     3.2283   3.2441   3.2686   3.2761   3.2840   3.2911   3.3172   3.3448
     3.3526   3.3544   3.3708   3.4071   3.4154   3.4247   3.6112   3.6665
     3.7260   3.7525   3.7826   3.8274   3.8570   3.8785   3.8901   3.8976
     3.9111   3.9161   3.9355   3.9572   3.9685   3.9796   3.9878   4.0120
     4.0181   4.0333   4.0494   4.0621   4.0924   4.1124   4.3043   4.3385
     4.3524   4.3628   4.3779   4.4009   4.4153   4.4191   4.4426   4.4467
     4.4862   4.5001   4.5633   4.5649   4.5891   4.6087   4.6232   4.6405
     4.6512   4.6638   4.6750   4.6986   4.7520   4.7746   4.9312   4.9384
     4.9572   4.9695   4.9896   5.0122   5.0259   5.0417   5.0818   5.0954
     5.1002   5.1085   5.1374   5.1842   5.1943   5.2082   5.2191   5.2678
     5.3716   5.3810   5.3962   5.4064   5.4212   5.4320   5.4466   5.4601
     5.4969   5.5072   5.5125   5.5355   5.5428   5.5646   5.6118   5.6176
     5.6614   5.6760   5.6970   5.7308   5.7686   5.7853   5.8108   5.8358
     5.8708   5.8839   5.9823   6.0521   6.0568   6.1055   6.1208   6.1425
     6.1728   6.2081   6.2368   6.2621   6.2997   6.3101   6.3475   6.3676
     6.4242   6.4590   6.4956   6.6026   6.6298   6.6746   6.7156   6.8080
     7.1764   7.1900   7.2524   7.3255   8.1148   8.1308   8.1824   8.2085
     8.2643   8.3134   8.3539   8.4005   8.5000   8.5430   8.6308   8.7148
     8.7504   8.8056   8.9473   8.9747   9.0204   9.0493   9.0682   9.1130
     9.1200   9.1440   9.1576   9.2086   9.2159   9.2346   9.2587   9.2803
     9.3224   9.3322   9.3542   9.3577   9.3952   9.4211   9.4356   9.4628
     9.4680   9.4866   9.5321   9.5827   9.5853   9.5956   9.6189   9.6628
     9.6845   9.7036   9.7367   9.7424   9.7487   9.7816   9.8032   9.8098
     9.8251   9.8534   9.8734   9.9088   9.9282   9.9640  10.0403  10.0635
    10.0661  10.0899  10.1187  10.1387  10.1604  10.1813  10.1952  10.2137
    10.2255  10.2551  10.2844  10.3078  10.3137  10.3501  10.4072  10.4180
    10.4307  10.4563  10.5038  10.5356  10.5527  10.5723  10.6111  10.6227
    10.6514  10.7026  10.7368  10.7793  10.7916  10.8559  10.8685  10.8757
    10.9070  10.9189  10.9409  10.9451  10.9705  10.9865  10.9970  10.9995
    11.0133  11.0414  11.0788  11.0877  11.1215  11.1284  11.1636  11.2029
    11.2163  11.2493  11.2544  11.2946  11.3034  11.3233  11.3550  11.3918
    11.3977  11.4452  11.4551

     occupation numbers 
     1.0000   1.0000   1.0000   1.0000   1.0000   1.0000   1.0000   1.0000
     1.0000   1.0000   1.0000   1.0000   1.0000   1.0000   1.0000   1.0000
     1.0000   1.0000   1.0000   1.0000   1.0000   1.0000   1.0000   1.0000
     1.0000   1.0000   1.0000   1.0000   1.0000   1.0000   1.0000   1.0000
     1.0000   1.0000   1.0000   1.0000   1.0000   1.0000   1.0000   1.0000
     1.0000   1.0000   1.0000   1.0000   1.0000   1.0000   1.0000   1.0000
     1.0000   1.0000   1.0000   1.0000   1.0000   1.0000   1.0000   1.0000
     1.0000   1.0000   1.0000   1.0000   1.0000   1.0000   1.0000   1.0000
     1.0000   1.0000   1.0000   1.0000   1.0000   1.0000   1.0000   1.0000
     1.0000   1.0000   1.0000   1.0000   1.0000   1.0000   1.0000   1.0000
     1.0000   1.0000   1.0000   1.0000   1.0000   1.0000   1.0000   1.0000
     1.0000   1.0000   1.0000   1.0000   1.0000   1.0000   1.0000   1.0000
     1.0000   1.0000   1.0000   1.0000   1.0000   1.0000   1.0000   1.0000
     1.0000   1.0000   1.0000   1.0000   1.0000   1.0000   1.0000   1.0000
     1.0000   1.0000   1.0000   1.0000   1.0000   1.0000   1.0000   1.0000
     1.0000   1.0000   1.0000   1.0000   1.0000   1.0000   1.0000   1.0000
     1.0000   1.0000   1.0000   1.0000   1.0000   1.0000   1.0000   1.0000
     1.0000   1.0000   1.0000   1.0000   1.0000   1.0000   1.0000   1.0000
     1.0000   1.0000   1.0000   1.0000   1.0000   1.0000   1.0000   1.0000
     1.0000   1.0000   1.0000   1.0000   1.0000   1.0000   1.0000   1.0000
     1.0000   1.0000   1.0000   1.0000   1.0000   1.0000   1.0000   1.0000
     1.0000   1.0000   1.0000   1.0000   1.0000   1.0000   1.0000   1.0000
     1.0000   1.0000   1.0000   1.0000   1.0000   1.0000   1.0000   1.0000
     1.0000   1.0000   1.0000   1.0000   1.0000   1.0000   1.0000   1.0000
     1.0000   1.0000   1.0000   1.0000   1.0000   1.0000   1.0000   1.0000
     1.0000   1.0000   1.0000   1.0000   1.0000   1.0000   1.0000   1.0000
     1.0000   1.0000   1.0000   1.0000   1.0000   1.0000   1.0000   1.0000
     1.0000   1.0000   1.0000   1.0000   1.0000   1.0000   1.0000   1.0000
     1.0000   1.0000   1.0000   1.0000   1.0000   1.0000   1.0000   1.0000
     1.0000   1.0000   1.0000   1.0000   1.0000   1.0000   1.0000   1.0000
     1.0000   1.0000   1.0000   1.0000   1.0000   1.0000   1.0000   1.0000
     1.0000   1.0000   1.0000   1.0000   1.0000   1.0000   1.0000   1.0000
     1.0000   1.0000   1.0000   1.0000   1.0000   1.0000   1.0000   1.0000
     1.0000   1.0000   1.0000   1.0000   1.0000   1.0000   1.0000   1.0000
     1.0000   1.0000   1.0000   1.0000   1.0000   1.0000   1.0000   1.0000
     1.0000   1.0000   1.0000   1.0000   1.0000   1.0000   1.0000   1.0000
     1.0000   1.0000   1.0000   1.0000   1.0000   1.0000   1.0000   1.0000
     1.0000   1.0000   1.0000   1.0000   1.0000   1.0000   1.0000   1.0000
     1.0000   1.0000   1.0000   1.0000   1.0000   1.0000   1.0000   1.0000
     1.0000   1.0000   1.0000   1.0000   1.0000   1.0000   1.0000   1.0000
     1.0000   1.0000   1.0000   1.0000   1.0000   1.0000   1.0000   1.0000
     1.0000   1.0000   1.0000   1.0000   1.0000   1.0000   1.0000   1.0000
     1.0000   1.0000   1.0000   1.0000   1.0000   1.0000   1.0000   1.0000
     1.0000   1.0000   1.0000   1.0000   1.0000   1.0000   1.0000   1.0000
     1.0000   1.0000   1.0000   1.0000   1.0000   1.0000   1.0000   1.0000
     1.0000   1.0000   1.0000   1.0000   1.0000   1.0000   1.0000   1.0000
     1.0000   1.0000   1.0000   1.0000   1.0000   1.0000   1.0000   1.0000
     1.0000   1.0000   1.0000   1.0000   1.0000   1.0000   1.0000   1.0000
     1.0000   1.0000   1.0000   1.0000   1.0000   1.0000   1.0000   1.0000
     1.0000   1.0000   1.0000   1.0000   1.0000   1.0000   1.0000   1.0000
     1.0000   1.0000   1.0000   1.0000   1.0000   1.0000   1.0000   1.0000
     1.0000   1.0000   1.0000   1.0000   1.0000   1.0000   1.0000   1.0000
     1.0000   1.0000   1.0000   1.0000   1.0000   1.0000   1.0000   1.0000
     1.0000   1.0000   1.0000   1.0000   1.0000   1.0000   1.0000   1.0000
     1.0000   1.0000   1.0000   1.0000   1.0000   1.0000   1.0000   1.0000
     1.0000   1.0000   1.0000   1.0000   1.0000   1.0000   1.0000   1.0000
     1.0000   1.0000   1.0000   1.0000   1.0000   1.0000   1.0000   1.0000
     1.0000   1.0000   1.0000   1.0000   1.0000   1.0000   1.0000   1.0000
     1.0000   1.0000   1.0000   1.0000   1.0000   1.0000   1.0000   1.0000
     1.0000   1.0000   1.0000   1.0000   1.0000   1.0000   1.0000   1.0000
     1.0000   1.0000   1.0000   1.0000   1.0000   1.0000   1.0000   1.0000
     1.0000   1.0000   1.0000   1.0000   1.0000   1.0000   1.0000   1.0000
     1.0000   1.0000   1.0000   1.0000   1.0000   1.0000   1.0000   1.0000
     1.0000   1.0000   1.0000   1.0000   1.0000   1.0000   1.0000   1.0000
     1.0000   1.0000   1.0000   1.0000   1.0000   1.0000   1.0000   1.0000
     1.0000   1.0000   1.0000   1.0000   1.0000   1.0000   1.0000   1.0000
     1.0000   1.0000   1.0000   1.0000   1.0000   1.0000   1.0000   1.0000
     1.0000   1.0000   1.0000   1.0000   1.0000   1.0000   1.0000   1.0000
     1.0000   1.0000   1.0000   1.0000   1.0000   1.0000   1.0000   1.0000
     1.0000   1.0000   1.0000   1.0000   1.0000   1.0000   1.0000   1.0000
     1.0000   1.0000   1.0000   1.0000   1.0000   1.0000   1.0000   1.0000
     1.0000   1.0000   1.0000   1.0000   1.0000   1.0000   1.0000   1.0000
     1.0000   1.0000   1.0000   1.0000   1.0000   1.0000   1.0000   1.0000
     1.0000   1.0000   1.0000   1.0000   1.0000   1.0000   1.0000   1.0000
     1.0000   0.9999   0.9997   0.9981   0.0051   0.0037   0.0012   0.0006
     0.0002   0.0000   0.0000   0.0000   0.0000   0.0000   0.0000   0.0000
     0.0000   0.0000   0.0000   0.0000   0.0000   0.0000   0.0000   0.0000
     0.0000   0.0000   0.0000   0.0000   0.0000   0.0000   0.0000   0.0000
     0.0000   0.0000   0.0000   0.0000   0.0000   0.0000   0.0000   0.0000
     0.0000   0.0000   0.0000   0.0000   0.0000   0.0000   0.0000   0.0000
     0.0000   0.0000   0.0000   0.0000   0.0000   0.0000   0.0000   0.0000
     0.0000   0.0000   0.0000   0.0000   0.0000   0.0000   0.0000   0.0000
     0.0000   0.0000   0.0000   0.0000   0.0000   0.0000   0.0000   0.0000
     0.0000   0.0000   0.0000   0.0000   0.0000   0.0000   0.0000   0.0000
     0.0000   0.0000   0.0000   0.0000   0.0000   0.0000   0.0000   0.0000
     0.0000   0.0000   0.0000   0.0000   0.0000   0.0000   0.0000   0.0000
     0.0000   0.0000   0.0000   0.0000   0.0000   0.0000   0.0000   0.0000
     0.0000   0.0000   0.0000   0.0000   0.0000   0.0000   0.0000   0.0000
     0.0000   0.0000   0.0000   0.0000   0.0000   0.0000   0.0000   0.0000
     0.0000   0.0000   0.0000

          k =-0.3537 0.3536-0.3531 ( 63900 PWs)   bands (ev):

   -17.4261 -17.3984 -17.3685 -17.3506 -17.3378 -17.3112 -17.3059 -17.2756
   -17.2723 -17.2691 -17.2642 -17.2602 -17.2597 -17.2514 -17.2441 -17.2413
   -17.2366 -17.2360 -17.2293 -17.2275 -17.2261 -17.2144 -17.2119 -17.2101
   -17.2093 -17.2066 -17.2051 -17.2020 -17.1960 -17.1913 -17.1902 -17.1888
   -17.1831 -17.1798 -17.1757 -17.1728 -17.1706 -17.1691 -17.1686 -17.1630
   -17.1604 -17.1551 -17.1489 -17.1465 -17.1398 -17.1369 -17.1353 -17.1343
   -17.1330 -17.1328 -17.1311 -17.1292 -17.1251 -17.1185 -17.1183 -17.1178
   -17.1174 -17.1147 -17.1114 -17.1107 -17.1090 -17.1062 -17.1031 -17.1022
   -17.0997 -17.0991 -17.0965 -17.0935 -17.0918 -17.0884 -17.0872 -17.0867
   -17.0847 -17.0839 -17.0821 -17.0811 -17.0773 -17.0748 -17.0731 -17.0721
   -17.0717 -17.0668 -17.0653 -17.0645 -17.0609 -17.0600 -17.0574 -17.0541
   -17.0522 -17.0515 -17.0471 -17.0465 -17.0446 -17.0441 -17.0434 -17.0424
   -17.0395 -17.0392 -17.0388 -17.0370 -17.0356 -17.0348 -17.0327 -17.0312
   -17.0297 -17.0285 -17.0270 -17.0257 -17.0242 -17.0239 -17.0209 -17.0184
   -17.0179 -17.0165 -17.0158 -17.0145 -17.0137 -17.0133 -17.0122 -17.0103
   -17.0077 -17.0068 -17.0037 -17.0033 -17.0023 -17.0014 -17.0007 -16.9988
   -16.9986 -16.9980 -16.9965 -16.9963 -16.9956 -16.9926 -16.9922 -16.9917
   -16.9901 -16.9892 -16.9869 -16.9867 -16.9865 -16.9848 -16.9838 -16.9827
   -16.9820 -16.9818 -16.9797 -16.9786 -16.9773 -16.9761 -16.9755 -16.9738
   -16.9710 -16.9688 -16.9677 -16.9669 -16.9656 -16.9637 -16.9611 -16.9603
   -16.9594 -16.9581 -16.9577 -16.9570 -16.9555 -16.9548 -16.9533 -16.9515
   -16.9511 -16.9498 -16.9493 -16.9487 -16.9475 -16.9462 -16.9441 -16.9419
   -16.9393 -16.9382 -16.9369 -16.9361 -16.9346 -16.9329 -16.9313 -16.9303
   -16.9292 -16.9289 -16.9287 -16.9261 -16.9258 -16.9250 -16.9236 -16.9226
   -16.9221 -16.9217 -16.9209 -16.9199 -16.9192 -16.9188 -16.9174 -16.9172
   -16.9167 -16.9162 -16.9154 -16.9151 -16.9145 -16.9142 -16.9124 -16.9118
   -16.9113 -16.9110 -16.9088 -16.9078 -16.9065 -16.9044 -16.9041 -16.9020
   -16.9012 -16.9003 -16.9001 -16.8997 -16.8979 -16.8968 -16.8950 -16.8948
   -16.8938 -16.8932 -16.8922 -16.8911 -16.8901 -16.8890 -16.8877 -16.8873
   -16.8873 -16.8868 -16.8858 -16.8855 -16.8852 -16.8840 -16.8830 -16.8816
   -16.8797 -16.8795 -16.8779 -16.8773 -16.8762 -16.8744 -16.8740 -16.8728
   -16.8712 -16.8703 -16.8698 -16.8690 -16.8682 -16.8667 -16.8663 -16.8656
   -16.8649 -16.8641 -16.8641 -16.8635 -16.8632 -16.8621 -16.8611 -16.8592
   -16.8587 -16.8579 -16.8571 -16.8571 -16.8568 -16.8551 -16.8550 -16.8541
   -16.8537 -16.8518 -16.8500 -16.8490 -16.8466 -16.8456 -16.8453 -16.8449
   -16.8446 -16.8439 -16.8435 -16.8431 -16.8414 -16.8409 -16.8392 -16.8391
   -16.8384 -16.8361 -16.8343 -16.8340 -16.8332 -16.8325 -16.8323 -16.8319
   -16.8268 -16.8261 -16.8246 -16.8240 -16.8236 -16.8234 -16.8223 -16.8219
   -16.8181 -16.8175 -16.8156 -16.8154 -16.8145 -16.8142 -16.8129 -16.8119
   -16.8114 -16.8107 -16.8082 -16.8080 -16.8048 -16.8029 -16.8027 -16.8019
   -16.7974 -16.7957 -16.7951 -16.7882 -16.7881 -16.7867 -16.7861 -16.7842
   -16.7799 -16.7779 -16.7777 -16.7725 -16.7699 -16.7682 -16.7564 -16.7533
   -16.7525 -16.7493 -16.7414 -16.7239  -4.9895  -4.9395  -4.5338  -4.5051
    -4.4872  -4.4039  -4.3162  -4.2555  -4.0314  -3.9858  -3.9666  -3.9366
    -3.8924  -3.7876  -3.6213  -3.5810  -3.4989  -3.4401  -3.3690  -3.3242
    -3.2806  -3.2220  -3.1679  -3.1212  -3.0724  -3.0325  -3.0248  -2.9830
    -2.9246  -2.9143  -2.8769  -2.8305  -2.8070  -2.7645  -2.7270  -2.6636
    -2.6458  -2.6214  -2.5496  -2.5327  -2.4041  -2.2273  -2.1963  -2.1308
    -2.0976  -2.0401  -1.9962  -1.9333  -1.8921  -1.8586  -1.8488  -1.7649
    -1.7528  -1.7254  -1.6874  -1.6397  -1.6093  -1.5627  -1.5199  -1.4579
    -1.4102  -1.3980  -1.3707  -1.3323  -0.4574  -0.3365  -0.2659  -0.2555
    -0.2334  -0.1947  -0.1810  -0.1051  -0.0762  -0.0444  -0.0096  -0.0033
     0.0225   0.0435   0.0638   0.0957   0.1222   0.2122   0.2505   0.2690
     0.2948   0.3278   0.3931   0.4159   0.4413   0.4660   0.4848   0.5444
     0.5706   0.6039   0.9502   1.0303   1.0675   1.1072   1.1247   1.1515
     1.1659   1.2117   1.2438   1.2612   1.3042   1.3214   1.3597   1.4830
     1.8148   1.8769   1.8868   1.9903   2.0723   2.1216   2.3380   2.3557
     2.4110   2.4315   2.5186   2.5911   3.1609   3.1866   3.2077   3.2260
     3.2440   3.2662   3.2738   3.2863   3.3091   3.3135   3.3175   3.3398
     3.3488   3.3674   3.3944   3.4012   3.4279   3.4473   3.6758   3.7509
     3.7853   3.7992   3.8064   3.8441   3.8603   3.8724   3.8778   3.9083
     3.9381   3.9435   3.9537   3.9628   3.9786   4.0225   4.0285   4.0379
     4.0456   4.0555   4.0842   4.1299   4.1376   4.1688   4.3118   4.3353
     4.3552   4.3765   4.3902   4.4102   4.4233   4.4258   4.4534   4.4611
     4.4756   4.5119   4.5930   4.6208   4.6348   4.6582   4.6743   4.6823
     4.6937   4.7078   4.7193   4.7425   4.7957   4.8086   4.8364   4.8600
     4.8804   4.9004   4.9283   4.9372   4.9827   4.9937   5.0037   5.0206
     5.0528   5.0899   5.1108   5.1404   5.1549   5.1888   5.2011   5.2437
     5.2903   5.3151   5.3343   5.3361   5.3767   5.3807   5.3976   5.4180
     5.4351   5.4548   5.4739   5.4893   5.4989   5.5311   5.5472   5.5649
     5.5894   5.6079   5.6490   5.6627   5.7904   5.8262   5.8564   5.9175
     5.9210   5.9589   5.9648   5.9810   6.0314   6.0555   6.0607   6.1037
     6.1227   6.1581   6.1897   6.2177   6.2782   6.2873   6.3315   6.3500
     6.4120   6.4937   6.6628   6.7082   6.7301   6.7654   6.8713   6.9156
     7.1677   7.2758   7.3627   7.4141   8.1533   8.1799   8.2841   8.3061
     8.3344   8.3615   8.4149   8.4507   8.5685   8.6261   8.6475   8.7272
     8.7549   8.8015   8.9879   9.0196   9.0528   9.0878   9.0961   9.1192
     9.1447   9.1698   9.2037   9.2079   9.2330   9.2388   9.2532   9.3044
     9.3297   9.3504   9.3751   9.3781   9.3961   9.4211   9.4423   9.4546
     9.4681   9.4815   9.5043   9.5222   9.5437   9.5666   9.6084   9.6298
     9.6468   9.6538   9.6955   9.6992   9.7159   9.7246   9.7608   9.7963
     9.8036   9.8208   9.8490   9.8579   9.8801   9.8975  10.0255  10.0489
    10.0770  10.1167  10.1333  10.1416  10.1611  10.1687  10.2018  10.2176
    10.2341  10.2755  10.2930  10.2983  10.3217  10.3632  10.3672  10.4100
    10.4193  10.4567  10.4678  10.5397  10.5446  10.6076  10.6268  10.6328
    10.6548  10.7107  10.7290  10.7499  10.7644  10.7926  10.8172  10.8298
    10.8465  10.8716  10.8778  10.8973  10.9243  10.9348  10.9483  10.9887
    10.9967  11.0292  11.0574  11.0664  11.0741  11.1086  11.1404  11.1605
    11.1768  11.2048  11.2221  11.2318  11.2482  11.3054  11.3234  11.3716
    11.4041  11.4243  11.4472

     occupation numbers 
     1.0000   1.0000   1.0000   1.0000   1.0000   1.0000   1.0000   1.0000
     1.0000   1.0000   1.0000   1.0000   1.0000   1.0000   1.0000   1.0000
     1.0000   1.0000   1.0000   1.0000   1.0000   1.0000   1.0000   1.0000
     1.0000   1.0000   1.0000   1.0000   1.0000   1.0000   1.0000   1.0000
     1.0000   1.0000   1.0000   1.0000   1.0000   1.0000   1.0000   1.0000
     1.0000   1.0000   1.0000   1.0000   1.0000   1.0000   1.0000   1.0000
     1.0000   1.0000   1.0000   1.0000   1.0000   1.0000   1.0000   1.0000
     1.0000   1.0000   1.0000   1.0000   1.0000   1.0000   1.0000   1.0000
     1.0000   1.0000   1.0000   1.0000   1.0000   1.0000   1.0000   1.0000
     1.0000   1.0000   1.0000   1.0000   1.0000   1.0000   1.0000   1.0000
     1.0000   1.0000   1.0000   1.0000   1.0000   1.0000   1.0000   1.0000
     1.0000   1.0000   1.0000   1.0000   1.0000   1.0000   1.0000   1.0000
     1.0000   1.0000   1.0000   1.0000   1.0000   1.0000   1.0000   1.0000
     1.0000   1.0000   1.0000   1.0000   1.0000   1.0000   1.0000   1.0000
     1.0000   1.0000   1.0000   1.0000   1.0000   1.0000   1.0000   1.0000
     1.0000   1.0000   1.0000   1.0000   1.0000   1.0000   1.0000   1.0000
     1.0000   1.0000   1.0000   1.0000   1.0000   1.0000   1.0000   1.0000
     1.0000   1.0000   1.0000   1.0000   1.0000   1.0000   1.0000   1.0000
     1.0000   1.0000   1.0000   1.0000   1.0000   1.0000   1.0000   1.0000
     1.0000   1.0000   1.0000   1.0000   1.0000   1.0000   1.0000   1.0000
     1.0000   1.0000   1.0000   1.0000   1.0000   1.0000   1.0000   1.0000
     1.0000   1.0000   1.0000   1.0000   1.0000   1.0000   1.0000   1.0000
     1.0000   1.0000   1.0000   1.0000   1.0000   1.0000   1.0000   1.0000
     1.0000   1.0000   1.0000   1.0000   1.0000   1.0000   1.0000   1.0000
     1.0000   1.0000   1.0000   1.0000   1.0000   1.0000   1.0000   1.0000
     1.0000   1.0000   1.0000   1.0000   1.0000   1.0000   1.0000   1.0000
     1.0000   1.0000   1.0000   1.0000   1.0000   1.0000   1.0000   1.0000
     1.0000   1.0000   1.0000   1.0000   1.0000   1.0000   1.0000   1.0000
     1.0000   1.0000   1.0000   1.0000   1.0000   1.0000   1.0000   1.0000
     1.0000   1.0000   1.0000   1.0000   1.0000   1.0000   1.0000   1.0000
     1.0000   1.0000   1.0000   1.0000   1.0000   1.0000   1.0000   1.0000
     1.0000   1.0000   1.0000   1.0000   1.0000   1.0000   1.0000   1.0000
     1.0000   1.0000   1.0000   1.0000   1.0000   1.0000   1.0000   1.0000
     1.0000   1.0000   1.0000   1.0000   1.0000   1.0000   1.0000   1.0000
     1.0000   1.0000   1.0000   1.0000   1.0000   1.0000   1.0000   1.0000
     1.0000   1.0000   1.0000   1.0000   1.0000   1.0000   1.0000   1.0000
     1.0000   1.0000   1.0000   1.0000   1.0000   1.0000   1.0000   1.0000
     1.0000   1.0000   1.0000   1.0000   1.0000   1.0000   1.0000   1.0000
     1.0000   1.0000   1.0000   1.0000   1.0000   1.0000   1.0000   1.0000
     1.0000   1.0000   1.0000   1.0000   1.0000   1.0000   1.0000   1.0000
     1.0000   1.0000   1.0000   1.0000   1.0000   1.0000   1.0000   1.0000
     1.0000   1.0000   1.0000   1.0000   1.0000   1.0000   1.0000   1.0000
     1.0000   1.0000   1.0000   1.0000   1.0000   1.0000   1.0000   1.0000
     1.0000   1.0000   1.0000   1.0000   1.0000   1.0000   1.0000   1.0000
     1.0000   1.0000   1.0000   1.0000   1.0000   1.0000   1.0000   1.0000
     1.0000   1.0000   1.0000   1.0000   1.0000   1.0000   1.0000   1.0000
     1.0000   1.0000   1.0000   1.0000   1.0000   1.0000   1.0000   1.0000
     1.0000   1.0000   1.0000   1.0000   1.0000   1.0000   1.0000   1.0000
     1.0000   1.0000   1.0000   1.0000   1.0000   1.0000   1.0000   1.0000
     1.0000   1.0000   1.0000   1.0000   1.0000   1.0000   1.0000   1.0000
     1.0000   1.0000   1.0000   1.0000   1.0000   1.0000   1.0000   1.0000
     1.0000   1.0000   1.0000   1.0000   1.0000   1.0000   1.0000   1.0000
     1.0000   1.0000   1.0000   1.0000   1.0000   1.0000   1.0000   1.0000
     1.0000   1.0000   1.0000   1.0000   1.0000   1.0000   1.0000   1.0000
     1.0000   1.0000   1.0000   1.0000   1.0000   1.0000   1.0000   1.0000
     1.0000   1.0000   1.0000   1.0000   1.0000   1.0000   1.0000   1.0000
     1.0000   1.0000   1.0000   1.0000   1.0000   1.0000   1.0000   1.0000
     1.0000   1.0000   1.0000   1.0000   1.0000   1.0000   1.0000   1.0000
     1.0000   1.0000   1.0000   1.0000   1.0000   1.0000   1.0000   1.0000
     1.0000   1.0000   1.0000   1.0000   1.0000   1.0000   1.0000   1.0000
     1.0000   1.0000   1.0000   1.0000   1.0000   1.0000   1.0000   1.0000
     1.0000   1.0000   1.0000   1.0000   1.0000   1.0000   1.0000   1.0000
     1.0000   1.0000   1.0000   1.0000   1.0000   1.0000   1.0000   1.0000
     1.0000   1.0000   1.0000   1.0000   1.0000   1.0000   1.0000   1.0000
     1.0000   1.0000   1.0000   1.0000   1.0000   1.0000   1.0000   1.0000
     1.0000   1.0000   1.0000   1.0000   1.0000   1.0000   1.0000   1.0000
     1.0000   1.0000   1.0000   1.0000   1.0000   1.0000   1.0000   1.0000
     1.0000   1.0000   1.0000   1.0000   1.0000   1.0000   1.0000   1.0000
     1.0000   1.0000   1.0000   1.0000   1.0000   1.0000   1.0000   1.0000
     1.0000   1.0000   1.0000   1.0000   1.0000   1.0000   1.0000   1.0000
     1.0000   1.0000   1.0000   1.0000   1.0000   1.0000   1.0000   1.0000
     1.0000   1.0000   1.0000   1.0000   1.0000   1.0000   1.0000   1.0000
     1.0000   1.0000   1.0000   1.0000   1.0000   1.0000   1.0000   1.0000
     1.0000   1.0000   1.0000   1.0000   1.0000   1.0000   1.0000   1.0000
     1.0000   0.9994   0.9959   0.9889   0.0023   0.0013   0.0001   0.0000
     0.0000   0.0000   0.0000   0.0000   0.0000   0.0000   0.0000   0.0000
     0.0000   0.0000   0.0000   0.0000   0.0000   0.0000   0.0000   0.0000
     0.0000   0.0000   0.0000   0.0000   0.0000   0.0000   0.0000   0.0000
     0.0000   0.0000   0.0000   0.0000   0.0000   0.0000   0.0000   0.0000
     0.0000   0.0000   0.0000   0.0000   0.0000   0.0000   0.0000   0.0000
     0.0000   0.0000   0.0000   0.0000   0.0000   0.0000   0.0000   0.0000
     0.0000   0.0000   0.0000   0.0000   0.0000   0.0000   0.0000   0.0000
     0.0000   0.0000   0.0000   0.0000   0.0000   0.0000   0.0000   0.0000
     0.0000   0.0000   0.0000   0.0000   0.0000   0.0000   0.0000   0.0000
     0.0000   0.0000   0.0000   0.0000   0.0000   0.0000   0.0000   0.0000
     0.0000   0.0000   0.0000   0.0000   0.0000   0.0000   0.0000   0.0000
     0.0000   0.0000   0.0000   0.0000   0.0000   0.0000   0.0000   0.0000
     0.0000   0.0000   0.0000   0.0000   0.0000   0.0000   0.0000   0.0000
     0.0000   0.0000   0.0000   0.0000   0.0000   0.0000   0.0000   0.0000
     0.0000   0.0000   0.0000

          k =-0.7068 0.0007-0.0001 ( 63856 PWs)   bands (ev):

   -17.4261 -17.3984 -17.3685 -17.3506 -17.3378 -17.3112 -17.3059 -17.2756
   -17.2723 -17.2691 -17.2642 -17.2602 -17.2597 -17.2513 -17.2441 -17.2413
   -17.2366 -17.2360 -17.2293 -17.2275 -17.2261 -17.2145 -17.2121 -17.2103
   -17.2095 -17.2073 -17.2051 -17.2007 -17.1960 -17.1913 -17.1902 -17.1889
   -17.1831 -17.1798 -17.1757 -17.1729 -17.1707 -17.1691 -17.1685 -17.1630
   -17.1605 -17.1551 -17.1489 -17.1468 -17.1399 -17.1371 -17.1351 -17.1349
   -17.1329 -17.1324 -17.1313 -17.1289 -17.1250 -17.1187 -17.1185 -17.1178
   -17.1174 -17.1149 -17.1113 -17.1107 -17.1076 -17.1048 -17.1031 -17.1021
   -17.1002 -17.0992 -17.0963 -17.0935 -17.0915 -17.0884 -17.0873 -17.0865
   -17.0853 -17.0840 -17.0830 -17.0811 -17.0773 -17.0749 -17.0730 -17.0719
   -17.0716 -17.0679 -17.0665 -17.0645 -17.0612 -17.0603 -17.0569 -17.0547
   -17.0523 -17.0515 -17.0471 -17.0463 -17.0449 -17.0444 -17.0429 -17.0421
   -17.0395 -17.0393 -17.0372 -17.0359 -17.0356 -17.0348 -17.0324 -17.0313
   -17.0305 -17.0294 -17.0270 -17.0260 -17.0240 -17.0234 -17.0209 -17.0185
   -17.0178 -17.0165 -17.0158 -17.0145 -17.0134 -17.0133 -17.0122 -17.0099
   -17.0077 -17.0054 -17.0041 -17.0035 -17.0029 -17.0015 -17.0007 -16.9995
   -16.9987 -16.9982 -16.9968 -16.9965 -16.9957 -16.9925 -16.9923 -16.9917
   -16.9901 -16.9891 -16.9869 -16.9868 -16.9865 -16.9848 -16.9838 -16.9827
   -16.9820 -16.9814 -16.9799 -16.9787 -16.9774 -16.9760 -16.9754 -16.9740
   -16.9709 -16.9688 -16.9677 -16.9670 -16.9655 -16.9639 -16.9612 -16.9602
   -16.9590 -16.9581 -16.9577 -16.9569 -16.9553 -16.9550 -16.9526 -16.9518
   -16.9511 -16.9498 -16.9494 -16.9484 -16.9474 -16.9460 -16.9444 -16.9421
   -16.9396 -16.9382 -16.9364 -16.9358 -16.9348 -16.9335 -16.9314 -16.9303
   -16.9291 -16.9287 -16.9285 -16.9259 -16.9257 -16.9249 -16.9237 -16.9227
   -16.9224 -16.9219 -16.9211 -16.9198 -16.9192 -16.9188 -16.9174 -16.9171
   -16.9167 -16.9165 -16.9157 -16.9149 -16.9147 -16.9143 -16.9124 -16.9120
   -16.9114 -16.9108 -16.9088 -16.9078 -16.9064 -16.9045 -16.9041 -16.9022
[...]
     atom   77 type  1   force =   0.00000000E+00  0.00000000E+00  0.00000000E+00
     atom   78 type  1   force =   0.00000000E+00  0.00000000E+00  0.00000000E+00
     atom   79 type  2   force =   0.00000000E+00  0.00000000E+00  0.00000000E+00
     atom   80 type  2   force =   0.00000000E+00  0.00000000E+00  0.00000000E+00
     atom   81 type  2   force =   0.00000000E+00  0.00000000E+00  0.00000000E+00
     atom   82 type  1   force =   0.00000000E+00  0.00000000E+00  0.00000000E+00
     atom   83 type  2   force =   0.00000000E+00  0.00000000E+00  0.00000000E+00
     atom   84 type  1   force =   0.00000000E+00  0.00000000E+00  0.00000000E+00
     atom   85 type  1   force =   0.00000000E+00  0.00000000E+00  0.00000000E+00
     atom   86 type  1   force =   0.00000000E+00  0.00000000E+00  0.00000000E+00
     atom   87 type  1   force =   0.00000000E+00  0.00000000E+00  0.00000000E+00
     atom   88 type  2   force =   0.00000000E+00  0.00000000E+00  0.00000000E+00
     atom   89 type  2   force =   0.00000000E+00  0.00000000E+00  0.00000000E+00
     atom   90 type  2   force =   0.00000000E+00  0.00000000E+00  0.00000000E+00
     atom   91 type  1   force =   0.00000000E+00  0.00000000E+00  0.00000000E+00
     atom   92 type  1   force =   0.00000000E+00  0.00000000E+00  0.00000000E+00
     atom   93 type  2   force =   0.00000000E+00  0.00000000E+00  0.00000000E+00
     atom   94 type  1   force =   0.00000000E+00  0.00000000E+00  0.00000000E+00
     atom   95 type  2   force =   0.00000000E+00  0.00000000E+00  0.00000000E+00
     atom   96 type  1   force =   0.00000000E+00  0.00000000E+00  0.00000000E+00
     atom   97 type  2   force =   0.00000000E+00  0.00000000E+00  0.00000000E+00
     atom   98 type  2   force =   0.00000000E+00  0.00000000E+00  0.00000000E+00
     atom   99 type  1   force =   0.00000000E+00  0.00000000E+00  0.00000000E+00
     atom  100 type  2   force =   0.00000000E+00  0.00000000E+00  0.00000000E+00
     atom  101 type  1   force =   0.00000000E+00  0.00000000E+00  0.00000000E+00
     atom  102 type  2   force =   0.00000000E+00  0.00000000E+00  0.00000000E+00
     atom  103 type  1   force =   0.00000000E+00  0.00000000E+00  0.00000000E+00
     atom  104 type  1   force =   0.00000000E+00  0.00000000E+00  0.00000000E+00
     atom  105 type  2   force =   0.00000000E+00  0.00000000E+00  0.00000000E+00
     atom  106 type  1   force =   0.00000000E+00  0.00000000E+00  0.00000000E+00
     atom  107 type  1   force =   0.00000000E+00  0.00000000E+00  0.00000000E+00
     atom  108 type  1   force =   0.00000000E+00  0.00000000E+00  0.00000000E+00
     atom  109 type  1   force =   0.00000000E+00  0.00000000E+00  0.00000000E+00
     atom  110 type  1   force =   0.00000000E+00  0.00000000E+00  0.00000000E+00
     atom  111 type  1   force =   0.00000000E+00  0.00000000E+00  0.00000000E+00
     atom  112 type  1   force =   0.00000000E+00  0.00000000E+00  0.00000000E+00
     atom  113 type  1   force =   0.00000000E+00  0.00000000E+00  0.00000000E+00
     atom  114 type  2   force =   0.00000000E+00  0.00000000E+00  0.00000000E+00
     atom  115 type  1   force =   0.00000000E+00  0.00000000E+00  0.00000000E+00
     atom  116 type  2   force =   0.00000000E+00  0.00000000E+00  0.00000000E+00
     atom  117 type  2   force =   0.00000000E+00  0.00000000E+00  0.00000000E+00
     atom  118 type  1   force =   0.00000000E+00  0.00000000E+00  0.00000000E+00
     atom  119 type  2   force =   0.00000000E+00  0.00000000E+00  0.00000000E+00
     atom  120 type  2   force =   0.00000000E+00  0.00000000E+00  0.00000000E+00
     atom  121 type  2   force =   0.00000000E+00  0.00000000E+00  0.00000000E+00
     atom  122 type  2   force =   0.00000000E+00  0.00000000E+00  0.00000000E+00
     atom  123 type  1   force =   0.00000000E+00  0.00000000E+00  0.00000000E+00
     atom  124 type  1   force =   0.00000000E+00  0.00000000E+00  0.00000000E+00
     atom  125 type  2   force =   0.00000000E+00  0.00000000E+00  0.00000000E+00
     atom  126 type  2   force =   0.00000000E+00  0.00000000E+00  0.00000000E+00
     atom  127 type  1   force =   0.00000000E+00  0.00000000E+00  0.00000000E+00
     atom  128 type  1   force =   0.00000000E+00  0.00000000E+00  0.00000000E+00
     The SCF correction term to forces
     atom    1 type  1   force =  -0.13030644E-05  0.15044931E-05  0.39852344E-05
     atom    2 type  1   force =  -0.69328093E-06  0.17430613E-06  0.15808344E-05
     atom    3 type  2   force =  -0.76634830E-05  0.79902871E-05  0.85655380E-05
     atom    4 type  1   force =  -0.14556667E-06 -0.56940388E-06  0.29224917E-06
     atom    5 type  2   force =  -0.14939111E-05  0.30952232E-05  0.41416151E-05
     atom    6 type  2   force =   0.11985168E-05  0.50765921E-05 -0.66868827E-05
     atom    7 type  1   force =  -0.12542657E-05  0.42515507E-06  0.13858588E-05
     atom    8 type  2   force =  -0.55112128E-05  0.14249689E-05 -0.90049846E-06
     atom    9 type  1   force =  -0.30057844E-05  0.23677269E-05  0.14053678E-05
     atom   10 type  2   force =  -0.15477980E-04  0.90316231E-05 -0.25088601E-05
     atom   11 type  1   force =  -0.29181991E-05  0.18087740E-05 -0.39087481E-06
     atom   12 type  2   force =  -0.11116057E-04  0.24230521E-05 -0.45485245E-05
     atom   13 type  2   force =  -0.52836178E-05  0.59376585E-05 -0.90588444E-05
     atom   14 type  2   force =  -0.44423090E-05  0.11351350E-04 -0.56935879E-05
     atom   15 type  2   force =  -0.40534891E-05  0.11807818E-04 -0.16030424E-05
     atom   16 type  2   force =  -0.34135292E-05  0.13175264E-04  0.31977805E-05
     atom   17 type  2   force =  -0.23163062E-04  0.65949845E-05  0.96516325E-05
     atom   18 type  2   force =  -0.88078452E-05  0.25195345E-05  0.93242468E-05
     atom   19 type  1   force =  -0.32537653E-05  0.21543637E-05  0.43936669E-06
     atom   20 type  2   force =   0.34166499E-05 -0.53552977E-05  0.59583230E-05
     atom   21 type  2   force =  -0.33282502E-05  0.11752525E-04  0.12807909E-05
     atom   22 type  2   force =   0.49123334E-05  0.12055157E-04  0.84840003E-05
     atom   23 type  1   force =  -0.19607093E-05  0.36145119E-05  0.18804161E-05
     atom   24 type  1   force =  -0.27351396E-05  0.76423862E-06  0.25054765E-05
     atom   25 type  2   force =  -0.84877139E-05 -0.80028068E-06  0.16408391E-04
     atom   26 type  2   force =   0.37208683E-05  0.41038229E-06  0.79331019E-05
     atom   27 type  1   force =   0.90031301E-06  0.87214002E-07  0.36667651E-05
     atom   28 type  1   force =   0.12887379E-05 -0.25755763E-06  0.25053610E-05
     atom   29 type  1   force =   0.55524905E-06  0.12133927E-05  0.30389845E-05
     atom   30 type  2   force =   0.84064938E-06  0.42515458E-05  0.41538211E-05
     atom   31 type  2   force =  -0.19547614E-05  0.31641599E-05  0.65769398E-05
     atom   32 type  2   force =  -0.38969805E-05 -0.50951129E-05  0.10973798E-04
     atom   33 type  2   force =   0.18937170E-05 -0.92801282E-05  0.78637015E-07
     atom   34 type  2   force =   0.16109377E-05 -0.10115457E-04  0.46026588E-05
     atom   35 type  2   force =   0.47650914E-05 -0.99930620E-05 -0.51005318E-05
     atom   36 type  2   force =   0.36967235E-05 -0.31802698E-05 -0.38409813E-05
     atom   37 type  2   force =   0.45546847E-05  0.35214022E-05 -0.83883867E-05
     atom   38 type  2   force =   0.39712397E-05  0.12427202E-05 -0.64603282E-05
     atom   39 type  2   force =   0.78860771E-05 -0.33272296E-05 -0.13372910E-05
     atom   40 type  2   force =   0.49949648E-05 -0.30279499E-05  0.26197394E-05
     atom   41 type  1   force =  -0.11830574E-05 -0.10743208E-05  0.12894935E-06
     atom   42 type  1   force =  -0.18789352E-05 -0.13446646E-05 -0.87472939E-06
     atom   43 type  1   force =  -0.18127251E-05 -0.17734070E-05 -0.94854264E-06
     atom   44 type  2   force =  -0.65183491E-05  0.16529717E-05 -0.81250194E-05
     atom   45 type  2   force =   0.77921100E-05  0.13636642E-04 -0.30929620E-05
     atom   46 type  1   force =   0.14236867E-05  0.29401385E-05 -0.12116725E-05
     atom   47 type  2   force =  -0.17899937E-07  0.82142114E-06  0.12899299E-05
     atom   48 type  2   force =   0.13877890E-05 -0.25253854E-05 -0.20460497E-05
     atom   49 type  2   force =  -0.12030511E-04 -0.19223659E-05  0.19197827E-05
     atom   50 type  1   force =  -0.16116039E-05 -0.26319288E-05  0.82978761E-07
     atom   51 type  2   force =  -0.46549657E-05 -0.50340891E-05 -0.19222278E-05
     atom   52 type  2   force =   0.14850271E-04  0.64027247E-06 -0.24318317E-05
     atom   53 type  1   force =   0.15614042E-05  0.32564018E-05 -0.18515559E-05
     atom   54 type  1   force =   0.18955325E-05  0.11870754E-05 -0.15089395E-05
     atom   55 type  1   force =  -0.39019339E-06  0.70977892E-06 -0.72679796E-06
     atom   56 type  1   force =  -0.93262725E-06 -0.13037849E-05 -0.75383840E-06
     atom   57 type  2   force =   0.40375976E-05 -0.69793271E-05  0.52132253E-05
     atom   58 type  1   force =   0.20535940E-05 -0.28157352E-05  0.11544007E-05
     atom   59 type  1   force =   0.27609512E-05 -0.24709043E-05  0.10540920E-05
     atom   60 type  2   force =   0.62108296E-05 -0.31615971E-05 -0.51132164E-05
     atom   61 type  1   force =   0.22213317E-05  0.53164782E-06 -0.81790529E-06
     atom   62 type  1   force =   0.17324476E-05 -0.82333511E-06 -0.22247206E-05
     atom   63 type  2   force =  -0.46516910E-05 -0.27580412E-05 -0.49764922E-05
     atom   64 type  2   force =   0.12685020E-05 -0.81072352E-05 -0.34247930E-06
     atom   65 type  1   force =   0.11430518E-05 -0.37715671E-05  0.16227756E-05
     atom   66 type  1   force =   0.49032930E-06 -0.35205469E-05 -0.12893722E-06
     atom   67 type  2   force =   0.10870261E-05 -0.43435191E-05  0.64805061E-07
     atom   68 type  1   force =   0.13527469E-05  0.65197082E-08 -0.68710459E-06
     atom   69 type  2   force =   0.64820963E-05  0.59514474E-07  0.27054608E-07
     atom   70 type  2   force =   0.13522963E-04 -0.29969429E-05 -0.95414083E-06
     atom   71 type  2   force =   0.56314002E-05 -0.24875014E-05 -0.24409684E-06
     atom   72 type  2   force =   0.31907560E-06 -0.39425808E-05  0.31491047E-05
     atom   73 type  1   force =  -0.11002878E-05 -0.26347781E-05 -0.97229536E-06
     atom   74 type  1   force =  -0.10545719E-05 -0.12499292E-05 -0.15963900E-05
     atom   75 type  2   force =  -0.14932738E-05  0.44577754E-05 -0.22092082E-05
     atom   76 type  1   force =   0.47057321E-06  0.22483050E-05 -0.29014479E-05
     atom   77 type  1   force =   0.22874602E-05  0.12926167E-05 -0.21157658E-05
     atom   78 type  1   force =   0.11058214E-05  0.67563046E-06 -0.30960968E-05
     atom   79 type  2   force =  -0.89577245E-07 -0.49115759E-05 -0.27207428E-05
     atom   80 type  2   force =  -0.87237976E-06 -0.16451731E-05 -0.57085432E-05
     atom   81 type  2   force =  -0.40314689E-05 -0.63697609E-05 -0.43031247E-05
     atom   82 type  1   force =  -0.13880419E-06 -0.19524253E-05 -0.23551669E-06
     atom   83 type  2   force =  -0.18203143E-05  0.53226413E-05 -0.43148266E-05
     atom   84 type  1   force =   0.27774867E-05  0.52306134E-06 -0.21861353E-05
     atom   85 type  1   force =   0.19248724E-05  0.11898692E-05 -0.35909535E-05
     atom   86 type  1   force =   0.18559774E-05 -0.11222746E-05 -0.46010408E-05
     atom   87 type  1   force =  -0.21415805E-06 -0.13843841E-05 -0.32915012E-05
     atom   88 type  2   force =   0.26048617E-05 -0.14798959E-04 -0.84884635E-05
     atom   89 type  2   force =   0.33087089E-06 -0.18135798E-04 -0.79433772E-06
     atom   90 type  2   force =   0.15254058E-04 -0.12801110E-04 -0.73750326E-06
     atom   91 type  1   force =   0.31490672E-05 -0.12118683E-05 -0.10367931E-05
     atom   92 type  1   force =   0.24223681E-05 -0.16814990E-05 -0.10684276E-05
     atom   93 type  2   force =   0.94965464E-05 -0.45489223E-05 -0.86969713E-05
     atom   94 type  1   force =   0.30784255E-05 -0.14705465E-05 -0.81520657E-06
     atom   95 type  2   force =   0.56172872E-05 -0.61356765E-05  0.99040687E-06
     atom   96 type  1   force =   0.16092152E-05 -0.28009889E-05  0.10714800E-05
     atom   97 type  2   force =  -0.37575544E-05 -0.16717248E-04  0.47868428E-05
     atom   98 type  2   force =  -0.38731604E-05  0.55941317E-05  0.88205369E-05
     atom   99 type  1   force =   0.11207338E-05  0.80269036E-06  0.42951481E-06
     atom  100 type  2   force =   0.70544539E-06  0.43832693E-05  0.65054462E-05
     atom  101 type  1   force =   0.19560758E-05  0.25789270E-06  0.74487715E-06
     atom  102 type  2   force =   0.62901768E-05  0.53413045E-05  0.40281301E-05
     atom  103 type  1   force =   0.62260271E-06 -0.11601644E-05  0.91036399E-06
     atom  104 type  1   force =  -0.17193118E-05 -0.10111936E-05  0.15991893E-05
     atom  105 type  2   force =   0.18549879E-06 -0.11390338E-05  0.61758330E-05
     atom  106 type  1   force =  -0.29986184E-05  0.28051901E-05  0.62994559E-06
     atom  107 type  1   force =  -0.76754285E-06  0.24036640E-05 -0.48221065E-06
     atom  108 type  1   force =  -0.25434767E-05  0.33259532E-05 -0.14890340E-05
     atom  109 type  1   force =  -0.31602576E-06  0.11904473E-05 -0.21759863E-05
     atom  110 type  1   force =  -0.16381401E-05  0.22774545E-05 -0.31230204E-05
     atom  111 type  1   force =  -0.10554010E-05 -0.13957556E-06 -0.20117194E-05
     atom  112 type  1   force =  -0.29208362E-05  0.16591938E-05 -0.97568706E-06
     atom  113 type  1   force =  -0.23340225E-05  0.46208543E-07 -0.59956279E-06
     atom  114 type  2   force =  -0.83250382E-05  0.55957228E-05 -0.14570818E-05
     atom  115 type  1   force =  -0.10938780E-05  0.17379696E-05 -0.24247030E-05
     atom  116 type  2   force =  -0.32167961E-05  0.14697065E-06  0.28640490E-05
     atom  117 type  2   force =   0.35092185E-05  0.42689818E-05 -0.17531711E-04
     atom  118 type  1   force =   0.34307996E-06  0.97834942E-06  0.99960364E-08
     atom  119 type  2   force =  -0.28344815E-05  0.46258388E-05 -0.94640777E-05
     atom  120 type  2   force =  -0.16657453E-05  0.51805449E-05  0.11355370E-04
     atom  121 type  2   force =  -0.49779783E-05 -0.12159958E-04  0.12693998E-04
     atom  122 type  2   force =   0.14476781E-05  0.53864100E-05  0.10526711E-04
     atom  123 type  1   force =   0.23209824E-05 -0.93676504E-06  0.98930292E-06
     atom  124 type  1   force =   0.14090875E-05  0.23156536E-06  0.22632062E-05
     atom  125 type  2   force =   0.41075502E-05 -0.82211390E-05  0.14271777E-05
     atom  126 type  2   force =   0.73775043E-05  0.60804172E-05  0.93165120E-05
     atom  127 type  1   force =   0.19130098E-05 -0.95385388E-06  0.19239168E-05
     atom  128 type  1   force =  -0.10995638E-05 -0.18144597E-05  0.35268001E-05

     Total force =     0.756531     Total SCF correction =     0.000099


     entering subroutine stress ...

          total   stress  (Ry/bohr**3)                   (kbar)     P=   17.64
   0.0001209459  -0.0000838905   0.0000504409         17.79    -12.34      7.42
  -0.0000838905   0.0001176022   0.0000103058        -12.34     17.30      1.52
   0.0000504409   0.0000103058   0.0001210970          7.42      1.52     17.81

     kinetic stress (kbar)   6721.52      6.88     -4.67
                                6.88   6720.86     -0.21
                               -4.67     -0.21   6721.93

     local   stress (kbar)  -4772.16   1089.16  -1257.52
                             1089.16  -7052.99   -863.95
                            -1257.52   -863.95  -5299.66

     nonloc. stress (kbar)   2557.60     -8.24      4.31
                               -8.24   2557.84      0.31
                                4.31      0.31   2557.14

     hartree stress (kbar)  17991.39   -425.49    548.09
                             -425.49  19116.76    374.24
                              548.09    374.24  18242.27

     exc-cor stress (kbar)  11608.50     -0.30      0.17
                               -0.30  11608.51      0.00
                                0.17      0.00  11608.50

     corecor stress (kbar) -17598.50      0.71     -0.41
                                0.71 -17598.50     -0.16
                               -0.41     -0.16 -17598.43

     ewald   stress (kbar) -16490.56   -675.08    717.45
                             -675.08 -15335.18    491.28
                              717.45    491.28 -16213.94

     hubbard stress (kbar)      0.00      0.00      0.00
                                0.00      0.00      0.00
                                0.00      0.00      0.00

     london  stress (kbar)      0.00      0.00      0.00
                                0.00      0.00      0.00
                                0.00      0.00      0.00

     XDM     stress (kbar)      0.00      0.00      0.00
                                0.00      0.00      0.00
                                0.00      0.00      0.00

     dft-nl  stress (kbar)      0.00      0.00      0.00
                                0.00      0.00      0.00
                                0.00      0.00      0.00



     Writing output data file SiGe_zns.scf.in.super.444.c.022.save

     init_run     :    832.22s CPU    693.54s WALL (       1 calls)
     electrons    :  43734.79s CPU  37723.28s WALL (       1 calls)
     forces       :    589.00s CPU    443.06s WALL (       1 calls)
     stress       :   2449.29s CPU   2424.52s WALL (       1 calls)

     Called by init_run:
     wfcinit      :    788.63s CPU    649.43s WALL (       1 calls)
     potinit      :      4.86s CPU      4.94s WALL (       1 calls)

     Called by electrons:
     c_bands      :  39295.62s CPU  33544.48s WALL (      16 calls)
     sum_band     :   3915.36s CPU   3645.93s WALL (      16 calls)
     v_of_rho     :      7.38s CPU      8.37s WALL (      16 calls)
     v_h          :      0.51s CPU      0.65s WALL (      16 calls)
     v_xc         :      7.74s CPU      8.69s WALL (      18 calls)
     newd         :    530.89s CPU    537.61s WALL (      16 calls)
     mix_rho      :     13.42s CPU     14.88s WALL (      16 calls)

     Called by c_bands:
     init_us_2    :     47.44s CPU     48.34s WALL (     280 calls)
     cegterg      :  39015.93s CPU  33254.37s WALL (     128 calls)

     Called by sum_band:
     sum_band:bec :     16.54s CPU     16.63s WALL (     128 calls)
     addusdens    :    421.49s CPU    423.77s WALL (      16 calls)

     Called by *egterg:
     h_psi        :  14533.95s CPU  12973.10s WALL (     521 calls)
     s_psi        :   4016.99s CPU   2731.92s WALL (     521 calls)
     g_psi        :      6.82s CPU      7.93s WALL (     385 calls)
     cdiaghg      :  12658.80s CPU  11912.60s WALL (     505 calls)
     cegterg:over :   3775.31s CPU   2691.19s WALL (     385 calls)
     cegterg:upda :   1746.37s CPU   1221.99s WALL (     385 calls)
     cegterg:last :   1183.43s CPU    792.77s WALL (     128 calls)

     Called by h_psi:
     h_psi:vloc   :   6173.47s CPU   7203.28s WALL (     521 calls)
     h_psi:vnl    :   8343.37s CPU   5752.33s WALL (     521 calls)
     add_vuspsi   :   4021.70s CPU   2725.65s WALL (     521 calls)

     General routines
     calbec       :   6768.28s CPU   4837.42s WALL (     665 calls)
     fft          :    128.89s CPU    130.97s WALL (     281 calls)
     ffts         :      8.88s CPU      9.93s WALL (     458 calls)
     fftw         :   6802.22s CPU   8072.00s WALL (  524206 calls)
     interpolate  :      1.93s CPU      2.32s WALL (      32 calls)

     Parallel routines
     fft_scatter  :   3946.29s CPU   4721.14s WALL (  524945 calls)

     PWSCF        :    13h13m CPU       11h28m WALL


   This run was terminated on:  17:19:17   4Feb2017            

=------------------------------------------------------------------------------=
   JOB DONE.
=------------------------------------------------------------------------------=
