
     Program PWSCF v.5.1 starts on 27Sep2017 at 17:19:53 

     This program is part of the open-source Quantum ESPRESSO suite
     for quantum simulation of materials; please cite
         "P. Giannozzi et al., J. Phys.:Condens. Matter 21 395502 (2009);
          URL http://www.quantum-espresso.org", 
     in publications or presentations arising from this work. More details at
     http://www.quantum-espresso.org/quote

     Parallel version (MPI), running on     8 processors
     R & G space division:  proc/nbgrp/npool/nimage =       8
     Reading input from /tmp/SiGe_zns.scf.in.super.222.largedist.a.02.7905/SiGe_zns.scf.in.super.222.largedist.a.02.t
Warning: card &IONS ignored
Warning: card   ION_DYNAMICS='BFGS', ignored
Warning: card / ignored
Warning: card &CELL ignored
Warning: card  CELL_DYNAMICS = 'BFGS' ignored
Warning: card / ignored
     Message from routine read_cards :
     DEPRECATED: no units specified in CELL_PARAMETERS card

     Current dimensions of program PWSCF are:
     Max number of different atomic species (ntypx) = 10
     Max number of k-points (npk) =  40000
     Max angular momentum in pseudopotentials (lmaxx) =  3
 kfg - two_fermi_energies  F

     Subspace diagonalization in iterative solution of the eigenvalue problem:
     a serial algorithm will be used


     Parallelization info
     --------------------
     sticks:   dense  smooth     PW     G-vecs:    dense   smooth      PW
     Min         379     263     72                13730     8005    1173
     Max         380     264     73                13731     8014    1177
     Sum        3037    2107    583               109843    64071    9409



     bravais-lattice index     =            0
     lattice parameter (alat)  =    14.799446477  a.u.
     unit-cell volume          =    2292.0359 (a.u.)^3
     number of atoms/cell      =           16
     number of atomic types    =            2
     number of electrons       =       144.00
     number of Kohn-Sham states=           86
     kinetic-energy cutoff     =      35.0000  Ry
     charge density cutoff     =     200.0000  Ry
     convergence threshold     =      1.0E-09
     mixing beta               =       0.3000
     number of iterations used =            8  local-TF  mixing
     Exchange-correlation      = SLA  PW   PSX  PSC ( 1  4 10  8 0)
     A smooth kinetic-energy cutoff is imposed at      34.5000 Ry
     height of the smooth step-function =             800.0000 Ry
     width of the smooth step-function  =               1.0000 Ry


     celldm(1)=  14.799446  celldm(2)=   0.000000  celldm(3)=   0.000000
     celldm(4)=   0.000000  celldm(5)=   0.000000  celldm(6)=   0.000000

     crystal axes: (cart. coord. in units of alat)
               a(1) = (  -0.000000000000   0.707106781187   0.707106781187 )  
               a(2) = (   0.707106781187  -0.000000000000   0.707106781187 )  
               a(3) = (   0.707106781187   0.707106781187   0.000000000000 )  

     reciprocal axes: (cart. coord. in units 2 pi/alat)
               b(1) = ( -0.707107  0.707107  0.707107 )  
               b(2) = (  0.707107 -0.707107  0.707107 )  
               b(3) = (  0.707107  0.707107 -0.707107 )  


     PseudoPot. # 1 for Si read from file:
     /users/kfg/psuedo/gbrv_1.5/si.pbesol.UPF
     MD5 check sum: ef58ba74faed4df802eb8a9742fc00a8
     Pseudo is Ultrasoft + core correction, Zval =  4.0
     Generated by new atomic code, or converted to UPF format
     Using radial grid of  899 points,  6 beta functions with: 
                l(1) =   0
                l(2) =   0
                l(3) =   1
                l(4) =   1
                l(5) =   2
                l(6) =   2
     Q(r) pseudized with  8 coefficients,  rinner =    0.900   0.900   0.900
                                                       0.900   0.900

     PseudoPot. # 2 for Ge read from file:
     /users/kfg/psuedo/gbrv_1.5/ge.pbesol.UPF
     MD5 check sum: 7bed0412183f5e553a4d27ec7023354d
     Pseudo is Ultrasoft + core correction, Zval = 14.0
     Generated by new atomic code, or converted to UPF format
     Using radial grid of  873 points,  6 beta functions with: 
                l(1) =   0
                l(2) =   0
                l(3) =   1
                l(4) =   1
                l(5) =   2
                l(6) =   2
     Q(r) pseudized with  8 coefficients,  rinner =    1.400   1.400   1.400
                                                       1.400   1.400

     atomic species   valence    mass     pseudopotential
        Si             4.00    28.08550     Si( 1.00)
        Ge            14.00    72.64000     Ge( 1.00)

     No symmetry found


                                    s                        frac. trans.

      isym =  1     identity                                     

 cryst.   s( 1) = (     1          0          0      )
                  (     0          1          0      )
                  (     0          0          1      )

 cart.    s( 1) = (  1.0000000  0.0000000  0.0000000 )
                  (  0.0000000  1.0000000  0.0000000 )
                  (  0.0000000  0.0000000  1.0000000 )


     point group C_1 (1)    
     there are  1 classes
     the character table:

       E    
A      1.00

     the symmetry operations in each class:
     E        1

   Cartesian axes

     site n.     atom                  positions (alat units)
         1           Si  tau(   1) = (    0.01098920945    0.00849091897   -0.01055322258  )
         2           Ge  tau(   2) = (    0.16793850909    0.20970877423    0.20176514456  )
         3           Si  tau(   3) = (    0.32644683125    0.36287159188    0.03320645364  )
         4           Ge  tau(   4) = (    0.53207379487    0.51060800792    0.16604786666  )
         5           Si  tau(   5) = (    0.33933089549    0.01828816900    0.35142343556  )
         6           Ge  tau(   6) = (    0.50734920965    0.17351083669    0.51210389848  )
         7           Si  tau(   7) = (    0.68927050292    0.34884162496    0.32994438224  )
         8           Ge  tau(   8) = (    0.88630085759    0.51271425309    0.50867037578  )
         9           Si  tau(   9) = (    0.01840776869    0.32918504949    0.36948722019  )
        10           Ge  tau(  10) = (    0.18522955629    0.56345849264    0.50354473974  )
        11           Si  tau(  11) = (    0.35693659687    0.67362447370    0.34266493083  )
        12           Ge  tau(  12) = (    0.50134158518    0.90646494138    0.52413325728  )
        13           Si  tau(  13) = (    0.37919081548    0.34078563224    0.68751895300  )
        14           Ge  tau(  14) = (    0.50454694438    0.54807951848    0.91303090055  )
        15           Si  tau(  15) = (    0.70401150564    0.70681258147    0.71728366311  )
        16           Ge  tau(  16) = (    0.89097215832    0.85764429045    0.90077548231  )

   Crystallographic axes

     site n.     atom                  positions (cryst. coord.)
         1           Si  tau(   1) = (   -0.00922881339   -0.00569569711    0.02123678615  )
         2           Ge  tau(   2) = (    0.17220553966    0.11313346419    0.12436745301  )
         3           Si  tau(   3) = (    0.04923670380   -0.00227568670    0.46394122284  )
         4           Ge  tau(   4) = (    0.10223496900    0.13259217603    0.61987380086  )
         5           Si  tau(   5) = (    0.02148240540    0.47550538330    0.00438097123  )
         6           Ge  tau(   6) = (    0.12605276195    0.59817151663    0.11932861651  )
         7           Si  tau(   7) = (   -0.00741365802    0.47402547821    0.50075021516  )
         8           Ge  tau(   8) = (    0.09551865070    0.62384989350    0.62956879965  )
         9           Si  tau(   9) = (    0.48101964165    0.04151419626   -0.01548168014  )
        10           Ge  tau(  10) = (    0.62350814583    0.08861165436    0.17334249629  )
        11           Si  tau(  11) = (    0.46623284150    0.01836855104    0.48641602516  )
        12           Ge  tau(  12) = (    0.65708365285    0.08415270808    0.62485136107  )
        13           Si  tau(  13) = (    0.45899274836    0.51330587936    0.02295091462  )
        14           Ge  tau(  14) = (    0.67639251956    0.61482816287    0.09870896873  )
        15           Si  tau(  15) = (    0.50917680194    0.50521548250    0.49040713684  )
        16           Ge  tau(  16) = (    0.61337809050    0.66051081324    0.59951409675  )

     number of k points=    36  gaussian smearing, width (Ry)=  0.0150
                       cart. coord. in units 2pi/alat
        k(    1) = (   0.0000000   0.0000000   0.0000000), wk =   0.0312500
        k(    2) = (   0.1767767   0.1767767  -0.1767767), wk =   0.0625000
        k(    3) = (  -0.3535534  -0.3535534   0.3535534), wk =   0.0312500
        k(    4) = (   0.3535534   0.0000000   0.0000000), wk =   0.0625000
        k(    5) = (  -0.1767767  -0.5303301   0.5303301), wk =   0.0625000
        k(    6) = (   0.0000000  -0.3535534   0.3535534), wk =   0.0625000
        k(    7) = (  -0.7071068   0.0000000   0.0000000), wk =   0.0312500
        k(    8) = (  -0.7071068   0.3535534   0.0000000), wk =   0.0625000
        k(    9) = (  -0.1767767  -0.1767767  -0.1767767), wk =   0.0625000
        k(   10) = (  -0.1767767   0.1767767   0.1767767), wk =   0.0625000
        k(   11) = (   0.1767767  -0.1767767   0.1767767), wk =   0.0625000
        k(   12) = (   0.3535534   0.3535534   0.3535534), wk =   0.0312500
        k(   13) = (   0.3535534  -0.3535534  -0.3535534), wk =   0.0312500
        k(   14) = (  -0.3535534   0.3535534  -0.3535534), wk =   0.0312500
        k(   15) = (   0.0000000   0.3535534   0.0000000), wk =   0.0625000
        k(   16) = (   0.0000000   0.0000000   0.3535534), wk =   0.0625000
        k(   17) = (   0.1767767   0.5303301   0.5303301), wk =   0.0625000
        k(   18) = (   0.1767767  -0.5303301  -0.5303301), wk =   0.0625000
        k(   19) = (  -0.1767767   0.5303301  -0.5303301), wk =   0.0625000
        k(   20) = (  -0.5303301  -0.1767767  -0.5303301), wk =   0.0625000
        k(   21) = (   0.5303301   0.1767767  -0.5303301), wk =   0.0625000
        k(   22) = (  -0.5303301   0.1767767   0.5303301), wk =   0.0625000
        k(   23) = (   0.5303301  -0.1767767   0.5303301), wk =   0.0625000
        k(   24) = (   0.5303301   0.5303301  -0.1767767), wk =   0.0625000
        k(   25) = (  -0.5303301   0.5303301   0.1767767), wk =   0.0625000
        k(   26) = (   0.5303301  -0.5303301   0.1767767), wk =   0.0625000
        k(   27) = (  -0.5303301  -0.5303301  -0.1767767), wk =   0.0625000
        k(   28) = (   0.0000000   0.3535534   0.3535534), wk =   0.0625000
        k(   29) = (  -0.3535534   0.0000000  -0.3535534), wk =   0.0625000
        k(   30) = (   0.3535534   0.0000000  -0.3535534), wk =   0.0625000
        k(   31) = (   0.3535534   0.3535534   0.0000000), wk =   0.0625000
        k(   32) = (  -0.3535534   0.3535534   0.0000000), wk =   0.0625000
        k(   33) = (   0.0000000  -0.7071068   0.0000000), wk =   0.0312500
        k(   34) = (   0.0000000   0.0000000  -0.7071068), wk =   0.0312500
        k(   35) = (   0.3535534  -0.7071068   0.0000000), wk =   0.0625000
        k(   36) = (   0.7071068  -0.0000000   0.3535534), wk =   0.0625000

                       cryst. coord.
        k(    1) = (   0.0000000   0.0000000   0.0000000), wk =   0.0312500
        k(    2) = (   0.0000000   0.0000000   0.2500000), wk =   0.0625000
        k(    3) = (   0.0000000   0.0000000  -0.5000000), wk =   0.0312500
        k(    4) = (   0.0000000   0.2500000   0.2500000), wk =   0.0625000
        k(    5) = (   0.0000000   0.2500000  -0.5000000), wk =   0.0625000
        k(    6) = (   0.0000000   0.2500000  -0.2500000), wk =   0.0625000
        k(    7) = (   0.0000000  -0.5000000  -0.5000000), wk =   0.0312500
        k(    8) = (   0.2500000  -0.5000000  -0.2500000), wk =   0.0625000
        k(    9) = (  -0.2500000  -0.2500000  -0.2500000), wk =   0.0625000
        k(   10) = (   0.2500000   0.0000000   0.0000000), wk =   0.0625000
        k(   11) = (   0.0000000   0.2500000   0.0000000), wk =   0.0625000
        k(   12) = (   0.5000000   0.5000000   0.5000000), wk =   0.0312500
        k(   13) = (  -0.5000000   0.0000000   0.0000000), wk =   0.0312500
        k(   14) = (   0.0000000  -0.5000000   0.0000000), wk =   0.0312500
        k(   15) = (   0.2500000   0.0000000   0.2500000), wk =   0.0625000
        k(   16) = (   0.2500000   0.2500000   0.0000000), wk =   0.0625000
        k(   17) = (   0.7500000   0.5000000   0.5000000), wk =   0.0625000
        k(   18) = (  -0.7500000  -0.2500000  -0.2500000), wk =   0.0625000
        k(   19) = (   0.0000000  -0.5000000   0.2500000), wk =   0.0625000
        k(   20) = (  -0.5000000  -0.7500000  -0.5000000), wk =   0.0625000
        k(   21) = (  -0.2500000   0.0000000   0.5000000), wk =   0.0625000
        k(   22) = (   0.5000000   0.0000000  -0.2500000), wk =   0.0625000
        k(   23) = (   0.2500000   0.7500000   0.2500000), wk =   0.0625000
        k(   24) = (   0.2500000   0.2500000   0.7500000), wk =   0.0625000
        k(   25) = (   0.5000000  -0.2500000   0.0000000), wk =   0.0625000
        k(   26) = (  -0.2500000   0.5000000   0.0000000), wk =   0.0625000
        k(   27) = (  -0.5000000  -0.5000000  -0.7500000), wk =   0.0625000
        k(   28) = (   0.5000000   0.2500000   0.2500000), wk =   0.0625000
        k(   29) = (  -0.2500000  -0.5000000  -0.2500000), wk =   0.0625000
        k(   30) = (  -0.2500000   0.0000000   0.2500000), wk =   0.0625000
        k(   31) = (   0.2500000   0.2500000   0.5000000), wk =   0.0625000
        k(   32) = (   0.2500000  -0.2500000   0.0000000), wk =   0.0625000
        k(   33) = (  -0.5000000   0.0000000  -0.5000000), wk =   0.0312500
        k(   34) = (  -0.5000000  -0.5000000   0.0000000), wk =   0.0312500
        k(   35) = (  -0.5000000   0.2500000  -0.2500000), wk =   0.0625000
        k(   36) = (   0.2500000   0.7500000   0.5000000), wk =   0.0625000

     Dense  grid:   109843 G-vectors     FFT dimensions: (  72,  72,  72)

     Smooth grid:    64071 G-vectors     FFT dimensions: (  60,  60,  60)

     Largest allocated arrays     est. size (Mb)     dimensions
        Kohn-Sham Wavefunctions         1.34 Mb     (    1022,   86)
        NL pseudopotentials             4.49 Mb     (    1022,  288)
        Each V/rho on FFT grid          0.71 Mb     (   46656)
        Each G-vector array             0.10 Mb     (   13731)
        G-vector shells                 0.01 Mb     (     737)
     Largest temporary arrays     est. size (Mb)     dimensions
        Auxiliary wavefunctions         5.36 Mb     (    1022,  344)
        Each subspace H/S matrix        1.81 Mb     (     344,  344)
        Each <psi_i|beta_j> matrix      0.38 Mb     (     288,   86)
        Arrays for rho mixing           5.70 Mb     (   46656,    8)

     Check: negative/imaginary core charge=   -0.000001    0.000000

     Initial potential from superposition of free atoms

     starting charge  143.98835, renormalised to  144.00000
     Starting wfc are  104 randomized atomic wfcs

     total cpu time spent up to now is       28.6 secs

     per-process dynamical memory:    70.5 Mb

     Self-consistent Calculation

     iteration #  1     ecut=    35.00 Ry     beta=0.30
     Davidson diagonalization with overlap
     ethr =  1.00E-02,  avg # of iterations =  3.0

     Threshold (ethr) on eigenvalues was too large:
     Diagonalizing with lowered threshold

     Davidson diagonalization with overlap
     ethr =  2.70E-04,  avg # of iterations =  5.4

     total cpu time spent up to now is      238.4 secs

     total energy              =   -1781.53366222 Ry
     Harris-Foulkes estimate   =   -1781.57769428 Ry
     estimated scf accuracy    <       0.38792852 Ry

     iteration #  2     ecut=    35.00 Ry     beta=0.30
     Davidson diagonalization with overlap
     ethr =  2.69E-04,  avg # of iterations =  1.1

     total cpu time spent up to now is      340.3 secs

     total energy              =   -1781.44937221 Ry
     Harris-Foulkes estimate   =   -1781.53620418 Ry
     estimated scf accuracy    <       0.23675096 Ry

     iteration #  3     ecut=    35.00 Ry     beta=0.30
     Davidson diagonalization with overlap
     ethr =  1.64E-04,  avg # of iterations =  2.6

     total cpu time spent up to now is      415.1 secs

     total energy              =   -1781.47107710 Ry
     Harris-Foulkes estimate   =   -1781.47162968 Ry
     estimated scf accuracy    <       0.00479416 Ry

     iteration #  4     ecut=    35.00 Ry     beta=0.30
     Davidson diagonalization with overlap
     ethr =  3.33E-06,  avg # of iterations =  8.3

     total cpu time spent up to now is      567.4 secs

     total energy              =   -1781.47128733 Ry
     Harris-Foulkes estimate   =   -1781.47164334 Ry
     estimated scf accuracy    <       0.00236270 Ry

     iteration #  5     ecut=    35.00 Ry     beta=0.30
     Davidson diagonalization with overlap
     ethr =  1.64E-06,  avg # of iterations =  2.0

     total cpu time spent up to now is      653.5 secs

     total energy              =   -1781.47153649 Ry
     Harris-Foulkes estimate   =   -1781.47153874 Ry
     estimated scf accuracy    <       0.00011527 Ry

     iteration #  6     ecut=    35.00 Ry     beta=0.30
     Davidson diagonalization with overlap
     ethr =  8.01E-08,  avg # of iterations =  2.0

     total cpu time spent up to now is      733.1 secs

     total energy              =   -1781.47151586 Ry
     Harris-Foulkes estimate   =   -1781.47154718 Ry
     estimated scf accuracy    <       0.00009924 Ry

     iteration #  7     ecut=    35.00 Ry     beta=0.30
     Davidson diagonalization with overlap
     ethr =  6.89E-08,  avg # of iterations =  2.0

     total cpu time spent up to now is      808.6 secs

     total energy              =   -1781.47152671 Ry
     Harris-Foulkes estimate   =   -1781.47152685 Ry
     estimated scf accuracy    <       0.00000246 Ry

     iteration #  8     ecut=    35.00 Ry     beta=0.30
     Davidson diagonalization with overlap
     ethr =  1.71E-09,  avg # of iterations =  3.0

     total cpu time spent up to now is      897.4 secs

     total energy              =   -1781.47152714 Ry
     Harris-Foulkes estimate   =   -1781.47152718 Ry
     estimated scf accuracy    <       0.00000087 Ry

     iteration #  9     ecut=    35.00 Ry     beta=0.30
     Davidson diagonalization with overlap
     ethr =  6.04E-10,  avg # of iterations =  2.0

     total cpu time spent up to now is      979.3 secs

     total energy              =   -1781.47152731 Ry
     Harris-Foulkes estimate   =   -1781.47152723 Ry
     estimated scf accuracy    <       0.00000004 Ry

     iteration # 10     ecut=    35.00 Ry     beta=0.30
     Davidson diagonalization with overlap
     ethr =  2.94E-11,  avg # of iterations =  2.3

     total cpu time spent up to now is     1067.6 secs

     total energy              =   -1781.47152734 Ry
     Harris-Foulkes estimate   =   -1781.47152731 Ry
     estimated scf accuracy    <       0.00000002 Ry

     iteration # 11     ecut=    35.00 Ry     beta=0.30
     Davidson diagonalization with overlap
     ethr =  1.29E-11,  avg # of iterations =  2.0

     total cpu time spent up to now is     1143.5 secs

     total energy              =   -1781.47152737 Ry
     Harris-Foulkes estimate   =   -1781.47152735 Ry
     estimated scf accuracy    <          1.3E-09 Ry

     iteration # 12     ecut=    35.00 Ry     beta=0.30
     Davidson diagonalization with overlap
     ethr =  8.72E-13,  avg # of iterations =  2.1

     total cpu time spent up to now is     1210.5 secs

     End of self-consistent calculation

          k = 0.0000 0.0000 0.0000 (  7991 PWs)   bands (ev):

   -17.8041 -17.7406 -17.6907 -17.6545 -17.6442 -17.4835 -17.4703 -17.4335
   -17.4224 -17.4189 -17.3595 -17.3139 -17.2916 -17.2866 -17.2673 -17.2453
   -17.2406 -17.2313 -17.2280 -17.2220 -17.0371 -17.0359 -17.0244 -17.0131
   -17.0097 -16.9997 -16.9839 -16.9807 -16.9739 -16.9658 -16.9191 -16.8894
   -16.8772 -16.8670 -16.8653 -16.8552 -16.8389 -16.8333 -16.8174 -16.8130
    -5.5318  -3.8232  -3.5561  -3.2193  -2.5966  -1.6932  -1.4951  -1.4271
    -1.0825  -0.8198  -0.5919  -0.0942   0.2455   0.5864   0.6780   3.8582
     3.9349   4.1654   4.2690   4.3696   4.4285   5.3002   5.6055   5.7212
     5.8437   5.9858   6.2508   6.3788   6.7489   6.9637   7.2119   7.2581
     7.5845   7.6851   7.8306   7.8897   8.0226   8.1562   8.2114   8.3880
     8.5903   8.6751   9.0094   9.3397   9.5788   9.8699

     occupation numbers 
     1.0000   1.0000   1.0000   1.0000   1.0000   1.0000   1.0000   1.0000
     1.0000   1.0000   1.0000   1.0000   1.0000   1.0000   1.0000   1.0000
     1.0000   1.0000   1.0000   1.0000   1.0000   1.0000   1.0000   1.0000
     1.0000   1.0000   1.0000   1.0000   1.0000   1.0000   1.0000   1.0000
     1.0000   1.0000   1.0000   1.0000   1.0000   1.0000   1.0000   1.0000
     1.0000   1.0000   1.0000   1.0000   1.0000   1.0000   1.0000   1.0000
     1.0000   1.0000   1.0000   1.0000   1.0000   1.0000   1.0000   1.0000
     1.0000   1.0000   1.0000   1.0000   1.0000   1.0000   1.0000   1.0000
     1.0000   1.0000   1.0000   1.0000   1.0000   1.0000   0.9854   0.9687
     0.3446   0.1362   0.0176   0.0060   0.0003   0.0000   0.0000   0.0000
     0.0000   0.0000   0.0000   0.0000   0.0000   0.0000

          k = 0.1768 0.1768-0.1768 (  8000 PWs)   bands (ev):

   -17.8039 -17.7404 -17.6907 -17.6543 -17.6441 -17.4833 -17.4701 -17.4334
   -17.4224 -17.4187 -17.3593 -17.3138 -17.2915 -17.2864 -17.2671 -17.2452
   -17.2405 -17.2312 -17.2280 -17.2220 -17.0369 -17.0358 -17.0242 -17.0131
   -17.0097 -16.9996 -16.9837 -16.9805 -16.9739 -16.9658 -16.9189 -16.8893
   -16.8770 -16.8668 -16.8652 -16.8551 -16.8388 -16.8331 -16.8174 -16.8130
    -5.3765  -4.0606  -3.5591  -3.3379  -2.6323  -2.0578  -1.9371  -1.6070
    -0.6632  -0.3799  -0.1958   0.3985   0.5463   0.8656   1.2634   3.2662
     3.5488   3.6032   4.2543   4.3148   4.4404   4.6387   4.8317   5.0918
     5.3902   5.6456   5.7974   5.9703   6.1036   6.6409   7.3362   7.3807
     7.5381   7.8237   8.0142   8.1405   8.6273   8.7171   8.8766   9.0649
     9.2084   9.3623   9.5409   9.7828  10.2135  10.4835

     occupation numbers 
     1.0000   1.0000   1.0000   1.0000   1.0000   1.0000   1.0000   1.0000
     1.0000   1.0000   1.0000   1.0000   1.0000   1.0000   1.0000   1.0000
     1.0000   1.0000   1.0000   1.0000   1.0000   1.0000   1.0000   1.0000
     1.0000   1.0000   1.0000   1.0000   1.0000   1.0000   1.0000   1.0000
     1.0000   1.0000   1.0000   1.0000   1.0000   1.0000   1.0000   1.0000
     1.0000   1.0000   1.0000   1.0000   1.0000   1.0000   1.0000   1.0000
     1.0000   1.0000   1.0000   1.0000   1.0000   1.0000   1.0000   1.0000
     1.0000   1.0000   1.0000   1.0000   1.0000   1.0000   1.0000   1.0000
     1.0000   1.0000   1.0000   1.0000   1.0000   1.0000   0.9066   0.8442
     0.4686   0.0198   0.0004   0.0000   0.0000   0.0000   0.0000   0.0000
     0.0000   0.0000   0.0000   0.0000   0.0000   0.0000

          k =-0.3536-0.3536 0.3536 (  8026 PWs)   bands (ev):

   -17.8036 -17.7403 -17.6907 -17.6540 -17.6441 -17.4830 -17.4699 -17.4333
   -17.4224 -17.4186 -17.3593 -17.3136 -17.2914 -17.2862 -17.2669 -17.2451
   -17.2404 -17.2311 -17.2279 -17.2221 -17.0369 -17.0355 -17.0241 -17.0129
   -17.0098 -16.9995 -16.9835 -16.9803 -16.9739 -16.9659 -16.9188 -16.8893
   -16.8770 -16.8666 -16.8650 -16.8551 -16.8386 -16.8331 -16.8173 -16.8131
    -5.1116  -4.4657  -3.5587  -3.3527  -2.5584  -2.4188  -2.1753  -1.7135
    -0.4606   0.0298   0.1640   0.7694   1.1036   1.1828   2.0973   3.0085
     3.1280   3.2508   3.4244   3.6200   4.1982   4.4903   4.6579   4.8140
     4.8844   5.1558   5.3171   5.3763   5.9312   6.6876   7.2158   7.3568
     7.6840   8.1047   8.2098   8.4617   8.4709   8.7495   8.9964   9.2515
     9.8775  10.7213  10.8666  10.9379  11.0997  11.5135

     occupation numbers 
     1.0000   1.0000   1.0000   1.0000   1.0000   1.0000   1.0000   1.0000
     1.0000   1.0000   1.0000   1.0000   1.0000   1.0000   1.0000   1.0000
     1.0000   1.0000   1.0000   1.0000   1.0000   1.0000   1.0000   1.0000
     1.0000   1.0000   1.0000   1.0000   1.0000   1.0000   1.0000   1.0000
     1.0000   1.0000   1.0000   1.0000   1.0000   1.0000   1.0000   1.0000
     1.0000   1.0000   1.0000   1.0000   1.0000   1.0000   1.0000   1.0000
     1.0000   1.0000   1.0000   1.0000   1.0000   1.0000   1.0000   1.0000
     1.0000   1.0000   1.0000   1.0000   1.0000   1.0000   1.0000   1.0000
     1.0000   1.0000   1.0000   1.0000   1.0000   1.0000   0.9844   0.8805
     0.1380   0.0000   0.0000   0.0000   0.0000   0.0000   0.0000   0.0000
     0.0000   0.0000   0.0000   0.0000   0.0000   0.0000

          k = 0.3536 0.0000 0.0000 (  8044 PWs)   bands (ev):

   -17.8039 -17.7404 -17.6906 -17.6543 -17.6440 -17.4832 -17.4699 -17.4334
   -17.4223 -17.4187 -17.3593 -17.3136 -17.2914 -17.2864 -17.2672 -17.2449
   -17.2403 -17.2313 -17.2280 -17.2219 -17.0368 -17.0359 -17.0240 -17.0129
   -17.0097 -16.9996 -16.9838 -16.9806 -16.9737 -16.9658 -16.9189 -16.8893
   -16.8769 -16.8667 -16.8653 -16.8551 -16.8387 -16.8332 -16.8172 -16.8130
    -5.3254  -3.9560  -3.7609  -3.2948  -2.8792  -2.4273  -1.5584  -1.3372
    -0.6766  -0.5446   0.0824   0.4099   0.6530   0.9934   1.5116   3.2391
     3.4657   3.6919   3.7784   4.1663   4.2624   4.4893   4.6899   4.8864
     5.0629   5.5542   5.7612   6.0592   6.2630   6.4909   6.8787   7.2508
     7.5221   8.0120   8.3334   8.6260   8.7818   8.9042   9.0142   9.2747
     9.4128   9.6140   9.6472  10.3207  10.3933  10.6155

     occupation numbers 
     1.0000   1.0000   1.0000   1.0000   1.0000   1.0000   1.0000   1.0000
     1.0000   1.0000   1.0000   1.0000   1.0000   1.0000   1.0000   1.0000
     1.0000   1.0000   1.0000   1.0000   1.0000   1.0000   1.0000   1.0000
     1.0000   1.0000   1.0000   1.0000   1.0000   1.0000   1.0000   1.0000
     1.0000   1.0000   1.0000   1.0000   1.0000   1.0000   1.0000   1.0000
     1.0000   1.0000   1.0000   1.0000   1.0000   1.0000   1.0000   1.0000
     1.0000   1.0000   1.0000   1.0000   1.0000   1.0000   1.0000   1.0000
     1.0000   1.0000   1.0000   1.0000   1.0000   1.0000   1.0000   1.0000
     1.0000   1.0000   1.0000   1.0000   1.0000   1.0000   1.0000   0.9721
     0.5127   0.0004   0.0000   0.0000   0.0000   0.0000   0.0000   0.0000
     0.0000   0.0000   0.0000   0.0000   0.0000   0.0000

          k =-0.1768-0.5303 0.5303 (  8019 PWs)   bands (ev):

   -17.8037 -17.7402 -17.6906 -17.6541 -17.6440 -17.4831 -17.4698 -17.4333
   -17.4223 -17.4185 -17.3592 -17.3135 -17.2914 -17.2862 -17.2671 -17.2448
   -17.2403 -17.2312 -17.2279 -17.2220 -17.0367 -17.0357 -17.0238 -17.0128
   -17.0096 -16.9995 -16.9836 -16.9804 -16.9737 -16.9658 -16.9188 -16.8892
   -16.8769 -16.8665 -16.8651 -16.8551 -16.8386 -16.8331 -16.8172 -16.8130
    -5.0619  -4.2768  -3.8747  -3.4475  -2.8960  -2.3562  -1.9221  -1.4591
    -0.5384  -0.1342   0.4309   0.9479   1.0559   1.7365   2.1278   2.7823
     2.9793   3.1493   3.4716   3.7724   4.0165   4.1723   4.3225   4.5092
     4.8889   4.9548   5.3787   5.5710   5.7390   6.0577   6.6215   6.9711
     8.0209   8.4783   8.8290   9.0146   9.1758   9.4808   9.6832   9.9580
    10.0663  10.2761  10.5341  10.8475  10.9390  11.2251

     occupation numbers 
     1.0000   1.0000   1.0000   1.0000   1.0000   1.0000   1.0000   1.0000
     1.0000   1.0000   1.0000   1.0000   1.0000   1.0000   1.0000   1.0000
     1.0000   1.0000   1.0000   1.0000   1.0000   1.0000   1.0000   1.0000
     1.0000   1.0000   1.0000   1.0000   1.0000   1.0000   1.0000   1.0000
     1.0000   1.0000   1.0000   1.0000   1.0000   1.0000   1.0000   1.0000
     1.0000   1.0000   1.0000   1.0000   1.0000   1.0000   1.0000   1.0000
     1.0000   1.0000   1.0000   1.0000   1.0000   1.0000   1.0000   1.0000
     1.0000   1.0000   1.0000   1.0000   1.0000   1.0000   1.0000   1.0000
     1.0000   1.0000   1.0000   1.0000   1.0000   1.0000   1.0000   0.9999
     0.0003   0.0000   0.0000   0.0000   0.0000   0.0000   0.0000   0.0000
     0.0000   0.0000   0.0000   0.0000   0.0000   0.0000

          k = 0.0000-0.3536 0.3536 (  8024 PWs)   bands (ev):

   -17.8038 -17.7403 -17.6906 -17.6542 -17.6440 -17.4831 -17.4700 -17.4331
   -17.4224 -17.4187 -17.3592 -17.3137 -17.2913 -17.2864 -17.2669 -17.2449
   -17.2405 -17.2311 -17.2279 -17.2221 -17.0368 -17.0355 -17.0240 -17.0131
   -17.0096 -16.9996 -16.9836 -16.9804 -16.9737 -16.9658 -16.9188 -16.8892
   -16.8769 -16.8669 -16.8650 -16.8550 -16.8387 -16.8330 -16.8174 -16.8130
    -5.1609  -4.2141  -3.8630  -3.3892  -2.5849  -2.3743  -1.9672  -1.5560
    -0.5864  -0.2529   0.1728   0.7053   0.9308   1.6228   1.8193   2.7785
     3.2129   3.5298   3.7550   4.0267   4.2048   4.4095   4.5417   4.7757
     4.9469   5.0869   5.2369   5.4805   5.9062   6.1049   6.3798   7.2057
     7.7606   8.4253   8.6972   8.8499   9.1032   9.3748   9.5675   9.6982
     9.7880  10.1270  10.1567  10.3182  10.5789  10.7014

     occupation numbers 
     1.0000   1.0000   1.0000   1.0000   1.0000   1.0000   1.0000   1.0000
     1.0000   1.0000   1.0000   1.0000   1.0000   1.0000   1.0000   1.0000
     1.0000   1.0000   1.0000   1.0000   1.0000   1.0000   1.0000   1.0000
     1.0000   1.0000   1.0000   1.0000   1.0000   1.0000   1.0000   1.0000
     1.0000   1.0000   1.0000   1.0000   1.0000   1.0000   1.0000   1.0000
     1.0000   1.0000   1.0000   1.0000   1.0000   1.0000   1.0000   1.0000
     1.0000   1.0000   1.0000   1.0000   1.0000   1.0000   1.0000   1.0000
     1.0000   1.0000   1.0000   1.0000   1.0000   1.0000   1.0000   1.0000
     1.0000   1.0000   1.0000   1.0000   1.0000   1.0000   1.0000   0.9869
     0.0525   0.0000   0.0000   0.0000   0.0000   0.0000   0.0000   0.0000
     0.0000   0.0000   0.0000   0.0000   0.0000   0.0000

          k =-0.7071 0.0000 0.0000 (  7992 PWs)   bands (ev):

   -17.8036 -17.7400 -17.6904 -17.6540 -17.6438 -17.4830 -17.4695 -17.4332
   -17.4221 -17.4184 -17.3590 -17.3133 -17.2912 -17.2862 -17.2670 -17.2444
   -17.2400 -17.2311 -17.2279 -17.2218 -17.0365 -17.0357 -17.0235 -17.0126
   -17.0095 -16.9994 -16.9837 -16.9804 -16.9735 -16.9656 -16.9186 -16.8891
   -16.8766 -16.8663 -16.8651 -16.8550 -16.8384 -16.8330 -16.8171 -16.8129
    -4.9762  -4.2182  -3.9528  -3.4950  -3.1822  -2.5983  -1.4826  -1.2780
    -0.5460  -0.3914   0.8912   1.1145   1.3476   1.5250   2.6325   2.7983
     2.9322   3.0384   3.2844   3.3987   3.5504   3.7572   4.0293   4.2153
     4.9168   5.1462   5.5160   5.5676   5.9050   6.2113   6.4320   6.8927
     7.8883   8.1689   8.8176   9.0251   9.2179   9.5580   9.7450  10.2815
    10.8798  11.0574  11.2902  11.3874  11.5166  11.5803

     occupation numbers 
     1.0000   1.0000   1.0000   1.0000   1.0000   1.0000   1.0000   1.0000
     1.0000   1.0000   1.0000   1.0000   1.0000   1.0000   1.0000   1.0000
     1.0000   1.0000   1.0000   1.0000   1.0000   1.0000   1.0000   1.0000
     1.0000   1.0000   1.0000   1.0000   1.0000   1.0000   1.0000   1.0000
     1.0000   1.0000   1.0000   1.0000   1.0000   1.0000   1.0000   1.0000
     1.0000   1.0000   1.0000   1.0000   1.0000   1.0000   1.0000   1.0000
     1.0000   1.0000   1.0000   1.0000   1.0000   1.0000   1.0000   1.0000
     1.0000   1.0000   1.0000   1.0000   1.0000   1.0000   1.0000   1.0000
     1.0000   1.0000   1.0000   1.0000   1.0000   1.0000   1.0000   1.0000
     0.0061   0.0000   0.0000   0.0000   0.0000   0.0000   0.0000   0.0000
     0.0000   0.0000   0.0000   0.0000   0.0000   0.0000

          k =-0.7071 0.3536 0.0000 (  8004 PWs)   bands (ev):

   -17.8037 -17.7402 -17.6905 -17.6542 -17.6439 -17.4831 -17.4697 -17.4333
   -17.4222 -17.4185 -17.3591 -17.3135 -17.2913 -17.2864 -17.2671 -17.2448
   -17.2403 -17.2311 -17.2279 -17.2219 -17.0367 -17.0357 -17.0239 -17.0129
   -17.0095 -16.9995 -16.9837 -16.9805 -16.9735 -16.9657 -16.9188 -16.8892
   -16.8768 -16.8667 -16.8651 -16.8551 -16.8385 -16.8330 -16.8173 -16.8129
    -4.9742  -4.1560  -4.0871  -3.6002  -2.7982  -2.4796  -1.9114  -1.5372
    -0.4006   0.1935   0.3456   0.7522   1.8352   1.9373   2.3580   2.6474
     2.8236   2.9635   3.3353   3.6066   3.9102   4.0873   4.1787   4.4232
     4.5731   4.8028   4.9695   5.3857   5.7624   5.9808   6.2923   6.7525
     8.7743   9.0286   9.2041   9.3919   9.4597   9.7299   9.9356  10.1453
    10.3423  10.5419  10.6159  10.8306  10.9385  11.2769

     occupation numbers 
     1.0000   1.0000   1.0000   1.0000   1.0000   1.0000   1.0000   1.0000
     1.0000   1.0000   1.0000   1.0000   1.0000   1.0000   1.0000   1.0000
     1.0000   1.0000   1.0000   1.0000   1.0000   1.0000   1.0000   1.0000
     1.0000   1.0000   1.0000   1.0000   1.0000   1.0000   1.0000   1.0000
     1.0000   1.0000   1.0000   1.0000   1.0000   1.0000   1.0000   1.0000
     1.0000   1.0000   1.0000   1.0000   1.0000   1.0000   1.0000   1.0000
     1.0000   1.0000   1.0000   1.0000   1.0000   1.0000   1.0000   1.0000
     1.0000   1.0000   1.0000   1.0000   1.0000   1.0000   1.0000   1.0000
     1.0000   1.0000   1.0000   1.0000   1.0000   1.0000   1.0000   1.0000
     0.0000   0.0000   0.0000   0.0000   0.0000   0.0000   0.0000   0.0000
     0.0000   0.0000   0.0000   0.0000   0.0000   0.0000

          k =-0.1768-0.1768-0.1768 (  8000 PWs)   bands (ev):

   -17.8040 -17.7405 -17.6906 -17.6543 -17.6441 -17.4833 -17.4700 -17.4335
   -17.4223 -17.4188 -17.3593 -17.3137 -17.2913 -17.2865 -17.2672 -17.2453
   -17.2404 -17.2313 -17.2278 -17.2219 -17.0370 -17.0358 -17.0242 -17.0132
   -17.0096 -16.9996 -16.9837 -16.9807 -16.9737 -16.9658 -16.9189 -16.8892
   -16.8770 -16.8668 -16.8652 -16.8552 -16.8387 -16.8332 -16.8174 -16.8130
    -5.3775  -4.1029  -3.5298  -3.2137  -2.7264  -2.0235  -1.9653  -1.7372
    -0.4663  -0.4501  -0.1134   0.1826   0.6625   0.8666   1.2361   3.3978
     3.6245   3.7869   4.1345   4.3042   4.3780   4.6027   4.8565   4.9946
     5.3014   5.3926   5.6296   5.9162   6.3838   6.7565   7.2052   7.4932
     7.6738   7.8495   8.0384   8.1471   8.6546   8.7655   8.8430   9.0511
     9.1923   9.2307   9.5123  10.0493  10.2496  10.4388

     occupation numbers 
     1.0000   1.0000   1.0000   1.0000   1.0000   1.0000   1.0000   1.0000
     1.0000   1.0000   1.0000   1.0000   1.0000   1.0000   1.0000   1.0000
     1.0000   1.0000   1.0000   1.0000   1.0000   1.0000   1.0000   1.0000
     1.0000   1.0000   1.0000   1.0000   1.0000   1.0000   1.0000   1.0000
     1.0000   1.0000   1.0000   1.0000   1.0000   1.0000   1.0000   1.0000
     1.0000   1.0000   1.0000   1.0000   1.0000   1.0000   1.0000   1.0000
     1.0000   1.0000   1.0000   1.0000   1.0000   1.0000   1.0000   1.0000
     1.0000   1.0000   1.0000   1.0000   1.0000   1.0000   1.0000   1.0000
     1.0000   1.0000   1.0000   1.0000   1.0000   1.0000   0.9871   0.5920
     0.1540   0.0127   0.0002   0.0000   0.0000   0.0000   0.0000   0.0000
     0.0000   0.0000   0.0000   0.0000   0.0000   0.0000

          k =-0.1768 0.1768 0.1768 (  8000 PWs)   bands (ev):

   -17.8039 -17.7404 -17.6905 -17.6544 -17.6442 -17.4833 -17.4700 -17.4334
   -17.4224 -17.4187 -17.3593 -17.3137 -17.2913 -17.2865 -17.2673 -17.2450
   -17.2406 -17.2313 -17.2280 -17.2221 -17.0369 -17.0358 -17.0240 -17.0130
   -17.0096 -16.9997 -16.9838 -16.9806 -16.9738 -16.9658 -16.9189 -16.8892
   -16.8770 -16.8670 -16.8653 -16.8550 -16.8387 -16.8332 -16.8174 -16.8130
    -5.3802  -3.9560  -3.6471  -3.3591  -2.6300  -2.1655  -1.8984  -1.7172
    -0.5351  -0.3240   0.0517   0.3659   0.5197   0.9051   1.1826   3.2784
     3.5102   3.6343   4.0060   4.1813   4.3205   4.5985   4.7610   4.8513
     5.5741   5.7155   5.9607   6.0672   6.1516   6.4249   7.3390   7.4981
     7.6429   7.8269   8.1563   8.3441   8.6733   8.7983   8.9173   9.1449
     9.2643   9.3954   9.5350  10.0056  10.1723  10.4883

     occupation numbers 
     1.0000   1.0000   1.0000   1.0000   1.0000   1.0000   1.0000   1.0000
     1.0000   1.0000   1.0000   1.0000   1.0000   1.0000   1.0000   1.0000
     1.0000   1.0000   1.0000   1.0000   1.0000   1.0000   1.0000   1.0000
     1.0000   1.0000   1.0000   1.0000   1.0000   1.0000   1.0000   1.0000
     1.0000   1.0000   1.0000   1.0000   1.0000   1.0000   1.0000   1.0000
     1.0000   1.0000   1.0000   1.0000   1.0000   1.0000   1.0000   1.0000
     1.0000   1.0000   1.0000   1.0000   1.0000   1.0000   1.0000   1.0000
     1.0000   1.0000   1.0000   1.0000   1.0000   1.0000   1.0000   1.0000
     1.0000   1.0000   1.0000   1.0000   1.0000   1.0000   0.9033   0.5786
     0.2105   0.0188   0.0000   0.0000   0.0000   0.0000   0.0000   0.0000
     0.0000   0.0000   0.0000   0.0000   0.0000   0.0000

          k = 0.1768-0.1768 0.1768 (  8000 PWs)   bands (ev):

   -17.8040 -17.7405 -17.6906 -17.6543 -17.6440 -17.4832 -17.4700 -17.4333
   -17.4224 -17.4189 -17.3593 -17.3138 -17.2914 -17.2866 -17.2671 -17.2450
   -17.2405 -17.2312 -17.2280 -17.2220 -17.0369 -17.0357 -17.0241 -17.0131
   -17.0097 -16.9997 -16.9838 -16.9806 -16.9737 -16.9658 -16.9189 -16.8893
   -16.8770 -16.8670 -16.8652 -16.8550 -16.8387 -16.8331 -16.8174 -16.8131
    -5.3792  -4.0338  -3.6905  -3.2091  -2.5965  -2.1467  -1.8536  -1.6145
    -0.6170  -0.3788  -0.1716   0.1640   0.3785   0.9850   1.3121   3.4158
     3.7048   3.7711   3.9263   4.2983   4.4705   4.7289   4.8486   5.3262
     5.3880   5.6402   5.7272   5.8763   6.2390   6.5233   7.1194   7.2718
     7.4982   7.6511   8.0247   8.1765   8.6142   8.7311   8.9191   9.0601
     9.1858   9.3508   9.6340   9.9936  10.1376  10.4191

     occupation numbers 
     1.0000   1.0000   1.0000   1.0000   1.0000   1.0000   1.0000   1.0000
     1.0000   1.0000   1.0000   1.0000   1.0000   1.0000   1.0000   1.0000
     1.0000   1.0000   1.0000   1.0000   1.0000   1.0000   1.0000   1.0000
     1.0000   1.0000   1.0000   1.0000   1.0000   1.0000   1.0000   1.0000
     1.0000   1.0000   1.0000   1.0000   1.0000   1.0000   1.0000   1.0000
     1.0000   1.0000   1.0000   1.0000   1.0000   1.0000   1.0000   1.0000
     1.0000   1.0000   1.0000   1.0000   1.0000   1.0000   1.0000   1.0000
     1.0000   1.0000   1.0000   1.0000   1.0000   1.0000   1.0000   1.0000
     1.0000   1.0000   1.0000   1.0000   1.0000   1.0000   0.9976   0.9614
     0.5783   0.1944   0.0003   0.0000   0.0000   0.0000   0.0000   0.0000
     0.0000   0.0000   0.0000   0.0000   0.0000   0.0000

          k = 0.3536 0.3536 0.3536 (  8026 PWs)   bands (ev):

   -17.8038 -17.7404 -17.6906 -17.6541 -17.6440 -17.4831 -17.4699 -17.4334
   -17.4222 -17.4188 -17.3592 -17.3135 -17.2912 -17.2863 -17.2672 -17.2453
   -17.2402 -17.2314 -17.2277 -17.2218 -17.0367 -17.0357 -17.0241 -17.0132
   -17.0095 -16.9994 -16.9837 -16.9806 -16.9735 -16.9659 -16.9187 -16.8892
   -16.8769 -16.8665 -16.8652 -16.8552 -16.8387 -16.8332 -16.8174 -16.8129
    -5.1110  -4.5104  -3.4830  -3.2003  -2.7815  -2.2759  -2.2000  -1.9414
    -0.1734  -0.0852   0.3095   0.5878   0.9044   1.2118   2.4206   3.0197
     3.1623   3.4320   3.5768   3.8375   3.9216   4.2558   4.4662   4.5755
     4.8107   4.9886   5.2792   5.3884   6.2997   6.8370   6.9565   7.4590
     7.9380   8.0939   8.2180   8.3113   8.4811   8.6982   8.9770   9.0466
    10.2837  10.7102  10.7998  11.0451  11.2265  11.3458

     occupation numbers 
     1.0000   1.0000   1.0000   1.0000   1.0000   1.0000   1.0000   1.0000
     1.0000   1.0000   1.0000   1.0000   1.0000   1.0000   1.0000   1.0000
     1.0000   1.0000   1.0000   1.0000   1.0000   1.0000   1.0000   1.0000
     1.0000   1.0000   1.0000   1.0000   1.0000   1.0000   1.0000   1.0000
     1.0000   1.0000   1.0000   1.0000   1.0000   1.0000   1.0000   1.0000
     1.0000   1.0000   1.0000   1.0000   1.0000   1.0000   1.0000   1.0000
     1.0000   1.0000   1.0000   1.0000   1.0000   1.0000   1.0000   1.0000
     1.0000   1.0000   1.0000   1.0000   1.0000   1.0000   1.0000   1.0000
     1.0000   1.0000   1.0000   1.0000   1.0000   1.0000   1.0000   0.6807
     0.0022   0.0000   0.0000   0.0000   0.0000   0.0000   0.0000   0.0000
     0.0000   0.0000   0.0000   0.0000   0.0000   0.0000

          k = 0.3536-0.3536-0.3536 (  8026 PWs)   bands (ev):

   -17.8038 -17.7401 -17.6903 -17.6544 -17.6442 -17.4830 -17.4699 -17.4334
   -17.4224 -17.4184 -17.3591 -17.3136 -17.2909 -17.2865 -17.2673 -17.2445
   -17.2406 -17.2313 -17.2278 -17.2223 -17.0367 -17.0357 -17.0238 -17.0128
   -17.0094 -16.9996 -16.9837 -16.9806 -16.9739 -16.9658 -16.9189 -16.8890
   -16.8768 -16.8671 -16.8654 -16.8548 -16.8386 -16.8331 -16.8174 -16.8129
    -5.1354  -4.3440  -3.6540  -3.3421  -2.6891  -2.3640  -2.1095  -2.0058
    -0.1719   0.2194   0.4895   0.7033   0.9962   1.2926   2.2041   2.7903
     2.9675   3.1985   3.3947   3.4158   3.6872   4.2612   4.3599   4.7927
     4.9775   5.1615   5.6472   5.9168   6.0946   6.2553   7.0954   7.4898
     7.6965   8.1964   8.5191   8.6257   8.8069   8.8531   9.1371   9.5513
    10.4306  10.6329  10.7182  10.9361  11.1982  11.2313

     occupation numbers 
     1.0000   1.0000   1.0000   1.0000   1.0000   1.0000   1.0000   1.0000
     1.0000   1.0000   1.0000   1.0000   1.0000   1.0000   1.0000   1.0000
     1.0000   1.0000   1.0000   1.0000   1.0000   1.0000   1.0000   1.0000
     1.0000   1.0000   1.0000   1.0000   1.0000   1.0000   1.0000   1.0000
     1.0000   1.0000   1.0000   1.0000   1.0000   1.0000   1.0000   1.0000
     1.0000   1.0000   1.0000   1.0000   1.0000   1.0000   1.0000   1.0000
     1.0000   1.0000   1.0000   1.0000   1.0000   1.0000   1.0000   1.0000
     1.0000   1.0000   1.0000   1.0000   1.0000   1.0000   1.0000   1.0000
     1.0000   1.0000   1.0000   1.0000   1.0000   1.0000   0.9986   0.6009
     0.1197   0.0000   0.0000   0.0000   0.0000   0.0000   0.0000   0.0000
     0.0000   0.0000   0.0000   0.0000   0.0000   0.0000

          k =-0.3536 0.3536-0.3536 (  8026 PWs)   bands (ev):

   -17.8038 -17.7404 -17.6905 -17.6543 -17.6438 -17.4831 -17.4698 -17.4330
   -17.4224 -17.4189 -17.3591 -17.3136 -17.2913 -17.2865 -17.2671 -17.2447
   -17.2405 -17.2312 -17.2281 -17.2219 -17.0368 -17.0356 -17.0237 -17.0132
   -17.0097 -16.9997 -16.9837 -16.9805 -16.9736 -16.9658 -16.9187 -16.8892
   -16.8769 -16.8671 -16.8652 -16.8550 -16.8385 -16.8329 -16.8174 -16.8131
    -5.1207  -4.4616  -3.6467  -3.2255  -2.6140  -2.3547  -2.0695  -1.8106
    -0.3485   0.0250   0.2033   0.4957   0.5859   1.2751   2.4164   3.0254
     3.1036   3.5023   3.5505   3.9510   4.3103   4.4456   4.6216   4.7756
     4.9276   5.0008   5.3016   5.5582   5.7440   6.7155   6.8246   7.2671
     7.4819   7.9232   8.2288   8.5156   8.5727   8.7003   8.8636   9.2012
    10.1906  10.6201  10.8531  10.9001  11.1499  11.2088

     occupation numbers 
     1.0000   1.0000   1.0000   1.0000   1.0000   1.0000   1.0000   1.0000
     1.0000   1.0000   1.0000   1.0000   1.0000   1.0000   1.0000   1.0000
     1.0000   1.0000   1.0000   1.0000   1.0000   1.0000   1.0000   1.0000
     1.0000   1.0000   1.0000   1.0000   1.0000   1.0000   1.0000   1.0000
     1.0000   1.0000   1.0000   1.0000   1.0000   1.0000   1.0000   1.0000
     1.0000   1.0000   1.0000   1.0000   1.0000   1.0000   1.0000   1.0000
     1.0000   1.0000   1.0000   1.0000   1.0000   1.0000   1.0000   1.0000
     1.0000   1.0000   1.0000   1.0000   1.0000   1.0000   1.0000   1.0000
     1.0000   1.0000   1.0000   1.0000   1.0000   1.0000   1.0000   0.9640
     0.6220   0.0030   0.0000   0.0000   0.0000   0.0000   0.0000   0.0000
     0.0000   0.0000   0.0000   0.0000   0.0000   0.0000

          k = 0.0000 0.3536 0.0000 (  8044 PWs)   bands (ev):

   -17.8039 -17.7404 -17.6904 -17.6542 -17.6441 -17.4832 -17.4701 -17.4333
   -17.4223 -17.4188 -17.3593 -17.3137 -17.2913 -17.2865 -17.2670 -17.2450
   -17.2405 -17.2312 -17.2279 -17.2221 -17.0369 -17.0357 -17.0240 -17.0131
   -17.0095 -16.9997 -16.9837 -16.9806 -16.9738 -16.9657 -16.9189 -16.8892
   -16.8770 -16.8668 -16.8651 -16.8551 -16.8387 -16.8331 -16.8174 -16.8129
    -5.3197  -4.0548  -3.6258  -3.4053  -2.7275  -2.4397  -1.4837  -1.4097
    -0.8346  -0.6654   0.1263   0.4497   0.8138   1.0700   1.3969   3.3988
     3.5299   3.6422   3.7438   4.0190   4.3838   4.5652   4.7111   4.9120
     5.0392   5.3848   5.7581   5.9184   6.1364   6.4322   6.8803   7.2702
     7.5279   8.0249   8.4595   8.6617   8.8194   8.9831   9.2166   9.2596
     9.4629   9.5469   9.6675  10.2014  10.3858  10.4438

     occupation numbers 
     1.0000   1.0000   1.0000   1.0000   1.0000   1.0000   1.0000   1.0000
     1.0000   1.0000   1.0000   1.0000   1.0000   1.0000   1.0000   1.0000
     1.0000   1.0000   1.0000   1.0000   1.0000   1.0000   1.0000   1.0000
     1.0000   1.0000   1.0000   1.0000   1.0000   1.0000   1.0000   1.0000
     1.0000   1.0000   1.0000   1.0000   1.0000   1.0000   1.0000   1.0000
     1.0000   1.0000   1.0000   1.0000   1.0000   1.0000   1.0000   1.0000
     1.0000   1.0000   1.0000   1.0000   1.0000   1.0000   1.0000   1.0000
     1.0000   1.0000   1.0000   1.0000   1.0000   1.0000   1.0000   1.0000
     1.0000   1.0000   1.0000   1.0000   1.0000   1.0000   1.0000   0.9623
     0.4967   0.0003   0.0000   0.0000   0.0000   0.0000   0.0000   0.0000
     0.0000   0.0000   0.0000   0.0000   0.0000   0.0000

          k = 0.0000 0.0000 0.3536 (  8044 PWs)   bands (ev):

   -17.8039 -17.7404 -17.6906 -17.6544 -17.6440 -17.4832 -17.4700 -17.4333
   -17.4224 -17.4186 -17.3593 -17.3137 -17.2913 -17.2865 -17.2671 -17.2452
   -17.2405 -17.2312 -17.2278 -17.2219 -17.0369 -17.0357 -17.0242 -17.0130
   -17.0096 -16.9995 -16.9837 -16.9805 -16.9736 -16.9658 -16.9189 -16.8892
   -16.8770 -16.8670 -16.8652 -16.8550 -16.8387 -16.8331 -16.8173 -16.8129
    -5.3364  -3.9131  -3.7018  -3.4359  -2.8026  -2.3865  -1.5986  -1.3832
    -0.9335  -0.4100   0.2121   0.4244   0.7706   1.0058   1.3873   3.3250
     3.5115   3.6300   3.7246   4.2521   4.3348   4.4405   4.6593   4.8106
     5.1014   5.4161   5.7836   5.9198   6.1657   6.6330   7.0501   7.2046
     7.5056   8.0593   8.4985   8.5597   8.7098   8.9033   9.0114   9.1864
     9.3091   9.5807   9.7703  10.3061  10.4661  10.6286

     occupation numbers 
     1.0000   1.0000   1.0000   1.0000   1.0000   1.0000   1.0000   1.0000
     1.0000   1.0000   1.0000   1.0000   1.0000   1.0000   1.0000   1.0000
     1.0000   1.0000   1.0000   1.0000   1.0000   1.0000   1.0000   1.0000
     1.0000   1.0000   1.0000   1.0000   1.0000   1.0000   1.0000   1.0000
     1.0000   1.0000   1.0000   1.0000   1.0000   1.0000   1.0000   1.0000
     1.0000   1.0000   1.0000   1.0000   1.0000   1.0000   1.0000   1.0000
     1.0000   1.0000   1.0000   1.0000   1.0000   1.0000   1.0000   1.0000
     1.0000   1.0000   1.0000   1.0000   1.0000   1.0000   1.0000   1.0000
     1.0000   1.0000   1.0000   1.0000   1.0000   1.0000   0.9995   0.9872
     0.5583   0.0001   0.0000   0.0000   0.0000   0.0000   0.0000   0.0000
     0.0000   0.0000   0.0000   0.0000   0.0000   0.0000

          k = 0.1768 0.5303 0.5303 (  8019 PWs)   bands (ev):

   -17.8038 -17.7403 -17.6905 -17.6540 -17.6439 -17.4831 -17.4697 -17.4333
   -17.4222 -17.4187 -17.3592 -17.3135 -17.2913 -17.2863 -17.2671 -17.2449
   -17.2401 -17.2312 -17.2279 -17.2219 -17.0366 -17.0358 -17.0239 -17.0130
   -17.0096 -16.9994 -16.9837 -16.9805 -16.9735 -16.9658 -16.9187 -16.8892
   -16.8768 -16.8664 -16.8651 -16.8552 -16.8386 -16.8331 -16.8173 -16.8130
    -5.0616  -4.3332  -3.7795  -3.4122  -2.9717  -2.3621  -1.8287  -1.6309
    -0.3843  -0.1751   0.3767   0.7578   1.2650   1.7997   2.1046   2.7300
     3.0683   3.2297   3.5511   3.6761   3.9912   4.1830   4.4202   4.5979
     4.7424   4.9110   5.2567   5.4042   5.4857   6.2731   6.5122   7.1981
     8.2705   8.5920   8.8241   9.0319   9.1943   9.3977   9.6847   9.8557
    10.1014  10.1731  10.4786  10.6785  10.8235  11.2223

     occupation numbers 
     1.0000   1.0000   1.0000   1.0000   1.0000   1.0000   1.0000   1.0000
     1.0000   1.0000   1.0000   1.0000   1.0000   1.0000   1.0000   1.0000
     1.0000   1.0000   1.0000   1.0000   1.0000   1.0000   1.0000   1.0000
     1.0000   1.0000   1.0000   1.0000   1.0000   1.0000   1.0000   1.0000
     1.0000   1.0000   1.0000   1.0000   1.0000   1.0000   1.0000   1.0000
     1.0000   1.0000   1.0000   1.0000   1.0000   1.0000   1.0000   1.0000
     1.0000   1.0000   1.0000   1.0000   1.0000   1.0000   1.0000   1.0000
     1.0000   1.0000   1.0000   1.0000   1.0000   1.0000   1.0000   1.0000
     1.0000   1.0000   1.0000   1.0000   1.0000   1.0000   1.0000   0.9886
     0.0000   0.0000   0.0000   0.0000   0.0000   0.0000   0.0000   0.0000
     0.0000   0.0000   0.0000   0.0000   0.0000   0.0000

          k = 0.1768-0.5303-0.5303 (  8019 PWs)   bands (ev):

   -17.8038 -17.7401 -17.6904 -17.6542 -17.6440 -17.4831 -17.4698 -17.4333
   -17.4223 -17.4185 -17.3591 -17.3135 -17.2912 -17.2864 -17.2672 -17.2445
   -17.2404 -17.2312 -17.2280 -17.2221 -17.0366 -17.0358 -17.0237 -17.0128
   -17.0095 -16.9995 -16.9838 -16.9805 -16.9737 -16.9658 -16.9188 -16.8892
   -16.8768 -16.8668 -16.8652 -16.8549 -16.8386 -16.8331 -16.8173 -16.8130
    -5.0734  -4.1885  -3.9031  -3.4888  -2.9171  -2.4505  -1.8213  -1.6243
    -0.2423  -0.0349   0.2912   0.8825   1.2813   1.7245   2.1441   2.6941
     2.9997   3.2136   3.3738   3.6046   3.8653   3.9552   4.2773   4.5356
     4.7313   5.0032   5.4762   5.6883   5.8998   6.0247   6.3829   7.2054
     8.1650   8.6505   8.9872   9.2046   9.3231   9.4490   9.7678   9.9291
    10.1159  10.4211  10.4958  10.7741  10.8737  11.1722

     occupation numbers 
     1.0000   1.0000   1.0000   1.0000   1.0000   1.0000   1.0000   1.0000
     1.0000   1.0000   1.0000   1.0000   1.0000   1.0000   1.0000   1.0000
     1.0000   1.0000   1.0000   1.0000   1.0000   1.0000   1.0000   1.0000
     1.0000   1.0000   1.0000   1.0000   1.0000   1.0000   1.0000   1.0000
     1.0000   1.0000   1.0000   1.0000   1.0000   1.0000   1.0000   1.0000
     1.0000   1.0000   1.0000   1.0000   1.0000   1.0000   1.0000   1.0000
     1.0000   1.0000   1.0000   1.0000   1.0000   1.0000   1.0000   1.0000
     1.0000   1.0000   1.0000   1.0000   1.0000   1.0000   1.0000   1.0000
     1.0000   1.0000   1.0000   1.0000   1.0000   1.0000   1.0000   0.9870
     0.0000   0.0000   0.0000   0.0000   0.0000   0.0000   0.0000   0.0000
     0.0000   0.0000   0.0000   0.0000   0.0000   0.0000

          k =-0.1768 0.5303-0.5303 (  8019 PWs)   bands (ev):

   -17.8038 -17.7403 -17.6904 -17.6542 -17.6439 -17.4831 -17.4697 -17.4332
   -17.4223 -17.4187 -17.3591 -17.3135 -17.2913 -17.2864 -17.2671 -17.2446
   -17.2403 -17.2312 -17.2280 -17.2219 -17.0367 -17.0358 -17.0236 -17.0130
   -17.0096 -16.9996 -16.9837 -16.9806 -16.9736 -16.9658 -16.9187 -16.8892
   -16.8768 -16.8667 -16.8652 -16.8550 -16.8385 -16.8331 -16.8173 -16.8130
    -5.0660  -4.2870  -3.8656  -3.4442  -2.8559  -2.4167  -1.8437  -1.4855
    -0.4409  -0.0573   0.1390   0.7877   1.0040   1.8438   2.1750   2.7467
     3.0950   3.4118   3.6097   3.7110   4.0046   4.1376   4.2783   4.5793
     4.7762   5.0870   5.3148   5.3824   5.9566   6.2124   6.3974   6.7641
     8.0036   8.3976   8.6239   8.9329   9.3244   9.5022   9.7865   9.9018
    10.0975  10.4168  10.6367  10.7782  10.8614  11.1017

     occupation numbers 
     1.0000   1.0000   1.0000   1.0000   1.0000   1.0000   1.0000   1.0000
     1.0000   1.0000   1.0000   1.0000   1.0000   1.0000   1.0000   1.0000
     1.0000   1.0000   1.0000   1.0000   1.0000   1.0000   1.0000   1.0000
     1.0000   1.0000   1.0000   1.0000   1.0000   1.0000   1.0000   1.0000
     1.0000   1.0000   1.0000   1.0000   1.0000   1.0000   1.0000   1.0000
     1.0000   1.0000   1.0000   1.0000   1.0000   1.0000   1.0000   1.0000
     1.0000   1.0000   1.0000   1.0000   1.0000   1.0000   1.0000   1.0000
     1.0000   1.0000   1.0000   1.0000   1.0000   1.0000   1.0000   1.0000
     1.0000   1.0000   1.0000   1.0000   1.0000   1.0000   1.0000   1.0000
     0.0005   0.0000   0.0000   0.0000   0.0000   0.0000   0.0000   0.0000
     0.0000   0.0000   0.0000   0.0000   0.0000   0.0000

          k =-0.5303-0.1768-0.5303 (  8019 PWs)   bands (ev):

   -17.8038 -17.7403 -17.6904 -17.6540 -17.6440 -17.4830 -17.4699 -17.4333
   -17.4222 -17.4187 -17.3591 -17.3135 -17.2910 -17.2863 -17.2670 -17.2450
   -17.2403 -17.2312 -17.2278 -17.2220 -17.0368 -17.0356 -17.0240 -17.0131
   -17.0094 -16.9995 -16.9836 -16.9805 -16.9737 -16.9658 -16.9187 -16.8891
   -16.8769 -16.8665 -16.8651 -16.8551 -16.8387 -16.8331 -16.8173 -16.8128
    -5.0467  -4.3832  -3.7820  -3.4044  -2.8306  -2.4258  -1.8666  -1.6460
    -0.4096  -0.2632   0.5533   0.6976   1.1254   1.8831   2.1706   2.8178
     3.1513   3.3267   3.5502   3.7212   3.9607   4.1029   4.2827   4.4234
     4.7124   4.9354   5.1353   5.3314   5.9570   6.2117   6.6877   6.7614
     8.1228   8.4076   8.9325   9.0661   9.3005   9.4863   9.6895   9.9351
    10.0136  10.3812  10.6270  10.8228  11.1207  11.1870

     occupation numbers 
     1.0000   1.0000   1.0000   1.0000   1.0000   1.0000   1.0000   1.0000
     1.0000   1.0000   1.0000   1.0000   1.0000   1.0000   1.0000   1.0000
     1.0000   1.0000   1.0000   1.0000   1.0000   1.0000   1.0000   1.0000
     1.0000   1.0000   1.0000   1.0000   1.0000   1.0000   1.0000   1.0000
     1.0000   1.0000   1.0000   1.0000   1.0000   1.0000   1.0000   1.0000
     1.0000   1.0000   1.0000   1.0000   1.0000   1.0000   1.0000   1.0000
     1.0000   1.0000   1.0000   1.0000   1.0000   1.0000   1.0000   1.0000
     1.0000   1.0000   1.0000   1.0000   1.0000   1.0000   1.0000   1.0000
     1.0000   1.0000   1.0000   1.0000   1.0000   1.0000   1.0000   1.0000
     0.0000   0.0000   0.0000   0.0000   0.0000   0.0000   0.0000   0.0000
     0.0000   0.0000   0.0000   0.0000   0.0000   0.0000

          k = 0.5303 0.1768-0.5303 (  8019 PWs)   bands (ev):

   -17.8038 -17.7403 -17.6905 -17.6539 -17.6440 -17.4830 -17.4700 -17.4332
   -17.4223 -17.4187 -17.3592 -17.3136 -17.2912 -17.2863 -17.2668 -17.2449
   -17.2403 -17.2311 -17.2279 -17.2221 -17.0368 -17.0354 -17.0239 -17.0130
   -17.0095 -16.9996 -16.9834 -16.9804 -16.9738 -16.9658 -16.9188 -16.8892
   -16.8770 -16.8666 -16.8650 -16.8550 -16.8387 -16.8330 -16.8173 -16.8129
    -5.0475  -4.3489  -3.7893  -3.5041  -2.8481  -2.3064  -1.8457  -1.6351
    -0.3206  -0.2653   0.0397   1.1052   1.3126   1.7873   2.0423   2.7142
     3.0090   3.2018   3.6427   3.8540   4.0056   4.1489   4.3339   4.5204
     4.7918   4.9708   5.1270   5.3752   5.5828   6.2188   6.4641   7.1862
     8.3183   8.4841   8.8193   9.1259   9.2775   9.4914   9.6529   9.8260
    10.1367  10.1792  10.4049  10.6107  10.8674  11.1969

     occupation numbers 
     1.0000   1.0000   1.0000   1.0000   1.0000   1.0000   1.0000   1.0000
     1.0000   1.0000   1.0000   1.0000   1.0000   1.0000   1.0000   1.0000
     1.0000   1.0000   1.0000   1.0000   1.0000   1.0000   1.0000   1.0000
     1.0000   1.0000   1.0000   1.0000   1.0000   1.0000   1.0000   1.0000
     1.0000   1.0000   1.0000   1.0000   1.0000   1.0000   1.0000   1.0000
     1.0000   1.0000   1.0000   1.0000   1.0000   1.0000   1.0000   1.0000
     1.0000   1.0000   1.0000   1.0000   1.0000   1.0000   1.0000   1.0000
     1.0000   1.0000   1.0000   1.0000   1.0000   1.0000   1.0000   1.0000
     1.0000   1.0000   1.0000   1.0000   1.0000   1.0000   1.0000   0.9908
     0.0000   0.0000   0.0000   0.0000   0.0000   0.0000   0.0000   0.0000
     0.0000   0.0000   0.0000   0.0000   0.0000   0.0000

          k =-0.5303 0.1768 0.5303 (  8019 PWs)   bands (ev):

   -17.8038 -17.7403 -17.6903 -17.6542 -17.6441 -17.4830 -17.4700 -17.4332
   -17.4222 -17.4186 -17.3592 -17.3136 -17.2909 -17.2864 -17.2671 -17.2446
   -17.2404 -17.2312 -17.2278 -17.2222 -17.0368 -17.0356 -17.0237 -17.0130
   -17.0093 -16.9997 -16.9836 -16.9805 -16.9738 -16.9657 -16.9188 -16.8889
   -16.8770 -16.8668 -16.8652 -16.8549 -16.8386 -16.8331 -16.8173 -16.8129
    -5.0614  -4.2614  -3.8481  -3.4917  -2.9446  -2.2556  -1.8736  -1.7101
    -0.4163  -0.1408   0.3930   1.1223   1.3581   1.6443   2.0770   2.6700
     2.9692   3.2323   3.4575   3.6698   3.7832   4.1278   4.3587   4.5261
     4.7976   4.9286   5.1470   5.5342   5.8222   6.0240   6.5019   7.2131
     8.1877   8.7314   9.0069   9.1904   9.4504   9.5424   9.8037   9.9159
    10.0742  10.4272  10.5653  10.6322  10.8548  11.0897

     occupation numbers 
     1.0000   1.0000   1.0000   1.0000   1.0000   1.0000   1.0000   1.0000
     1.0000   1.0000   1.0000   1.0000   1.0000   1.0000   1.0000   1.0000
     1.0000   1.0000   1.0000   1.0000   1.0000   1.0000   1.0000   1.0000
     1.0000   1.0000   1.0000   1.0000   1.0000   1.0000   1.0000   1.0000
     1.0000   1.0000   1.0000   1.0000   1.0000   1.0000   1.0000   1.0000
     1.0000   1.0000   1.0000   1.0000   1.0000   1.0000   1.0000   1.0000
     1.0000   1.0000   1.0000   1.0000   1.0000   1.0000   1.0000   1.0000
     1.0000   1.0000   1.0000   1.0000   1.0000   1.0000   1.0000   1.0000
     1.0000   1.0000   1.0000   1.0000   1.0000   1.0000   1.0000   0.9851
     0.0000   0.0000   0.0000   0.0000   0.0000   0.0000   0.0000   0.0000
     0.0000   0.0000   0.0000   0.0000   0.0000   0.0000

          k = 0.5303-0.1768 0.5303 (  8019 PWs)   bands (ev):

   -17.8038 -17.7403 -17.6904 -17.6541 -17.6440 -17.4830 -17.4699 -17.4330
   -17.4223 -17.4188 -17.3591 -17.3136 -17.2911 -17.2864 -17.2669 -17.2447
   -17.2404 -17.2311 -17.2279 -17.2221 -17.0368 -17.0355 -17.0237 -17.0130
   -17.0095 -16.9997 -16.9836 -16.9804 -16.9737 -16.9658 -16.9187 -16.8891
   -16.8769 -16.8668 -16.8651 -16.8550 -16.8386 -16.8330 -16.8173 -16.8130
    -5.0526  -4.3362  -3.8680  -3.4152  -2.8021  -2.3738  -1.8356  -1.5976
    -0.4087  -0.3417   0.4768   0.6546   1.0548   1.8465   2.1792   2.8238
     3.0755   3.4503   3.6462   3.7869   3.9378   4.0506   4.4503   4.6459
     4.6748   5.0290   5.3229   5.5388   5.6215   5.9378   6.3627   6.8891
     7.9177   8.7446   8.8483   9.0094   9.3545   9.4422   9.6199   9.7167
    10.1107  10.3336  10.6235  10.7590  10.9546  11.2423

     occupation numbers 
     1.0000   1.0000   1.0000   1.0000   1.0000   1.0000   1.0000   1.0000
     1.0000   1.0000   1.0000   1.0000   1.0000   1.0000   1.0000   1.0000
     1.0000   1.0000   1.0000   1.0000   1.0000   1.0000   1.0000   1.0000
     1.0000   1.0000   1.0000   1.0000   1.0000   1.0000   1.0000   1.0000
     1.0000   1.0000   1.0000   1.0000   1.0000   1.0000   1.0000   1.0000
     1.0000   1.0000   1.0000   1.0000   1.0000   1.0000   1.0000   1.0000
     1.0000   1.0000   1.0000   1.0000   1.0000   1.0000   1.0000   1.0000
     1.0000   1.0000   1.0000   1.0000   1.0000   1.0000   1.0000   1.0000
     1.0000   1.0000   1.0000   1.0000   1.0000   1.0000   1.0000   1.0000
     0.0034   0.0000   0.0000   0.0000   0.0000   0.0000   0.0000   0.0000
     0.0000   0.0000   0.0000   0.0000   0.0000   0.0000

          k = 0.5303 0.5303-0.1768 (  8019 PWs)   bands (ev):

   -17.8037 -17.7402 -17.6906 -17.6542 -17.6440 -17.4830 -17.4699 -17.4332
   -17.4223 -17.4185 -17.3592 -17.3136 -17.2912 -17.2863 -17.2670 -17.2451
   -17.2404 -17.2311 -17.2278 -17.2219 -17.0368 -17.0355 -17.0241 -17.0129
   -17.0096 -16.9995 -16.9835 -16.9803 -16.9737 -16.9658 -16.9188 -16.8892
   -16.8769 -16.8668 -16.8651 -16.8550 -16.8386 -16.8330 -16.8173 -16.8130
    -5.0817  -4.2465  -3.8417  -3.4951  -2.7771  -2.4803  -1.9125  -1.5071
    -0.5997  -0.0552   0.3583   1.0735   1.1337   1.7743   1.9989   2.7369
     2.9684   3.2835   3.6031   3.8134   3.9806   4.1185   4.2462   4.4716
     4.7848   4.9312   5.3184   5.5343   5.6882   6.1724   6.5802   7.0959
     8.0523   8.5075   8.8363   9.0773   9.2382   9.4908   9.5785   9.9598
    10.0724  10.2596  10.4202  10.7393  11.0325  11.1626

     occupation numbers 
     1.0000   1.0000   1.0000   1.0000   1.0000   1.0000   1.0000   1.0000
     1.0000   1.0000   1.0000   1.0000   1.0000   1.0000   1.0000   1.0000
     1.0000   1.0000   1.0000   1.0000   1.0000   1.0000   1.0000   1.0000
     1.0000   1.0000   1.0000   1.0000   1.0000   1.0000   1.0000   1.0000
     1.0000   1.0000   1.0000   1.0000   1.0000   1.0000   1.0000   1.0000
     1.0000   1.0000   1.0000   1.0000   1.0000   1.0000   1.0000   1.0000
     1.0000   1.0000   1.0000   1.0000   1.0000   1.0000   1.0000   1.0000
     1.0000   1.0000   1.0000   1.0000   1.0000   1.0000   1.0000   1.0000
     1.0000   1.0000   1.0000   1.0000   1.0000   1.0000   1.0000   0.9986
     0.0001   0.0000   0.0000   0.0000   0.0000   0.0000   0.0000   0.0000
     0.0000   0.0000   0.0000   0.0000   0.0000   0.0000

          k =-0.5303 0.5303 0.1768 (  8019 PWs)   bands (ev):

   -17.8037 -17.7401 -17.6904 -17.6543 -17.6440 -17.4831 -17.4699 -17.4333
   -17.4223 -17.4184 -17.3591 -17.3136 -17.2910 -17.2864 -17.2671 -17.2449
   -17.2405 -17.2312 -17.2278 -17.2220 -17.0368 -17.0356 -17.0239 -17.0128
   -17.0094 -16.9995 -16.9836 -16.9805 -16.9737 -16.9658 -16.9189 -16.8891
   -16.8769 -16.8670 -16.8652 -16.8549 -16.8386 -16.8330 -16.8173 -16.8129
    -5.0909  -4.1852  -3.8085  -3.5676  -2.8167  -2.5350  -1.9364  -1.5400
    -0.4417   0.0721   0.3971   0.9782   1.1539   1.8866   2.1234   2.7607
     2.9241   3.1186   3.3336   3.5414   3.8684   4.1752   4.3119   4.4993
     4.7808   4.9266   5.2075   5.5353   5.9311   6.1729   6.7201   6.9994
     8.2206   8.5678   8.8539   9.1212   9.3507   9.5232   9.8247   9.9410
    10.0836  10.4039  10.6546  10.8983  11.0231  11.1758

     occupation numbers 
     1.0000   1.0000   1.0000   1.0000   1.0000   1.0000   1.0000   1.0000
     1.0000   1.0000   1.0000   1.0000   1.0000   1.0000   1.0000   1.0000
     1.0000   1.0000   1.0000   1.0000   1.0000   1.0000   1.0000   1.0000
     1.0000   1.0000   1.0000   1.0000   1.0000   1.0000   1.0000   1.0000
     1.0000   1.0000   1.0000   1.0000   1.0000   1.0000   1.0000   1.0000
     1.0000   1.0000   1.0000   1.0000   1.0000   1.0000   1.0000   1.0000
     1.0000   1.0000   1.0000   1.0000   1.0000   1.0000   1.0000   1.0000
     1.0000   1.0000   1.0000   1.0000   1.0000   1.0000   1.0000   1.0000
     1.0000   1.0000   1.0000   1.0000   1.0000   1.0000   1.0000   0.9999
     0.0000   0.0000   0.0000   0.0000   0.0000   0.0000   0.0000   0.0000
     0.0000   0.0000   0.0000   0.0000   0.0000   0.0000

          k = 0.5303-0.5303 0.1768 (  8019 PWs)   bands (ev):

   -17.8037 -17.7403 -17.6905 -17.6542 -17.6438 -17.4831 -17.4698 -17.4331
   -17.4223 -17.4187 -17.3592 -17.3136 -17.2912 -17.2864 -17.2670 -17.2449
   -17.2404 -17.2311 -17.2279 -17.2219 -17.0367 -17.0355 -17.0239 -17.0130
   -17.0096 -16.9996 -16.9836 -16.9804 -16.9735 -16.9658 -16.9188 -16.8892
   -16.8769 -16.8669 -16.8651 -16.8550 -16.8386 -16.8329 -16.8173 -16.8130
    -5.0846  -4.2744  -3.7898  -3.5017  -2.8194  -2.4557  -1.8349  -1.5332
    -0.5242  -0.1797   0.3287   0.8492   1.1442   1.7091   2.1886   2.8533
     3.0723   3.1259   3.5757   3.8977   4.0524   4.2163   4.4397   4.6059
     4.8546   4.9262   5.1789   5.3377   5.6532   6.0733   6.3938   7.0902
     8.0568   8.5932   8.7818   9.0238   9.3380   9.4336   9.5966   9.7911
    10.0774  10.2351  10.5277  10.6930  10.8226  11.0866

     occupation numbers 
     1.0000   1.0000   1.0000   1.0000   1.0000   1.0000   1.0000   1.0000
     1.0000   1.0000   1.0000   1.0000   1.0000   1.0000   1.0000   1.0000
     1.0000   1.0000   1.0000   1.0000   1.0000   1.0000   1.0000   1.0000
     1.0000   1.0000   1.0000   1.0000   1.0000   1.0000   1.0000   1.0000
     1.0000   1.0000   1.0000   1.0000   1.0000   1.0000   1.0000   1.0000
     1.0000   1.0000   1.0000   1.0000   1.0000   1.0000   1.0000   1.0000
     1.0000   1.0000   1.0000   1.0000   1.0000   1.0000   1.0000   1.0000
     1.0000   1.0000   1.0000   1.0000   1.0000   1.0000   1.0000   1.0000
     1.0000   1.0000   1.0000   1.0000   1.0000   1.0000   1.0000   0.9988
     0.0001   0.0000   0.0000   0.0000   0.0000   0.0000   0.0000   0.0000
     0.0000   0.0000   0.0000   0.0000   0.0000   0.0000

          k =-0.5303-0.5303-0.1768 (  8019 PWs)   bands (ev):

   -17.8037 -17.7403 -17.6905 -17.6542 -17.6439 -17.4831 -17.4698 -17.4333
   -17.4223 -17.4186 -17.3592 -17.3135 -17.2911 -17.2864 -17.2671 -17.2451
   -17.2403 -17.2312 -17.2277 -17.2218 -17.0368 -17.0356 -17.0241 -17.0130
   -17.0095 -16.9994 -16.9836 -16.9805 -16.9734 -16.9658 -16.9187 -16.8891
   -16.8769 -16.8667 -16.8652 -16.8551 -16.8386 -16.8330 -16.8173 -16.8129
    -5.0822  -4.2935  -3.7801  -3.4527  -2.8223  -2.4523  -1.8853  -1.6881
    -0.5208   0.0573   0.4025   0.8668   1.0712   1.8364   2.1372   2.7577
     3.1233   3.3566   3.5083   3.6843   3.9138   4.0702   4.3548   4.4180
     4.7195   5.0327   5.2016   5.4107   5.7573   6.3024   6.4946   7.1212
     8.0875   8.4180   8.7901   9.0078   9.2757   9.5851   9.6658   9.8970
    10.0834  10.3189  10.5556  10.7788  11.0407  11.1643

     occupation numbers 
     1.0000   1.0000   1.0000   1.0000   1.0000   1.0000   1.0000   1.0000
     1.0000   1.0000   1.0000   1.0000   1.0000   1.0000   1.0000   1.0000
     1.0000   1.0000   1.0000   1.0000   1.0000   1.0000   1.0000   1.0000
     1.0000   1.0000   1.0000   1.0000   1.0000   1.0000   1.0000   1.0000
     1.0000   1.0000   1.0000   1.0000   1.0000   1.0000   1.0000   1.0000
     1.0000   1.0000   1.0000   1.0000   1.0000   1.0000   1.0000   1.0000
     1.0000   1.0000   1.0000   1.0000   1.0000   1.0000   1.0000   1.0000
     1.0000   1.0000   1.0000   1.0000   1.0000   1.0000   1.0000   1.0000
     1.0000   1.0000   1.0000   1.0000   1.0000   1.0000   1.0000   0.9975
     0.0001   0.0000   0.0000   0.0000   0.0000   0.0000   0.0000   0.0000
     0.0000   0.0000   0.0000   0.0000   0.0000   0.0000

          k = 0.0000 0.3536 0.3536 (  8024 PWs)   bands (ev):

   -17.8038 -17.7403 -17.6904 -17.6543 -17.6441 -17.4831 -17.4699 -17.4334
   -17.4223 -17.4186 -17.3592 -17.3135 -17.2910 -17.2864 -17.2672 -17.2450
   -17.2405 -17.2312 -17.2278 -17.2221 -17.0369 -17.0357 -17.0239 -17.0131
   -17.0094 -16.9996 -16.9837 -16.9806 -16.9736 -16.9658 -16.9188 -16.8891
   -16.8770 -16.8669 -16.8652 -16.8551 -16.8386 -16.8331 -16.8174 -16.8128
    -5.1651  -4.2093  -3.7757  -3.3850  -2.7546  -2.4020  -2.0750  -1.5226
    -0.6149   0.0243   0.2857   0.8373   1.0685   1.5974   1.6946   2.8445
     3.1730   3.4853   3.5992   3.7831   3.9724   4.2818   4.4160   4.6639
     4.9078   5.0205   5.2036   5.6315   5.8509   6.2757   6.3881   7.6372
     8.0758   8.6276   8.8335   8.9882   9.2580   9.3121   9.5226   9.7310
     9.8704  10.0312  10.2072  10.3360  10.5702  10.8232

     occupation numbers 
     1.0000   1.0000   1.0000   1.0000   1.0000   1.0000   1.0000   1.0000
     1.0000   1.0000   1.0000   1.0000   1.0000   1.0000   1.0000   1.0000
     1.0000   1.0000   1.0000   1.0000   1.0000   1.0000   1.0000   1.0000
     1.0000   1.0000   1.0000   1.0000   1.0000   1.0000   1.0000   1.0000
     1.0000   1.0000   1.0000   1.0000   1.0000   1.0000   1.0000   1.0000
     1.0000   1.0000   1.0000   1.0000   1.0000   1.0000   1.0000   1.0000
     1.0000   1.0000   1.0000   1.0000   1.0000   1.0000   1.0000   1.0000
     1.0000   1.0000   1.0000   1.0000   1.0000   1.0000   1.0000   1.0000
     1.0000   1.0000   1.0000   1.0000   1.0000   1.0000   1.0000   0.2219
     0.0001   0.0000   0.0000   0.0000   0.0000   0.0000   0.0000   0.0000
     0.0000   0.0000   0.0000   0.0000   0.0000   0.0000

          k =-0.3536 0.0000-0.3536 (  8024 PWs)   bands (ev):

   -17.8039 -17.7404 -17.6906 -17.6542 -17.6439 -17.4831 -17.4698 -17.4333
   -17.4224 -17.4188 -17.3592 -17.3136 -17.2913 -17.2864 -17.2672 -17.2450
   -17.2403 -17.2313 -17.2279 -17.2218 -17.0368 -17.0357 -17.0239 -17.0131
   -17.0096 -16.9996 -16.9836 -16.9806 -16.9735 -16.9659 -16.9188 -16.8892
   -16.8769 -16.8667 -16.8652 -16.8550 -16.8386 -16.8331 -16.8173 -16.8131
    -5.1640  -4.2093  -3.9210  -3.2176  -2.7122  -2.2600  -2.0643  -1.7074
    -0.3421  -0.1689   0.0554   0.5650   0.9788   1.6009   1.8303   2.8249
     3.3811   3.5462   3.7884   3.9928   4.1907   4.3556   4.4505   4.7154
     4.9479   5.1111   5.3596   5.4689   5.7078   6.0351   6.3574   7.1467
     7.8329   8.7075   8.7608   8.8869   9.1098   9.4198   9.4839   9.6709
     9.7377   9.8799  10.1398  10.3937  10.5525  10.7457

     occupation numbers 
     1.0000   1.0000   1.0000   1.0000   1.0000   1.0000   1.0000   1.0000
     1.0000   1.0000   1.0000   1.0000   1.0000   1.0000   1.0000   1.0000
     1.0000   1.0000   1.0000   1.0000   1.0000   1.0000   1.0000   1.0000
     1.0000   1.0000   1.0000   1.0000   1.0000   1.0000   1.0000   1.0000
     1.0000   1.0000   1.0000   1.0000   1.0000   1.0000   1.0000   1.0000
     1.0000   1.0000   1.0000   1.0000   1.0000   1.0000   1.0000   1.0000
     1.0000   1.0000   1.0000   1.0000   1.0000   1.0000   1.0000   1.0000
     1.0000   1.0000   1.0000   1.0000   1.0000   1.0000   1.0000   1.0000
     1.0000   1.0000   1.0000   1.0000   1.0000   1.0000   1.0000   0.9958
     0.0169   0.0000   0.0000   0.0000   0.0000   0.0000   0.0000   0.0000
     0.0000   0.0000   0.0000   0.0000   0.0000   0.0000

          k = 0.3536 0.0000-0.3536 (  8024 PWs)   bands (ev):

   -17.8037 -17.7402 -17.6906 -17.6543 -17.6441 -17.4831 -17.4699 -17.4333
   -17.4224 -17.4184 -17.3592 -17.3136 -17.2912 -17.2863 -17.2672 -17.2448
   -17.2404 -17.2312 -17.2280 -17.2221 -17.0368 -17.0357 -17.0239 -17.0128
   -17.0096 -16.9995 -16.9837 -16.9804 -16.9738 -16.9659 -16.9188 -16.8893
   -16.8769 -16.8668 -16.8652 -16.8550 -16.8386 -16.8331 -16.8173 -16.8130
    -5.1661  -4.0820  -3.9505  -3.3986  -2.7254  -2.2813  -2.1899  -1.4476
    -0.5423  -0.0256   0.1126   0.9234   1.2681   1.3501   1.7930   2.6882
     3.0593   3.4726   3.7092   3.8793   3.9848   4.2045   4.4055   4.6678
     4.8846   5.2847   5.3345   5.6321   5.7216   6.1853   6.4286   7.6489
     8.0411   8.5691   8.8887   9.0216   9.1821   9.3732   9.4804   9.7301
     9.7936  10.0089  10.1855  10.3925  10.5347  10.7389

     occupation numbers 
     1.0000   1.0000   1.0000   1.0000   1.0000   1.0000   1.0000   1.0000
     1.0000   1.0000   1.0000   1.0000   1.0000   1.0000   1.0000   1.0000
     1.0000   1.0000   1.0000   1.0000   1.0000   1.0000   1.0000   1.0000
     1.0000   1.0000   1.0000   1.0000   1.0000   1.0000   1.0000   1.0000
     1.0000   1.0000   1.0000   1.0000   1.0000   1.0000   1.0000   1.0000
     1.0000   1.0000   1.0000   1.0000   1.0000   1.0000   1.0000   1.0000
     1.0000   1.0000   1.0000   1.0000   1.0000   1.0000   1.0000   1.0000
     1.0000   1.0000   1.0000   1.0000   1.0000   1.0000   1.0000   1.0000
     1.0000   1.0000   1.0000   1.0000   1.0000   1.0000   1.0000   0.1985
     0.0002   0.0000   0.0000   0.0000   0.0000   0.0000   0.0000   0.0000
     0.0000   0.0000   0.0000   0.0000   0.0000   0.0000

          k = 0.3536 0.3536 0.0000 (  8024 PWs)   bands (ev):

   -17.8038 -17.7403 -17.6906 -17.6540 -17.6441 -17.4831 -17.4699 -17.4333
   -17.4222 -17.4187 -17.3592 -17.3136 -17.2913 -17.2863 -17.2670 -17.2451
   -17.2403 -17.2313 -17.2278 -17.2219 -17.0368 -17.0357 -17.0241 -17.0131
   -17.0096 -16.9994 -16.9836 -16.9805 -16.9738 -16.9657 -16.9188 -16.8892
   -16.8769 -16.8665 -16.8652 -16.8552 -16.8387 -16.8331 -16.8173 -16.8130
    -5.1525  -4.3079  -3.7314  -3.3285  -2.7147  -2.3199  -2.1134  -1.5716
    -0.5092  -0.2685   0.3223   0.7715   1.0607   1.4189   1.8904   2.6949
     3.3181   3.4930   3.7805   3.9097   4.1232   4.2518   4.5720   4.7147
     4.8987   5.0648   5.2323   5.5158   5.7218   6.1275   6.5185   7.5061
     7.9162   8.4023   8.7233   8.8293   9.1678   9.3202   9.6298   9.7843
     9.8103  10.0157  10.2076  10.3474  10.6056  10.7179

     occupation numbers 
     1.0000   1.0000   1.0000   1.0000   1.0000   1.0000   1.0000   1.0000
     1.0000   1.0000   1.0000   1.0000   1.0000   1.0000   1.0000   1.0000
     1.0000   1.0000   1.0000   1.0000   1.0000   1.0000   1.0000   1.0000
     1.0000   1.0000   1.0000   1.0000   1.0000   1.0000   1.0000   1.0000
     1.0000   1.0000   1.0000   1.0000   1.0000   1.0000   1.0000   1.0000
     1.0000   1.0000   1.0000   1.0000   1.0000   1.0000   1.0000   1.0000
     1.0000   1.0000   1.0000   1.0000   1.0000   1.0000   1.0000   1.0000
     1.0000   1.0000   1.0000   1.0000   1.0000   1.0000   1.0000   1.0000
     1.0000   1.0000   1.0000   1.0000   1.0000   1.0000   1.0000   0.5569
     0.0035   0.0000   0.0000   0.0000   0.0000   0.0000   0.0000   0.0000
     0.0000   0.0000   0.0000   0.0000   0.0000   0.0000

          k =-0.3536 0.3536 0.0000 (  8024 PWs)   bands (ev):

   -17.8038 -17.7403 -17.6904 -17.6543 -17.6441 -17.4831 -17.4699 -17.4332
   -17.4223 -17.4187 -17.3592 -17.3136 -17.2912 -17.2865 -17.2671 -17.2446
   -17.2405 -17.2313 -17.2280 -17.2221 -17.0368 -17.0357 -17.0237 -17.0130
   -17.0095 -16.9997 -16.9837 -16.9806 -16.9738 -16.9657 -16.9188 -16.8891
   -16.8769 -16.8670 -16.8653 -16.8549 -16.8385 -16.8331 -16.8174 -16.8130
    -5.1618  -4.2480  -3.6606  -3.5066  -2.6570  -2.5103  -2.0205  -1.4165
    -0.5363  -0.1584   0.2848   0.6900   0.9418   1.6198   1.8082   2.9083
     3.1045   3.4208   3.7166   3.7749   4.0802   4.3766   4.4818   4.7173
     4.9698   5.1306   5.2951   5.6698   5.7615   6.0434   6.3995   7.3781
     7.9480   8.6156   8.6523   8.9393   9.1686   9.3385   9.5665   9.9014
     9.9692  10.1681  10.2797  10.4045  10.5837  10.6763

     occupation numbers 
     1.0000   1.0000   1.0000   1.0000   1.0000   1.0000   1.0000   1.0000
     1.0000   1.0000   1.0000   1.0000   1.0000   1.0000   1.0000   1.0000
     1.0000   1.0000   1.0000   1.0000   1.0000   1.0000   1.0000   1.0000
     1.0000   1.0000   1.0000   1.0000   1.0000   1.0000   1.0000   1.0000
     1.0000   1.0000   1.0000   1.0000   1.0000   1.0000   1.0000   1.0000
     1.0000   1.0000   1.0000   1.0000   1.0000   1.0000   1.0000   1.0000
     1.0000   1.0000   1.0000   1.0000   1.0000   1.0000   1.0000   1.0000
     1.0000   1.0000   1.0000   1.0000   1.0000   1.0000   1.0000   1.0000
     1.0000   1.0000   1.0000   1.0000   1.0000   1.0000   1.0000   0.8485
     0.0018   0.0000   0.0000   0.0000   0.0000   0.0000   0.0000   0.0000
     0.0000   0.0000   0.0000   0.0000   0.0000   0.0000

          k = 0.0000-0.7071 0.0000 (  7992 PWs)   bands (ev):

   -17.8036 -17.7402 -17.6902 -17.6539 -17.6439 -17.4828 -17.4699 -17.4329
   -17.4220 -17.4186 -17.3590 -17.3134 -17.2909 -17.2862 -17.2667 -17.2446
   -17.2402 -17.2309 -17.2277 -17.2221 -17.0367 -17.0353 -17.0237 -17.0129
   -17.0091 -16.9996 -16.9834 -16.9804 -16.9737 -16.9656 -16.9186 -16.8889
   -16.8768 -16.8665 -16.8649 -16.8549 -16.8385 -16.8329 -16.8173 -16.8127
    -4.9311  -4.4107  -3.7315  -3.6433  -3.0453  -2.5622  -1.4556  -1.3672
    -0.6573  -0.5107   0.8744   1.2078   1.4185   1.5723   2.6271   2.8362
     3.1411   3.1961   3.3098   3.4657   3.5995   3.6502   3.8031   4.4180
     4.7634   5.0490   5.1687   5.4011   5.9473   6.2782   6.3828   6.8881
     7.9456   8.1730   8.8953   9.0756   9.3994   9.4682  10.1615  10.2064
    10.8971  11.0509  11.1219  11.3305  11.4514  11.5593

     occupation numbers 
     1.0000   1.0000   1.0000   1.0000   1.0000   1.0000   1.0000   1.0000
     1.0000   1.0000   1.0000   1.0000   1.0000   1.0000   1.0000   1.0000
     1.0000   1.0000   1.0000   1.0000   1.0000   1.0000   1.0000   1.0000
     1.0000   1.0000   1.0000   1.0000   1.0000   1.0000   1.0000   1.0000
     1.0000   1.0000   1.0000   1.0000   1.0000   1.0000   1.0000   1.0000
     1.0000   1.0000   1.0000   1.0000   1.0000   1.0000   1.0000   1.0000
     1.0000   1.0000   1.0000   1.0000   1.0000   1.0000   1.0000   1.0000
     1.0000   1.0000   1.0000   1.0000   1.0000   1.0000   1.0000   1.0000
     1.0000   1.0000   1.0000   1.0000   1.0000   1.0000   1.0000   1.0000
     0.0019   0.0000   0.0000   0.0000   0.0000   0.0000   0.0000   0.0000
     0.0000   0.0000   0.0000   0.0000   0.0000   0.0000

          k = 0.0000 0.0000-0.7071 (  7992 PWs)   bands (ev):

   -17.8035 -17.7401 -17.6904 -17.6541 -17.6437 -17.4829 -17.4697 -17.4330
   -17.4222 -17.4183 -17.3590 -17.3135 -17.2910 -17.2863 -17.2669 -17.2450
   -17.2403 -17.2309 -17.2276 -17.2217 -17.0367 -17.0353 -17.0239 -17.0128
   -17.0094 -16.9993 -16.9834 -16.9802 -16.9733 -16.9657 -16.9187 -16.8890
   -16.8768 -16.8668 -16.8649 -16.8548 -16.8384 -16.8328 -16.8172 -16.8127
    -5.0246  -4.0976  -3.9474  -3.5679  -3.0758  -2.6866  -1.5304  -1.2935
    -0.8654  -0.1115   1.0265   1.0941   1.4187   1.5497   2.5214   2.8354
     3.0584   3.1506   3.3286   3.4028   3.5264   3.5970   3.9484   4.1623
     4.8639   4.9897   5.4979   5.7019   5.8782   6.0429   6.5945   6.9751
     7.7888   8.2295   8.7105   9.0726   9.2274   9.6284   9.7802  10.5732
    10.9026  10.9865  11.1501  11.3613  11.4877  11.5242

     occupation numbers 
     1.0000   1.0000   1.0000   1.0000   1.0000   1.0000   1.0000   1.0000
     1.0000   1.0000   1.0000   1.0000   1.0000   1.0000   1.0000   1.0000
     1.0000   1.0000   1.0000   1.0000   1.0000   1.0000   1.0000   1.0000
     1.0000   1.0000   1.0000   1.0000   1.0000   1.0000   1.0000   1.0000
     1.0000   1.0000   1.0000   1.0000   1.0000   1.0000   1.0000   1.0000
     1.0000   1.0000   1.0000   1.0000   1.0000   1.0000   1.0000   1.0000
     1.0000   1.0000   1.0000   1.0000   1.0000   1.0000   1.0000   1.0000
     1.0000   1.0000   1.0000   1.0000   1.0000   1.0000   1.0000   1.0000
     1.0000   1.0000   1.0000   1.0000   1.0000   1.0000   1.0000   0.9999
     0.0347   0.0000   0.0000   0.0000   0.0000   0.0000   0.0000   0.0000
     0.0000   0.0000   0.0000   0.0000   0.0000   0.0000

          k = 0.3536-0.7071 0.0000 (  8004 PWs)   bands (ev):

   -17.8037 -17.7403 -17.6904 -17.6541 -17.6439 -17.4830 -17.4700 -17.4331
   -17.4222 -17.4186 -17.3592 -17.3136 -17.2910 -17.2864 -17.2670 -17.2449
   -17.2404 -17.2311 -17.2278 -17.2220 -17.0369 -17.0354 -17.0240 -17.0129
   -17.0094 -16.9996 -16.9835 -16.9804 -16.9737 -16.9657 -16.9188 -16.8891
   -16.8770 -16.8667 -16.8651 -16.8550 -16.8387 -16.8330 -16.8173 -16.8129
    -4.9584  -4.2668  -4.0156  -3.5879  -2.8154  -2.2788  -1.9631  -1.7050
    -0.3328   0.0156   0.3637   0.8682   1.7075   2.1218   2.3961   2.6948
     2.7803   2.9980   3.2795   3.6410   3.9203   4.0975   4.3596   4.4785
     4.5891   4.7026   4.9252   5.1477   5.4187   6.2219   6.3417   6.6833
     8.9113   9.0530   9.2959   9.3465   9.5566   9.6247  10.0131  10.1605
    10.2717  10.4489  10.7345  10.8039  10.9713  11.2385

     occupation numbers 
     1.0000   1.0000   1.0000   1.0000   1.0000   1.0000   1.0000   1.0000
     1.0000   1.0000   1.0000   1.0000   1.0000   1.0000   1.0000   1.0000
     1.0000   1.0000   1.0000   1.0000   1.0000   1.0000   1.0000   1.0000
     1.0000   1.0000   1.0000   1.0000   1.0000   1.0000   1.0000   1.0000
     1.0000   1.0000   1.0000   1.0000   1.0000   1.0000   1.0000   1.0000
     1.0000   1.0000   1.0000   1.0000   1.0000   1.0000   1.0000   1.0000
     1.0000   1.0000   1.0000   1.0000   1.0000   1.0000   1.0000   1.0000
     1.0000   1.0000   1.0000   1.0000   1.0000   1.0000   1.0000   1.0000
     1.0000   1.0000   1.0000   1.0000   1.0000   1.0000   1.0000   1.0000
     0.0000   0.0000   0.0000   0.0000   0.0000   0.0000   0.0000   0.0000
     0.0000   0.0000   0.0000   0.0000   0.0000   0.0000

          k = 0.7071-0.0000 0.3536 (  8004 PWs)   bands (ev):

   -17.8038 -17.7403 -17.6904 -17.6540 -17.6440 -17.4831 -17.4698 -17.4332
   -17.4223 -17.4186 -17.3592 -17.3135 -17.2912 -17.2863 -17.2670 -17.2446
   -17.2403 -17.2311 -17.2279 -17.2221 -17.0367 -17.0357 -17.0237 -17.0129
   -17.0094 -16.9996 -16.9837 -16.9805 -16.9737 -16.9658 -16.9188 -16.8891
   -16.8769 -16.8665 -16.8651 -16.8551 -16.8386 -16.8331 -16.8173 -16.8129
    -4.9388  -4.2842  -3.9390  -3.7629  -2.7278  -2.2695  -1.8829  -1.7529
    -0.1670   0.0233   0.1581   0.7760   1.8512   2.0505   2.3285   2.5971
     2.8792   2.9937   3.3971   3.6662   3.9058   3.9958   4.2254   4.4463
     4.5577   4.8438   5.0358   5.1753   5.8385   5.9445   6.1593   6.7115
     8.8187   9.0556   9.2077   9.4566   9.6141   9.7693   9.8473  10.1441
    10.3409  10.5909  10.7197  10.8922  11.0337  11.1265

     occupation numbers 
     1.0000   1.0000   1.0000   1.0000   1.0000   1.0000   1.0000   1.0000
     1.0000   1.0000   1.0000   1.0000   1.0000   1.0000   1.0000   1.0000
     1.0000   1.0000   1.0000   1.0000   1.0000   1.0000   1.0000   1.0000
     1.0000   1.0000   1.0000   1.0000   1.0000   1.0000   1.0000   1.0000
     1.0000   1.0000   1.0000   1.0000   1.0000   1.0000   1.0000   1.0000
     1.0000   1.0000   1.0000   1.0000   1.0000   1.0000   1.0000   1.0000
     1.0000   1.0000   1.0000   1.0000   1.0000   1.0000   1.0000   1.0000
     1.0000   1.0000   1.0000   1.0000   1.0000   1.0000   1.0000   1.0000
     1.0000   1.0000   1.0000   1.0000   1.0000   1.0000   1.0000   1.0000
     0.0000   0.0000   0.0000   0.0000   0.0000   0.0000   0.0000   0.0000
     0.0000   0.0000   0.0000   0.0000   0.0000   0.0000

     the Fermi energy is     7.5267 ev

!    total energy              =   -1781.47152739 Ry
     Harris-Foulkes estimate   =   -1781.47152737 Ry
     estimated scf accuracy    <          4.3E-10 Ry

     The total energy is the sum of the following terms:

     one-electron contribution =   -1198.03722372 Ry
     hartree contribution      =     714.00403014 Ry
     xc contribution           =    -495.23195889 Ry
     ewald contribution        =    -802.20138854 Ry
     smearing contrib. (-TS)   =      -0.00498638 Ry

     convergence has been achieved in  12 iterations

     Forces acting on atoms (Ry/au):

     atom    1 type  1   force =  -0.35801537E-01  0.15161258E-01  0.17350552E-01
     atom    2 type  2   force =   0.60563358E-01 -0.19024794E+00 -0.15717739E+00
     atom    3 type  1   force =   0.35726519E-01  0.18227889E-01 -0.14381827E+00
     atom    4 type  2   force =   0.22781520E-01  0.97530191E-01 -0.55872801E-01
     atom    5 type  1   force =  -0.73262300E-01 -0.47992379E-01  0.82099617E-02
     atom    6 type  2   force =   0.14068585E+00 -0.15719123E-01  0.36892840E-02
     atom    7 type  1   force =   0.84516497E-01 -0.76501362E-01  0.73234752E-01
     atom    8 type  2   force =  -0.50625384E-01  0.38450422E-01  0.47405623E-01
     atom    9 type  1   force =  -0.18429402E+00  0.19597521E+00  0.16665652E+00
     atom   10 type  2   force =  -0.11531071E+00 -0.16882449E+00  0.15496598E+00
     atom   11 type  1   force =   0.15310186E+00  0.13345201E+00 -0.71222160E-01
     atom   12 type  2   force =   0.15097535E-01 -0.65577789E-01  0.41248616E-01
     atom   13 type  1   force =  -0.11313337E+00  0.10535964E+00  0.12213549E+00
     atom   14 type  2   force =   0.98399827E-01 -0.85264949E-01 -0.95859112E-01
     atom   15 type  1   force =  -0.28283773E-01 -0.17335797E-01 -0.35774212E-01
     atom   16 type  2   force =  -0.10161870E-01  0.63307214E-01 -0.75172842E-01
     The non-local contrib.  to forces
     atom    1 type  1   force =  -0.29745470E-01 -0.21878924E-02  0.35076193E-01
     atom    2 type  2   force =   0.19887878E-01 -0.11001566E+00 -0.98142721E-01
     atom    3 type  1   force =   0.15855557E-01  0.25437609E-02 -0.12479151E+00
     atom    4 type  2   force =   0.68176517E-02  0.89520141E-01 -0.15951973E-01
     atom    5 type  1   force =  -0.95480850E-01 -0.23041552E-01  0.82796703E-02
     atom    6 type  2   force =   0.94180928E-01 -0.52807038E-01 -0.88413457E-02
     atom    7 type  1   force =   0.71979461E-01 -0.48606815E-01  0.61608180E-01
     atom    8 type  2   force =   0.23449853E-01 -0.24351941E-01  0.20771460E-01
     atom    9 type  1   force =  -0.15220709E+00  0.16042491E+00  0.13260075E+00
     atom   10 type  2   force =  -0.10126109E+00 -0.43941094E-01  0.89049437E-01
     atom   11 type  1   force =   0.16877970E+00  0.10561400E+00 -0.71549756E-01
     atom   12 type  2   force =   0.48707307E-01  0.34184564E-01 -0.26189328E-01
     atom   13 type  1   force =  -0.87873508E-01  0.96763050E-01  0.10449324E+00
     atom   14 type  2   force =  -0.57634307E-01 -0.46038528E-01 -0.16816864E-01
     atom   15 type  1   force =  -0.27364828E-01 -0.23370537E-01 -0.49028794E-01
     atom   16 type  2   force =   0.74684882E-02  0.89463630E-01  0.62451307E-01
     The ionic contribution  to forces
     atom    1 type  1   force =  -0.93237269E-01  0.35037876E+00  0.11878927E+01
     atom    2 type  2   force =  -0.32225600E+01 -0.37312806E+01 -0.31161268E+01
     atom    3 type  1   force =  -0.34515191E+00  0.15151937E+00 -0.12266158E+01
     atom    4 type  2   force =   0.41924605E+01  0.32057148E+01 -0.20518507E+01
     atom    5 type  1   force =  -0.16793965E+01 -0.36550602E+00 -0.14643308E+00
     atom    6 type  2   force =   0.21246816E+01  0.68308208E+00  0.41024670E+01
     atom    7 type  1   force =   0.85950820E+00 -0.64249611E-01  0.41098744E+00
     atom    8 type  2   force =  -0.36797658E+01  0.14281853E+01  0.11428567E+01
     atom    9 type  1   force =  -0.16858634E+01  0.67058925E+00  0.18257635E+01
     atom   10 type  2   force =  -0.14115896E+01 -0.24443230E+01  0.63971545E+01
     atom   11 type  1   force =   0.29761193E+01  0.71623500E+00 -0.50180105E+00
     atom   12 type  2   force =   0.25169978E+01 -0.22470324E+01  0.12278593E+01
     atom   13 type  1   force =  -0.92082693E+00  0.13334831E+01  0.15359026E+01
     atom   14 type  2   force =   0.69216266E+00 -0.26095916E+01 -0.45576118E+01
     atom   15 type  1   force =  -0.54404333E+00 -0.28257761E+00 -0.16531684E+01
     atom   16 type  2   force =   0.22050480E+00  0.32053732E+01 -0.45772763E+01
     The local contribution  to forces
     atom    1 type  1   force =   0.84605982E-01 -0.33249009E+00 -0.12017464E+01
     atom    2 type  2   force =   0.32664397E+01  0.36324677E+01  0.30413650E+01
     atom    3 type  1   force =   0.36593075E+00 -0.13533167E+00  0.11963495E+01
     atom    4 type  2   force =  -0.41706628E+01 -0.31858400E+01  0.20027638E+01
     atom    5 type  1   force =   0.16920005E+01  0.33878418E+00  0.14688001E+00
     atom    6 type  2   force =  -0.20632524E+01 -0.65180772E+00 -0.40909250E+01
     atom    7 type  1   force =  -0.84044143E+00  0.31587281E-01 -0.39376964E+00
     atom    8 type  2   force =   0.36044084E+01 -0.13658708E+01 -0.11145693E+01
     atom    9 type  1   force =   0.16395870E+01 -0.62044986E+00 -0.17787648E+01
     atom   10 type  2   force =   0.13843265E+01  0.23074131E+01 -0.63160718E+01
     atom   11 type  1   force =  -0.29747309E+01 -0.67931970E+00  0.49528217E+00
     atom   12 type  2   force =  -0.25533225E+01  0.21454944E+01 -0.11583788E+01
     atom   13 type  1   force =   0.88720194E+00 -0.13154159E+01 -0.15081932E+01
     atom   14 type  2   force =  -0.53083029E+00  0.25597622E+01  0.44746296E+01
     atom   15 type  1   force =   0.54036391E+00  0.28639348E+00  0.16610352E+01
     atom   16 type  2   force =  -0.23577408E+00 -0.32220197E+01  0.44384159E+01
     The core correction contribution to forces
     atom    1 type  1   force =   0.25763057E-02 -0.54067213E-03 -0.38723697E-02
     atom    2 type  2   force =  -0.32007834E-02  0.18613557E-01  0.15769239E-01
     atom    3 type  1   force =  -0.90845111E-03 -0.50369069E-03  0.11239766E-01
     atom    4 type  2   force =  -0.58516407E-02 -0.11894053E-01  0.92036277E-02
     atom    5 type  1   force =   0.96159594E-02  0.17684224E-02 -0.51492391E-03
     atom    6 type  2   force =  -0.14961633E-01  0.58442056E-02  0.98393986E-03
     atom    7 type  1   force =  -0.65266442E-02  0.47635889E-02 -0.55899931E-02
     atom    8 type  2   force =   0.12636964E-02  0.50496772E-03 -0.16503720E-02
     atom    9 type  1   force =   0.14190824E-01 -0.14590882E-01 -0.12941588E-01
     atom   10 type  2   force =   0.13258298E-01  0.12018298E-01 -0.15197537E-01
     atom   11 type  1   force =  -0.17064796E-01 -0.90786780E-02  0.68457895E-02
     atom   12 type  2   force =   0.27368628E-02  0.17533728E-02 -0.20480119E-02
     atom   13 type  1   force =   0.83654550E-02 -0.94725569E-02 -0.10065565E-01
     atom   14 type  2   force =  -0.52962564E-02  0.10623942E-01  0.39188074E-02
     atom   15 type  1   force =   0.27633688E-02  0.22159806E-02  0.53879973E-02
     atom   16 type  2   force =  -0.23731839E-02 -0.95306485E-02  0.12090041E-02
     The Hubbard contrib.    to forces
     atom    1 type  1   force =   0.00000000E+00  0.00000000E+00  0.00000000E+00
     atom    2 type  2   force =   0.00000000E+00  0.00000000E+00  0.00000000E+00
     atom    3 type  1   force =   0.00000000E+00  0.00000000E+00  0.00000000E+00
     atom    4 type  2   force =   0.00000000E+00  0.00000000E+00  0.00000000E+00
     atom    5 type  1   force =   0.00000000E+00  0.00000000E+00  0.00000000E+00
     atom    6 type  2   force =   0.00000000E+00  0.00000000E+00  0.00000000E+00
     atom    7 type  1   force =   0.00000000E+00  0.00000000E+00  0.00000000E+00
     atom    8 type  2   force =   0.00000000E+00  0.00000000E+00  0.00000000E+00
     atom    9 type  1   force =   0.00000000E+00  0.00000000E+00  0.00000000E+00
     atom   10 type  2   force =   0.00000000E+00  0.00000000E+00  0.00000000E+00
     atom   11 type  1   force =   0.00000000E+00  0.00000000E+00  0.00000000E+00
     atom   12 type  2   force =   0.00000000E+00  0.00000000E+00  0.00000000E+00
     atom   13 type  1   force =   0.00000000E+00  0.00000000E+00  0.00000000E+00
     atom   14 type  2   force =   0.00000000E+00  0.00000000E+00  0.00000000E+00
     atom   15 type  1   force =   0.00000000E+00  0.00000000E+00  0.00000000E+00
     atom   16 type  2   force =   0.00000000E+00  0.00000000E+00  0.00000000E+00
     The SCF correction term to forces
     atom    1 type  1   force =   0.28064808E-06 -0.10869630E-05  0.69983729E-06
     atom    2 type  2   force =  -0.20130299E-05 -0.35208836E-04 -0.41878439E-04
     atom    3 type  1   force =   0.19385584E-05 -0.21079952E-05  0.96733338E-08
     atom    4 type  2   force =   0.19200264E-04  0.27085502E-04 -0.37297260E-04
     atom    5 type  1   force =  -0.38026192E-07  0.36159800E-06 -0.14270524E-05
     atom    6 type  2   force =   0.38732297E-04 -0.32879302E-04  0.49864751E-05
     atom    7 type  1   force =  -0.17207923E-05  0.19629036E-05 -0.95081440E-06
     atom    8 type  2   force =   0.19824913E-04 -0.19282653E-04 -0.25825458E-05
     atom    9 type  1   force =   0.19119714E-07 -0.43043828E-06 -0.10991753E-05
     atom   10 type  2   force =  -0.43474649E-04  0.59689748E-05  0.31690078E-04
     atom   11 type  1   force =  -0.94402066E-07 -0.84258278E-06  0.96835163E-06
     atom   12 type  2   force =  -0.20507482E-04  0.20090016E-04  0.57415286E-05
     atom   13 type  1   force =   0.10385541E-05 -0.29436452E-06 -0.12341042E-05
     atom   14 type  2   force =  -0.61494608E-06 -0.23205906E-04  0.21443558E-04
     atom   15 type  1   force =  -0.15299192E-05  0.65863556E-06  0.91888652E-07
     atom   16 type  2   force =   0.13473206E-04  0.18500958E-04  0.27501388E-04

     Total force =     0.670727     Total SCF correction =     0.000122


     entering subroutine stress ...

          total   stress  (Ry/bohr**3)                   (kbar)     P=   46.38
   0.0003708648  -0.0000533015  -0.0003231555         54.56     -7.84    -47.54
  -0.0000533015   0.0002131639   0.0001198088         -7.84     31.36     17.62
  -0.0003231555   0.0001198088   0.0003618453        -47.54     17.62     53.23

     kinetic stress (kbar)   6423.20      3.78     16.57
                                3.78   6430.10    -10.44
                               16.57    -10.44   6425.34

     local   stress (kbar)  -1536.83    132.72   1116.20
                              132.72  -1664.40   -544.63
                             1116.20   -544.63   -850.86

     nonloc. stress (kbar)   2533.96     -1.43    -28.67
                               -1.43   2517.47     14.71
                              -28.67     14.71   2530.23

     hartree stress (kbar)  15323.09    -33.43   -291.25
                              -33.43  15481.67    131.02
                             -291.25    131.02  15020.70

     exc-cor stress (kbar)  10937.86     -0.12     -0.86
                               -0.12  10937.47      0.48
                               -0.86      0.48  10937.76

     corecor stress (kbar) -16607.74      0.17      2.67
                                0.17 -16606.29     -1.28
                                2.67     -1.28 -16607.55

     ewald   stress (kbar) -17018.99   -109.53   -862.19
                             -109.53 -17064.67    427.77
                             -862.19    427.77 -17402.40

     hubbard stress (kbar)      0.00      0.00      0.00
                                0.00      0.00      0.00
                                0.00      0.00      0.00

     london  stress (kbar)      0.00      0.00      0.00
                                0.00      0.00      0.00
                                0.00      0.00      0.00

     XDM     stress (kbar)      0.00      0.00      0.00
                                0.00      0.00      0.00
                                0.00      0.00      0.00

     dft-nl  stress (kbar)      0.00      0.00      0.00
                                0.00      0.00      0.00
                                0.00      0.00      0.00



     Writing output data file SiGe_zns.scf.in.super.222.largedist.a.022.save

     init_run     :     27.13s CPU     28.31s WALL (       1 calls)
     electrons    :   1101.60s CPU   1181.99s WALL (       1 calls)
     forces       :     10.69s CPU      8.35s WALL (       1 calls)
     stress       :     52.71s CPU     52.19s WALL (       1 calls)

     Called by init_run:
     wfcinit      :     25.56s CPU     26.71s WALL (       1 calls)
     potinit      :      0.22s CPU      0.23s WALL (       1 calls)

     Called by electrons:
     c_bands      :    940.55s CPU   1019.30s WALL (      13 calls)
     sum_band     :    146.15s CPU    147.55s WALL (      13 calls)
     v_of_rho     :      1.67s CPU      1.71s WALL (      13 calls)
     v_h          :      0.09s CPU      0.11s WALL (      13 calls)
     v_xc         :      1.77s CPU      1.80s WALL (      15 calls)
     newd         :     11.22s CPU     11.30s WALL (      13 calls)
     mix_rho      :      2.62s CPU      2.70s WALL (      13 calls)

     Called by c_bands:
     init_us_2    :      6.30s CPU      6.52s WALL (    1044 calls)
     cegterg      :    911.01s CPU    988.30s WALL (     468 calls)

     Called by sum_band:
     sum_band:bec :      0.92s CPU      0.95s WALL (     468 calls)
     addusdens    :     10.77s CPU     10.85s WALL (      13 calls)

     Called by *egterg:
     h_psi        :    568.13s CPU    576.72s WALL (    1862 calls)
     s_psi        :     48.04s CPU     40.70s WALL (    1862 calls)
     g_psi        :      1.28s CPU      1.27s WALL (    1358 calls)
     cdiaghg      :    131.17s CPU    198.43s WALL (    1790 calls)
     cegterg:over :     84.13s CPU     86.74s WALL (    1358 calls)
     cegterg:upda :     25.44s CPU     26.48s WALL (    1358 calls)
     cegterg:last :     13.56s CPU     11.16s WALL (     468 calls)

     Called by h_psi:
     h_psi:vloc   :    439.96s CPU    457.35s WALL (    1862 calls)
     h_psi:vnl    :    126.74s CPU    117.78s WALL (    1862 calls)
     add_vuspsi   :     48.81s CPU     42.84s WALL (    1862 calls)

     General routines
     calbec       :    121.30s CPU    114.54s WALL (    2402 calls)
     fft          :      4.26s CPU      4.32s WALL (     233 calls)
     ffts         :      1.39s CPU      1.38s WALL (     371 calls)
     fftw         :    469.05s CPU    487.84s WALL (  236210 calls)
     interpolate  :      0.30s CPU      0.30s WALL (      26 calls)

     Parallel routines
     fft_scatter  :    271.90s CPU    284.01s WALL (  236814 calls)

     PWSCF        : 19m54.99s CPU    21m15.90s WALL


   This run was terminated on:  17:41: 9  27Sep2017            

=------------------------------------------------------------------------------=
   JOB DONE.
=------------------------------------------------------------------------------=
