       N       E                     dE             d eps       ncg     rms          rms(c)
DAV:   1     0.414449314394E+03    0.41445E+03   -0.65115E+04  4032   0.902E+02
DAV:   2    -0.256483612862E+03   -0.67093E+03   -0.63884E+03  4976   0.155E+02
DAV:   3    -0.296436818797E+03   -0.39953E+02   -0.39460E+02  5056   0.354E+01
DAV:   4    -0.297258815184E+03   -0.82200E+00   -0.81828E+00  5120   0.633E+00
DAV:   5    -0.297276714776E+03   -0.17900E-01   -0.17882E-01  4992   0.909E-01    0.253E+01
DAV:   6    -0.293955948641E+03    0.33208E+01   -0.18411E+00  4688   0.227E+00    0.155E+01
DAV:   7    -0.292456413500E+03    0.14995E+01   -0.39606E+00  4768   0.344E+00    0.922E-01
DAV:   8    -0.292476173467E+03   -0.19760E-01   -0.21689E-01  4688   0.925E-01    0.401E-01
DAV:   9    -0.292483120939E+03   -0.69475E-02   -0.11777E-02  5104   0.238E-01    0.289E-01
DAV:  10    -0.292484227202E+03   -0.11063E-02   -0.13542E-03  4512   0.709E-02    0.129E-01
DAV:  11    -0.292484769235E+03   -0.54203E-03   -0.78865E-04  4480   0.619E-02    0.238E-02
DAV:  12    -0.292484770719E+03   -0.14842E-05   -0.17155E-05  5248   0.820E-03    0.185E-02
DAV:  13    -0.292484775225E+03   -0.45054E-05   -0.48789E-06  4704   0.486E-03    0.730E-03
DAV:  14    -0.292484774295E+03    0.93033E-06   -0.15984E-06  4576   0.271E-03    0.144E-03
DAV:  15    -0.292484774618E+03   -0.32337E-06   -0.12514E-07  3472   0.805E-04    0.983E-04
DAV:  16    -0.292484774714E+03   -0.95904E-07   -0.21779E-08  2688   0.369E-04
   1 F= -.29248477E+03 E0= -.29248477E+03  d E =-.101725E-11
