 vasp.5.4.1 24Jun15 (build Jan 30 2017 21:57:38) complex                         
 executed on           IFC91_ompi date 2018.07.26  12:09:15
 running on   16 total cores
 distrk:  each k-point on   16 cores,    1 groups
 distr:  one band on NCORES_PER_BAND=   1 cores,   16 groups


--------------------------------------------------------------------------------------------------------


 INCAR:
 POTCAR:    PAW_PBE Si 05Jan2001                  

 ----------------------------------------------------------------------------- 
|                                                                             |
|           W    W    AA    RRRRR   N    N  II  N    N   GGGG   !!!           |
|           W    W   A  A   R    R  NN   N  II  NN   N  G    G  !!!           |
|           W    W  A    A  R    R  N N  N  II  N N  N  G       !!!           |
|           W WW W  AAAAAA  RRRRR   N  N N  II  N  N N  G  GGG   !            |
|           WW  WW  A    A  R   R   N   NN  II  N   NN  G    G                |
|           W    W  A    A  R    R  N    N  II  N    N   GGGG   !!!           |
|                                                                             |
|      For optimal performance we recommend to set                            |
|        NCORE= 4 - approx SQRT( number of cores)                             |
|      NCORE specifies how many cores store one orbital (NPAR=cpu/NCORE).     |
|      This setting can  greatly improve the performance of VASP for DFT.     |
|      The default, NPAR=number of cores might be grossly inefficient         |
|      on modern multi-core architectures or massively parallel machines.     |
|      Do your own testing !!!!                                               |
|      Unfortunately you need to use the default for GW and RPA calculations. |
|      (for HF NCORE is supported but not extensively tested yet)             |
|                                                                             |
 ----------------------------------------------------------------------------- 

 POTCAR:    PAW_PBE Si 05Jan2001                  
   VRHFIN =Si: s2p2                                                             
   LEXCH  = PE                                                                  
   EATOM  =   103.0669 eV,    7.5752 Ry                                         
                                                                                
   TITEL  = PAW_PBE Si 05Jan2001                                                
   LULTRA =        F    use ultrasoft PP ?                                      
   IUNSCR =        1    unscreen: 0-lin 1-nonlin 2-no                           
   RPACOR =    1.500    partial core radius                                     
   POMASS =   28.085; ZVAL   =    4.000    mass and valenz                      
   RCORE  =    1.900    outmost cutoff radius                                   
   RWIGS  =    2.480; RWIGS  =    1.312    wigner-seitz radius (au A)           
   ENMAX  =  245.345; ENMIN  =  184.009 eV                                      
   ICORE  =        2    local potential                                         
   LCOR   =        T    correct aug charges                                     
   LPAW   =        T    paw PP                                                  
   EAUG   =  322.069                                                            
   DEXC   =    0.000                                                            
   RMAX   =    1.950    core radius for proj-oper                               
   RAUG   =    1.300    factor for augmentation sphere                          
   RDEP   =    1.993    radius for radial grids                                 
   RDEPT  =    1.837    core radius for aug-charge                              
                                                                                
   Atomic configuration                                                         
    6 entries                                                                   
     n  l   j            E        occ.                                          
     1  0  0.50     -1785.8828   2.0000                                         
     2  0  0.50      -139.4969   2.0000                                         
     2  1  1.50       -95.5546   6.0000                                         
     3  0  0.50       -10.8127   2.0000                                         
     3  1  0.50        -4.0811   2.0000                                         
     3  2  1.50        -4.0817   0.0000                                         
   Description                                                                  
     l       E           TYP  RCUT    TYP  RCUT                                 
     0    -10.8127223     23  1.900                                             
     0     -7.6451159     23  1.900                                             
     1     -4.0811372     23  1.900                                             
     1      2.4879257     23  1.900                                             
     2     -4.0817478      7  1.900                                             
  local pseudopotential read in
  partial core-charges read in
  partial kinetic energy density read in
  atomic valenz-charges read in
  non local Contribution for L=           0  read in
    real space projection operators read in
  non local Contribution for L=           0  read in
    real space projection operators read in
  non local Contribution for L=           1  read in
    real space projection operators read in
  non local Contribution for L=           1  read in
    real space projection operators read in
    PAW grid and wavefunctions read in

   number of l-projection  operators is LMAX  =           4
   number of lm-projection operators is LMMAX =           8


 ----------------------------------------------------------------------------- 
|                                                                             |
|  ADVICE TO THIS USER RUNNING 'VASP/VAMP'   (HEAR YOUR MASTER'S VOICE ...):  |
|                                                                             |
|      You have a (more or less) 'large supercell' and for larger cells       |
|      it might be more efficient to use real space projection opertators     |
|      So try LREAL= Auto  in the INCAR   file.                               |
|      Mind: At the moment your POTCAR file does not contain real space       |
|       projectors, and has to be modified,  BUT if you                       |
|      want to do an extremely  accurate calculation you might also keep the  |
|      reciprocal projection scheme          (i.e. LREAL=.FALSE.)             |
|                                                                             |
 ----------------------------------------------------------------------------- 

  PAW_PBE Si 05Jan2001                  :
 energy of atom  1       EATOM= -103.0669
 kinetic energy error for atom=    0.0013 (will be added to EATOM!!)


 POSCAR: supercell                               
  positions in direct lattice
  No initial velocities read in
 exchange correlation table for  LEXCH =        8
   RHO(1)=    0.500       N(1)  =     2000
   RHO(2)=  100.500       N(2)  =     4000



--------------------------------------------------------------------------------------------------------


 ion  position               nearest neighbor table
   1  0.002  0.998  1.000-   6 2.34  14 2.36  38 2.36   2 2.37
   2  0.086  0.083  0.081-  19 2.33   7 2.37   1 2.37   3 2.38
   3  0.002  0.000  0.334-   4 2.35  40 2.37   2 2.38  16 2.39
   4  0.086  0.083  0.417-  21 2.31   3 2.35   5 2.36   9 2.38
   5  0.998  0.999  0.668-  18 2.35  42 2.36   4 2.36   6 2.37
   6  0.082  0.083  0.751-   1 2.34  23 2.35   5 2.37  11 2.38
   7  0.998  0.333  0.001-   8 2.36  12 2.36  44 2.36   2 2.37
   8  0.084  0.417  0.082-   9 2.33  25 2.35   7 2.36  13 2.36
   9  0.002  0.334  0.330-   8 2.33  10 2.35   4 2.38  46 2.39
  10  0.084  0.417  0.416-  27 2.33  15 2.34  11 2.34   9 2.35
  11  0.001  0.334  0.664-  10 2.34  12 2.37  48 2.37   6 2.38
  12  0.084  0.415  0.751-  29 2.33   7 2.36  11 2.37  17 2.37
  13  0.002  0.666  0.998-  18 2.33   8 2.36  14 2.37  50 2.40
  14  0.087  0.749  0.082-  31 2.30   1 2.36  15 2.37  13 2.37
  15  0.000  0.664  0.333-  10 2.34  14 2.37  16 2.37  52 2.38
  16  0.084  0.748  0.417-  33 2.32  15 2.37   3 2.39  17 2.39
  17  0.999  0.666  0.670-  54 2.34  12 2.37  18 2.37  16 2.39
  18  0.086  0.750  0.750-  13 2.33  35 2.35   5 2.35  17 2.37
  19  0.334  0.997  0.001-  32 2.33   2 2.33  24 2.36  20 2.37
  20  0.418  0.081  0.084-  37 2.33  21 2.35  25 2.36  19 2.37
  21  0.332  0.003  0.334-   4 2.31  22 2.35  20 2.35  34 2.41
  22  0.419  0.083  0.415-  39 2.32  21 2.35  23 2.38  27 2.40
  23  0.332  0.000  0.668-   6 2.35  24 2.37  36 2.38  22 2.38
  24  0.416  0.085  0.750-  29 2.35  41 2.36  19 2.36  23 2.37
  25  0.333  0.331  1.000-  30 2.33   8 2.35  20 2.36  26 2.39
  26  0.417  0.419  0.082-  31 2.35  43 2.36  27 2.37  25 2.39
  27  0.331  0.336  0.333-  10 2.33  28 2.35  26 2.37  22 2.40
  28  0.417  0.416  0.418-  45 2.32  27 2.35  29 2.36  33 2.37
  29  0.332  0.333  0.669-  12 2.33  24 2.35  28 2.36  30 2.39
  30  0.418  0.417  0.752-  25 2.33  47 2.34  35 2.36  29 2.39
  31  0.331  0.667  0.001-  14 2.30  36 2.35  26 2.35  32 2.36
  32  0.416  0.752  0.082-  19 2.33  49 2.33  31 2.36  33 2.37
  33  0.332  0.667  0.334-  16 2.32  34 2.35  32 2.37  28 2.37
  34  0.417  0.748  0.418-  35 2.32  51 2.35  33 2.35  21 2.41
  35  0.336  0.667  0.664-  34 2.32  18 2.35  36 2.35  30 2.36
  36  0.415  0.749  0.752-  53 2.32  31 2.35  35 2.35  23 2.38
  37  0.666  0.000  0.003-  38 2.32  20 2.33  50 2.37  42 2.38
  38  0.750  0.082  0.083-  37 2.32  43 2.36   1 2.36  39 2.37
  39  0.666  0.998  0.334-  22 2.32  52 2.34  38 2.37  40 2.40
  40  0.750  0.084  0.419-  41 2.33   3 2.37  45 2.38  39 2.40
  41  0.667  0.000  0.666-  40 2.33  42 2.34  24 2.36  54 2.36
  42  0.747  0.085  0.750-  41 2.34   5 2.36  47 2.37  37 2.38
  43  0.668  0.331  0.000-  44 2.35  38 2.36  26 2.36  48 2.36
  44  0.747  0.418  0.085-  43 2.35  45 2.36   7 2.36  49 2.38
  45  0.663  0.335  0.334-  28 2.32  44 2.36  46 2.37  40 2.38
  46  0.749  0.419  0.418-  47 2.33  51 2.35  45 2.37   9 2.39
  47  0.667  0.336  0.665-  46 2.33  48 2.34  30 2.34  42 2.37
  48  0.749  0.417  0.750-  47 2.34  43 2.36  11 2.37  53 2.38
  49  0.664  0.669  1.000-  32 2.33  50 2.34  54 2.37  44 2.38
  50  0.747  0.750  0.085-  49 2.34  51 2.35  37 2.37  13 2.40
  51  0.667  0.667  0.334-  52 2.33  50 2.35  46 2.35  34 2.35
  52  0.747  0.751  0.417-  51 2.33  39 2.34  53 2.37  15 2.38
  53  0.662  0.668  0.668-  36 2.32  54 2.36  52 2.37  48 2.38
  54  0.749  0.751  0.749-  17 2.34  53 2.36  41 2.36  49 2.37

  LATTYP: Found a triclinic cell.
 ALAT       =    11.6087423535
 B/A-ratio  =     0.9913236171
 C/A-ratio  =     0.9875094084
 COS(alpha) =     0.0010490092
 COS(beta)  =     0.4959008700
 COS(gamma) =     0.4999161812
  
  Lattice vectors:
  
 A1 = (   0.0242612314,  -8.2689401453,   8.1478180696)
 A2 = (   8.1331222031,  -0.0304621287,   8.1416171723)
 A3 = (  -8.1018359214,  -0.0132259477,   8.1103308906)


Analysis of symmetry for initial positions (statically):
=====================================================================
 Subroutine PRICEL returns:
 Original cell was already a primitive cell.
 

 Routine SETGRP: Setting up the symmetry group for a 
 triclinic supercell.


 Subroutine GETGRP returns: Found  1 space group operations
 (whereof  1 operations were pure point group operations)
 out of a pool of  2 trial point group operations.


The static configuration has the point symmetry C_1 .


Analysis of symmetry for dynamics (positions and initial velocities):
=====================================================================
 Subroutine PRICEL returns:
 Original cell was already a primitive cell.
 

 Routine SETGRP: Setting up the symmetry group for a 
 triclinic supercell.


 Subroutine GETGRP returns: Found  1 space group operations
 (whereof  1 operations were pure point group operations)
 out of a pool of  2 trial point group operations.


The dynamic configuration has the point symmetry C_1 .


 KPOINTS: Automatic kpoint scheme                 

Automatic generation of k-mesh.
Space group operators:
 irot       det(A)        alpha          n_x          n_y          n_z        tau_x        tau_y        tau_z
    1     1.000000     0.000000     1.000000     0.000000     0.000000     0.000000     0.000000     0.000000
 
 Subroutine IBZKPT returns following result:
 ===========================================
 
 Found     14 irreducible k-points:
 
 Following reciprocal coordinates:
            Coordinates               Weight
  0.000000  0.000000  0.000000      1.000000
  0.333333  0.000000  0.000000      2.000000
  0.000000  0.333333  0.000000      2.000000
  0.333333  0.333333  0.000000      2.000000
 -0.333333  0.333333  0.000000      2.000000
  0.000000  0.000000  0.333333      2.000000
  0.333333  0.000000  0.333333      2.000000
 -0.333333  0.000000  0.333333      2.000000
  0.000000  0.333333  0.333333      2.000000
  0.333333  0.333333  0.333333      2.000000
 -0.333333  0.333333  0.333333      2.000000
  0.000000 -0.333333  0.333333      2.000000
  0.333333 -0.333333  0.333333      2.000000
 -0.333333 -0.333333  0.333333      2.000000
 
 Following cartesian coordinates:
            Coordinates               Weight
  0.000000  0.000000  0.000000      1.000000
 -0.020550  0.020242  0.020604      2.000000
  0.020471 -0.020134  0.020417      2.000000
 -0.000079  0.000109  0.041021      2.000000
  0.041021 -0.040376 -0.000188      2.000000
  0.020593  0.020176 -0.020496      2.000000
  0.000043  0.040419  0.000109      2.000000
  0.041143 -0.000066 -0.041100      2.000000
  0.041064  0.000043 -0.000079      2.000000
  0.020514  0.020285  0.020525      2.000000
  0.061614 -0.020200 -0.020683      2.000000
  0.000122  0.040310 -0.040913      2.000000
 -0.020428  0.060552 -0.020308      2.000000
  0.020672  0.020068 -0.061517      2.000000
 


--------------------------------------------------------------------------------------------------------




 Dimension of arrays:
   k-points           NKPTS =       14   k-points in BZ     NKDIM =       14   number of bands    NBANDS=    144
   number of dos      NEDOS =    301   number of ions     NIONS =     54
   non local maximal  LDIM  =      4   non local SUM 2l+1 LMDIM =      8
   total plane-waves  NPLWV = 352800
   max r-space proj   IRMAX =      1   max aug-charges    IRDMAX=  11040
   dimension x,y,z NGX =    70 NGY =   70 NGZ =   72
   dimension x,y,z NGXF=   140 NGYF=  140 NGZF=  144
   support grid    NGXF=   140 NGYF=  140 NGZF=  144
   ions per type =              54
 NGX,Y,Z   is equivalent  to a cutoff of  10.08, 10.11, 10.35 a.u.
 NGXF,Y,Z  is equivalent  to a cutoff of  20.16, 20.22, 20.71 a.u.


 I would recommend the setting:
   dimension x,y,z NGX =    70 NGY =   70 NGZ =   71
 SYSTEM =  unknown system                          
 POSCAR =  supercell                               

 Startparameter for this run:
   NWRITE =      2    write-flag & timer
   PREC   = accura    normal or accurate (medium, high low for compatibility)
   ISTART =      0    job   : 0-new  1-cont  2-samecut
   ICHARG =      2    charge: 1-file 2-atom 10-const
   ISPIN  =      1    spin polarized calculation?
   LNONCOLLINEAR =      F non collinear calculations
   LSORBIT =      F    spin-orbit coupling
   INIWAV =      1    electr: 0-lowe 1-rand  2-diag
   LASPH  =      F    aspherical Exc in radial PAW
   METAGGA=      F    non-selfconsistent MetaGGA calc.

 Electronic Relaxation 1
   ENCUT  =  350.0 eV  25.72 Ry    5.07 a.u.  17.61 17.55 17.63*2*pi/ulx,y,z
   ENINI  =  350.0     initial cutoff
   ENAUG  =  322.1 eV  augmentation charge cutoff
   NELM   =     60;   NELMIN=  2; NELMDL= -5     # of ELM steps 
   EDIFF  = 0.1E-06   stopping-criterion for ELM
   LREAL  =      F    real-space projection
   NLSPLINE    = F    spline interpolate recip. space projectors
   LCOMPAT=      F    compatible to vasp.4.4
   GGA_COMPAT  = T    GGA compatible to vasp.4.4-vasp.4.6
   LMAXPAW     = -100 max onsite density
   LMAXMIX     =    2 max onsite mixed and CHGCAR
   VOSKOWN=      0    Vosko Wilk Nusair interpolation
   ROPT   =    0.00000
 Ionic relaxation
   EDIFFG = 0.1E-05   stopping-criterion for IOM
   NSW    =      0    number of steps for IOM
   NBLOCK =      1;   KBLOCK =      1    inner block; outer block 
   IBRION =     -1    ionic relax: 0-MD 1-quasi-New 2-CG
   NFREE  =      0    steps in history (QN), initial steepest desc. (CG)
   ISIF   =      2    stress and relaxation
   IWAVPR =     10    prediction:  0-non 1-charg 2-wave 3-comb
   ISYM   =      2    0-nonsym 1-usesym 2-fastsym
   LCORR  =      T    Harris-Foulkes like correction to forces

   POTIM  = 0.5000    time-step for ionic-motion
   TEIN   =    0.0    initial temperature
   TEBEG  =    0.0;   TEEND  =   0.0 temperature during run
   SMASS  =  -3.00    Nose mass-parameter (am)
   estimated Nose-frequenzy (Omega)   =  0.10E-29 period in steps =****** mass=  -0.305E-26a.u.
   SCALEE = 1.0000    scale energy and forces
   NPACO  =    256;   APACO  = 16.0  distance and # of slots for P.C.
   PSTRESS=    0.0 pullay stress

  Mass of Ions in am
   POMASS =  28.09
  Ionic Valenz
   ZVAL   =   4.00
  Atomic Wigner-Seitz radii
   RWIGS  =  -1.00
  virtual crystal weights 
   VCA    =   1.00
   NELECT =     216.0000    total number of electrons
   NUPDOWN=      -1.0000    fix difference up-down

 DOS related values:
   EMIN   =  10.00;   EMAX   =-10.00  energy-range for DOS
   EFERMI =   0.00
   ISMEAR =     0;   SIGMA  =   0.05  broadening in eV -4-tet -1-fermi 0-gaus

 Electronic relaxation 2 (details)
   IALGO  =     38    algorithm
   LDIAG  =      T    sub-space diagonalisation (order eigenvalues)
   LSUBROT=      F    optimize rotation matrix (better conditioning)
   TURBO    =      0    0=normal 1=particle mesh
   IRESTART =      0    0=no restart 2=restart with 2 vectors
   NREBOOT  =      0    no. of reboots
   NMIN     =      0    reboot dimension
   EREF     =   0.00    reference energy to select bands
   IMIX   =      4    mixing-type and parameters
     AMIX     =   0.40;   BMIX     =  1.00
     AMIX_MAG =   1.60;   BMIX_MAG =  1.00
     AMIN     =   0.10
     WC   =   100.;   INIMIX=   1;  MIXPRE=   1;  MAXMIX= -45

 Intra band minimization:
   WEIMIN = 0.0000     energy-eigenvalue tresh-hold
   EBREAK =  0.17E-09  absolut break condition
   DEPER  =   0.30     relativ break condition  

   TIME   =   0.40     timestep for ELM

  volume/ion in A,a.u.               =      20.15       135.96
  Fermi-wavevector in a.u.,A,eV,Ry     =   0.955033  1.804752 12.409723  0.912089
  Thomas-Fermi vector in A             =   2.083834

 Write flags
   LWAVE  =      T    write WAVECAR
   LCHARG =      T    write CHGCAR
   LVTOT  =      F    write LOCPOT, total local potential
   LVHAR  =      F    write LOCPOT, Hartree potential only
   LELF   =      F    write electronic localiz. function (ELF)
   LORBIT =      0    0 simple, 1 ext, 2 COOP (PROOUT)


 Dipole corrections
   LMONO  =      F    monopole corrections only (constant potential shift)
   LDIPOL =      F    correct potential (dipole corrections)
   IDIPOL =      0    1-x, 2-y, 3-z, 4-all directions 
   EPSILON=  1.0000000 bulk dielectric constant

 Exchange correlation treatment:
   GGA     =    --    GGA type
   LEXCH   =     8    internal setting for exchange type
   VOSKOWN=      0    Vosko Wilk Nusair interpolation
   LHFCALC =     F    Hartree Fock is set to
   LHFONE  =     F    Hartree Fock one center treatment
   AEXX    =    0.0000 exact exchange contribution

 Linear response parameters
   LEPSILON=     F    determine dielectric tensor
   LRPA    =     F    only Hartree local field effects (RPA)
   LNABLA  =     F    use nabla operator in PAW spheres
   LVEL    =     F    velocity operator in full k-point grid
   LINTERFAST=   F  fast interpolation
   KINTER  =     0    interpolate to denser k-point grid
   CSHIFT  =0.1000    complex shift for real part using Kramers Kronig
   OMEGAMAX=  -1.0    maximum frequency
   DEG_THRESHOLD= 0.2000000E-02 threshold for treating states as degnerate
   RTIME   =    0.100 relaxation time in fs

 Orbital magnetization related:
   ORBITALMAG=     F  switch on orbital magnetization
   LCHIMAG   =     F  perturbation theory with respect to B field
   DQ        =  0.001000  dq finite difference perturbation B field



--------------------------------------------------------------------------------------------------------


 Static calculation
 charge density and potential will be updated during run
 non-spin polarized calculation
 Variant of blocked Davidson
 Davidson routine will perform the subspace rotation
 perform sub-space diagonalisation
    after iterative eigenvector-optimisation
 modified Broyden-mixing scheme, WC =      100.0
 initial mixing is a Kerker type mixing with AMIX =  0.4000 and BMIX =      1.0000
 Hartree-type preconditioning will be used
 using additional bands           36
 reciprocal scheme for non local part
 use partial core corrections
 calculate Harris-corrections to forces   (improved forces if not selfconsistent)
 use gradient corrections 
 use of overlap-Matrix (Vanderbilt PP)
 Gauss-broadening in eV      SIGMA  =   0.05


--------------------------------------------------------------------------------------------------------


  energy-cutoff  :      350.00
  volume of cell :     1087.98
      direct lattice vectors                 reciprocal lattice vectors
     0.007025050  8.225252069  8.104129993    -0.061650125  0.060726701  0.061813010
     8.133122203 -0.030462129  8.141617172     0.061413316 -0.060400991  0.061250491
     8.108860972  8.238478017 -0.006200897     0.061778231  0.060529097 -0.061487300

  length of vectors
    11.546936559 11.508020459 11.559679266     0.106345279  0.105695306  0.106117904



 k-points in units of 2pi/SCALE and weight: Automatic kpoint scheme                 
   0.00000000  0.00000000  0.00000000       0.037
  -0.02055004  0.02024223  0.02060434       0.074
   0.02047111 -0.02013366  0.02041683       0.074
  -0.00007894  0.00010857  0.04102117       0.074
   0.04102115 -0.04037590 -0.00018751       0.074
   0.02059274  0.02017637 -0.02049577       0.074
   0.00004270  0.04041860  0.00010857       0.074
   0.04114279 -0.00006587 -0.04110010       0.074
   0.04106385  0.00004270 -0.00007894       0.074
   0.02051381  0.02028494  0.02052540       0.074
   0.06161389 -0.02019953 -0.02068327       0.074
   0.00012164  0.04031003 -0.04091260       0.074
  -0.02042840  0.06055226 -0.02030826       0.074
   0.02067168  0.02006780 -0.06151693       0.074

 k-points in reciprocal lattice and weights: Automatic kpoint scheme                 
   0.00000000  0.00000000  0.00000000       0.037
   0.33333333  0.00000000  0.00000000       0.074
   0.00000000  0.33333333  0.00000000       0.074
   0.33333333  0.33333333  0.00000000       0.074
  -0.33333333  0.33333333  0.00000000       0.074
   0.00000000  0.00000000  0.33333333       0.074
   0.33333333  0.00000000  0.33333333       0.074
  -0.33333333  0.00000000  0.33333333       0.074
   0.00000000  0.33333333  0.33333333       0.074
   0.33333333  0.33333333  0.33333333       0.074
  -0.33333333  0.33333333  0.33333333       0.074
   0.00000000 -0.33333333  0.33333333       0.074
   0.33333333 -0.33333333  0.33333333       0.074
  -0.33333333 -0.33333333  0.33333333       0.074

 position of ions in fractional coordinates (direct lattice) 
   0.00161040  0.99800987  0.99957596
   0.08633144  0.08309079  0.08125520
   0.00214663  0.00008191  0.33408970
   0.08643309  0.08262048  0.41677196
   0.99821452  0.99856491  0.66750963
   0.08201427  0.08296775  0.75149614
   0.99768502  0.33313308  0.00137485
   0.08361009  0.41656430  0.08226393
   0.00240064  0.33403985  0.32973494
   0.08355656  0.41659068  0.41598486
   0.00106483  0.33423795  0.66413989
   0.08441294  0.41545688  0.75090397
   0.00245978  0.66579593  0.99774846
   0.08673554  0.74860073  0.08225819
   0.00002158  0.66366873  0.33335725
   0.08437968  0.74774297  0.41687473
   0.99856044  0.66571795  0.67021624
   0.08594457  0.75010986  0.75036847
   0.33418931  0.99746629  0.00085314
   0.41825118  0.08149856  0.08423472
   0.33189024  0.00250897  0.33365905
   0.41942989  0.08271443  0.41523487
   0.33154404  0.00033553  0.66813015
   0.41634323  0.08473998  0.75020114
   0.33299225  0.33125233  0.99981282
   0.41674409  0.41885293  0.08208107
   0.33132363  0.33621072  0.33336262
   0.41678079  0.41597903  0.41782156
   0.33171551  0.33333220  0.66865139
   0.41760469  0.41721547  0.75224415
   0.33084211  0.66727622  0.00107924
   0.41599255  0.75168167  0.08196998
   0.33157223  0.66691779  0.33366669
   0.41670401  0.74758409  0.41790314
   0.33584411  0.66690720  0.66361957
   0.41511500  0.74925546  0.75178728
   0.66633549  0.00022294  0.00272391
   0.75022309  0.08224838  0.08280520
   0.66589822  0.99810918  0.33394160
   0.75030440  0.08374646  0.41903115
   0.66718896  0.00005946  0.66634575
   0.74707721  0.08493240  0.75002014
   0.66762759  0.33122007  0.00027266
   0.74657864  0.41796765  0.08454322
   0.66329647  0.33541487  0.33441701
   0.74878210  0.41860075  0.41787605
   0.66680568  0.33581211  0.66494346
   0.74902876  0.41697984  0.74975171
   0.66414784  0.66945343  0.99975737
   0.74697300  0.74982301  0.08526757
   0.66669624  0.66657139  0.33410958
   0.74679644  0.75093565  0.41673776
   0.66217146  0.66805116  0.66809425
   0.74934321  0.75065199  0.74869111

 position of ions in cartesian coordinates  (Angst):
  16.22237003  8.21782906  8.13226695
   1.33528119  1.37698591  1.37563076
   2.70976818  2.77004477  0.01599178
   4.05211553  4.14198377  1.37054495
  13.54120578 13.67941105 16.21545427
   6.76914077  6.86324511  1.33548601
   2.72756937  8.20738955 10.79760263
   4.05562251  1.35275424  4.06858397
   5.39057857  2.72608430  2.73703503
   6.76193324  4.10166559  4.06629554
   8.10382362  5.47007879  2.72574865
   9.46853053  6.86796790  4.06192806
  13.50562050  8.21987950  5.43440297
   6.75609084  1.36830007  6.79722665
   8.10084662  2.72631714  5.40144451
   9.46245694  4.10567964  6.76907590
  10.85607068 13.71469389 13.50832838
  12.18597251  6.86595992  6.79896030
   8.12178089  2.72543495 10.82929698
   1.34882356  4.13170467  4.05256969
   2.72833217  5.47864716  2.70803974
   4.04275489  6.86830020  4.06996871
   5.42283252  8.23139863  2.68546476
   6.77540225  9.60246224  4.05936821
  10.80379812 10.96579045  5.38934240
   4.07509362  4.09128909  6.78697947
   5.43996162  5.46137930  5.42032162
   6.77419316  6.85766918  6.76179684
   8.13536301  8.22695949  5.39798253
   9.49604129  9.61954143  6.77646676
   5.43811464  2.70982443  8.11388830
   6.78112437  4.07405358  9.49065377
   8.13211001  5.45585514  8.11482482
   9.47183856  6.84760832  9.46097550
  10.80759591  8.20930233  8.14731241
  12.19284099  9.58518455  9.45963527
   0.02858203  5.50321145  5.40186768
   1.34566234  6.85045740  6.74902680
  10.83030787  8.19794673 13.52067784
   4.08425646  9.62107067  6.75979760
   5.40847569 10.97747039  5.40333820
   6.77782288 12.32133565  6.74124712
   2.70075438  5.48356184  8.10720607
   4.09017592  6.82457279  9.45277866
   5.44437087  8.20065042  8.10418657
   6.79829006  9.58883272  9.47372332
   8.12781930 10.95253730  8.13381030
   9.47624235 12.32506128  9.46046759
  13.55630576 13.67886951 10.82657453
   6.79507260  6.82367506 12.15780949
   8.13523827  8.21599390 10.82789026
   9.49196626  9.55299875 12.16338183
  10.85547695 10.93025673 10.80119764
  12.18144065 12.30874558 12.17965333



--------------------------------------------------------------------------------------------------------


 k-point  1 :   0.0000 0.0000 0.0000  plane waves:   16241
 k-point  2 :   0.3333 0.0000 0.0000  plane waves:   16181
 k-point  3 :   0.0000 0.3333 0.0000  plane waves:   16185
 k-point  4 :   0.3333 0.3333 0.0000  plane waves:   16163
 k-point  5 :  -0.3333 0.3333 0.0000  plane waves:   16165
 k-point  6 :   0.0000 0.0000 0.3333  plane waves:   16186
 k-point  7 :   0.3333 0.0000 0.3333  plane waves:   16181
 k-point  8 :  -0.3333 0.0000 0.3333  plane waves:   16161
 k-point  9 :   0.0000 0.3333 0.3333  plane waves:   16159
 k-point 10 :   0.3333 0.3333 0.3333  plane waves:   16175
 k-point 11 :  -0.3333 0.3333 0.3333  plane waves:   16177
 k-point 12 :   0.0000-0.3333 0.3333  plane waves:   16170
 k-point 13 :   0.3333-0.3333 0.3333  plane waves:   16166
 k-point 14 :  -0.3333-0.3333 0.3333  plane waves:   16171

 maximum and minimum number of plane-waves per node :     16241    16159

 maximum number of plane-waves:     16241
 maximum index in each direction: 
   IXMAX=   17   IYMAX=   17   IZMAX=   17
   IXMIN=  -17   IYMIN=  -17   IZMIN=  -17

 NGX is ok and might be reduce to  70
 NGY is ok and might be reduce to  70
 NGZ is ok and might be reduce to  70

 serial   3D FFT for wavefunctions
 parallel 3D FFT for charge:
    minimum data exchange during FFTs selected (reduces bandwidth)


 total amount of memory used by VASP on root node   133147. kBytes
========================================================================

   base      :      30000. kBytes
   nonl-proj :      28610. kBytes
   fftplans  :      14925. kBytes
   grid      :      25804. kBytes
   one-center:        165. kBytes
   wavefun   :      33643. kBytes

     INWAV:  cpu time    0.0000: real time    0.0000
 Broyden mixing: mesh for mixing (old mesh)
   NGX = 35   NGY = 35   NGZ = 35
  (NGX  =140   NGY  =140   NGZ  =144)
  gives a total of  42875 points

 initial charge density was supplied:
 charge density of overlapping atoms calculated
 number of electron     216.0000000 magnetization 
 keeping initial charge density in first step


--------------------------------------------------------------------------------------------------------


 Maximum index for augmentation-charges          758 (set IRDMAX)


--------------------------------------------------------------------------------------------------------


 First call to EWALD:  gamma=   0.172
 Maximum number of real-space cells 3x 3x 3
 Maximum number of reciprocal cells 3x 3x 3

 FEWALD executed in parallel
    FEWALD:  cpu time    0.0040: real time    0.0035


----------------------------------------- Iteration    1(   1)  ---------------------------------------


    POTLOK:  cpu time    0.2520: real time    0.2526
    SETDIJ:  cpu time    0.0080: real time    0.0089
     EDDAV:  cpu time   39.8520: real time   39.8377
       DOS:  cpu time    0.0000: real time    0.0011
    --------------------------------------------
      LOOP:  cpu time   40.1120: real time   40.1009

 eigenvalue-minimisations  :  4032
 total energy-change (2. order) : 0.4144493E+03  (-0.6511476E+04)
 number of electron     216.0000000 magnetization 
 augmentation part      216.0000000 magnetization 

 Free energy of the ion-electron system (eV)
  ---------------------------------------------------
  alpha Z        PSCENC =        90.22347419
  Ewald energy   TEWEN  =     -6156.54267512
  -Hartree energ DENC   =      -300.30634758
  -exchange      EXHF   =         0.00000000
  -V(xc)+E(xc)   XCENC  =      -502.95773921
  PAW double counting   =      4758.68517920    -3808.64796066
  entropy T*S    EENTRO =        -0.01946711
  eigenvalues    EBANDS =       768.47098881
  atomic energy  EATOM  =      5565.54386186
  Solvation  Ediel_sol  =         0.00000000
  ---------------------------------------------------
  free energy    TOTEN  =       414.44931439 eV

  energy without entropy =      414.46878150  energy(sigma->0) =      414.45904795


--------------------------------------------------------------------------------------------------------




----------------------------------------- Iteration    1(   2)  ---------------------------------------


     EDDAV:  cpu time   52.4280: real time   52.4105
       DOS:  cpu time    0.0000: real time    0.0010
    --------------------------------------------
      LOOP:  cpu time   52.4280: real time   52.4119

 eigenvalue-minimisations  :  4976
 total energy-change (2. order) :-0.6709329E+03  (-0.6388404E+03)
 number of electron     216.0000000 magnetization 
 augmentation part      216.0000000 magnetization 

 Free energy of the ion-electron system (eV)
  ---------------------------------------------------
  alpha Z        PSCENC =        90.22347419
  Ewald energy   TEWEN  =     -6156.54267512
  -Hartree energ DENC   =      -300.30634758
  -exchange      EXHF   =         0.00000000
  -V(xc)+E(xc)   XCENC  =      -502.95773921
  PAW double counting   =      4758.68517920    -3808.64796066
  entropy T*S    EENTRO =        -0.00000022
  eigenvalues    EBANDS =        97.51859467
  atomic energy  EATOM  =      5565.54386186
  Solvation  Ediel_sol  =         0.00000000
  ---------------------------------------------------
  free energy    TOTEN  =      -256.48361286 eV

  energy without entropy =     -256.48361264  energy(sigma->0) =     -256.48361275


--------------------------------------------------------------------------------------------------------




----------------------------------------- Iteration    1(   3)  ---------------------------------------


     EDDAV:  cpu time   53.2960: real time   53.2761
       DOS:  cpu time    0.0000: real time    0.0007
    --------------------------------------------
      LOOP:  cpu time   53.2960: real time   53.2771

 eigenvalue-minimisations  :  5056
 total energy-change (2. order) :-0.3995321E+02  (-0.3945970E+02)
 number of electron     216.0000000 magnetization 
 augmentation part      216.0000000 magnetization 

 Free energy of the ion-electron system (eV)
  ---------------------------------------------------
  alpha Z        PSCENC =        90.22347419
  Ewald energy   TEWEN  =     -6156.54267512
  -Hartree energ DENC   =      -300.30634758
  -exchange      EXHF   =         0.00000000
  -V(xc)+E(xc)   XCENC  =      -502.95773921
  PAW double counting   =      4758.68517920    -3808.64796066
  entropy T*S    EENTRO =        -0.00000000
  eigenvalues    EBANDS =        57.56538851
  atomic energy  EATOM  =      5565.54386186
  Solvation  Ediel_sol  =         0.00000000
  ---------------------------------------------------
  free energy    TOTEN  =      -296.43681880 eV

  energy without entropy =     -296.43681880  energy(sigma->0) =     -296.43681880


--------------------------------------------------------------------------------------------------------




----------------------------------------- Iteration    1(   4)  ---------------------------------------


     EDDAV:  cpu time   53.8960: real time   53.8814
       DOS:  cpu time    0.0040: real time    0.0009
    --------------------------------------------
      LOOP:  cpu time   53.9000: real time   53.8827

 eigenvalue-minimisations  :  5120
 total energy-change (2. order) :-0.8219964E+00  (-0.8182769E+00)
 number of electron     216.0000000 magnetization 
 augmentation part      216.0000000 magnetization 

 Free energy of the ion-electron system (eV)
  ---------------------------------------------------
  alpha Z        PSCENC =        90.22347419
  Ewald energy   TEWEN  =     -6156.54267512
  -Hartree energ DENC   =      -300.30634758
  -exchange      EXHF   =         0.00000000
  -V(xc)+E(xc)   XCENC  =      -502.95773921
  PAW double counting   =      4758.68517920    -3808.64796066
  entropy T*S    EENTRO =        -0.00000000
  eigenvalues    EBANDS =        56.74339212
  atomic energy  EATOM  =      5565.54386186
  Solvation  Ediel_sol  =         0.00000000
  ---------------------------------------------------
  free energy    TOTEN  =      -297.25881518 eV

  energy without entropy =     -297.25881518  energy(sigma->0) =     -297.25881518


--------------------------------------------------------------------------------------------------------




----------------------------------------- Iteration    1(   5)  ---------------------------------------


     EDDAV:  cpu time   52.7720: real time   52.7565
       DOS:  cpu time    0.0000: real time    0.0008
    CHARGE:  cpu time    1.6200: real time    1.6172
    MIXING:  cpu time    0.0120: real time    0.0142
    --------------------------------------------
      LOOP:  cpu time   54.4040: real time   54.3892

 eigenvalue-minimisations  :  4992
 total energy-change (2. order) :-0.1789959E-01  (-0.1788213E-01)
 number of electron     215.9999993 magnetization 
 augmentation part      -12.7009996 magnetization 

 Broyden mixing:
  rms(total) = 0.25329E+01    rms(broyden)= 0.25328E+01
  rms(prec ) = 0.28969E+01
  weight for this iteration     100.00

 Free energy of the ion-electron system (eV)
  ---------------------------------------------------
  alpha Z        PSCENC =        90.22347419
  Ewald energy   TEWEN  =     -6156.54267512
  -Hartree energ DENC   =      -300.30634758
  -exchange      EXHF   =         0.00000000
  -V(xc)+E(xc)   XCENC  =      -502.95773921
  PAW double counting   =      4758.68517920    -3808.64796066
  entropy T*S    EENTRO =        -0.00000000
  eigenvalues    EBANDS =        56.72549253
  atomic energy  EATOM  =      5565.54386186
  Solvation  Ediel_sol  =         0.00000000
  ---------------------------------------------------
  free energy    TOTEN  =      -297.27671478 eV

  energy without entropy =     -297.27671478  energy(sigma->0) =     -297.27671478


--------------------------------------------------------------------------------------------------------




----------------------------------------- Iteration    1(   6)  ---------------------------------------


    POTLOK:  cpu time    0.4280: real time    0.4266
    SETDIJ:  cpu time    0.0160: real time    0.0158
     EDDAV:  cpu time   50.4960: real time   50.4813
       DOS:  cpu time    0.0000: real time    0.0008
    CHARGE:  cpu time    1.6400: real time    1.6387
    MIXING:  cpu time    0.0120: real time    0.0134
    --------------------------------------------
      LOOP:  cpu time   52.5920: real time   52.5773

 eigenvalue-minimisations  :  4688
 total energy-change (2. order) : 0.3320766E+01  (-0.1841105E+00)
 number of electron     215.9999993 magnetization 
 augmentation part      -12.5511596 magnetization 

 Broyden mixing:
  rms(total) = 0.15534E+01    rms(broyden)= 0.15534E+01
  rms(prec ) = 0.17610E+01
  weight for this iteration     100.00

 eigenvalues of (default mixing * dielectric matrix)
  average eigenvalue GAMMA=   2.5763
  2.5763

 Free energy of the ion-electron system (eV)
  ---------------------------------------------------
  alpha Z        PSCENC =        90.22347419
  Ewald energy   TEWEN  =     -6156.54267512
  -Hartree energ DENC   =      -340.50964227
  -exchange      EXHF   =         0.00000000
  -V(xc)+E(xc)   XCENC  =      -496.59674506
  PAW double counting   =     10249.83792597    -9302.73231194
  entropy T*S    EENTRO =        -0.00000000
  eigenvalues    EBANDS =        96.82016373
  atomic energy  EATOM  =      5565.54386186
  Solvation  Ediel_sol  =         0.00000000
  ---------------------------------------------------
  free energy    TOTEN  =      -293.95594864 eV

  energy without entropy =     -293.95594864  energy(sigma->0) =     -293.95594864


--------------------------------------------------------------------------------------------------------




----------------------------------------- Iteration    1(   7)  ---------------------------------------


    POTLOK:  cpu time    0.4200: real time    0.4186
    SETDIJ:  cpu time    0.0200: real time    0.0177
     EDDAV:  cpu time   51.0880: real time   51.0768
       DOS:  cpu time    0.0040: real time    0.0008
    CHARGE:  cpu time    1.6680: real time    1.6679
    MIXING:  cpu time    0.0120: real time    0.0136
    --------------------------------------------
      LOOP:  cpu time   53.2120: real time   53.1962

 eigenvalue-minimisations  :  4768
 total energy-change (2. order) : 0.1499535E+01  (-0.3960601E+00)
 number of electron     215.9999994 magnetization 
 augmentation part      -12.3515201 magnetization 

 Broyden mixing:
  rms(total) = 0.92151E-01    rms(broyden)= 0.92150E-01
  rms(prec ) = 0.12055E+00
  weight for this iteration     100.00

 eigenvalues of (default mixing * dielectric matrix)
  average eigenvalue GAMMA=   2.1231
  1.9596  2.2866

 Free energy of the ion-electron system (eV)
  ---------------------------------------------------
  alpha Z        PSCENC =        90.22347419
  Ewald energy   TEWEN  =     -6156.54267512
  -Hartree energ DENC   =      -408.82127518
  -exchange      EXHF   =         0.00000000
  -V(xc)+E(xc)   XCENC  =      -485.58201143
  PAW double counting   =     23980.24165362   -23037.05760373
  entropy T*S    EENTRO =        -0.00000000
  eigenvalues    EBANDS =       159.53816228
  atomic energy  EATOM  =      5565.54386186
  Solvation  Ediel_sol  =         0.00000000
  ---------------------------------------------------
  free energy    TOTEN  =      -292.45641350 eV

  energy without entropy =     -292.45641350  energy(sigma->0) =     -292.45641350


--------------------------------------------------------------------------------------------------------




----------------------------------------- Iteration    1(   8)  ---------------------------------------


    POTLOK:  cpu time    0.4400: real time    0.4377
    SETDIJ:  cpu time    0.0160: real time    0.0180
     EDDAV:  cpu time   50.4600: real time   50.4440
       DOS:  cpu time    0.0000: real time    0.0009
    CHARGE:  cpu time    1.5760: real time    1.5728
    MIXING:  cpu time    0.0120: real time    0.0141
    --------------------------------------------
      LOOP:  cpu time   52.5040: real time   52.4881

 eigenvalue-minimisations  :  4688
 total energy-change (2. order) :-0.1975997E-01  (-0.2168929E-01)
 number of electron     215.9999994 magnetization 
 augmentation part      -12.3787514 magnetization 

 Broyden mixing:
  rms(total) = 0.40100E-01    rms(broyden)= 0.40098E-01
  rms(prec ) = 0.46925E-01
  weight for this iteration     100.00

 eigenvalues of (default mixing * dielectric matrix)
  average eigenvalue GAMMA=   2.2168
  2.7207  1.9649  1.9649

 Free energy of the ion-electron system (eV)
  ---------------------------------------------------
  alpha Z        PSCENC =        90.22347419
  Ewald energy   TEWEN  =     -6156.54267512
  -Hartree energ DENC   =      -403.93228591
  -exchange      EXHF   =         0.00000000
  -V(xc)+E(xc)   XCENC  =      -486.06439086
  PAW double counting   =     23584.22773023   -22640.19919525
  entropy T*S    EENTRO =        -0.00000000
  eigenvalues    EBANDS =       154.26730739
  atomic energy  EATOM  =      5565.54386186
  Solvation  Ediel_sol  =         0.00000000
  ---------------------------------------------------
  free energy    TOTEN  =      -292.47617347 eV

  energy without entropy =     -292.47617347  energy(sigma->0) =     -292.47617347


--------------------------------------------------------------------------------------------------------




----------------------------------------- Iteration    1(   9)  ---------------------------------------


    POTLOK:  cpu time    0.4920: real time    0.4921
    SETDIJ:  cpu time    0.0240: real time    0.0217
     EDDAV:  cpu time   54.1160: real time   54.1044
       DOS:  cpu time    0.0040: real time    0.0010
    CHARGE:  cpu time    1.6080: real time    1.6083
    MIXING:  cpu time    0.0160: real time    0.0159
    --------------------------------------------
      LOOP:  cpu time   56.2600: real time   56.2440

 eigenvalue-minimisations  :  5104
 total energy-change (2. order) :-0.6947472E-02  (-0.1177740E-02)
 number of electron     215.9999994 magnetization 
 augmentation part      -12.3813938 magnetization 

 Broyden mixing:
  rms(total) = 0.28891E-01    rms(broyden)= 0.28891E-01
  rms(prec ) = 0.30658E-01
  weight for this iteration     100.00

 eigenvalues of (default mixing * dielectric matrix)
  average eigenvalue GAMMA=   1.8366
  2.5252  2.0857  2.0857  0.6498

 Free energy of the ion-electron system (eV)
  ---------------------------------------------------
  alpha Z        PSCENC =        90.22347419
  Ewald energy   TEWEN  =     -6156.54267512
  -Hartree energ DENC   =      -405.56515922
  -exchange      EXHF   =         0.00000000
  -V(xc)+E(xc)   XCENC  =      -485.77003569
  PAW double counting   =     23718.02566779   -22773.99292134
  entropy T*S    EENTRO =        -0.00000000
  eigenvalues    EBANDS =       155.59466660
  atomic energy  EATOM  =      5565.54386186
  Solvation  Ediel_sol  =         0.00000000
  ---------------------------------------------------
  free energy    TOTEN  =      -292.48312094 eV

  energy without entropy =     -292.48312094  energy(sigma->0) =     -292.48312094


--------------------------------------------------------------------------------------------------------




----------------------------------------- Iteration    1(  10)  ---------------------------------------


    POTLOK:  cpu time    0.4400: real time    0.4391
    SETDIJ:  cpu time    0.0160: real time    0.0174
     EDDAV:  cpu time   48.9680: real time   48.9713
       DOS:  cpu time    0.0040: real time    0.0008
    CHARGE:  cpu time    1.4360: real time    1.4386
    MIXING:  cpu time    0.0200: real time    0.0188
    --------------------------------------------
      LOOP:  cpu time   50.8840: real time   50.8866

 eigenvalue-minimisations  :  4512
 total energy-change (2. order) :-0.1106263E-02  (-0.1354230E-03)
 number of electron     215.9999994 magnetization 
 augmentation part      -12.3841811 magnetization 

 Broyden mixing:
  rms(total) = 0.12896E-01    rms(broyden)= 0.12896E-01
  rms(prec ) = 0.13923E-01
  weight for this iteration     100.00

 eigenvalues of (default mixing * dielectric matrix)
  average eigenvalue GAMMA=   1.9991
  3.1521  2.2775  2.2775  1.1443  1.1443

 Free energy of the ion-electron system (eV)
  ---------------------------------------------------
  alpha Z        PSCENC =        90.22347419
  Ewald energy   TEWEN  =     -6156.54267512
  -Hartree energ DENC   =      -405.21835639
  -exchange      EXHF   =         0.00000000
  -V(xc)+E(xc)   XCENC  =      -485.81664488
  PAW double counting   =     23498.36597512   -22554.27049378
  entropy T*S    EENTRO =        -0.00000000
  eigenvalues    EBANDS =       155.23063179
  atomic energy  EATOM  =      5565.54386186
  Solvation  Ediel_sol  =         0.00000000
  ---------------------------------------------------
  free energy    TOTEN  =      -292.48422720 eV

  energy without entropy =     -292.48422720  energy(sigma->0) =     -292.48422720


--------------------------------------------------------------------------------------------------------




----------------------------------------- Iteration    1(  11)  ---------------------------------------


    POTLOK:  cpu time    0.4400: real time    0.4393
    SETDIJ:  cpu time    0.0200: real time    0.0187
     EDDAV:  cpu time   49.1960: real time   49.1825
       DOS:  cpu time    0.0000: real time    0.0008
    CHARGE:  cpu time    1.6080: real time    1.6077
    MIXING:  cpu time    0.0200: real time    0.0191
    --------------------------------------------
      LOOP:  cpu time   51.2840: real time   51.2686

 eigenvalue-minimisations  :  4480
 total energy-change (2. order) :-0.5420334E-03  (-0.7886477E-04)
 number of electron     215.9999994 magnetization 
 augmentation part      -12.3843645 magnetization 

 Broyden mixing:
  rms(total) = 0.23789E-02    rms(broyden)= 0.23789E-02
  rms(prec ) = 0.24917E-02
  weight for this iteration     100.00

 eigenvalues of (default mixing * dielectric matrix)
  average eigenvalue GAMMA=   1.8321
  2.9087  2.2228  2.2228  1.4259  1.3571  0.8550

 Free energy of the ion-electron system (eV)
  ---------------------------------------------------
  alpha Z        PSCENC =        90.22347419
  Ewald energy   TEWEN  =     -6156.54267512
  -Hartree energ DENC   =      -405.56344010
  -exchange      EXHF   =         0.00000000
  -V(xc)+E(xc)   XCENC  =      -485.76144680
  PAW double counting   =     23406.65283762   -22462.53842959
  entropy T*S    EENTRO =        -0.00000000
  eigenvalues    EBANDS =       155.50104869
  atomic energy  EATOM  =      5565.54386186
  Solvation  Ediel_sol  =         0.00000000
  ---------------------------------------------------
  free energy    TOTEN  =      -292.48476924 eV

  energy without entropy =     -292.48476924  energy(sigma->0) =     -292.48476924


--------------------------------------------------------------------------------------------------------




----------------------------------------- Iteration    1(  12)  ---------------------------------------


    POTLOK:  cpu time    0.4360: real time    0.4366
    SETDIJ:  cpu time    0.0200: real time    0.0172
     EDDAV:  cpu time   55.2800: real time   55.2656
       DOS:  cpu time    0.0000: real time    0.0008
    CHARGE:  cpu time    1.5840: real time    1.5839
    MIXING:  cpu time    0.0160: real time    0.0156
    --------------------------------------------
      LOOP:  cpu time   57.3360: real time   57.3205

 eigenvalue-minimisations  :  5248
 total energy-change (2. order) :-0.1484230E-05  (-0.1715536E-05)
 number of electron     215.9999994 magnetization 
 augmentation part      -12.3844953 magnetization 

 Broyden mixing:
  rms(total) = 0.18453E-02    rms(broyden)= 0.18453E-02
  rms(prec ) = 0.19266E-02
  weight for this iteration     100.00

 eigenvalues of (default mixing * dielectric matrix)
  average eigenvalue GAMMA=   1.6759
  2.9555  2.2671  2.2671  1.5605  1.3110  0.8029  0.5674

 Free energy of the ion-electron system (eV)
  ---------------------------------------------------
  alpha Z        PSCENC =        90.22347419
  Ewald energy   TEWEN  =     -6156.54267512
  -Hartree energ DENC   =      -405.55892253
  -exchange      EXHF   =         0.00000000
  -V(xc)+E(xc)   XCENC  =      -485.76438697
  PAW double counting   =     23415.41021851   -22471.29568693
  entropy T*S    EENTRO =        -0.00000000
  eigenvalues    EBANDS =       155.49934627
  atomic energy  EATOM  =      5565.54386186
  Solvation  Ediel_sol  =         0.00000000
  ---------------------------------------------------
  free energy    TOTEN  =      -292.48477072 eV

  energy without entropy =     -292.48477072  energy(sigma->0) =     -292.48477072


--------------------------------------------------------------------------------------------------------




----------------------------------------- Iteration    1(  13)  ---------------------------------------


    POTLOK:  cpu time    0.4040: real time    0.4032
    SETDIJ:  cpu time    0.0200: real time    0.0186
     EDDAV:  cpu time   50.6400: real time   50.6277
       DOS:  cpu time    0.0040: real time    0.0010
    CHARGE:  cpu time    1.5760: real time    1.5764
    MIXING:  cpu time    0.0160: real time    0.0173
    --------------------------------------------
      LOOP:  cpu time   52.6600: real time   52.6448

 eigenvalue-minimisations  :  4704
 total energy-change (2. order) :-0.4505448E-05  (-0.4878856E-06)
 number of electron     215.9999994 magnetization 
 augmentation part      -12.3844121 magnetization 

 Broyden mixing:
  rms(total) = 0.73038E-03    rms(broyden)= 0.73038E-03
  rms(prec ) = 0.77676E-03
  weight for this iteration     100.00

 eigenvalues of (default mixing * dielectric matrix)
  average eigenvalue GAMMA=   1.7823
  3.1132  2.4997  2.1584  2.1584  1.2628  1.2628  0.8724  0.9305

 Free energy of the ion-electron system (eV)
  ---------------------------------------------------
  alpha Z        PSCENC =        90.22347419
  Ewald energy   TEWEN  =     -6156.54267512
  -Hartree energ DENC   =      -405.57736600
  -exchange      EXHF   =         0.00000000
  -V(xc)+E(xc)   XCENC  =      -485.76388392
  PAW double counting   =     23404.56136927   -22460.44671196
  entropy T*S    EENTRO =        -0.00000000
  eigenvalues    EBANDS =       155.51715646
  atomic energy  EATOM  =      5565.54386186
  Solvation  Ediel_sol  =         0.00000000
  ---------------------------------------------------
  free energy    TOTEN  =      -292.48477522 eV

  energy without entropy =     -292.48477522  energy(sigma->0) =     -292.48477522


--------------------------------------------------------------------------------------------------------




----------------------------------------- Iteration    1(  14)  ---------------------------------------


    POTLOK:  cpu time    0.3920: real time    0.3928
    SETDIJ:  cpu time    0.0240: real time    0.0211
     EDDAV:  cpu time   49.6200: real time   49.6062
       DOS:  cpu time    0.0000: real time    0.0009
    CHARGE:  cpu time    1.5600: real time    1.5607
    MIXING:  cpu time    0.0160: real time    0.0148
    --------------------------------------------
      LOOP:  cpu time   51.6120: real time   51.5971

 eigenvalue-minimisations  :  4576
 total energy-change (2. order) : 0.9303330E-06  (-0.1598384E-06)
 number of electron     215.9999994 magnetization 
 augmentation part      -12.3844129 magnetization 

 Broyden mixing:
  rms(total) = 0.14393E-03    rms(broyden)= 0.14393E-03
  rms(prec ) = 0.15821E-03
  weight for this iteration     100.00

 eigenvalues of (default mixing * dielectric matrix)
  average eigenvalue GAMMA=   1.7786
  3.1414  2.6420  2.2738  2.2738  1.6428  1.1202  0.8958  1.0088  1.0088

 Free energy of the ion-electron system (eV)
  ---------------------------------------------------
  alpha Z        PSCENC =        90.22347419
  Ewald energy   TEWEN  =     -6156.54267512
  -Hartree energ DENC   =      -405.57477043
  -exchange      EXHF   =         0.00000000
  -V(xc)+E(xc)   XCENC  =      -485.76541211
  PAW double counting   =     23401.24550715   -22457.12921526
  entropy T*S    EENTRO =        -0.00000000
  eigenvalues    EBANDS =       155.51445543
  atomic energy  EATOM  =      5565.54386186
  Solvation  Ediel_sol  =         0.00000000
  ---------------------------------------------------
  free energy    TOTEN  =      -292.48477429 eV

  energy without entropy =     -292.48477429  energy(sigma->0) =     -292.48477429


--------------------------------------------------------------------------------------------------------




----------------------------------------- Iteration    1(  15)  ---------------------------------------


    POTLOK:  cpu time    0.4400: real time    0.4408
    SETDIJ:  cpu time    0.0160: real time    0.0150
     EDDAV:  cpu time   41.0360: real time   41.0250
       DOS:  cpu time    0.0040: real time    0.0008
    CHARGE:  cpu time    1.5160: real time    1.5183
    MIXING:  cpu time    0.0200: real time    0.0187
    --------------------------------------------
      LOOP:  cpu time   43.0320: real time   43.0194

 eigenvalue-minimisations  :  3472
 total energy-change (2. order) :-0.3233727E-06  (-0.1251397E-07)
 number of electron     215.9999994 magnetization 
 augmentation part      -12.3843982 magnetization 

 Broyden mixing:
  rms(total) = 0.98340E-04    rms(broyden)= 0.98339E-04
  rms(prec ) = 0.10217E-03
  weight for this iteration     100.00

 eigenvalues of (default mixing * dielectric matrix)
  average eigenvalue GAMMA=   1.7563
  3.2782  2.6503  2.2184  2.2184  1.8699  1.2535  1.2535  1.0708  0.8748  0.8748

 Free energy of the ion-electron system (eV)
  ---------------------------------------------------
  alpha Z        PSCENC =        90.22347419
  Ewald energy   TEWEN  =     -6156.54267512
  -Hartree energ DENC   =      -405.57670463
  -exchange      EXHF   =         0.00000000
  -V(xc)+E(xc)   XCENC  =      -485.76562563
  PAW double counting   =     23401.19243884   -22457.07622084
  entropy T*S    EENTRO =        -0.00000000
  eigenvalues    EBANDS =       155.51667672
  atomic energy  EATOM  =      5565.54386186
  Solvation  Ediel_sol  =         0.00000000
  ---------------------------------------------------
  free energy    TOTEN  =      -292.48477462 eV

  energy without entropy =     -292.48477462  energy(sigma->0) =     -292.48477462


--------------------------------------------------------------------------------------------------------




----------------------------------------- Iteration    1(  16)  ---------------------------------------


    POTLOK:  cpu time    0.4520: real time    0.4510
    SETDIJ:  cpu time    0.0160: real time    0.0154
     EDDAV:  cpu time   34.4640: real time   34.4552
       DOS:  cpu time    0.0000: real time    0.0010
    --------------------------------------------
      LOOP:  cpu time   34.9320: real time   34.9230

 eigenvalue-minimisations  :  2688
 total energy-change (2. order) :-0.9590440E-07  (-0.2177874E-08)
 number of electron     215.9999994 magnetization 
 augmentation part      -12.3843982 magnetization 

 Free energy of the ion-electron system (eV)
  ---------------------------------------------------
  alpha Z        PSCENC =        90.22347419
  Ewald energy   TEWEN  =     -6156.54267512
  -Hartree energ DENC   =      -405.57810899
  -exchange      EXHF   =         0.00000000
  -V(xc)+E(xc)   XCENC  =      -485.76548368
  PAW double counting   =     23401.37925237   -22457.26310323
  entropy T*S    EENTRO =        -0.00000000
  eigenvalues    EBANDS =       155.51800790
  atomic energy  EATOM  =      5565.54386186
  Solvation  Ediel_sol  =         0.00000000
  ---------------------------------------------------
  free energy    TOTEN  =      -292.48477471 eV

  energy without entropy =     -292.48477471  energy(sigma->0) =     -292.48477471


--------------------------------------------------------------------------------------------------------




 average (electrostatic) potential at core
  the test charge radii are     0.9892
  (the norm of the test charge is              1.0000)
       1 -83.3337       2 -83.3135       3 -83.3056       4 -83.3030       5 -83.3164
       6 -83.2976       7 -83.3177       8 -83.3162       9 -83.3369      10 -83.3029
      11 -83.3247      12 -83.2998      13 -83.3357      14 -83.3214      15 -83.3368
      16 -83.2990      17 -83.3066      18 -83.3090      19 -83.3088      20 -83.3209
      21 -83.2969      22 -83.3018      23 -83.2993      24 -83.3024      25 -83.3202
      26 -83.3198      27 -83.2985      28 -83.2910      29 -83.3095      30 -83.3132
      31 -83.3132      32 -83.3242      33 -83.3077      34 -83.3185      35 -83.3158
      36 -83.3029      37 -83.3331      38 -83.3420      39 -83.3277      40 -83.3343
      41 -83.3015      42 -83.3408      43 -83.3443      44 -83.3504      45 -83.3276
      46 -83.3377      47 -83.3245      48 -83.3287      49 -83.3459      50 -83.3648
      51 -83.3109      52 -83.3381      53 -83.3376      54 -83.3393



 E-fermi :   6.0755     XC(G=0):  -9.3844     alpha+bet :-11.9043


 k-point     1 :       0.0000    0.0000    0.0000
  band No.  band energies     occupation 
      1      -6.1550      2.00000
      2      -4.8309      2.00000
      3      -4.8162      2.00000
      4      -4.8137      2.00000
      5      -4.7939      2.00000
      6      -4.7792      2.00000
      7      -4.7727      2.00000
      8      -4.7634      2.00000
      9      -4.7279      2.00000
     10      -4.3084      2.00000
     11      -4.2826      2.00000
     12      -4.2639      2.00000
     13      -4.2508      2.00000
     14      -4.2375      2.00000
     15      -4.2056      2.00000
     16      -2.9952      2.00000
     17      -2.9739      2.00000
     18      -2.9487      2.00000
     19      -2.9415      2.00000
     20      -2.9250      2.00000
     21      -2.9127      2.00000
     22      -2.9002      2.00000
     23      -2.8849      2.00000
     24      -2.8797      2.00000
     25      -2.8582      2.00000
     26      -2.8504      2.00000
     27      -2.8364      2.00000
     28      -1.0941      2.00000
     29      -1.0604      2.00000
     30      -1.0354      2.00000
     31      -1.0294      2.00000
     32      -1.0081      2.00000
     33      -0.9943      2.00000
     34      -0.9642      2.00000
     35      -0.9595      2.00000
     36      -0.9493      2.00000
     37      -0.9366      2.00000
     38      -0.9290      2.00000
     39      -0.9012      2.00000
     40       0.3931      2.00000
     41       0.4274      2.00000
     42       0.4391      2.00000
     43       0.4437      2.00000
     44       0.4513      2.00000
     45       0.4602      2.00000
     46       0.4780      2.00000
     47       0.4875      2.00000
     48       0.6807      2.00000
     49       0.6882      2.00000
     50       0.7806      2.00000
     51       0.8022      2.00000
     52       0.8121      2.00000
     53       0.8168      2.00000
     54       1.3300      2.00000
     55       1.3391      2.00000
     56       1.3502      2.00000
     57       1.3569      2.00000
     58       1.3775      2.00000
     59       1.3889      2.00000
     60       1.3911      2.00000
     61       1.3998      2.00000
     62       1.4052      2.00000
     63       1.4172      2.00000
     64       1.4280      2.00000
     65       1.4356      2.00000
     66       3.2732      2.00000
     67       3.2975      2.00000
     68       3.3090      2.00000
     69       3.3108      2.00000
     70       3.3354      2.00000
     71       3.3440      2.00000
     72       3.3540      2.00000
     73       3.3728      2.00000
     74       3.4107      2.00000
     75       3.4302      2.00000
     76       3.4343      2.00000
     77       3.4528      2.00000
     78       3.5815      2.00000
     79       3.5832      2.00000
     80       3.6128      2.00000
     81       3.6174      2.00000
     82       3.6341      2.00000
     83       3.6385      2.00000
     84       3.6641      2.00000
     85       3.6680      2.00000
     86       3.7367      2.00000
     87       3.7509      2.00000
     88       3.7560      2.00000
     89       3.7712      2.00000
     90       4.6469      2.00000
     91       4.6691      2.00000
     92       4.6748      2.00000
     93       4.6831      2.00000
     94       4.6986      2.00000
     95       4.7151      2.00000
     96       4.7401      2.00000
     97       4.7583      2.00000
     98       4.8032      2.00000
     99       4.8180      2.00000
    100       4.8215      2.00000
    101       4.8365      2.00000
    102       4.8579      2.00000
    103       4.8595      2.00000
    104       4.8658      2.00000
    105       4.8863      2.00000
    106       5.6904      2.00000
    107       5.7853      2.00000
    108       5.8272      2.00000
    109       6.4317      0.00000
    110       6.4484      0.00000
    111       6.4623      0.00000
    112       6.4685      0.00000
    113       6.5867      0.00000
    114       6.5954      0.00000
    115       7.2392      0.00000
    116       7.2485      0.00000
    117       7.2569      0.00000
    118       7.2789      0.00000
    119       7.2898      0.00000
    120       7.3155      0.00000
    121       7.3298      0.00000
    122       7.3435      0.00000
    123       7.4108      0.00000
    124       7.4242      0.00000
    125       7.4309      0.00000
    126       7.4458      0.00000
    127       7.4580      0.00000
    128       7.4651      0.00000
    129       7.4850      0.00000
    130       7.4863      0.00000
    131       7.4957      0.00000
    132       7.5149      0.00000
    133       7.5364      0.00000
    134       7.5598      0.00000
    135       7.7405      0.00000
    136       7.7463      0.00000
    137       7.7590      0.00000
    138       7.7671      0.00000
    139       7.7999      0.00000
    140       7.8089      0.00000
    141       8.2539      0.00000
    142       8.3379      0.00000
    143       8.3888      0.00000
    144       9.0622      0.00000

 k-point     2 :       0.3333    0.0000    0.0000
  band No.  band energies     occupation 
      1      -5.9937      2.00000
      2      -5.5171      2.00000
      3      -4.9393      2.00000
      4      -4.9258      2.00000
      5      -4.8983      2.00000
      6      -4.7644      2.00000
      7      -4.7376      2.00000
      8      -4.7126      2.00000
      9      -4.3918      2.00000
     10      -4.3752      2.00000
     11      -4.3402      2.00000
     12      -3.9713      2.00000
     13      -3.7269      2.00000
     14      -3.7090      2.00000
     15      -3.6741      2.00000
     16      -3.5510      2.00000
     17      -3.4949      2.00000
     18      -3.4793      2.00000
     19      -2.9766      2.00000
     20      -2.9607      2.00000
     21      -2.9315      2.00000
     22      -2.9217      2.00000
     23      -2.8771      2.00000
     24      -2.8504      2.00000
     25      -2.7415      2.00000
     26      -2.6957      2.00000
     27      -2.6802      2.00000
     28      -1.2553      2.00000
     29      -1.2126      2.00000
     30      -1.1660      2.00000
     31      -1.0723      2.00000
     32      -1.0596      2.00000
     33      -1.0351      2.00000
     34      -1.0167      2.00000
     35      -1.0008      2.00000
     36      -0.9769      2.00000
     37      -0.9546      2.00000
     38      -0.4629      2.00000
     39      -0.4072      2.00000
     40      -0.3867      2.00000
     41      -0.3462      2.00000
     42      -0.2778      2.00000
     43      -0.2531      2.00000
     44      -0.0569      2.00000
     45      -0.0340      2.00000
     46      -0.0125      2.00000
     47       1.0593      2.00000
     48       1.0869      2.00000
     49       1.1010      2.00000
     50       1.3887      2.00000
     51       1.4394      2.00000
     52       1.4621      2.00000
     53       1.6223      2.00000
     54       1.6339      2.00000
     55       1.6709      2.00000
     56       1.6783      2.00000
     57       1.6939      2.00000
     58       1.7137      2.00000
     59       1.7486      2.00000
     60       1.7539      2.00000
     61       1.7641      2.00000
     62       1.9836      2.00000
     63       2.0686      2.00000
     64       2.0816      2.00000
     65       2.3534      2.00000
     66       2.6267      2.00000
     67       2.6462      2.00000
     68       2.6951      2.00000
     69       3.1205      2.00000
     70       3.1316      2.00000
     71       3.1477      2.00000
     72       3.1749      2.00000
     73       3.1907      2.00000
     74       3.1917      2.00000
     75       3.2343      2.00000
     76       3.2466      2.00000
     77       3.2596      2.00000
     78       3.2681      2.00000
     79       3.2976      2.00000
     80       3.3813      2.00000
     81       3.4198      2.00000
     82       3.4440      2.00000
     83       3.4647      2.00000
     84       3.4874      2.00000
     85       3.5562      2.00000
     86       3.5862      2.00000
     87       3.7042      2.00000
     88       3.7586      2.00000
     89       3.8217      2.00000
     90       4.1311      2.00000
     91       4.1612      2.00000
     92       4.1786      2.00000
     93       4.2140      2.00000
     94       4.2544      2.00000
     95       4.2758      2.00000
     96       4.3049      2.00000
     97       4.3420      2.00000
     98       4.3918      2.00000
     99       4.4255      2.00000
    100       4.5079      2.00000
    101       4.6527      2.00000
    102       4.6682      2.00000
    103       4.7140      2.00000
    104       4.7976      2.00000
    105       5.0460      2.00000
    106       5.1644      2.00000
    107       5.4881      2.00000
    108       5.5896      2.00000
    109       6.6709      0.00000
    110       6.7131      0.00000
    111       6.8176      0.00000
    112       6.8693      0.00000
    113       6.9206      0.00000
    114       7.0137      0.00000
    115       7.1846      0.00000
    116       7.2112      0.00000
    117       7.2721      0.00000
    118       7.3207      0.00000
    119       7.7376      0.00000
    120       7.7892      0.00000
    121       7.8488      0.00000
    122       7.8792      0.00000
    123       7.8959      0.00000
    124       7.9295      0.00000
    125       8.0149      0.00000
    126       8.0365      0.00000
    127       8.0728      0.00000
    128       8.0807      0.00000
    129       8.1438      0.00000
    130       8.1538      0.00000
    131       8.1728      0.00000
    132       8.1973      0.00000
    133       8.2069      0.00000
    134       8.2722      0.00000
    135       8.2903      0.00000
    136       8.3153      0.00000
    137       8.3986      0.00000
    138       8.4136      0.00000
    139       8.6212      0.00000
    140       8.7014      0.00000
    141       8.9383      0.00000
    142       8.9423      0.00000
    143       8.9813      0.00000
    144       9.0911      0.00000

 k-point     3 :       0.0000    0.3333    0.0000
  band No.  band energies     occupation 
      1      -5.9965      2.00000
      2      -5.5297      2.00000
      3      -4.9292      2.00000
      4      -4.9080      2.00000
      5      -4.8928      2.00000
      6      -4.7571      2.00000
      7      -4.7274      2.00000
      8      -4.7034      2.00000
      9      -4.3841      2.00000
     10      -4.3641      2.00000
     11      -4.3457      2.00000
     12      -4.0342      2.00000
     13      -3.7274      2.00000
     14      -3.7064      2.00000
     15      -3.6866      2.00000
     16      -3.5723      2.00000
     17      -3.5250      2.00000
     18      -3.5007      2.00000
     19      -2.9306      2.00000
     20      -2.9175      2.00000
     21      -2.8985      2.00000
     22      -2.8778      2.00000
     23      -2.8617      2.00000
     24      -2.8327      2.00000
     25      -2.7828      2.00000
     26      -2.7499      2.00000
     27      -2.7257      2.00000
     28      -1.2116      2.00000
     29      -1.1569      2.00000
     30      -1.1274      2.00000
     31      -1.1085      2.00000
     32      -1.0878      2.00000
     33      -1.0689      2.00000
     34      -1.0328      2.00000
     35      -1.0161      2.00000
     36      -0.9853      2.00000
     37      -0.9266      2.00000
     38      -0.4213      2.00000
     39      -0.4086      2.00000
     40      -0.3836      2.00000
     41      -0.3339      2.00000
     42      -0.2528      2.00000
     43      -0.2252      2.00000
     44      -0.0362      2.00000
     45      -0.0217      2.00000
     46      -0.0110      2.00000
     47       1.0455      2.00000
     48       1.0631      2.00000
     49       1.0872      2.00000
     50       1.3691      2.00000
     51       1.4058      2.00000
     52       1.4316      2.00000
     53       1.6007      2.00000
     54       1.6210      2.00000
     55       1.6497      2.00000
     56       1.6611      2.00000
     57       1.6680      2.00000
     58       1.6909      2.00000
     59       1.7255      2.00000
     60       1.7429      2.00000
     61       1.7519      2.00000
     62       1.9748      2.00000
     63       2.0631      2.00000
     64       2.0751      2.00000
     65       2.3309      2.00000
     66       2.5889      2.00000
     67       2.5993      2.00000
     68       2.6747      2.00000
     69       3.1338      2.00000
     70       3.1517      2.00000
     71       3.1757      2.00000
     72       3.1864      2.00000
     73       3.1921      2.00000
     74       3.1985      2.00000
     75       3.2502      2.00000
     76       3.2565      2.00000
     77       3.2890      2.00000
     78       3.2958      2.00000
     79       3.3064      2.00000
     80       3.4043      2.00000
     81       3.4299      2.00000
     82       3.4701      2.00000
     83       3.4956      2.00000
     84       3.5074      2.00000
     85       3.5420      2.00000
     86       3.5633      2.00000
     87       3.7414      2.00000
     88       3.7571      2.00000
     89       3.8303      2.00000
     90       4.1560      2.00000
     91       4.1705      2.00000
     92       4.1951      2.00000
     93       4.2407      2.00000
     94       4.2468      2.00000
     95       4.2770      2.00000
     96       4.3268      2.00000
     97       4.3552      2.00000
     98       4.3735      2.00000
     99       4.4182      2.00000
    100       4.5661      2.00000
    101       4.6560      2.00000
    102       4.6702      2.00000
    103       4.6886      2.00000
    104       4.7655      2.00000
    105       5.0928      2.00000
    106       5.1652      2.00000
    107       5.5193      2.00000
    108       5.5663      2.00000
    109       6.7010      0.00000
    110       6.7277      0.00000
    111       6.8336      0.00000
    112       6.9113      0.00000
    113       6.9319      0.00000
    114       7.0330      0.00000
    115       7.1730      0.00000
    116       7.1947      0.00000
    117       7.3035      0.00000
    118       7.3469      0.00000
    119       7.7460      0.00000
    120       7.7748      0.00000
    121       7.8781      0.00000
    122       7.9009      0.00000
    123       7.9116      0.00000
    124       7.9263      0.00000
    125       8.0227      0.00000
    126       8.0384      0.00000
    127       8.0566      0.00000
    128       8.1014      0.00000
    129       8.1223      0.00000
    130       8.1328      0.00000
    131       8.1455      0.00000
    132       8.1708      0.00000
    133       8.1961      0.00000
    134       8.2398      0.00000
    135       8.2629      0.00000
    136       8.3033      0.00000
    137       8.3743      0.00000
    138       8.3873      0.00000
    139       8.6737      0.00000
    140       8.7207      0.00000
    141       8.8789      0.00000
    142       8.8912      0.00000
    143       8.9425      0.00000
    144       9.0809      0.00000

 k-point     4 :       0.3333    0.3333    0.0000
  band No.  band energies     occupation 
      1      -5.9392      2.00000
      2      -5.3022      2.00000
      3      -5.1927      2.00000
      4      -5.1728      2.00000
      5      -5.1479      2.00000
      6      -5.1426      2.00000
      7      -4.1482      2.00000
      8      -4.1387      2.00000
      9      -4.1111      2.00000
     10      -4.0959      2.00000
     11      -4.0880      2.00000
     12      -4.0724      2.00000
     13      -4.0513      2.00000
     14      -4.0199      2.00000
     15      -3.6442      2.00000
     16      -3.6094      2.00000
     17      -3.5910      2.00000
     18      -3.5561      2.00000
     19      -3.3227      2.00000
     20      -3.2970      2.00000
     21      -3.2704      2.00000
     22      -3.2452      2.00000
     23      -2.8273      2.00000
     24      -2.2769      2.00000
     25      -2.2292      2.00000
     26      -2.2081      2.00000
     27      -2.1676      2.00000
     28      -1.7007      2.00000
     29      -1.6402      2.00000
     30      -1.6126      2.00000
     31      -1.5674      2.00000
     32      -1.1230      2.00000
     33      -1.0152      2.00000
     34      -0.9745      2.00000
     35      -0.9593      2.00000
     36      -0.9519      2.00000
     37      -0.5400      2.00000
     38      -0.5141      2.00000
     39      -0.5037      2.00000
     40      -0.4905      2.00000
     41      -0.3006      2.00000
     42      -0.2546      2.00000
     43      -0.2471      2.00000
     44      -0.2157      2.00000
     45       0.4081      2.00000
     46       0.4318      2.00000
     47       0.4523      2.00000
     48       0.4938      2.00000
     49       1.6530      2.00000
     50       1.6742      2.00000
     51       1.6797      2.00000
     52       1.6944      2.00000
     53       1.6996      2.00000
     54       1.7096      2.00000
     55       1.7154      2.00000
     56       1.7215      2.00000
     57       1.7558      2.00000
     58       1.7717      2.00000
     59       1.8436      2.00000
     60       1.8539      2.00000
     61       2.2354      2.00000
     62       2.2452      2.00000
     63       2.2561      2.00000
     64       2.2666      2.00000
     65       2.6404      2.00000
     66       2.6502      2.00000
     67       2.6845      2.00000
     68       2.7121      2.00000
     69       2.7380      2.00000
     70       2.7590      2.00000
     71       2.7698      2.00000
     72       2.7832      2.00000
     73       2.8007      2.00000
     74       2.9282      2.00000
     75       2.9626      2.00000
     76       3.3798      2.00000
     77       3.3908      2.00000
     78       3.4051      2.00000
     79       3.4150      2.00000
     80       3.5693      2.00000
     81       3.5813      2.00000
     82       3.6810      2.00000
     83       3.6896      2.00000
     84       3.7460      2.00000
     85       3.7537      2.00000
     86       3.7680      2.00000
     87       3.7767      2.00000
     88       3.7891      2.00000
     89       3.7949      2.00000
     90       3.8019      2.00000
     91       3.8134      2.00000
     92       3.8379      2.00000
     93       3.8551      2.00000
     94       3.8603      2.00000
     95       3.8712      2.00000
     96       4.0502      2.00000
     97       4.1053      2.00000
     98       4.1792      2.00000
     99       4.2072      2.00000
    100       4.2205      2.00000
    101       4.2565      2.00000
    102       4.6809      2.00000
    103       5.0250      2.00000
    104       5.0808      2.00000
    105       5.1054      2.00000
    106       5.1196      2.00000
    107       5.1397      2.00000
    108       5.1717      2.00000
    109       6.3174      0.00000
    110       6.7269      0.00000
    111       7.0405      0.00000
    112       7.4860      0.00000
    113       7.5104      0.00000
    114       7.5179      0.00000
    115       7.5416      0.00000
    116       7.5592      0.00000
    117       7.5669      0.00000
    118       7.6531      0.00000
    119       7.6832      0.00000
    120       7.7047      0.00000
    121       7.7341      0.00000
    122       7.8393      0.00000
    123       7.8715      0.00000
    124       7.8962      0.00000
    125       7.9042      0.00000
    126       7.9176      0.00000
    127       7.9323      0.00000
    128       7.9708      0.00000
    129       8.4034      0.00000
    130       8.4373      0.00000
    131       8.4456      0.00000
    132       8.4840      0.00000
    133       8.5699      0.00000
    134       8.5925      0.00000
    135       8.6367      0.00000
    136       8.6674      0.00000
    137       8.7607      0.00000
    138       8.8162      0.00000
    139       8.8911      0.00000
    140       8.9057      0.00000
    141       9.1634      0.00000
    142       9.1993      0.00000
    143       9.2144      0.00000
    144       9.2348      0.00000

 k-point     5 :      -0.3333    0.3333    0.0000
  band No.  band energies     occupation 
      1      -5.7349      2.00000
      2      -5.5729      2.00000
      3      -5.5590      2.00000
      4      -5.1212      2.00000
      5      -5.0894      2.00000
      6      -4.5306      2.00000
      7      -4.4034      2.00000
      8      -4.3816      2.00000
      9      -4.3618      2.00000
     10      -4.3431      2.00000
     11      -3.9563      2.00000
     12      -3.9073      2.00000
     13      -3.7517      2.00000
     14      -3.6846      2.00000
     15      -3.6039      2.00000
     16      -3.5772      2.00000
     17      -3.5657      2.00000
     18      -3.5502      2.00000
     19      -3.3202      2.00000
     20      -3.2712      2.00000
     21      -3.2664      2.00000
     22      -3.2162      2.00000
[...]
    101       4.5656      2.00000
    102       4.5820      2.00000
    103       4.5907      2.00000
    104       4.6154      2.00000
    105       4.6720      2.00000
    106       4.7722      2.00000
    107       4.7990      2.00000
    108       5.5005      2.00000
    109       6.5257      0.00000
    110       7.3205      0.00000
    111       7.3603      0.00000
    112       7.3774      0.00000
    113       7.3898      0.00000
    114       7.5259      0.00000
    115       7.6566      0.00000
    116       7.8056      0.00000
    117       7.8881      0.00000
    118       7.9061      0.00000
    119       7.9284      0.00000
    120       7.9404      0.00000
    121       7.9510      0.00000
    122       7.9908      0.00000
    123       8.0753      0.00000
    124       8.0892      0.00000
    125       8.1055      0.00000
    126       8.2391      0.00000
    127       8.4123      0.00000
    128       8.4617      0.00000
    129       8.5088      0.00000
    130       8.5375      0.00000
    131       8.5459      0.00000
    132       8.5923      0.00000
    133       8.6327      0.00000
    134       8.6469      0.00000
    135       8.6507      0.00000
    136       8.6867      0.00000
    137       8.8179      0.00000
    138       8.8726      0.00000
    139       8.9277      0.00000
    140       9.0132      0.00000
    141       9.0467      0.00000
    142       9.0736      0.00000
    143       9.2114      0.00000
    144       9.2181      0.00000


--------------------------------------------------------------------------------------------------------


 soft charge-density along one line, spin component           1
         0         1         2         3         4         5         6         7         8         9
 total charge-density along one line

 pseudopotential strength for first ion, spin component:           1
 18.422   0.000  25.702   0.000   0.000   0.000  -0.001   0.000  -0.000   0.000   0.000   0.000  -0.001   0.000  -0.000   0.000
 25.702   0.000  35.864   0.000   0.000   0.000  -0.001   0.000  -0.000   0.000   0.000   0.000  -0.002   0.000  -0.001   0.000
  0.000   0.000   0.000   0.000   4.179   0.000  -0.000   0.000  -0.000   0.000   7.788   0.000  -0.000   0.000  -0.000   0.000
 -0.001   0.000  -0.001   0.000  -0.000   0.000   4.179   0.000  -0.000   0.000  -0.000   0.000   7.788   0.000  -0.000   0.000
 -0.000   0.000  -0.000   0.000  -0.000   0.000  -0.000   0.000   4.179   0.000  -0.000   0.000  -0.000   0.000   7.788   0.000
  0.000   0.000   0.000   0.000   7.788   0.000  -0.000   0.000  -0.000   0.000  14.522   0.000  -0.000   0.000  -0.000   0.000
 -0.001   0.000  -0.002   0.000  -0.000   0.000   7.788   0.000  -0.000   0.000  -0.000   0.000  14.523   0.000  -0.000   0.000
 -0.000   0.000  -0.001   0.000  -0.000   0.000  -0.000   0.000   7.788   0.000  -0.000   0.000  -0.000   0.000  14.523   0.000
 total augmentation occupancy for first ion, spin component:           1
  5.634  -2.121  -0.040   0.032  -0.036   0.014  -0.012   0.012
 -2.121   0.913   0.023  -0.015   0.018  -0.007   0.006  -0.006
 -0.040   0.023   3.014  -0.027   0.008  -0.687   0.008  -0.001
  0.032  -0.015  -0.027   2.974  -0.013   0.008  -0.672   0.003
 -0.036   0.018   0.008  -0.013   2.964  -0.001   0.003  -0.668
  0.014  -0.007  -0.687   0.008  -0.001   0.165  -0.002   0.000
 -0.012   0.006   0.008  -0.672   0.003  -0.002   0.160  -0.001
  0.012  -0.006  -0.001   0.003  -0.668   0.000  -0.001   0.159


------------------------ aborting loop because EDIFF is reached ----------------------------------------


    CHARGE:  cpu time    1.5360: real time    1.5351
    FORLOC:  cpu time    0.1560: real time    0.1564
    FORNL :  cpu time   18.7040: real time   18.6995
    STRESS:  cpu time   43.8520: real time   43.8382
    FORCOR:  cpu time    0.5280: real time    0.5260
    FORHAR:  cpu time    0.2440: real time    0.2472
    MIXING:  cpu time    0.0160: real time    0.0145
    OFIELD:  cpu time    0.0000: real time    0.0000

  FORCE on cell =-STRESS in cart. coord.  units (eV):
  Direction    XX          YY          ZZ          XY          YZ          ZX
  --------------------------------------------------------------------------------------
  Alpha Z    90.22347    90.22347    90.22347
  Ewald   -2068.35375 -2023.15999 -2065.06965    -3.84836    12.28130   -19.42195
  Hartree   132.33571   140.26580   132.97653     0.38101     2.83445    -3.31740
  E(xc)    -683.98187  -684.04696  -683.98818     0.03541    -0.11739     0.17331
  Local    -772.45880  -828.39545  -776.58148     2.89044   -15.00338    22.04017
  n-local  2096.72871  2103.47777  2097.21377    -1.02866     2.25639    -3.76307
  augment  -314.57773  -314.58878  -314.58526    -0.01822    -0.25781     0.28657
  Kinetic  1532.89519  1518.50224  1532.02115     1.84367     1.82321    -0.09165
  Fock        0.00000     0.00000     0.00000     0.00000     0.00000     0.00000
  -------------------------------------------------------------------------------------
  Total      12.81095     2.27811    12.21035     0.25530     3.81677    -4.09400
  in kB      18.86554     3.35478    17.98110     0.37596     5.62061    -6.02888
  external pressure =       13.40 kB  Pullay stress =        0.00 kB


 VOLUME and BASIS-vectors are now :
 -----------------------------------------------------------------------------
  energy-cutoff  :      350.00
  volume of cell :     1087.98
      direct lattice vectors                 reciprocal lattice vectors
     0.007025050  8.225252069  8.104129993    -0.061650125  0.060726701  0.061813010
     8.133122203 -0.030462129  8.141617172     0.061413316 -0.060400991  0.061250491
     8.108860972  8.238478017 -0.006200897     0.061778231  0.060529097 -0.061487300

  length of vectors
    11.546936559 11.508020459 11.559679266     0.106345279  0.105695306  0.106117904


 FORCES acting on ions
    electron-ion (+dipol)            ewald-force                    non-local-force                 convergence-correction
 -----------------------------------------------------------------------------------------------
   -.227E+01 -.510E+00 0.133E+01   0.219E+01 0.359E+00 -.105E+01   0.279E+00 0.237E+00 -.297E+00   -.766E-04 0.158E-04 0.298E-04
   -.243E+01 0.155E+01 0.174E+01   0.233E+01 -.137E+01 -.174E+01   0.402E+00 -.258E+00 -.344E+00   -.554E-04 0.412E-04 0.649E-04
   0.783E+00 0.145E+01 0.162E+01   -.657E+00 -.142E+01 -.146E+01   -.389E+00 -.159E+00 -.276E+00   -.166E-04 0.757E-04 0.538E-04
   -.286E+01 0.150E+01 0.116E+01   0.239E+01 -.136E+01 -.117E+01   0.806E+00 -.476E+00 -.184E+00   -.465E-04 0.498E-04 0.250E-04
   -.436E+00 0.122E+01 0.500E+00   0.555E+00 -.113E+01 -.399E+00   0.432E-01 -.354E-01 0.116E+00   -.427E-04 0.457E-04 0.285E-04
   -.101E+01 0.264E+01 -.428E+00   0.813E+00 -.239E+01 0.331E+00   0.913E-01 -.552E+00 0.170E+00   -.376E-04 0.448E-04 -.111E-05
   -.461E+00 0.739E+00 0.231E+01   0.441E+00 -.737E+00 -.208E+01   -.642E-01 0.242E-01 -.214E+00   -.317E-04 0.325E-04 0.690E-04
   -.295E+00 0.169E+01 0.567E+00   0.187E+00 -.158E+01 -.654E+00   0.120E-01 -.269E+00 0.139E+00   -.427E-04 0.282E-04 0.627E-04
   0.129E+00 0.346E+00 0.282E+01   -.926E-01 -.322E+00 -.254E+01   0.177E+00 0.995E-01 -.675E+00   -.172E-04 0.436E-04 0.633E-04
   -.545E+00 0.131E+00 0.152E+01   0.453E+00 -.757E-01 -.142E+01   0.287E-01 -.151E+00 -.207E+00   -.306E-04 0.201E-04 0.455E-04
   -.589E+00 -.666E+00 0.971E+00   0.658E+00 0.583E+00 -.901E+00   0.979E-01 0.258E+00 -.315E+00   -.335E-04 0.548E-05 0.367E-04
   -.112E+01 0.168E+01 0.123E+01   0.108E+01 -.154E+01 -.114E+01   0.245E+00 -.417E+00 -.260E+00   -.126E-04 0.360E-04 0.407E-04
   -.195E+01 0.129E+01 0.245E+01   0.173E+01 -.124E+01 -.211E+01   0.601E+00 -.371E-01 -.566E+00   -.506E-04 0.596E-04 0.654E-04
   -.334E+01 0.211E+01 0.233E+01   0.299E+01 -.189E+01 -.222E+01   0.655E+00 -.585E+00 -.603E+00   -.900E-04 0.370E-04 0.552E-04
   -.270E+01 0.151E+01 0.102E+00   0.258E+01 -.128E+01 -.151E-01   0.430E+00 -.382E+00 0.986E-01   -.834E-04 0.472E-04 0.761E-05
   -.276E+01 0.231E+01 0.189E+01   0.256E+01 -.206E+01 -.175E+01   0.597E+00 -.445E+00 -.360E+00   -.344E-04 0.685E-04 0.367E-04
   0.156E+00 0.472E+00 0.100E-02   -.184E+00 -.480E+00 0.323E-01   -.244E+00 0.158E-01 0.233E+00   -.251E-04 0.500E-04 0.424E-04
   0.290E+00 0.186E+01 0.930E-02   -.252E+00 -.177E+01 -.186E+00   -.235E+00 -.380E+00 0.473E-01   -.299E-04 0.471E-04 0.349E-04
   -.532E+00 -.512E-01 -.136E+01   0.516E+00 -.828E-01 0.123E+01   0.113E+00 0.597E-01 0.540E+00   -.321E-05 -.643E-05 -.228E-04
   -.292E+00 0.115E+01 0.216E+00   0.221E+00 -.908E+00 -.222E+00   0.171E+00 -.473E+00 -.112E+00   -.235E-06 0.212E-04 -.560E-05
   0.149E+01 -.183E+01 0.660E+00   -.108E+01 0.155E+01 -.524E+00   -.877E+00 0.776E+00 -.181E+00   0.109E-04 -.499E-05 -.102E-05
   -.302E+01 0.448E+00 -.851E+00   0.265E+01 -.346E+00 0.746E+00   0.914E+00 -.356E+00 -.721E-01   -.447E-04 -.692E-05 -.201E-04
   0.886E+00 0.532E+00 -.123E+01   -.668E+00 -.595E+00 0.119E+01   -.426E+00 0.111E+00 0.196E+00   -.517E-05 0.819E-05 -.500E-04
   0.310E+00 0.581E+00 -.637E+00   -.402E+00 -.549E+00 0.557E+00   -.215E-01 -.615E-03 -.682E-01   -.587E-05 0.350E-04 -.111E-04
   -.276E-01 -.186E+01 0.852E+00   0.814E-01 0.162E+01 -.725E+00   0.174E+00 0.550E+00 0.201E-01   0.367E-04 -.311E-04 -.115E-04
   0.950E+00 -.694E+00 0.380E+00   -.906E+00 0.824E+00 -.469E+00   -.175E+00 -.108E+00 -.229E+00   0.210E-04 -.374E-04 -.419E-06
   0.207E+01 -.176E+01 0.521E+00   -.181E+01 0.162E+01 -.368E+00   -.680E+00 0.433E+00 -.117E+00   0.424E-04 -.423E-04 -.706E-05
   -.969E+00 0.174E+00 0.848E+00   0.677E+00 -.136E+00 -.787E+00   0.592E+00 -.304E+00 -.197E+00   0.162E-04 -.933E-05 0.924E-05
   0.347E+00 -.721E+00 -.101E+01   -.250E+00 0.594E+00 0.888E+00   -.130E+00 0.356E+00 0.488E+00   0.231E-04 -.286E-04 0.108E-04
   0.318E+00 0.111E+01 0.719E+00   -.388E+00 -.923E+00 -.789E+00   -.158E+00 -.581E+00 -.345E-01   0.145E-04 -.411E-05 0.341E-04
   0.114E+01 -.220E+01 -.968E+00   -.993E+00 0.192E+01 0.805E+00   -.457E+00 0.604E+00 0.508E+00   0.172E-04 -.475E-04 -.177E-04
   -.570E-01 -.937E+00 0.133E+01   0.110E-01 0.939E+00 -.109E+01   0.630E-01 0.135E+00 -.587E+00   -.106E-04 -.339E-04 -.154E-05
   0.111E+01 -.309E+00 -.359E+00   -.802E+00 0.231E+00 0.134E+00   -.568E+00 0.283E+00 0.343E+00   -.152E-05 -.437E-05 -.309E-04
   -.399E+00 0.307E+01 -.149E+01   0.262E+00 -.279E+01 0.128E+01   0.208E+00 -.741E+00 0.635E+00   0.217E-05 0.447E-04 0.215E-04
   0.198E+00 0.162E+00 0.105E+01   -.139E+00 -.272E+00 -.906E+00   0.166E+00 0.371E+00 -.423E+00   0.232E-04 0.140E-04 -.136E-06
   -.159E+01 0.120E+01 -.553E+00   0.139E+01 -.107E+01 0.644E+00   0.408E+00 -.418E+00 -.283E-01   -.196E-05 -.446E-06 -.328E-04
   0.302E+01 -.103E+00 -.902E+00   -.261E+01 0.107E+00 0.873E+00   -.887E+00 -.228E+00 -.213E-01   0.509E-04 0.579E-05 -.222E-04
   -.150E+01 -.220E+01 -.233E+01   0.130E+01 0.211E+01 0.205E+01   0.413E+00 0.421E+00 0.421E+00   -.253E-05 -.597E-04 -.626E-04
   -.395E+00 -.257E+01 -.407E+01   0.453E+00 0.230E+01 0.373E+01   0.328E-01 0.492E+00 0.883E+00   -.120E-04 -.591E-04 -.754E-04
   0.228E+01 0.194E+01 -.159E+01   -.213E+01 -.155E+01 0.148E+01   -.458E+00 -.751E+00 0.206E+00   0.702E-04 0.853E-05 -.480E-04
   0.114E+01 -.554E+00 0.711E+00   -.103E+01 0.384E+00 -.464E+00   -.988E-02 0.151E+00 -.446E+00   0.225E-04 -.560E-05 -.252E-04
   -.118E+01 -.611E+00 -.627E+00   0.794E+00 0.567E+00 0.540E+00   0.508E+00 0.274E+00 0.169E+00   0.155E-04 -.328E-04 -.358E-04
   0.896E+00 -.153E+01 -.238E+00   -.683E+00 0.140E+01 0.345E+00   -.133E+00 -.768E-02 -.678E-01   0.191E-05 -.347E-04 -.248E-04
   -.118E-01 -.583E-01 -.821E+00   -.169E+00 0.187E+00 0.644E+00   0.173E+00 -.126E+00 0.313E+00   0.265E-04 -.363E-04 -.156E-04
   0.275E+01 -.228E+01 -.698E+00   -.250E+01 0.198E+01 0.569E+00   -.458E+00 0.694E+00 0.264E+00   0.681E-04 -.355E-04 -.248E-04
   0.328E+01 -.576E+00 -.603E+00   -.308E+01 0.522E+00 0.529E+00   -.637E+00 -.151E-01 0.204E+00   0.973E-04 -.331E-04 -.269E-04
   0.229E+01 -.175E+01 0.897E+00   -.199E+01 0.161E+01 -.730E+00   -.356E+00 0.348E+00 -.446E+00   0.463E-04 -.422E-04 0.144E-04
   -.870E+00 -.198E+01 -.187E+01   0.627E+00 0.195E+01 0.171E+01   0.339E+00 0.167E+00 0.391E+00   0.802E-05 -.626E-04 -.429E-04
   0.265E+01 -.143E+01 -.632E+00   -.240E+01 0.121E+01 0.647E+00   -.574E+00 0.298E+00 -.593E-01   0.286E-04 -.431E-04 -.194E-04
   0.164E+01 -.923E+00 -.200E+01   -.155E+01 0.850E+00 0.178E+01   -.246E+00 0.255E+00 0.655E+00   0.637E-04 -.251E-04 -.263E-04
   0.176E+01 0.325E+00 -.534E+00   -.157E+01 -.248E+00 0.534E+00   -.251E+00 -.232E+00 -.152E+00   0.638E-04 0.712E-05 -.256E-04
   -.573E+00 -.283E+01 -.257E+01   0.488E+00 0.251E+01 0.242E+01   0.494E-01 0.720E+00 0.274E+00   0.925E-05 -.776E-04 -.972E-04
   0.140E+01 -.222E+01 -.185E+01   -.114E+01 0.203E+01 0.169E+01   -.550E+00 0.433E+00 0.332E+00   0.795E-05 -.579E-04 -.538E-04
   0.930E+00 -.344E-01 -.498E+00   -.974E+00 0.148E+00 0.520E+00   0.182E+00 -.703E-01 -.102E+00   0.564E-04 -.308E-04 -.125E-04
 -----------------------------------------------------------------------------------------------
   0.133E-01 -.792E-02 -.337E-02   0.195E-13 -.782E-13 0.155E-12   -.130E-01 0.793E-02 0.326E-02   -.104E-05 -.670E-06 -.514E-06


 POSITION                                       TOTAL-FORCE (eV/Angst)
 -----------------------------------------------------------------------------------
     16.22237      8.21783      8.13227         0.201090      0.085246     -0.016177
      1.33528      1.37699      1.37563         0.309095     -0.078126     -0.342880
      2.70977      2.77004      0.01599        -0.262087     -0.121787     -0.121773
      4.05212      4.14198      1.37054         0.340292     -0.332858     -0.190417
     13.54121     13.67941     16.21545         0.161897      0.052080      0.217760
      6.76914      6.86325      1.33549        -0.105004     -0.303284      0.072244
      2.72757      8.20739     10.79760        -0.084369      0.026626      0.018982
      4.05562      1.35275      4.06858        -0.096911     -0.161560      0.052352
      5.39058      2.72608      2.73704         0.213183      0.123549     -0.390322
      6.76193      4.10167      4.06630        -0.064245     -0.095459     -0.102403
      8.10382      5.47008      2.72575         0.166414      0.174408     -0.245444
      9.46853      6.86797      4.06193         0.207912     -0.280566     -0.175566
     13.50562      8.21988      5.43440         0.384237      0.012144     -0.227682
      6.75609      1.36830      6.79723         0.308251     -0.368107     -0.492184
      8.10085      2.72632      5.40144         0.311667     -0.146470      0.184994
      9.46246      4.10568      6.76908         0.396888     -0.200358     -0.214571
     10.85607     13.71469     13.50833        -0.270983      0.007490      0.266425
     12.18597      6.86596      6.79896        -0.197072     -0.293072     -0.129080
      8.12178      2.72543     10.82930         0.096531     -0.074351      0.413410
      1.34882      4.13170      4.05257         0.100841     -0.227574     -0.117603
      2.72833      5.47865      2.70804        -0.473911      0.497168     -0.045385
      4.04275      6.86830      4.06997         0.545652     -0.254410     -0.176631
      5.42283      8.23140      2.68546        -0.208233      0.048067      0.154587
      6.77540      9.60246      4.05937        -0.113824      0.031598     -0.148658
     10.80380     10.96579      5.38934         0.228237      0.307495      0.147176
      4.07509      4.09129      6.78698        -0.130980      0.022077     -0.317350
      5.43996      5.46138      5.42032        -0.427035      0.286590      0.034778
      6.77419      6.85767      6.76180         0.301168     -0.266085     -0.135975
      8.13536      8.22696      5.39798        -0.033251      0.228875      0.363328
      9.49604      9.61954      6.77647        -0.227438     -0.396735     -0.104027
      5.43811      2.70982      8.11389        -0.309225      0.321845      0.345249
      6.78112      4.07405      9.49065         0.017023      0.136907     -0.352146
      8.13211      5.45586      8.11482        -0.263788      0.204337      0.117582
      9.47184      6.84761      9.46098         0.070674     -0.456092      0.428073
     10.80760      8.20930      8.14731         0.224976      0.261488     -0.283659
     12.19284      9.58518      9.45964         0.211912     -0.284712      0.062873
      0.02858      5.50321      5.40187        -0.471895     -0.224183     -0.049884
      1.34566      6.85046      6.74903         0.211410      0.336171      0.143679
     10.83031      8.19795     13.52068         0.091105      0.227334      0.541209
      4.08426      9.62107      6.75980        -0.307348     -0.363177      0.093252
      5.40848     10.97747      5.40334         0.097010     -0.019911     -0.199341
      6.77782     12.32134      6.74125         0.118512      0.229273      0.082030
      2.70075      5.48356      8.10721         0.079594     -0.137224      0.039346
      4.09018      6.82457      9.45278        -0.008355      0.002452      0.135881
      5.44437      8.20065      8.10419        -0.210298      0.395587      0.135145
      6.79829      9.58883      9.47372        -0.439078     -0.068916      0.130574
      8.12782     10.95254      8.13381        -0.056418      0.211519     -0.279450
      9.47624     12.32506      9.46047         0.095655      0.132493      0.233675
     13.55631     13.67887     10.82657        -0.318051      0.077708     -0.045152
      6.79507      6.82368     12.15781        -0.164981      0.181857      0.433629
      8.13524      8.21599     10.82789        -0.055574     -0.155226     -0.152568
      9.49197      9.55300     12.16338        -0.035788      0.402520      0.118352
     10.85548     10.93026     10.80120        -0.293044      0.242199      0.170185
     12.18144     12.30875     12.17965         0.137965      0.043138     -0.080445
 -----------------------------------------------------------------------------------
    total drift:                                0.000297      0.000012     -0.000116


--------------------------------------------------------------------------------------------------------



  FREE ENERGIE OF THE ION-ELECTRON SYSTEM (eV)
  ---------------------------------------------------
  free  energy   TOTEN  =      -292.48477471 eV

  energy  without entropy=     -292.48477471  energy(sigma->0) =     -292.48477471



--------------------------------------------------------------------------------------------------------


    POTLOK:  cpu time    0.4880: real time    0.4867


--------------------------------------------------------------------------------------------------------


 writing wavefunctions
     LOOP+:  cpu time  882.5000: real time  882.2552
    4ORBIT:  cpu time    0.0000: real time    0.0000

 total amount of memory used by VASP on root node   133147. kBytes
========================================================================

   base      :      30000. kBytes
   nonl-proj :      28610. kBytes
   fftplans  :      14925. kBytes
   grid      :      25804. kBytes
   one-center:        165. kBytes
   wavefun   :      33643. kBytes

  
  
 General timing and accounting informations for this job:
 ========================================================
  
                  Total CPU time used (sec):      894.836
                            User time (sec):      868.888
                          System time (sec):       25.948
                         Elapsed time (sec):      894.642
  
                   Maximum memory used (kb):      168668.
                   Average memory used (kb):           0.
  
                          Minor page faults:     11272562
                          Major page faults:            7
                 Voluntary context switches:          480
