       N       E                     dE             d eps       ncg     rms          rms(c)
DAV:   1     0.414415273759E+03    0.41442E+03   -0.65254E+04  4032   0.903E+02
DAV:   2    -0.256558722647E+03   -0.67097E+03   -0.63844E+03  4944   0.155E+02
DAV:   3    -0.296449482421E+03   -0.39891E+02   -0.39397E+02  5088   0.353E+01
DAV:   4    -0.297262398075E+03   -0.81292E+00   -0.80942E+00  5152   0.630E+00
DAV:   5    -0.297279975256E+03   -0.17577E-01   -0.17562E-01  4976   0.897E-01    0.254E+01
DAV:   6    -0.293933350142E+03    0.33466E+01   -0.18580E+00  4752   0.228E+00    0.156E+01
DAV:   7    -0.292425189345E+03    0.15082E+01   -0.39994E+00  4736   0.345E+00    0.929E-01
DAV:   8    -0.292444822854E+03   -0.19634E-01   -0.22238E-01  4704   0.934E-01    0.395E-01
DAV:   9    -0.292451401933E+03   -0.65791E-02   -0.11049E-02  5072   0.232E-01    0.295E-01
DAV:  10    -0.292452590511E+03   -0.11886E-02   -0.14230E-03  4560   0.724E-02    0.118E-01
DAV:  11    -0.292453046151E+03   -0.45564E-03   -0.63463E-04  4496   0.554E-02    0.282E-02
DAV:  12    -0.292453050653E+03   -0.45021E-05   -0.18585E-05  5280   0.821E-03    0.202E-02
DAV:  13    -0.292453054905E+03   -0.42513E-05   -0.79148E-06  4640   0.613E-03    0.542E-03
DAV:  14    -0.292453053572E+03    0.13326E-05   -0.71715E-07  5040   0.163E-03    0.143E-03
DAV:  15    -0.292453053848E+03   -0.27577E-06   -0.14351E-07  3152   0.902E-04    0.115E-03
DAV:  16    -0.292453053814E+03    0.34102E-07   -0.16839E-08  2688   0.319E-04
   1 F= -.29245305E+03 E0= -.29245305E+03  d E =-.230916E-12
