 vasp.5.4.1 24Jun15 (build Jan 30 2017 21:57:38) complex                         
 executed on           IFC91_ompi date 2018.07.26  12:09:08
 running on   16 total cores
 distrk:  each k-point on   16 cores,    1 groups
 distr:  one band on NCORES_PER_BAND=   1 cores,   16 groups


--------------------------------------------------------------------------------------------------------


 INCAR:
 POTCAR:    PAW_PBE Si 05Jan2001                  

 ----------------------------------------------------------------------------- 
|                                                                             |
|           W    W    AA    RRRRR   N    N  II  N    N   GGGG   !!!           |
|           W    W   A  A   R    R  NN   N  II  NN   N  G    G  !!!           |
|           W    W  A    A  R    R  N N  N  II  N N  N  G       !!!           |
|           W WW W  AAAAAA  RRRRR   N  N N  II  N  N N  G  GGG   !            |
|           WW  WW  A    A  R   R   N   NN  II  N   NN  G    G                |
|           W    W  A    A  R    R  N    N  II  N    N   GGGG   !!!           |
|                                                                             |
|      For optimal performance we recommend to set                            |
|        NCORE= 4 - approx SQRT( number of cores)                             |
|      NCORE specifies how many cores store one orbital (NPAR=cpu/NCORE).     |
|      This setting can  greatly improve the performance of VASP for DFT.     |
|      The default, NPAR=number of cores might be grossly inefficient         |
|      on modern multi-core architectures or massively parallel machines.     |
|      Do your own testing !!!!                                               |
|      Unfortunately you need to use the default for GW and RPA calculations. |
|      (for HF NCORE is supported but not extensively tested yet)             |
|                                                                             |
 ----------------------------------------------------------------------------- 

 POTCAR:    PAW_PBE Si 05Jan2001                  
   VRHFIN =Si: s2p2                                                             
   LEXCH  = PE                                                                  
   EATOM  =   103.0669 eV,    7.5752 Ry                                         
                                                                                
   TITEL  = PAW_PBE Si 05Jan2001                                                
   LULTRA =        F    use ultrasoft PP ?                                      
   IUNSCR =        1    unscreen: 0-lin 1-nonlin 2-no                           
   RPACOR =    1.500    partial core radius                                     
   POMASS =   28.085; ZVAL   =    4.000    mass and valenz                      
   RCORE  =    1.900    outmost cutoff radius                                   
   RWIGS  =    2.480; RWIGS  =    1.312    wigner-seitz radius (au A)           
   ENMAX  =  245.345; ENMIN  =  184.009 eV                                      
   ICORE  =        2    local potential                                         
   LCOR   =        T    correct aug charges                                     
   LPAW   =        T    paw PP                                                  
   EAUG   =  322.069                                                            
   DEXC   =    0.000                                                            
   RMAX   =    1.950    core radius for proj-oper                               
   RAUG   =    1.300    factor for augmentation sphere                          
   RDEP   =    1.993    radius for radial grids                                 
   RDEPT  =    1.837    core radius for aug-charge                              
                                                                                
   Atomic configuration                                                         
    6 entries                                                                   
     n  l   j            E        occ.                                          
     1  0  0.50     -1785.8828   2.0000                                         
     2  0  0.50      -139.4969   2.0000                                         
     2  1  1.50       -95.5546   6.0000                                         
     3  0  0.50       -10.8127   2.0000                                         
     3  1  0.50        -4.0811   2.0000                                         
     3  2  1.50        -4.0817   0.0000                                         
   Description                                                                  
     l       E           TYP  RCUT    TYP  RCUT                                 
     0    -10.8127223     23  1.900                                             
     0     -7.6451159     23  1.900                                             
     1     -4.0811372     23  1.900                                             
     1      2.4879257     23  1.900                                             
     2     -4.0817478      7  1.900                                             
  local pseudopotential read in
  partial core-charges read in
  partial kinetic energy density read in
  atomic valenz-charges read in
  non local Contribution for L=           0  read in
    real space projection operators read in
  non local Contribution for L=           0  read in
    real space projection operators read in
  non local Contribution for L=           1  read in
    real space projection operators read in
  non local Contribution for L=           1  read in
    real space projection operators read in
    PAW grid and wavefunctions read in

   number of l-projection  operators is LMAX  =           4
   number of lm-projection operators is LMMAX =           8


 ----------------------------------------------------------------------------- 
|                                                                             |
|  ADVICE TO THIS USER RUNNING 'VASP/VAMP'   (HEAR YOUR MASTER'S VOICE ...):  |
|                                                                             |
|      You have a (more or less) 'large supercell' and for larger cells       |
|      it might be more efficient to use real space projection opertators     |
|      So try LREAL= Auto  in the INCAR   file.                               |
|      Mind: At the moment your POTCAR file does not contain real space       |
|       projectors, and has to be modified,  BUT if you                       |
|      want to do an extremely  accurate calculation you might also keep the  |
|      reciprocal projection scheme          (i.e. LREAL=.FALSE.)             |
|                                                                             |
 ----------------------------------------------------------------------------- 

  PAW_PBE Si 05Jan2001                  :
 energy of atom  1       EATOM= -103.0669
 kinetic energy error for atom=    0.0013 (will be added to EATOM!!)


 POSCAR: supercell                               
  positions in direct lattice
  No initial velocities read in
 exchange correlation table for  LEXCH =        8
   RHO(1)=    0.500       N(1)  =     2000
   RHO(2)=  100.500       N(2)  =     4000



--------------------------------------------------------------------------------------------------------


 ion  position               nearest neighbor table
   1  0.001  0.001  0.997-   6 2.34  38 2.35  14 2.36   2 2.37
   2  0.083  0.081  0.086-   3 2.33  19 2.33   1 2.37   7 2.38
   3  0.000  0.002  0.332-   2 2.33  40 2.35   4 2.36  16 2.38
   4  0.084  0.083  0.418-  21 2.36   3 2.36   9 2.36   5 2.38
   5  0.997  0.001  0.668-  42 2.34  18 2.35   6 2.37   4 2.38
   6  0.083  0.083  0.751-  11 2.31   1 2.34  23 2.34   5 2.37
   7  0.000  0.335  0.002-   8 2.33  44 2.35   2 2.38  12 2.39
   8  0.085  0.416  0.083-   7 2.33   9 2.34  13 2.35  25 2.35
   9  1.000  0.335  0.331-  46 2.34   8 2.34  10 2.35   4 2.36
  10  0.082  0.415  0.417-  15 2.33   9 2.35  11 2.36  27 2.38
  11  0.001  0.330  0.667-   6 2.31  10 2.36  12 2.37  48 2.37
  12  0.083  0.416  0.750-  11 2.37  29 2.37  17 2.38   7 2.39
  13  0.999  0.666  0.998-  50 2.33   8 2.35  18 2.35  14 2.38
  14  0.086  0.750  0.081-  31 2.33   1 2.36  13 2.38  15 2.41
  15  0.000  0.664  0.336-  10 2.33  52 2.34  16 2.36  14 2.41
  16  0.084  0.749  0.417-  33 2.30  17 2.36  15 2.36   3 2.38
  17  0.000  0.670  0.667-  18 2.30  16 2.36  12 2.38  54 2.39
  18  0.081  0.750  0.750-  17 2.30   5 2.35  13 2.35  35 2.36
  19  0.331  0.003  0.999-   2 2.33  24 2.34  20 2.37  32 2.40
  20  0.415  0.082  0.087-  21 2.34  37 2.36  25 2.37  19 2.37
  21  0.335  0.999  0.335-  34 2.33  20 2.34  22 2.35   4 2.36
  22  0.416  0.087  0.416-  27 2.29  21 2.35  23 2.36  39 2.37
  23  0.332  0.001  0.665-   6 2.34  36 2.35  22 2.36  24 2.40
  24  0.418  0.083  0.752-  41 2.34  19 2.34  29 2.35  23 2.40
  25  0.335  0.334  0.001-  26 2.31   8 2.35  20 2.37  30 2.41
  26  0.419  0.414  0.084-  25 2.31  43 2.34  27 2.37  31 2.38
  27  0.336  0.331  0.334-  22 2.29  28 2.35  26 2.37  10 2.38
  28  0.419  0.416  0.414-  45 2.33  27 2.35  33 2.36  29 2.39
  29  0.335  0.333  0.667-  30 2.34  24 2.35  12 2.37  28 2.39
  30  0.419  0.417  0.746-  47 2.31  29 2.34  35 2.34  25 2.41
  31  0.333  0.667  0.002-  32 2.32  14 2.33  26 2.38  36 2.40
  32  0.418  0.747  0.084-  31 2.32  49 2.35  33 2.38  19 2.40
  33  0.329  0.668  0.335-  16 2.30  28 2.36  34 2.37  32 2.38
  34  0.414  0.751  0.419-  21 2.33  51 2.36  35 2.36  33 2.37
  35  0.332  0.667  0.668-  36 2.34  30 2.34  34 2.36  18 2.36
  36  0.416  0.750  0.748-  35 2.34  23 2.35  53 2.36  31 2.40
  37  0.666  0.000  0.998-  42 2.35  50 2.36  20 2.36  38 2.39
  38  0.751  0.085  0.083-  43 2.33   1 2.35  39 2.37  37 2.39
  39  0.668  0.998  0.333-  52 2.35  40 2.36  22 2.37  38 2.37
  40  0.751  0.083  0.416-   3 2.35  41 2.35  39 2.36  45 2.37
  41  0.667  0.003  0.665-  42 2.33  24 2.34  40 2.35  54 2.37
  42  0.748  0.083  0.751-  41 2.33   5 2.34  37 2.35  47 2.35
  43  0.667  0.333  0.000-  38 2.33  26 2.34  44 2.34  48 2.35
  44  0.750  0.418  0.081-  43 2.34  49 2.35   7 2.35  45 2.37
  45  0.667  0.335  0.331-  28 2.33  40 2.37  44 2.37  46 2.38
  46  0.751  0.416  0.419-   9 2.34  47 2.37  45 2.38  51 2.38
  47  0.665  0.334  0.670-  30 2.31  42 2.35  48 2.36  46 2.37
  48  0.748  0.417  0.753-  43 2.35  47 2.36  53 2.36  11 2.37
  49  0.667  0.668  0.000-  50 2.32  44 2.35  32 2.35  54 2.36
  50  0.751  0.749  0.082-  49 2.32  13 2.33  37 2.36  51 2.37
  51  0.665  0.670  0.333-  52 2.33  34 2.36  50 2.37  46 2.38
  52  0.751  0.747  0.417-  51 2.33  53 2.34  15 2.34  39 2.35
  53  0.668  0.669  0.664-  52 2.34  54 2.34  36 2.36  48 2.36
  54  0.746  0.750  0.752-  53 2.34  49 2.36  41 2.37  17 2.39

  Warning from LATTYP: Got some problem with cell dimensions!
  Tried to take original basis but could not verify dimensions!
  LATTYP: Found a triclinic cell.
 ALAT       =    11.5385003990
 B/A-ratio  =     1.4148563230
 C/A-ratio  =     0.9954992854
 COS(alpha) =     0.0016190668
 COS(beta)  =     0.5020281601
 COS(gamma) =     0.7051443138
  
  Lattice vectors:
  
 A1 = (  -0.0113475289,  -8.1683807138,  -8.1495042306)
 A2 = (   0.0449838973,   0.0262287400, -16.3252372012)
 A3 = (   8.0967206526,  -8.1476556062,  -0.0093775787)


Analysis of symmetry for initial positions (statically):
=====================================================================
 Subroutine PRICEL returns:
 Original cell was already a primitive cell.
 

 Routine SETGRP: Setting up the symmetry group for a 
 triclinic supercell.


 Subroutine GETGRP returns: Found  1 space group operations
 (whereof  1 operations were pure point group operations)
 out of a pool of  2 trial point group operations.


The static configuration has the point symmetry C_1 .


Analysis of symmetry for dynamics (positions and initial velocities):
=====================================================================
 Subroutine PRICEL returns:
 Original cell was already a primitive cell.
 

 Routine SETGRP: Setting up the symmetry group for a 
 triclinic supercell.


 Subroutine GETGRP returns: Found  1 space group operations
 (whereof  1 operations were pure point group operations)
 out of a pool of  2 trial point group operations.


The dynamic configuration has the point symmetry C_1 .


 KPOINTS: Automatic kpoint scheme                 

Automatic generation of k-mesh.
Space group operators:
 irot       det(A)        alpha          n_x          n_y          n_z        tau_x        tau_y        tau_z
    1     1.000000     0.000000     1.000000     0.000000     0.000000     0.000000     0.000000     0.000000
 
 Subroutine IBZKPT returns following result:
 ===========================================
 
 Found     14 irreducible k-points:
 
 Following reciprocal coordinates:
            Coordinates               Weight
  0.000000  0.000000  0.000000      1.000000
  0.333333  0.000000  0.000000      2.000000
  0.000000  0.333333  0.000000      2.000000
  0.333333  0.333333  0.000000      2.000000
 -0.333333  0.333333  0.000000      2.000000
  0.000000  0.000000  0.333333      2.000000
  0.333333  0.000000  0.333333      2.000000
 -0.333333  0.000000  0.333333      2.000000
  0.000000  0.333333  0.333333      2.000000
  0.333333  0.333333  0.333333      2.000000
 -0.333333  0.333333  0.333333      2.000000
  0.000000 -0.333333  0.333333      2.000000
  0.333333 -0.333333  0.333333      2.000000
 -0.333333 -0.333333  0.333333      2.000000
 
 Following cartesian coordinates:
            Coordinates               Weight
  0.000000  0.000000  0.000000      1.000000
 -0.020528  0.020489  0.020395      2.000000
  0.020640 -0.020424  0.020442      2.000000
  0.000113  0.000065  0.040837      2.000000
  0.041168 -0.040913  0.000048      2.000000
  0.020358  0.020254 -0.020330      2.000000
 -0.000169  0.040743  0.000065      2.000000
  0.040886 -0.000234 -0.040724      2.000000
  0.040999 -0.000169  0.000113      2.000000
  0.020471  0.020319  0.020507      2.000000
  0.061526 -0.020658 -0.020282      2.000000
 -0.000282  0.040678 -0.040772      2.000000
 -0.020810  0.061167 -0.020377      2.000000
  0.020246  0.020189 -0.061167      2.000000
 


--------------------------------------------------------------------------------------------------------




 Dimension of arrays:
   k-points           NKPTS =       14   k-points in BZ     NKDIM =       14   number of bands    NBANDS=    144
   number of dos      NEDOS =    301   number of ions     NIONS =     54
   non local maximal  LDIM  =      4   non local SUM 2l+1 LMDIM =      8
   total plane-waves  NPLWV = 352800
   max r-space proj   IRMAX =      1   max aug-charges    IRDMAX=  11061
   dimension x,y,z NGX =    70 NGY =   70 NGZ =   72
   dimension x,y,z NGXF=   140 NGYF=  140 NGZF=  144
   support grid    NGXF=   140 NGYF=  140 NGZF=  144
   ions per type =              54
 NGX,Y,Z   is equivalent  to a cutoff of  10.09, 10.13, 10.33 a.u.
 NGXF,Y,Z  is equivalent  to a cutoff of  20.17, 20.26, 20.67 a.u.


 I would recommend the setting:
   dimension x,y,z NGX =    70 NGY =   70 NGZ =   71
 SYSTEM =  unknown system                          
 POSCAR =  supercell                               

 Startparameter for this run:
   NWRITE =      2    write-flag & timer
   PREC   = accura    normal or accurate (medium, high low for compatibility)
   ISTART =      0    job   : 0-new  1-cont  2-samecut
   ICHARG =      2    charge: 1-file 2-atom 10-const
   ISPIN  =      1    spin polarized calculation?
   LNONCOLLINEAR =      F non collinear calculations
   LSORBIT =      F    spin-orbit coupling
   INIWAV =      1    electr: 0-lowe 1-rand  2-diag
   LASPH  =      F    aspherical Exc in radial PAW
   METAGGA=      F    non-selfconsistent MetaGGA calc.

 Electronic Relaxation 1
   ENCUT  =  350.0 eV  25.72 Ry    5.07 a.u.  17.60 17.53 17.67*2*pi/ulx,y,z
   ENINI  =  350.0     initial cutoff
   ENAUG  =  322.1 eV  augmentation charge cutoff
   NELM   =     60;   NELMIN=  2; NELMDL= -5     # of ELM steps 
   EDIFF  = 0.1E-06   stopping-criterion for ELM
   LREAL  =      F    real-space projection
   NLSPLINE    = F    spline interpolate recip. space projectors
   LCOMPAT=      F    compatible to vasp.4.4
   GGA_COMPAT  = T    GGA compatible to vasp.4.4-vasp.4.6
   LMAXPAW     = -100 max onsite density
   LMAXMIX     =    2 max onsite mixed and CHGCAR
   VOSKOWN=      0    Vosko Wilk Nusair interpolation
   ROPT   =    0.00000
 Ionic relaxation
   EDIFFG = 0.1E-05   stopping-criterion for IOM
   NSW    =      0    number of steps for IOM
   NBLOCK =      1;   KBLOCK =      1    inner block; outer block 
   IBRION =     -1    ionic relax: 0-MD 1-quasi-New 2-CG
   NFREE  =      0    steps in history (QN), initial steepest desc. (CG)
   ISIF   =      2    stress and relaxation
   IWAVPR =     10    prediction:  0-non 1-charg 2-wave 3-comb
   ISYM   =      2    0-nonsym 1-usesym 2-fastsym
   LCORR  =      T    Harris-Foulkes like correction to forces

   POTIM  = 0.5000    time-step for ionic-motion
   TEIN   =    0.0    initial temperature
   TEBEG  =    0.0;   TEEND  =   0.0 temperature during run
   SMASS  =  -3.00    Nose mass-parameter (am)
   estimated Nose-frequenzy (Omega)   =  0.10E-29 period in steps =****** mass=  -0.304E-26a.u.
   SCALEE = 1.0000    scale energy and forces
   NPACO  =    256;   APACO  = 16.0  distance and # of slots for P.C.
   PSTRESS=    0.0 pullay stress

  Mass of Ions in am
   POMASS =  28.09
  Ionic Valenz
   ZVAL   =   4.00
  Atomic Wigner-Seitz radii
   RWIGS  =  -1.00
  virtual crystal weights 
   VCA    =   1.00
   NELECT =     216.0000    total number of electrons
   NUPDOWN=      -1.0000    fix difference up-down

 DOS related values:
   EMIN   =  10.00;   EMAX   =-10.00  energy-range for DOS
   EFERMI =   0.00
   ISMEAR =     0;   SIGMA  =   0.05  broadening in eV -4-tet -1-fermi 0-gaus

 Electronic relaxation 2 (details)
   IALGO  =     38    algorithm
   LDIAG  =      T    sub-space diagonalisation (order eigenvalues)
   LSUBROT=      F    optimize rotation matrix (better conditioning)
   TURBO    =      0    0=normal 1=particle mesh
   IRESTART =      0    0=no restart 2=restart with 2 vectors
   NREBOOT  =      0    no. of reboots
   NMIN     =      0    reboot dimension
   EREF     =   0.00    reference energy to select bands
   IMIX   =      4    mixing-type and parameters
     AMIX     =   0.40;   BMIX     =  1.00
     AMIX_MAG =   1.60;   BMIX_MAG =  1.00
     AMIN     =   0.10
     WC   =   100.;   INIMIX=   1;  MIXPRE=   1;  MAXMIX= -45

 Intra band minimization:
   WEIMIN = 0.0000     energy-eigenvalue tresh-hold
   EBREAK =  0.17E-09  absolut break condition
   DEPER  =   0.30     relativ break condition  

   TIME   =   0.40     timestep for ELM

  volume/ion in A,a.u.               =      20.11       135.71
  Fermi-wavevector in a.u.,A,eV,Ry     =   0.955636  1.805890 12.425387  0.913240
  Thomas-Fermi vector in A             =   2.084492

 Write flags
   LWAVE  =      T    write WAVECAR
   LCHARG =      T    write CHGCAR
   LVTOT  =      F    write LOCPOT, total local potential
   LVHAR  =      F    write LOCPOT, Hartree potential only
   LELF   =      F    write electronic localiz. function (ELF)
   LORBIT =      0    0 simple, 1 ext, 2 COOP (PROOUT)


 Dipole corrections
   LMONO  =      F    monopole corrections only (constant potential shift)
   LDIPOL =      F    correct potential (dipole corrections)
   IDIPOL =      0    1-x, 2-y, 3-z, 4-all directions 
   EPSILON=  1.0000000 bulk dielectric constant

 Exchange correlation treatment:
   GGA     =    --    GGA type
   LEXCH   =     8    internal setting for exchange type
   VOSKOWN=      0    Vosko Wilk Nusair interpolation
   LHFCALC =     F    Hartree Fock is set to
   LHFONE  =     F    Hartree Fock one center treatment
   AEXX    =    0.0000 exact exchange contribution

 Linear response parameters
   LEPSILON=     F    determine dielectric tensor
   LRPA    =     F    only Hartree local field effects (RPA)
   LNABLA  =     F    use nabla operator in PAW spheres
   LVEL    =     F    velocity operator in full k-point grid
   LINTERFAST=   F  fast interpolation
   KINTER  =     0    interpolate to denser k-point grid
   CSHIFT  =0.1000    complex shift for real part using Kramers Kronig
   OMEGAMAX=  -1.0    maximum frequency
   DEG_THRESHOLD= 0.2000000E-02 threshold for treating states as degnerate
   RTIME   =    0.100 relaxation time in fs

 Orbital magnetization related:
   ORBITALMAG=     F  switch on orbital magnetization
   LCHIMAG   =     F  perturbation theory with respect to B field
   DQ        =  0.001000  dq finite difference perturbation B field



--------------------------------------------------------------------------------------------------------


 Static calculation
 charge density and potential will be updated during run
 non-spin polarized calculation
 Variant of blocked Davidson
 Davidson routine will perform the subspace rotation
 perform sub-space diagonalisation
    after iterative eigenvector-optimisation
 modified Broyden-mixing scheme, WC =      100.0
 initial mixing is a Kerker type mixing with AMIX =  0.4000 and BMIX =      1.0000
 Hartree-type preconditioning will be used
 using additional bands           36
 reciprocal scheme for non local part
 use partial core corrections
 calculate Harris-corrections to forces   (improved forces if not selfconsistent)
 use gradient corrections 
 use of overlap-Matrix (Vanderbilt PP)
 Gauss-broadening in eV      SIGMA  =   0.05


--------------------------------------------------------------------------------------------------------


  energy-cutoff  :      350.00
  volume of cell :     1085.93
      direct lattice vectors                 reciprocal lattice vectors
     0.011347529  8.168380714  8.149504231    -0.061582946  0.061466311  0.061183916
     8.108068182  0.020725108  8.140126652     0.061921042 -0.061271333  0.061327034
     8.164399608  8.215334561 -0.035606319     0.061074765  0.060763152 -0.060988938

  length of vectors
    11.538500399 11.489249805 11.582331834     0.106367468  0.106533548  0.105555379



 k-points in units of 2pi/SCALE and weight: Automatic kpoint scheme                 
   0.00000000  0.00000000  0.00000000       0.037
  -0.02052765  0.02048877  0.02039464       0.074
   0.02064035 -0.02042378  0.02044234       0.074
   0.00011270  0.00006499  0.04083698       0.074
   0.04116800 -0.04091255  0.00004771       0.074
   0.02035825  0.02025438 -0.02032965       0.074
  -0.00016939  0.04074315  0.00006499       0.074
   0.04088590 -0.00023439 -0.04072428       0.074
   0.04099860 -0.00016939  0.00011270       0.074
   0.02047095  0.02031938  0.02050734       0.074
   0.06152625 -0.02065816 -0.02028194       0.074
  -0.00028209  0.04067816 -0.04077199       0.074
  -0.02080974  0.06116693 -0.02037735       0.074
   0.02024556  0.02018939 -0.06116663       0.074

 k-points in reciprocal lattice and weights: Automatic kpoint scheme                 
   0.00000000  0.00000000  0.00000000       0.037
   0.33333333  0.00000000  0.00000000       0.074
   0.00000000  0.33333333  0.00000000       0.074
   0.33333333  0.33333333  0.00000000       0.074
  -0.33333333  0.33333333  0.00000000       0.074
   0.00000000  0.00000000  0.33333333       0.074
   0.33333333  0.00000000  0.33333333       0.074
  -0.33333333  0.00000000  0.33333333       0.074
   0.00000000  0.33333333  0.33333333       0.074
   0.33333333  0.33333333  0.33333333       0.074
  -0.33333333  0.33333333  0.33333333       0.074
   0.00000000 -0.33333333  0.33333333       0.074
   0.33333333 -0.33333333  0.33333333       0.074
  -0.33333333 -0.33333333  0.33333333       0.074

 position of ions in fractional coordinates (direct lattice) 
   0.00119211  0.00073805  0.99724832
   0.08319687  0.08120525  0.08632932
   0.00025387  0.00208905  0.33208761
   0.08439177  0.08316215  0.41754551
   0.99664616  0.00092576  0.66839768
   0.08343166  0.08349801  0.75065275
   0.00003086  0.33474979  0.00178624
   0.08498133  0.41569381  0.08312255
   0.99954105  0.33464800  0.33056639
   0.08215020  0.41512609  0.41725801
   0.00062784  0.33007051  0.66676467
   0.08269152  0.41592673  0.75001094
   0.99904245  0.66617998  0.99840899
   0.08601060  0.74961487  0.08110998
   0.00006056  0.66386185  0.33569590
   0.08449693  0.74886497  0.41724194
   0.00019121  0.66966280  0.66664611
   0.08067305  0.75049426  0.74995160
   0.33123921  0.00285372  0.99900684
   0.41478929  0.08239681  0.08748224
   0.33520809  0.99923282  0.33461496
   0.41574023  0.08703030  0.41576242
   0.33229240  0.00060897  0.66495655
   0.41786214  0.08334729  0.75170522
   0.33526196  0.33448934  0.00127676
   0.41879972  0.41353207  0.08379984
   0.33576631  0.33125875  0.33361175
   0.41932770  0.41641448  0.41399195
   0.33494676  0.33320599  0.66653403
   0.41912529  0.41725518  0.74641112
   0.33344535  0.66699846  0.00187580
   0.41753120  0.74670970  0.08396934
   0.32943727  0.66773119  0.33489622
   0.41380621  0.75109404  0.41851811
   0.33205688  0.66666150  0.66783096
   0.41643233  0.74992810  0.74821619
   0.66614819  0.00013226  0.99823883
   0.75113811  0.08471756  0.08277299
   0.66815007  0.99797589  0.33333738
   0.75058076  0.08275185  0.41624317
   0.66703774  0.00258137  0.66453095
   0.74782102  0.08298350  0.75055198
   0.66717617  0.33278817  0.00005154
   0.74986321  0.41789743  0.08105662
   0.66724233  0.33479678  0.33103888
   0.75062667  0.41577623  0.41922765
   0.66455774  0.33358727  0.66958966
   0.74814020  0.41723757  0.75251265
   0.66732627  0.66775530  0.00039828
   0.75088680  0.74881207  0.08246428
   0.66490236  0.66980783  0.33297163
   0.75112582  0.74735631  0.41688142
   0.66750253  0.66876879  0.66352500
   0.74645382  0.75034454  0.75176719

 position of ions in cartesian coordinates  (Angst):
   8.14793150  8.20248153 -0.01978538
   1.36418882  1.39049095  1.33596036
   2.72823697  2.73032777  0.00724962
   4.08425045  4.12134376  1.34983431
   5.47588133 13.63211500  8.10590867
   6.80658337  6.85009560  1.33288310
   2.72875803  0.02186429  2.72509355
   4.05008373  1.38565472  4.07339628
   5.42356725 10.88728100 10.85807089
   6.77346398  4.10755180  4.03380534
   8.11997455  5.48966400  2.66819127
   9.49668970  6.84566681  4.03288606
  13.56417934 16.37662956 13.52894040
   6.74111876  1.38444883  6.80001569
   8.12339330  2.77210741  5.39246015
   9.47933701  4.13350556  6.76960733
  10.87243902  5.49216153  5.42896148
  12.20887863  6.83562553  6.73986071
   8.18318794 10.91292257  2.68709404
   1.38702573  4.10856036  4.04793266
  10.83758180  5.50779030 10.85374699
   4.10481573  6.81335558  4.08171066
   5.43767924  8.17714392  2.68929873
   6.81774897  9.59049422  4.05706127
   2.72629079  2.75596870  5.45495896
   4.04187392  4.11792976  6.77622965
   5.41341835  5.49026461  5.42093851
   6.76107104  6.83494088  6.79223876
   8.14730789  8.21867839  5.41825617
   9.48188816  9.56423969  6.78559645
   5.42716756  2.75294251  8.14679938
   6.74467031  4.11586560  9.47799395
   8.15197488  5.45609233  8.10824243
   9.51156644  6.83395946  9.47141413
  10.86154374  8.21263838  8.10902900
  12.19392962  9.56396647  9.47158549
   8.15865223 13.64222069  5.39431051
   1.37121105  6.81734562  6.80806763
  10.82073799  8.21686536 13.55687307
   4.07785050  9.55232140  6.77565078
   5.45399538 10.90801580  5.43337804
   6.80912808 12.27624224  6.74314231
   2.70626082  5.45706949  8.14609108
   4.05862860  6.79973642  9.50986533
   5.42486037  8.17682329  8.15119531
   6.80240188  9.58411686  9.48677930
   8.17908702 10.93617737  8.10741711
   9.53529417 12.30188447  9.46654422
   5.42502972  5.46808627 10.87397678
   6.75321134  6.82652009 12.21184393
   8.15690600  8.18053075 10.85908925
   9.47172588  9.57579106 12.19003445
  10.84728070 10.91735501 10.86005169
  12.23004285 12.28888891 12.16436046



--------------------------------------------------------------------------------------------------------


 k-point  1 :   0.0000 0.0000 0.0000  plane waves:   16225
 k-point  2 :   0.3333 0.0000 0.0000  plane waves:   16150
 k-point  3 :   0.0000 0.3333 0.0000  plane waves:   16150
 k-point  4 :   0.3333 0.3333 0.0000  plane waves:   16145
 k-point  5 :  -0.3333 0.3333 0.0000  plane waves:   16131
 k-point  6 :   0.0000 0.0000 0.3333  plane waves:   16163
 k-point  7 :   0.3333 0.0000 0.3333  plane waves:   16136
 k-point  8 :  -0.3333 0.0000 0.3333  plane waves:   16123
 k-point  9 :   0.0000 0.3333 0.3333  plane waves:   16125
 k-point 10 :   0.3333 0.3333 0.3333  plane waves:   16164
 k-point 11 :  -0.3333 0.3333 0.3333  plane waves:   16136
 k-point 12 :   0.0000-0.3333 0.3333  plane waves:   16140
 k-point 13 :   0.3333-0.3333 0.3333  plane waves:   16124
 k-point 14 :  -0.3333-0.3333 0.3333  plane waves:   16126

 maximum and minimum number of plane-waves per node :     16225    16123

 maximum number of plane-waves:     16225
 maximum index in each direction: 
   IXMAX=   17   IYMAX=   17   IZMAX=   17
   IXMIN=  -17   IYMIN=  -17   IZMIN=  -18

 NGX is ok and might be reduce to  70
 NGY is ok and might be reduce to  70
 NGZ is ok and might be reduce to  72

 serial   3D FFT for wavefunctions
 parallel 3D FFT for charge:
    minimum data exchange during FFTs selected (reduces bandwidth)


 total amount of memory used by VASP on root node   133086. kBytes
========================================================================

   base      :      30000. kBytes
   nonl-proj :      28582. kBytes
   fftplans  :      14925. kBytes
   grid      :      25804. kBytes
   one-center:        165. kBytes
   wavefun   :      33610. kBytes

     INWAV:  cpu time    0.0000: real time    0.0000
 Broyden mixing: mesh for mixing (old mesh)
   NGX = 35   NGY = 35   NGZ = 35
  (NGX  =140   NGY  =140   NGZ  =144)
  gives a total of  42875 points

 initial charge density was supplied:
 charge density of overlapping atoms calculated
 number of electron     216.0000000 magnetization 
 keeping initial charge density in first step


--------------------------------------------------------------------------------------------------------


 Maximum index for augmentation-charges          759 (set IRDMAX)


--------------------------------------------------------------------------------------------------------


 First call to EWALD:  gamma=   0.172
 Maximum number of real-space cells 3x 3x 3
 Maximum number of reciprocal cells 3x 3x 3

 FEWALD executed in parallel
    FEWALD:  cpu time    0.0080: real time    0.0072


----------------------------------------- Iteration    1(   1)  ---------------------------------------


    POTLOK:  cpu time    0.5560: real time    0.5553
    SETDIJ:  cpu time    0.0160: real time    0.0166
     EDDAV:  cpu time   56.5440: real time   56.5291
       DOS:  cpu time    0.0040: real time    0.0014
    --------------------------------------------
      LOOP:  cpu time   57.1200: real time   57.1034

 eigenvalue-minimisations  :  4032
 total energy-change (2. order) : 0.4144153E+03  (-0.6525373E+04)
 number of electron     216.0000000 magnetization 
 augmentation part      216.0000000 magnetization 

 Free energy of the ion-electron system (eV)
  ---------------------------------------------------
  alpha Z        PSCENC =        90.39434736
  Ewald energy   TEWEN  =     -6160.40926460
  -Hartree energ DENC   =      -299.43790618
  -exchange      EXHF   =         0.00000000
  -V(xc)+E(xc)   XCENC  =      -502.75379556
  PAW double counting   =      4758.68517920    -3808.64796066
  entropy T*S    EENTRO =        -0.00989812
  eigenvalues    EBANDS =       771.05071046
  atomic energy  EATOM  =      5565.54386186
  Solvation  Ediel_sol  =         0.00000000
  ---------------------------------------------------
  free energy    TOTEN  =       414.41527376 eV

  energy without entropy =      414.42517188  energy(sigma->0) =      414.42022282


--------------------------------------------------------------------------------------------------------




----------------------------------------- Iteration    1(   2)  ---------------------------------------


     EDDAV:  cpu time   66.9960: real time   66.9751
       DOS:  cpu time    0.0000: real time    0.0010
    --------------------------------------------
      LOOP:  cpu time   66.9960: real time   66.9767

 eigenvalue-minimisations  :  4944
 total energy-change (2. order) :-0.6709740E+03  (-0.6384358E+03)
 number of electron     216.0000000 magnetization 
 augmentation part      216.0000000 magnetization 

 Free energy of the ion-electron system (eV)
  ---------------------------------------------------
  alpha Z        PSCENC =        90.39434736
  Ewald energy   TEWEN  =     -6160.40926460
  -Hartree energ DENC   =      -299.43790618
  -exchange      EXHF   =         0.00000000
  -V(xc)+E(xc)   XCENC  =      -502.75379556
  PAW double counting   =      4758.68517920    -3808.64796066
  entropy T*S    EENTRO =        -0.00000000
  eigenvalues    EBANDS =       100.06681593
  atomic energy  EATOM  =      5565.54386186
  Solvation  Ediel_sol  =         0.00000000
  ---------------------------------------------------
  free energy    TOTEN  =      -256.55872265 eV

  energy without entropy =     -256.55872265  energy(sigma->0) =     -256.55872265


--------------------------------------------------------------------------------------------------------




----------------------------------------- Iteration    1(   3)  ---------------------------------------


     EDDAV:  cpu time   69.0920: real time   69.0728
       DOS:  cpu time    0.0040: real time    0.0009
    --------------------------------------------
      LOOP:  cpu time   69.0960: real time   69.0742

 eigenvalue-minimisations  :  5088
 total energy-change (2. order) :-0.3989076E+02  (-0.3939739E+02)
 number of electron     216.0000000 magnetization 
 augmentation part      216.0000000 magnetization 

 Free energy of the ion-electron system (eV)
  ---------------------------------------------------
  alpha Z        PSCENC =        90.39434736
  Ewald energy   TEWEN  =     -6160.40926460
  -Hartree energ DENC   =      -299.43790618
  -exchange      EXHF   =         0.00000000
  -V(xc)+E(xc)   XCENC  =      -502.75379556
  PAW double counting   =      4758.68517920    -3808.64796066
  entropy T*S    EENTRO =        -0.00000000
  eigenvalues    EBANDS =        60.17605616
  atomic energy  EATOM  =      5565.54386186
  Solvation  Ediel_sol  =         0.00000000
  ---------------------------------------------------
  free energy    TOTEN  =      -296.44948242 eV

  energy without entropy =     -296.44948242  energy(sigma->0) =     -296.44948242


--------------------------------------------------------------------------------------------------------




----------------------------------------- Iteration    1(   4)  ---------------------------------------


     EDDAV:  cpu time   70.1680: real time   70.1490
       DOS:  cpu time    0.0000: real time    0.0010
    --------------------------------------------
      LOOP:  cpu time   70.1680: real time   70.1504

 eigenvalue-minimisations  :  5152
 total energy-change (2. order) :-0.8129157E+00  (-0.8094249E+00)
 number of electron     216.0000000 magnetization 
 augmentation part      216.0000000 magnetization 

 Free energy of the ion-electron system (eV)
  ---------------------------------------------------
  alpha Z        PSCENC =        90.39434736
  Ewald energy   TEWEN  =     -6160.40926460
  -Hartree energ DENC   =      -299.43790618
  -exchange      EXHF   =         0.00000000
  -V(xc)+E(xc)   XCENC  =      -502.75379556
  PAW double counting   =      4758.68517920    -3808.64796066
  entropy T*S    EENTRO =        -0.00000000
  eigenvalues    EBANDS =        59.36314051
  atomic energy  EATOM  =      5565.54386186
  Solvation  Ediel_sol  =         0.00000000
  ---------------------------------------------------
  free energy    TOTEN  =      -297.26239807 eV

  energy without entropy =     -297.26239807  energy(sigma->0) =     -297.26239807


--------------------------------------------------------------------------------------------------------




----------------------------------------- Iteration    1(   5)  ---------------------------------------


     EDDAV:  cpu time   67.9520: real time   67.9312
       DOS:  cpu time    0.0040: real time    0.0011
    CHARGE:  cpu time    2.0800: real time    2.0826
    MIXING:  cpu time    0.0160: real time    0.0140
    --------------------------------------------
      LOOP:  cpu time   70.0520: real time   70.0295

 eigenvalue-minimisations  :  4976
 total energy-change (2. order) :-0.1757718E-01  (-0.1756185E-01)
 number of electron     215.9999999 magnetization 
 augmentation part      -12.7042081 magnetization 

 Broyden mixing:
  rms(total) = 0.25395E+01    rms(broyden)= 0.25394E+01
  rms(prec ) = 0.29029E+01
  weight for this iteration     100.00

 Free energy of the ion-electron system (eV)
  ---------------------------------------------------
  alpha Z        PSCENC =        90.39434736
  Ewald energy   TEWEN  =     -6160.40926460
  -Hartree energ DENC   =      -299.43790618
  -exchange      EXHF   =         0.00000000
  -V(xc)+E(xc)   XCENC  =      -502.75379556
  PAW double counting   =      4758.68517920    -3808.64796066
  entropy T*S    EENTRO =        -0.00000000
  eigenvalues    EBANDS =        59.34556333
  atomic energy  EATOM  =      5565.54386186
  Solvation  Ediel_sol  =         0.00000000
  ---------------------------------------------------
  free energy    TOTEN  =      -297.27997526 eV

  energy without entropy =     -297.27997526  energy(sigma->0) =     -297.27997526


--------------------------------------------------------------------------------------------------------




----------------------------------------- Iteration    1(   6)  ---------------------------------------


    POTLOK:  cpu time    0.5720: real time    0.5714
    SETDIJ:  cpu time    0.0160: real time    0.0171
     EDDAV:  cpu time   65.3840: real time   65.3689
       DOS:  cpu time    0.0000: real time    0.0014
    CHARGE:  cpu time    2.0480: real time    2.0480
    MIXING:  cpu time    0.0120: real time    0.0112
    --------------------------------------------
      LOOP:  cpu time   68.0320: real time   68.0188

 eigenvalue-minimisations  :  4752
 total energy-change (2. order) : 0.3346625E+01  (-0.1858026E+00)
 number of electron     215.9999999 magnetization 
 augmentation part      -12.5535000 magnetization 

 Broyden mixing:
  rms(total) = 0.15579E+01    rms(broyden)= 0.15579E+01
  rms(prec ) = 0.17650E+01
  weight for this iteration     100.00

 eigenvalues of (default mixing * dielectric matrix)
  average eigenvalue GAMMA=   2.5774
  2.5774

 Free energy of the ion-electron system (eV)
  ---------------------------------------------------
  alpha Z        PSCENC =        90.39434736
  Ewald energy   TEWEN  =     -6160.40926460
  -Hartree energ DENC   =      -339.73462522
  -exchange      EXHF   =         0.00000000
  -V(xc)+E(xc)   XCENC  =      -496.37650786
  PAW double counting   =     10272.25110707    -9325.16709317
  entropy T*S    EENTRO =        -0.00000000
  eigenvalues    EBANDS =        99.56482443
  atomic energy  EATOM  =      5565.54386186
  Solvation  Ediel_sol  =         0.00000000
  ---------------------------------------------------
  free energy    TOTEN  =      -293.93335014 eV

  energy without entropy =     -293.93335014  energy(sigma->0) =     -293.93335014


--------------------------------------------------------------------------------------------------------




----------------------------------------- Iteration    1(   7)  ---------------------------------------


    POTLOK:  cpu time    0.5080: real time    0.5059
    SETDIJ:  cpu time    0.0160: real time    0.0159
     EDDAV:  cpu time   65.7800: real time   65.7626
       DOS:  cpu time    0.0040: real time    0.0020
    CHARGE:  cpu time    2.0440: real time    2.0468
    MIXING:  cpu time    0.0160: real time    0.0124
    --------------------------------------------
      LOOP:  cpu time   68.3680: real time   68.3463

 eigenvalue-minimisations  :  4736
 total energy-change (2. order) : 0.1508161E+01  (-0.3999393E+00)
 number of electron     215.9999999 magnetization 
 augmentation part      -12.3527538 magnetization 

 Broyden mixing:
  rms(total) = 0.92893E-01    rms(broyden)= 0.92892E-01
  rms(prec ) = 0.12128E+00
  weight for this iteration     100.00

 eigenvalues of (default mixing * dielectric matrix)
  average eigenvalue GAMMA=   2.1396
  2.0520  2.2272

 Free energy of the ion-electron system (eV)
  ---------------------------------------------------
  alpha Z        PSCENC =        90.39434736
  Ewald energy   TEWEN  =     -6160.40926460
  -Hartree energ DENC   =      -408.21768258
  -exchange      EXHF   =         0.00000000
  -V(xc)+E(xc)   XCENC  =      -485.33302296
  PAW double counting   =     24085.53618590   -23142.40684511
  entropy T*S    EENTRO =        -0.00000000
  eigenvalues    EBANDS =       162.46723079
  atomic energy  EATOM  =      5565.54386186
  Solvation  Ediel_sol  =         0.00000000
  ---------------------------------------------------
  free energy    TOTEN  =      -292.42518935 eV

  energy without entropy =     -292.42518935  energy(sigma->0) =     -292.42518935


--------------------------------------------------------------------------------------------------------




----------------------------------------- Iteration    1(   8)  ---------------------------------------


    POTLOK:  cpu time    0.5320: real time    0.5338
    SETDIJ:  cpu time    0.0160: real time    0.0161
     EDDAV:  cpu time   65.0400: real time   65.0183
       DOS:  cpu time    0.0000: real time    0.0013
    CHARGE:  cpu time    2.0280: real time    2.0284
    MIXING:  cpu time    0.0160: real time    0.0147
    --------------------------------------------
      LOOP:  cpu time   67.6320: real time   67.6134

 eigenvalue-minimisations  :  4704
 total energy-change (2. order) :-0.1963351E-01  (-0.2223771E-01)
 number of electron     215.9999999 magnetization 
 augmentation part      -12.3808598 magnetization 

 Broyden mixing:
  rms(total) = 0.39540E-01    rms(broyden)= 0.39538E-01
  rms(prec ) = 0.46307E-01
  weight for this iteration     100.00

 eigenvalues of (default mixing * dielectric matrix)
  average eigenvalue GAMMA=   2.2412
  2.7529  1.9853  1.9853

 Free energy of the ion-electron system (eV)
  ---------------------------------------------------
  alpha Z        PSCENC =        90.39434736
  Ewald energy   TEWEN  =     -6160.40926460
  -Hartree energ DENC   =      -403.16124439
  -exchange      EXHF   =         0.00000000
  -V(xc)+E(xc)   XCENC  =      -485.83439499
  PAW double counting   =     23677.61484628   -22733.61863066
  entropy T*S    EENTRO =        -0.00000000
  eigenvalues    EBANDS =       157.02565629
  atomic energy  EATOM  =      5565.54386186
  Solvation  Ediel_sol  =         0.00000000
  ---------------------------------------------------
  free energy    TOTEN  =      -292.44482285 eV

  energy without entropy =     -292.44482285  energy(sigma->0) =     -292.44482285


--------------------------------------------------------------------------------------------------------




----------------------------------------- Iteration    1(   9)  ---------------------------------------


    POTLOK:  cpu time    0.5680: real time    0.5669
    SETDIJ:  cpu time    0.0160: real time    0.0155
     EDDAV:  cpu time   68.6240: real time   68.6019
       DOS:  cpu time    0.0000: real time    0.0010
    CHARGE:  cpu time    2.0800: real time    2.0818
    MIXING:  cpu time    0.0160: real time    0.0158
    --------------------------------------------
      LOOP:  cpu time   71.3040: real time   71.2837

 eigenvalue-minimisations  :  5072
 total energy-change (2. order) :-0.6579079E-02  (-0.1104943E-02)
 number of electron     215.9999999 magnetization 
 augmentation part      -12.3829083 magnetization 

 Broyden mixing:
  rms(total) = 0.29465E-01    rms(broyden)= 0.29465E-01
  rms(prec ) = 0.31244E-01
  weight for this iteration     100.00

 eigenvalues of (default mixing * dielectric matrix)
  average eigenvalue GAMMA=   1.8705
  2.6074  2.1289  2.1289  0.6168

 Free energy of the ion-electron system (eV)
  ---------------------------------------------------
  alpha Z        PSCENC =        90.39434736
  Ewald energy   TEWEN  =     -6160.40926460
  -Hartree energ DENC   =      -404.90964339
  -exchange      EXHF   =         0.00000000
  -V(xc)+E(xc)   XCENC  =      -485.52667413
  PAW double counting   =     23828.80833407   -22884.82614671
  entropy T*S    EENTRO =        -0.00000000
  eigenvalues    EBANDS =       158.47378362
  atomic energy  EATOM  =      5565.54386186
  Solvation  Ediel_sol  =         0.00000000
  ---------------------------------------------------
  free energy    TOTEN  =      -292.45140193 eV

  energy without entropy =     -292.45140193  energy(sigma->0) =     -292.45140193


--------------------------------------------------------------------------------------------------------




----------------------------------------- Iteration    1(  10)  ---------------------------------------


    POTLOK:  cpu time    0.5440: real time    0.5429
    SETDIJ:  cpu time    0.0160: real time    0.0165
     EDDAV:  cpu time   63.0840: real time   63.0630
       DOS:  cpu time    0.0000: real time    0.0012
    CHARGE:  cpu time    2.0960: real time    2.0940
    MIXING:  cpu time    0.0160: real time    0.0152
    --------------------------------------------
      LOOP:  cpu time   65.7560: real time   65.7337

 eigenvalue-minimisations  :  4560
 total energy-change (2. order) :-0.1188578E-02  (-0.1423039E-03)
 number of electron     215.9999999 magnetization 
 augmentation part      -12.3855236 magnetization 

 Broyden mixing:
  rms(total) = 0.11812E-01    rms(broyden)= 0.11812E-01
  rms(prec ) = 0.12736E-01
  weight for this iteration     100.00

 eigenvalues of (default mixing * dielectric matrix)
  average eigenvalue GAMMA=   1.9734
  3.0972  2.2575  2.2575  1.1273  1.1273

 Free energy of the ion-electron system (eV)
  ---------------------------------------------------
  alpha Z        PSCENC =        90.39434736
  Ewald energy   TEWEN  =     -6160.40926460
  -Hartree energ DENC   =      -404.61931007
  -exchange      EXHF   =         0.00000000
  -V(xc)+E(xc)   XCENC  =      -485.56486374
  PAW double counting   =     23598.50581962   -22654.46304298
  entropy T*S    EENTRO =        -0.00000000
  eigenvalues    EBANDS =       158.15986204
  atomic energy  EATOM  =      5565.54386186
  Solvation  Ediel_sol  =         0.00000000
  ---------------------------------------------------
  free energy    TOTEN  =      -292.45259051 eV

  energy without entropy =     -292.45259051  energy(sigma->0) =     -292.45259051


--------------------------------------------------------------------------------------------------------




----------------------------------------- Iteration    1(  11)  ---------------------------------------


    POTLOK:  cpu time    0.5720: real time    0.5702
    SETDIJ:  cpu time    0.0160: real time    0.0165
     EDDAV:  cpu time   61.9840: real time   61.9664
       DOS:  cpu time    0.0000: real time    0.0012
    CHARGE:  cpu time    2.0800: real time    2.0789
    MIXING:  cpu time    0.0160: real time    0.0151
    --------------------------------------------
      LOOP:  cpu time   64.6680: real time   64.6493

 eigenvalue-minimisations  :  4496
 total energy-change (2. order) :-0.4556404E-03  (-0.6346266E-04)
 number of electron     215.9999999 magnetization 
 augmentation part      -12.3859145 magnetization 

 Broyden mixing:
  rms(total) = 0.28236E-02    rms(broyden)= 0.28236E-02
  rms(prec ) = 0.29348E-02
  weight for this iteration     100.00

 eigenvalues of (default mixing * dielectric matrix)
  average eigenvalue GAMMA=   1.8545
  2.9014  2.2535  2.2535  1.5378  1.3239  0.8571

 Free energy of the ion-electron system (eV)
  ---------------------------------------------------
  alpha Z        PSCENC =        90.39434736
  Ewald energy   TEWEN  =     -6160.40926460
  -Hartree energ DENC   =      -404.88676053
  -exchange      EXHF   =         0.00000000
  -V(xc)+E(xc)   XCENC  =      -485.51989550
  PAW double counting   =     23523.32169539   -22579.25653218
  entropy T*S    EENTRO =        -0.00000000
  eigenvalues    EBANDS =       158.35950206
  atomic energy  EATOM  =      5565.54386186
  Solvation  Ediel_sol  =         0.00000000
  ---------------------------------------------------
  free energy    TOTEN  =      -292.45304615 eV

  energy without entropy =     -292.45304615  energy(sigma->0) =     -292.45304615


--------------------------------------------------------------------------------------------------------




----------------------------------------- Iteration    1(  12)  ---------------------------------------


    POTLOK:  cpu time    0.5640: real time    0.5637
    SETDIJ:  cpu time    0.0160: real time    0.0164
     EDDAV:  cpu time   63.8520: real time   63.8337
       DOS:  cpu time    0.0040: real time    0.0009
    CHARGE:  cpu time    1.5640: real time    1.5640
    MIXING:  cpu time    0.0120: real time    0.0128
    --------------------------------------------
      LOOP:  cpu time   66.0120: real time   65.9921

 eigenvalue-minimisations  :  5280
 total energy-change (2. order) :-0.4502072E-05  (-0.1858456E-05)
 number of electron     215.9999999 magnetization 
 augmentation part      -12.3860035 magnetization 

 Broyden mixing:
  rms(total) = 0.20159E-02    rms(broyden)= 0.20159E-02
  rms(prec ) = 0.20991E-02
  weight for this iteration     100.00

 eigenvalues of (default mixing * dielectric matrix)
  average eigenvalue GAMMA=   1.7884
  3.0385  2.3755  2.3755  1.7836  1.2414  0.8523  0.8523

 Free energy of the ion-electron system (eV)
  ---------------------------------------------------
  alpha Z        PSCENC =        90.39434736
  Ewald energy   TEWEN  =     -6160.40926460
  -Hartree energ DENC   =      -404.88752860
  -exchange      EXHF   =         0.00000000
  -V(xc)+E(xc)   XCENC  =      -485.52311979
  PAW double counting   =     23522.88293621   -22578.81746155
  entropy T*S    EENTRO =        -0.00000000
  eigenvalues    EBANDS =       158.36317846
  atomic energy  EATOM  =      5565.54386186
  Solvation  Ediel_sol  =         0.00000000
  ---------------------------------------------------
  free energy    TOTEN  =      -292.45305065 eV

  energy without entropy =     -292.45305065  energy(sigma->0) =     -292.45305065


--------------------------------------------------------------------------------------------------------




----------------------------------------- Iteration    1(  13)  ---------------------------------------


    POTLOK:  cpu time    0.3920: real time    0.3918
    SETDIJ:  cpu time    0.0160: real time    0.0140
     EDDAV:  cpu time   51.8840: real time   51.8725
       DOS:  cpu time    0.0040: real time    0.0011
    CHARGE:  cpu time    2.0640: real time    2.0643
    MIXING:  cpu time    0.0160: real time    0.0187
    --------------------------------------------
      LOOP:  cpu time   54.3800: real time   54.3632

 eigenvalue-minimisations  :  4640
 total energy-change (2. order) :-0.4251309E-05  (-0.7914815E-06)
 number of electron     215.9999999 magnetization 
 augmentation part      -12.3859152 magnetization 

 Broyden mixing:
  rms(total) = 0.54244E-03    rms(broyden)= 0.54244E-03
  rms(prec ) = 0.57699E-03
  weight for this iteration     100.00

 eigenvalues of (default mixing * dielectric matrix)
  average eigenvalue GAMMA=   1.7697
  3.0799  2.4615  2.1674  2.1674  1.2308  1.2308  0.9565  0.8631

 Free energy of the ion-electron system (eV)
  ---------------------------------------------------
  alpha Z        PSCENC =        90.39434736
  Ewald energy   TEWEN  =     -6160.40926460
  -Hartree energ DENC   =      -404.90964397
  -exchange      EXHF   =         0.00000000
  -V(xc)+E(xc)   XCENC  =      -485.52259966
  PAW double counting   =     23507.97416469   -22563.90814024
  entropy T*S    EENTRO =        -0.00000000
  eigenvalues    EBANDS =       158.38421966
  atomic energy  EATOM  =      5565.54386186
  Solvation  Ediel_sol  =         0.00000000
  ---------------------------------------------------
  free energy    TOTEN  =      -292.45305490 eV

  energy without entropy =     -292.45305490  energy(sigma->0) =     -292.45305490


--------------------------------------------------------------------------------------------------------




----------------------------------------- Iteration    1(  14)  ---------------------------------------


    POTLOK:  cpu time    0.5320: real time    0.5304
    SETDIJ:  cpu time    0.0120: real time    0.0154
     EDDAV:  cpu time   68.7760: real time   68.7535
       DOS:  cpu time    0.0000: real time    0.0009
    CHARGE:  cpu time    2.0400: real time    2.0386
    MIXING:  cpu time    0.0160: real time    0.0175
    --------------------------------------------
      LOOP:  cpu time   71.3800: real time   71.3584

 eigenvalue-minimisations  :  5040
 total energy-change (2. order) : 0.1332588E-05  (-0.7171477E-07)
 number of electron     215.9999999 magnetization 
 augmentation part      -12.3859453 magnetization 

 Broyden mixing:
  rms(total) = 0.14257E-03    rms(broyden)= 0.14257E-03
  rms(prec ) = 0.16001E-03
  weight for this iteration     100.00

 eigenvalues of (default mixing * dielectric matrix)
  average eigenvalue GAMMA=   1.7603
  3.1748  2.5422  2.2317  2.2317  1.4892  1.0770  1.0770  1.0943  0.9246

 Free energy of the ion-electron system (eV)
  ---------------------------------------------------
  alpha Z        PSCENC =        90.39434736
  Ewald energy   TEWEN  =     -6160.40926460
  -Hartree energ DENC   =      -404.90025140
  -exchange      EXHF   =         0.00000000
  -V(xc)+E(xc)   XCENC  =      -485.52438091
  PAW double counting   =     23507.79373735   -22563.72638623
  entropy T*S    EENTRO =        -0.00000000
  eigenvalues    EBANDS =       158.37528300
  atomic energy  EATOM  =      5565.54386186
  Solvation  Ediel_sol  =         0.00000000
  ---------------------------------------------------
  free energy    TOTEN  =      -292.45305357 eV

  energy without entropy =     -292.45305357  energy(sigma->0) =     -292.45305357


--------------------------------------------------------------------------------------------------------




----------------------------------------- Iteration    1(  15)  ---------------------------------------


    POTLOK:  cpu time    0.5680: real time    0.5683
    SETDIJ:  cpu time    0.0160: real time    0.0161
     EDDAV:  cpu time   48.6000: real time   48.5879
       DOS:  cpu time    0.0040: real time    0.0011
    CHARGE:  cpu time    2.0280: real time    2.0302
    MIXING:  cpu time    0.0200: real time    0.0165
    --------------------------------------------
      LOOP:  cpu time   51.2360: real time   51.2210

 eigenvalue-minimisations  :  3152
 total energy-change (2. order) :-0.2757697E-06  (-0.1435079E-07)
 number of electron     215.9999999 magnetization 
 augmentation part      -12.3859270 magnetization 

 Broyden mixing:
  rms(total) = 0.11451E-03    rms(broyden)= 0.11451E-03
  rms(prec ) = 0.11582E-03
  weight for this iteration     100.00

 eigenvalues of (default mixing * dielectric matrix)
  average eigenvalue GAMMA=   1.7653
  3.2826  2.6538  2.2732  2.2732  1.9104  1.2074  1.2074  1.0834  0.8809  0.8809

 Free energy of the ion-electron system (eV)
  ---------------------------------------------------
  alpha Z        PSCENC =        90.39434736
  Ewald energy   TEWEN  =     -6160.40926460
  -Hartree energ DENC   =      -404.90283855
  -exchange      EXHF   =         0.00000000
  -V(xc)+E(xc)   XCENC  =      -485.52458438
  PAW double counting   =     23506.78913182   -22562.72182971
  entropy T*S    EENTRO =        -0.00000000
  eigenvalues    EBANDS =       158.37812235
  atomic energy  EATOM  =      5565.54386186
  Solvation  Ediel_sol  =         0.00000000
  ---------------------------------------------------
  free energy    TOTEN  =      -292.45305385 eV

  energy without entropy =     -292.45305385  energy(sigma->0) =     -292.45305385


--------------------------------------------------------------------------------------------------------




----------------------------------------- Iteration    1(  16)  ---------------------------------------


    POTLOK:  cpu time    0.5800: real time    0.5812
    SETDIJ:  cpu time    0.0160: real time    0.0163
     EDDAV:  cpu time   42.3080: real time   42.2955
       DOS:  cpu time    0.0000: real time    0.0008
    --------------------------------------------
      LOOP:  cpu time   42.9040: real time   42.8945

 eigenvalue-minimisations  :  2688
 total energy-change (2. order) : 0.3410241E-07  (-0.1683932E-08)
 number of electron     215.9999999 magnetization 
 augmentation part      -12.3859270 magnetization 

 Free energy of the ion-electron system (eV)
  ---------------------------------------------------
  alpha Z        PSCENC =        90.39434736
  Ewald energy   TEWEN  =     -6160.40926460
  -Hartree energ DENC   =      -404.90302130
  -exchange      EXHF   =         0.00000000
  -V(xc)+E(xc)   XCENC  =      -485.52458151
  PAW double counting   =     23507.23648213   -22563.16914585
  entropy T*S    EENTRO =        -0.00000000
  eigenvalues    EBANDS =       158.37826810
  atomic energy  EATOM  =      5565.54386186
  Solvation  Ediel_sol  =         0.00000000
  ---------------------------------------------------
  free energy    TOTEN  =      -292.45305381 eV

  energy without entropy =     -292.45305381  energy(sigma->0) =     -292.45305381


--------------------------------------------------------------------------------------------------------




 average (electrostatic) potential at core
  the test charge radii are     0.9892
  (the norm of the test charge is              1.0000)
       1 -83.2933       2 -83.2650       3 -83.2859       4 -83.3020       5 -83.3206
       6 -83.2893       7 -83.2762       8 -83.2929       9 -83.2814      10 -83.3023
      11 -83.3065      12 -83.2938      13 -83.3020      14 -83.3280      15 -83.3166
      16 -83.2821      17 -83.2795      18 -83.2966      19 -83.2808      20 -83.2873
      21 -83.2862      22 -83.2931      23 -83.3097      24 -83.2813      25 -83.3104
      26 -83.2949      27 -83.2938      28 -83.2807      29 -83.2633      30 -83.2964
      31 -83.3103      32 -83.2928      33 -83.2995      34 -83.3141      35 -83.3059
      36 -83.3138      37 -83.3030      38 -83.3209      39 -83.3188      40 -83.3002
      41 -83.2857      42 -83.2911      43 -83.3056      44 -83.2883      45 -83.2820
      46 -83.3012      47 -83.2940      48 -83.3152      49 -83.3068      50 -83.3174
      51 -83.3205      52 -83.3083      53 -83.3271      54 -83.3174



 E-fermi :   6.0891     XC(G=0):  -9.3917     alpha+bet :-11.9268


 k-point     1 :       0.0000    0.0000    0.0000
  band No.  band energies     occupation 
      1      -6.1490      2.00000
      2      -4.8296      2.00000
      3      -4.8177      2.00000
      4      -4.8043      2.00000
      5      -4.7822      2.00000
      6      -4.7695      2.00000
      7      -4.7604      2.00000
      8      -4.7439      2.00000
      9      -4.7253      2.00000
     10      -4.2951      2.00000
     11      -4.2818      2.00000
     12      -4.2555      2.00000
     13      -4.2412      2.00000
     14      -4.2296      2.00000
     15      -4.1984      2.00000
     16      -2.9834      2.00000
     17      -2.9496      2.00000
     18      -2.9387      2.00000
     19      -2.9253      2.00000
     20      -2.9137      2.00000
     21      -2.9123      2.00000
     22      -2.8916      2.00000
     23      -2.8762      2.00000
     24      -2.8640      2.00000
     25      -2.8523      2.00000
     26      -2.8370      2.00000
     27      -2.8215      2.00000
     28      -1.0386      2.00000
     29      -1.0337      2.00000
     30      -1.0151      2.00000
     31      -0.9962      2.00000
     32      -0.9939      2.00000
     33      -0.9888      2.00000
     34      -0.9675      2.00000
     35      -0.9594      2.00000
     36      -0.9468      2.00000
     37      -0.9408      2.00000
     38      -0.9246      2.00000
     39      -0.8921      2.00000
     40       0.3980      2.00000
     41       0.4192      2.00000
     42       0.4498      2.00000
     43       0.4629      2.00000
     44       0.4666      2.00000
     45       0.4729      2.00000
     46       0.5014      2.00000
     47       0.5225      2.00000
     48       0.7364      2.00000
     49       0.7508      2.00000
     50       0.7784      2.00000
     51       0.7907      2.00000
     52       0.8042      2.00000
     53       0.8167      2.00000
     54       1.3508      2.00000
     55       1.3675      2.00000
     56       1.3724      2.00000
     57       1.3809      2.00000
     58       1.3851      2.00000
     59       1.3936      2.00000
     60       1.3976      2.00000
     61       1.4007      2.00000
     62       1.4087      2.00000
     63       1.4163      2.00000
     64       1.4293      2.00000
     65       1.4329      2.00000
     66       3.3078      2.00000
     67       3.3141      2.00000
     68       3.3260      2.00000
     69       3.3401      2.00000
     70       3.3505      2.00000
     71       3.3606      2.00000
     72       3.3631      2.00000
     73       3.3837      2.00000
     74       3.4070      2.00000
     75       3.4287      2.00000
     76       3.4416      2.00000
     77       3.4634      2.00000
     78       3.6181      2.00000
     79       3.6319      2.00000
     80       3.6412      2.00000
     81       3.6502      2.00000
     82       3.6582      2.00000
     83       3.6659      2.00000
     84       3.6794      2.00000
     85       3.6976      2.00000
     86       3.7206      2.00000
     87       3.7302      2.00000
     88       3.7381      2.00000
     89       3.7705      2.00000
     90       4.6791      2.00000
     91       4.7104      2.00000
     92       4.7240      2.00000
     93       4.7297      2.00000
     94       4.7419      2.00000
     95       4.7616      2.00000
     96       4.7680      2.00000
     97       4.7764      2.00000
     98       4.7865      2.00000
     99       4.8110      2.00000
    100       4.8166      2.00000
    101       4.8186      2.00000
    102       4.8333      2.00000
    103       4.8530      2.00000
    104       4.8914      2.00000
    105       4.9163      2.00000
    106       5.7452      2.00000
    107       5.7665      2.00000
    108       5.8531      2.00000
    109       6.4783      0.00000
    110       6.4854      0.00000
    111       6.4952      0.00000
    112       6.5285      0.00000
    113       6.5295      0.00000
    114       6.5640      0.00000
    115       7.2805      0.00000
    116       7.2931      0.00000
    117       7.3029      0.00000
    118       7.3167      0.00000
    119       7.3203      0.00000
    120       7.3308      0.00000
    121       7.3377      0.00000
    122       7.3615      0.00000
    123       7.3901      0.00000
    124       7.3991      0.00000
    125       7.4109      0.00000
    126       7.4438      0.00000
    127       7.4776      0.00000
    128       7.4811      0.00000
    129       7.4993      0.00000
    130       7.5186      0.00000
    131       7.5193      0.00000
    132       7.5499      0.00000
    133       7.6082      0.00000
    134       7.6111      0.00000
    135       7.7544      0.00000
    136       7.7726      0.00000
    137       7.7774      0.00000
    138       7.7898      0.00000
    139       7.8034      0.00000
    140       7.8122      0.00000
    141       8.2633      0.00000
    142       8.3705      0.00000
    143       8.3961      0.00000
    144       9.1125      0.00000

 k-point     2 :       0.3333    0.0000    0.0000
  band No.  band energies     occupation 
      1      -5.9874      2.00000
      2      -5.5123      2.00000
      3      -4.9350      2.00000
      4      -4.9177      2.00000
      5      -4.8795      2.00000
      6      -4.7529      2.00000
      7      -4.7402      2.00000
      8      -4.7023      2.00000
      9      -4.3887      2.00000
     10      -4.3634      2.00000
     11      -4.3246      2.00000
     12      -3.9743      2.00000
     13      -3.7205      2.00000
     14      -3.6915      2.00000
     15      -3.6545      2.00000
     16      -3.5277      2.00000
     17      -3.5182      2.00000
     18      -3.4767      2.00000
     19      -2.9529      2.00000
     20      -2.9242      2.00000
     21      -2.9080      2.00000
     22      -2.8937      2.00000
     23      -2.8784      2.00000
     24      -2.8539      2.00000
     25      -2.7286      2.00000
     26      -2.7073      2.00000
     27      -2.6700      2.00000
     28      -1.2227      2.00000
     29      -1.1722      2.00000
     30      -1.1635      2.00000
     31      -1.0619      2.00000
     32      -1.0418      2.00000
     33      -1.0273      2.00000
     34      -1.0258      2.00000
     35      -1.0057      2.00000
     36      -0.9646      2.00000
     37      -0.9293      2.00000
     38      -0.4133      2.00000
     39      -0.4037      2.00000
     40      -0.3772      2.00000
     41      -0.3137      2.00000
     42      -0.2639      2.00000
     43      -0.2481      2.00000
     44      -0.0496      2.00000
     45      -0.0247      2.00000
     46       0.0112      2.00000
     47       1.0521      2.00000
     48       1.0847      2.00000
     49       1.1337      2.00000
     50       1.4131      2.00000
     51       1.4471      2.00000
     52       1.4604      2.00000
     53       1.6489      2.00000
     54       1.6546      2.00000
     55       1.6690      2.00000
     56       1.6804      2.00000
     57       1.6890      2.00000
     58       1.7072      2.00000
     59       1.7451      2.00000
     60       1.7586      2.00000
     61       1.7836      2.00000
     62       2.0378      2.00000
     63       2.0561      2.00000
     64       2.0910      2.00000
     65       2.3781      2.00000
     66       2.6389      2.00000
     67       2.6566      2.00000
     68       2.6980      2.00000
     69       3.1577      2.00000
     70       3.1685      2.00000
     71       3.1760      2.00000
     72       3.1829      2.00000
     73       3.2031      2.00000
     74       3.2201      2.00000
     75       3.2232      2.00000
     76       3.2597      2.00000
     77       3.2700      2.00000
     78       3.2820      2.00000
     79       3.3066      2.00000
     80       3.3807      2.00000
     81       3.4573      2.00000
     82       3.4766      2.00000
     83       3.5052      2.00000
     84       3.5263      2.00000
     85       3.5567      2.00000
     86       3.5877      2.00000
     87       3.7285      2.00000
     88       3.7558      2.00000
     89       3.8393      2.00000
     90       4.1670      2.00000
     91       4.1920      2.00000
     92       4.2159      2.00000
     93       4.2539      2.00000
     94       4.2690      2.00000
     95       4.2788      2.00000
     96       4.3055      2.00000
     97       4.3253      2.00000
     98       4.4061      2.00000
     99       4.4570      2.00000
    100       4.5673      2.00000
    101       4.6338      2.00000
    102       4.6893      2.00000
    103       4.7181      2.00000
    104       4.7939      2.00000
    105       5.0825      2.00000
    106       5.1604      2.00000
    107       5.5074      2.00000
    108       5.5924      2.00000
    109       6.7082      0.00000
    110       6.7317      0.00000
    111       6.8026      0.00000
    112       6.8986      0.00000
    113       6.9268      0.00000
    114       7.0133      0.00000
    115       7.2234      0.00000
    116       7.2365      0.00000
    117       7.2882      0.00000
    118       7.3071      0.00000
    119       7.7840      0.00000
    120       7.8046      0.00000
    121       7.8723      0.00000
    122       7.8939      0.00000
    123       7.9197      0.00000
    124       7.9417      0.00000
    125       8.0250      0.00000
    126       8.0600      0.00000
    127       8.0785      0.00000
    128       8.1113      0.00000
    129       8.1541      0.00000
    130       8.1692      0.00000
    131       8.2486      0.00000
    132       8.2643      0.00000
    133       8.2725      0.00000
    134       8.2847      0.00000
    135       8.3012      0.00000
    136       8.3258      0.00000
    137       8.3558      0.00000
    138       8.3987      0.00000
    139       8.6523      0.00000
    140       8.7235      0.00000
    141       8.9526      0.00000
    142       8.9635      0.00000
    143       8.9909      0.00000
    144       9.1030      0.00000

 k-point     3 :       0.0000    0.3333    0.0000
  band No.  band energies     occupation 
      1      -5.9871      2.00000
      2      -5.5117      2.00000
      3      -4.9396      2.00000
      4      -4.9067      2.00000
      5      -4.8921      2.00000
      6      -4.7515      2.00000
      7      -4.7315      2.00000
      8      -4.7068      2.00000
      9      -4.3963      2.00000
     10      -4.3467      2.00000
     11      -4.3352      2.00000
     12      -3.9743      2.00000
     13      -3.7314      2.00000
     14      -3.6757      2.00000
     15      -3.6653      2.00000
     16      -3.5305      2.00000
     17      -3.5125      2.00000
     18      -3.4743      2.00000
     19      -2.9443      2.00000
     20      -2.9371      2.00000
     21      -2.9102      2.00000
     22      -2.8874      2.00000
     23      -2.8799      2.00000
     24      -2.8287      2.00000
     25      -2.7332      2.00000
     26      -2.7066      2.00000
     27      -2.6890      2.00000
     28      -1.1943      2.00000
     29      -1.1684      2.00000
     30      -1.1378      2.00000
     31      -1.0831      2.00000
     32      -1.0551      2.00000
     33      -1.0350      2.00000
     34      -1.0288      2.00000
     35      -1.0087      2.00000
     36      -0.9939      2.00000
     37      -0.8909      2.00000
     38      -0.4241      2.00000
     39      -0.4070      2.00000
     40      -0.3829      2.00000
     41      -0.2855      2.00000
     42      -0.2631      2.00000
     43      -0.2426      2.00000
     44      -0.0438      2.00000
     45      -0.0323      2.00000
     46      -0.0207      2.00000
     47       1.0452      2.00000
     48       1.0848      2.00000
     49       1.1004      2.00000
     50       1.4096      2.00000
     51       1.4219      2.00000
     52       1.4469      2.00000
     53       1.6330      2.00000
     54       1.6573      2.00000
     55       1.6649      2.00000
     56       1.6745      2.00000
     57       1.6856      2.00000
     58       1.6955      2.00000
     59       1.7532      2.00000
     60       1.7648      2.00000
     61       1.7714      2.00000
     62       2.0571      2.00000
     63       2.0681      2.00000
     64       2.1149      2.00000
     65       2.4201      2.00000
     66       2.6426      2.00000
     67       2.6840      2.00000
     68       2.6901      2.00000
     69       3.1610      2.00000
     70       3.1739      2.00000
     71       3.1893      2.00000
     72       3.1963      2.00000
     73       3.2098      2.00000
     74       3.2291      2.00000
     75       3.2358      2.00000
     76       3.2547      2.00000
     77       3.2746      2.00000
     78       3.2859      2.00000
     79       3.3066      2.00000
     80       3.3201      2.00000
     81       3.4907      2.00000
     82       3.5133      2.00000
     83       3.5320      2.00000
     84       3.5566      2.00000
     85       3.5733      2.00000
     86       3.6413      2.00000
     87       3.7320      2.00000
     88       3.7612      2.00000
     89       3.7713      2.00000
     90       4.1701      2.00000
     91       4.1865      2.00000
     92       4.2038      2.00000
     93       4.2494      2.00000
     94       4.2760      2.00000
     95       4.3077      2.00000
     96       4.3246      2.00000
     97       4.3364      2.00000
     98       4.3456      2.00000
     99       4.5074      2.00000
    100       4.5550      2.00000
    101       4.6020      2.00000
    102       4.6908      2.00000
    103       4.7138      2.00000
    104       4.7250      2.00000
    105       5.0803      2.00000
    106       5.1114      2.00000
    107       5.5135      2.00000
    108       5.5332      2.00000
    109       6.7138      0.00000
    110       6.7264      0.00000
    111       6.7534      0.00000
    112       6.9004      0.00000
    113       6.9268      0.00000
    114       6.9449      0.00000
    115       7.2233      0.00000
    116       7.2378      0.00000
    117       7.2647      0.00000
    118       7.2778      0.00000
    119       7.7622      0.00000
    120       7.8445      0.00000
    121       7.8731      0.00000
    122       7.8825      0.00000
    123       7.9221      0.00000
    124       7.9452      0.00000
    125       7.9630      0.00000
    126       8.0744      0.00000
    127       8.1050      0.00000
    128       8.1117      0.00000
    129       8.1343      0.00000
    130       8.1750      0.00000
    131       8.2154      0.00000
    132       8.2537      0.00000
    133       8.2741      0.00000
    134       8.2808      0.00000
    135       8.3433      0.00000
    136       8.3554      0.00000
    137       8.3944      0.00000
    138       8.4217      0.00000
    139       8.6284      0.00000
    140       8.7342      0.00000
    141       8.9728      0.00000
    142       8.9836      0.00000
    143       9.0040      0.00000
    144       9.1198      0.00000

 k-point     4 :       0.3333    0.3333    0.0000
  band No.  band energies     occupation 
      1      -5.9345      2.00000
      2      -5.2985      2.00000
      3      -5.1929      2.00000
      4      -5.1598      2.00000
      5      -5.1348      2.00000
      6      -5.1314      2.00000
      7      -4.1440      2.00000
      8      -4.1235      2.00000
      9      -4.0978      2.00000
     10      -4.0781      2.00000
     11      -4.0666      2.00000
     12      -4.0559      2.00000
     13      -4.0494      2.00000
     14      -4.0381      2.00000
     15      -3.6315      2.00000
     16      -3.5935      2.00000
     17      -3.5686      2.00000
     18      -3.5565      2.00000
     19      -3.3285      2.00000
     20      -3.2792      2.00000
     21      -3.2568      2.00000
     22      -3.2422      2.00000
     23      -2.8425      2.00000
     24      -2.2436      2.00000
     25      -2.2215      2.00000
     26      -2.1987      2.00000
     27      -2.1631      2.00000
     28      -1.6418      2.00000
     29      -1.6168      2.00000
     30      -1.6022      2.00000
     31      -1.5623      2.00000
     32      -1.1345      2.00000
     33      -0.9965      2.00000
     34      -0.9856      2.00000
     35      -0.9587      2.00000
     36      -0.9425      2.00000
     37      -0.5283      2.00000
     38      -0.5160      2.00000
     39      -0.4903      2.00000
     40      -0.4581      2.00000
     41      -0.2528      2.00000
     42      -0.2335      2.00000
     43      -0.2188      2.00000
     44      -0.1940      2.00000
     45       0.4424      2.00000
     46       0.4798      2.00000
     47       0.4871      2.00000
     48       0.5011      2.00000
     49       1.6495      2.00000
     50       1.6693      2.00000
     51       1.6914      2.00000
     52       1.6969      2.00000
     53       1.7077      2.00000
     54       1.7204      2.00000
     55       1.7286      2.00000
     56       1.7487      2.00000
     57       1.7998      2.00000
     58       1.8087      2.00000
     59       1.8313      2.00000
     60       1.8495      2.00000
     61       2.2090      2.00000
     62       2.2259      2.00000
     63       2.2469      2.00000
     64       2.2587      2.00000
     65       2.6691      2.00000
     66       2.6791      2.00000
     67       2.6975      2.00000
     68       2.7178      2.00000
     69       2.7243      2.00000
     70       2.7326      2.00000
     71       2.7534      2.00000
     72       2.7661      2.00000
     73       2.7737      2.00000
     74       2.9452      2.00000
     75       3.0511      2.00000
     76       3.3886      2.00000
     77       3.3991      2.00000
     78       3.4050      2.00000
     79       3.4198      2.00000
     80       3.6075      2.00000
     81       3.6302      2.00000
     82       3.6474      2.00000
     83       3.6785      2.00000
     84       3.7192      2.00000
     85       3.7588      2.00000
     86       3.7657      2.00000
     87       3.7725      2.00000
     88       3.7980      2.00000
     89       3.8057      2.00000
     90       3.8224      2.00000
     91       3.8384      2.00000
     92       3.8540      2.00000
     93       3.8600      2.00000
     94       3.8831      2.00000
     95       3.9096      2.00000
     96       4.0735      2.00000
     97       4.1722      2.00000
     98       4.2061      2.00000
     99       4.2302      2.00000
    100       4.2800      2.00000
    101       4.3324      2.00000
    102       4.6670      2.00000
    103       5.0603      2.00000
    104       5.1282      2.00000
    105       5.1477      2.00000
    106       5.1584      2.00000
    107       5.2105      2.00000
    108       5.2308      2.00000
    109       6.3684      0.00000
    110       6.7832      0.00000
    111       7.0952      0.00000
    112       7.5169      0.00000
    113       7.5313      0.00000
    114       7.5619      0.00000
    115       7.5757      0.00000
    116       7.6090      0.00000
    117       7.6283      0.00000
    118       7.6484      0.00000
    119       7.6557      0.00000
    120       7.7523      0.00000
    121       7.7733      0.00000
    122       7.7975      0.00000
    123       7.8804      0.00000
    124       7.9014      0.00000
    125       7.9297      0.00000
    126       7.9513      0.00000
    127       8.0048      0.00000
    128       8.0567      0.00000
    129       8.4291      0.00000
    130       8.4461      0.00000
    131       8.5286      0.00000
    132       8.5697      0.00000
    133       8.5800      0.00000
    134       8.6100      0.00000
    135       8.6248      0.00000
    136       8.6424      0.00000
    137       8.7687      0.00000
    138       8.7905      0.00000
    139       8.8008      0.00000
    140       8.8687      0.00000
    141       9.1175      0.00000
    142       9.1538      0.00000
    143       9.1789      0.00000
    144       9.2135      0.00000

 k-point     5 :      -0.3333    0.3333    0.0000
  band No.  band energies     occupation 
      1      -5.7190      2.00000
      2      -5.5696      2.00000
      3      -5.5567      2.00000
      4      -5.1200      2.00000
      5      -5.0870      2.00000
      6      -4.4968      2.00000
      7      -4.3966      2.00000
      8      -4.3847      2.00000
      9      -4.3630      2.00000
     10      -4.3314      2.00000
     11      -3.9436      2.00000
     12      -3.9106      2.00000
     13      -3.6993      2.00000
     14      -3.6806      2.00000
     15      -3.6296      2.00000
     16      -3.5992      2.00000
     17      -3.5516      2.00000
     18      -3.5412      2.00000
[...]
    101       4.5824      2.00000
    102       4.6214      2.00000
    103       4.6609      2.00000
    104       4.7074      2.00000
    105       4.7700      2.00000
    106       4.7810      2.00000
    107       4.8050      2.00000
    108       5.6026      2.00000
    109       6.6621      0.00000
    110       7.3546      0.00000
    111       7.3908      0.00000
    112       7.4472      0.00000
    113       7.4710      0.00000
    114       7.4984      0.00000
    115       7.7227      0.00000
    116       7.7926      0.00000
    117       7.9478      0.00000
    118       7.9551      0.00000
    119       7.9682      0.00000
    120       7.9893      0.00000
    121       8.0092      0.00000
    122       8.0214      0.00000
    123       8.0700      0.00000
    124       8.0814      0.00000
    125       8.1041      0.00000
    126       8.1672      0.00000
    127       8.4936      0.00000
    128       8.5232      0.00000
    129       8.5382      0.00000
    130       8.5504      0.00000
    131       8.5600      0.00000
    132       8.5750      0.00000
    133       8.5847      0.00000
    134       8.6214      0.00000
    135       8.6399      0.00000
    136       8.8247      0.00000
    137       8.8458      0.00000
    138       8.9224      0.00000
    139       8.9432      0.00000
    140       8.9738      0.00000
    141       9.0059      0.00000
    142       9.0285      0.00000
    143       9.1694      0.00000
    144       9.2154      0.00000


--------------------------------------------------------------------------------------------------------


 soft charge-density along one line, spin component           1
         0         1         2         3         4         5         6         7         8         9
 total charge-density along one line

 pseudopotential strength for first ion, spin component:           1
 18.419   0.000  25.697   0.000  -0.001   0.000   0.000   0.000  -0.001   0.000  -0.001   0.000   0.001   0.000  -0.001   0.000
 25.697   0.000  35.856   0.000  -0.001   0.000   0.001   0.000  -0.001   0.000  -0.002   0.000   0.001   0.000  -0.002   0.000
 -0.001   0.000  -0.001   0.000   4.179   0.000  -0.000   0.000   0.000   0.000   7.787   0.000  -0.000   0.000   0.000   0.000
  0.000   0.000   0.001   0.000  -0.000   0.000   4.179   0.000  -0.000   0.000  -0.000   0.000   7.787   0.000  -0.000   0.000
 -0.001   0.000  -0.001   0.000   0.000   0.000  -0.000   0.000   4.179   0.000   0.000   0.000  -0.000   0.000   7.787   0.000
 -0.001   0.000  -0.002   0.000   7.787   0.000  -0.000   0.000   0.000   0.000  14.522   0.000  -0.000   0.000   0.000   0.000
  0.001   0.000   0.001   0.000  -0.000   0.000   7.787   0.000  -0.000   0.000  -0.000   0.000  14.522   0.000  -0.000   0.000
 -0.001   0.000  -0.002   0.000   0.000   0.000  -0.000   0.000   7.787   0.000   0.000   0.000  -0.000   0.000  14.522   0.000
 total augmentation occupancy for first ion, spin component:           1
  5.682  -2.148  -0.032  -0.007  -0.021   0.010   0.003   0.006
 -2.148   0.927   0.015   0.004   0.010  -0.005  -0.002  -0.003
 -0.032   0.015   3.017  -0.030   0.006  -0.687   0.010  -0.003
 -0.007   0.004  -0.030   2.988  -0.042   0.010  -0.676   0.013
 -0.021   0.010   0.006  -0.042   3.010  -0.003   0.013  -0.684
  0.010  -0.005  -0.687   0.010  -0.003   0.165  -0.003   0.001
  0.003  -0.002   0.010  -0.676   0.013  -0.003   0.161  -0.004
  0.006  -0.003  -0.003   0.013  -0.684   0.001  -0.004   0.164


------------------------ aborting loop because EDIFF is reached ----------------------------------------


    CHARGE:  cpu time    1.8840: real time    1.8861
    FORLOC:  cpu time    0.1640: real time    0.1639
    FORNL :  cpu time   22.9600: real time   22.9528
    STRESS:  cpu time   52.6960: real time   52.6796
    FORCOR:  cpu time    0.5800: real time    0.5781
    FORHAR:  cpu time    0.2720: real time    0.2718
    MIXING:  cpu time    0.0120: real time    0.0147
    OFIELD:  cpu time    0.0000: real time    0.0000

  FORCE on cell =-STRESS in cart. coord.  units (eV):
  Direction    XX          YY          ZZ          XY          YZ          ZX
  --------------------------------------------------------------------------------------
  Alpha Z    90.39435    90.39435    90.39435
  Ewald   -2063.28781 -2045.34287 -2051.81839    -6.19675    16.26069     2.99439
  Hartree   133.25085   136.41140   135.24077    -3.29432     2.80223     2.07956
  E(xc)    -684.30076  -684.32886  -684.32133     0.05924    -0.14700    -0.02930
  Local    -779.66684  -801.88747  -793.81288    10.20947   -18.46332    -5.61307
  n-local  2098.70012  2101.39667  2100.44703    -0.63982     3.17053     0.18866
  augment  -314.59735  -314.60683  -314.60494     0.27735    -0.23561    -0.17645
  Kinetic  1532.07538  1526.48262  1528.52289    -4.59728     0.00125     3.26143
  Fock        0.00000     0.00000     0.00000     0.00000     0.00000     0.00000
  -------------------------------------------------------------------------------------
  Total      12.56794     8.51902    10.04751    -4.18211     3.38877     2.70523
  in kB      18.54275    12.56896    14.82409    -6.17028     4.99979     3.99129
  external pressure =       15.31 kB  Pullay stress =        0.00 kB


 VOLUME and BASIS-vectors are now :
 -----------------------------------------------------------------------------
  energy-cutoff  :      350.00
  volume of cell :     1085.93
      direct lattice vectors                 reciprocal lattice vectors
     0.011347529  8.168380714  8.149504231    -0.061582946  0.061466311  0.061183916
     8.108068182  0.020725108  8.140126652     0.061921042 -0.061271333  0.061327034
     8.164399608  8.215334561 -0.035606319     0.061074765  0.060763152 -0.060988938

  length of vectors
    11.538500399 11.489249805 11.582331834     0.106367468  0.106533548  0.105555379


 FORCES acting on ions
    electron-ion (+dipol)            ewald-force                    non-local-force                 convergence-correction
 -----------------------------------------------------------------------------------------------
   -.216E+00 -.104E+01 0.255E+00   0.265E+00 0.106E+01 -.377E+00   0.164E+00 0.259E+00 0.454E-01   0.428E-05 -.175E-04 0.419E-04
   0.409E+00 0.143E+01 0.849E+00   -.435E+00 -.134E+01 -.600E+00   0.164E-01 -.601E+00 -.501E-01   0.324E-05 0.320E-05 -.190E-06
   0.885E-01 -.595E+00 0.592E+00   -.117E+00 0.580E+00 -.630E+00   -.517E-02 0.382E+00 -.204E+00   -.144E-04 0.104E-04 0.180E-04
   -.731E+00 -.925E+00 0.975E+00   0.593E+00 0.696E+00 -.727E+00   0.194E+00 0.161E+00 -.297E+00   -.199E-04 0.282E-05 0.203E-04
   0.164E+00 0.248E+00 -.170E+01   -.914E-01 -.161E+00 0.145E+01   -.178E+00 -.192E-01 0.514E+00   0.817E-05 0.700E-05 -.262E-04
   0.960E+00 -.984E+00 0.114E+01   -.809E+00 0.880E+00 -.841E+00   -.431E+00 0.349E-01 -.522E+00   0.146E-04 -.582E-05 0.434E-05
   0.218E+01 0.882E+00 -.481E+00   -.208E+01 -.748E+00 0.336E+00   -.599E+00 -.288E+00 -.242E-01   0.209E-04 0.228E-04 -.107E-04
   0.224E+00 -.916E+00 -.101E+01   -.222E+00 0.641E+00 0.102E+01   0.114E+00 0.254E+00 0.173E+00   0.103E-04 -.693E-06 -.199E-04
   0.255E+00 0.765E+00 -.295E+00   -.102E+00 -.586E+00 0.140E+00   -.120E+00 0.938E-01 0.802E-01   -.220E-04 0.122E-05 0.187E-04
   -.439E-01 -.144E+01 -.133E+00   0.845E-01 0.105E+01 0.215E+00   -.223E+00 0.627E+00 0.162E-02   -.325E-04 0.695E-05 -.532E-05
   -.144E+01 0.144E+01 -.202E+01   0.133E+01 -.116E+01 0.175E+01   0.487E+00 -.538E+00 0.465E+00   -.366E-04 0.117E-04 -.403E-04
   -.619E-01 0.221E+00 0.570E+00   0.464E-01 -.199E+00 -.348E+00   0.160E+00 0.802E-01 -.730E-01   0.582E-05 0.141E-04 -.116E-06
   -.976E+00 -.153E+01 -.163E+01   0.876E+00 0.153E+01 0.137E+01   0.156E+00 0.305E+00 0.486E+00   -.326E-04 -.431E-04 -.260E-04
   -.154E+01 -.126E+00 0.285E+01   0.136E+01 0.388E-01 -.240E+01   0.463E+00 -.110E-02 -.940E+00   -.664E-05 0.145E-04 0.214E-04
   0.809E+00 0.145E+01 -.277E+01   -.713E+00 -.118E+01 0.234E+01   -.249E+00 -.480E+00 0.852E+00   0.116E-04 0.759E-05 -.532E-05
   -.105E+01 0.202E+01 0.220E+01   0.927E+00 -.186E+01 -.189E+01   0.511E+00 -.573E+00 -.535E+00   0.229E-05 0.140E-04 0.281E-04
   0.196E+01 0.190E+01 0.224E+01   -.183E+01 -.162E+01 -.213E+01   -.488E+00 -.583E+00 -.703E+00   0.445E-04 0.161E-04 0.471E-04
   -.725E+00 -.204E+01 -.118E+01   0.591E+00 0.172E+01 0.983E+00   0.309E+00 0.634E+00 0.470E+00   -.545E-05 -.214E-04 -.205E-04
   0.134E+01 -.988E+00 -.202E+00   -.115E+01 0.918E+00 0.137E-01   -.364E+00 0.625E+00 0.265E-01   0.249E-04 -.107E-04 -.540E-05
   0.844E+00 0.463E+00 0.971E+00   -.896E+00 -.514E+00 -.811E+00   -.167E+00 -.161E+00 0.270E-01   0.292E-04 -.748E-05 0.555E-05
   0.128E+00 0.754E-01 -.333E+00   -.160E+00 -.141E-01 0.159E+00   0.244E+00 -.226E+00 0.122E+00   0.296E-04 -.433E-05 0.849E-05
   0.905E+00 -.290E+01 0.962E+00   -.746E+00 0.254E+01 -.761E+00   -.582E+00 0.858E+00 -.482E+00   0.122E-04 -.369E-04 0.121E-04
   -.497E+00 -.165E+01 -.169E+01   0.451E+00 0.162E+01 0.138E+01   0.190E+00 0.335E+00 0.583E+00   0.177E-05 -.447E-04 0.271E-05
   0.106E+01 0.651E+00 0.264E+01   -.856E+00 -.703E+00 -.216E+01   -.415E+00 -.336E+00 -.641E+00   0.918E-05 0.237E-05 0.332E-04
   0.247E+01 0.316E+01 -.648E+00   -.216E+01 -.268E+01 0.474E+00   -.863E+00 -.865E+00 0.116E-01   0.292E-05 0.307E-04 -.444E-05
   -.255E+01 0.332E+00 -.660E+00   0.227E+01 -.504E+00 0.627E+00   0.800E+00 0.181E+00 0.247E+00   -.108E-04 0.462E-04 -.594E-05
   -.292E+01 0.271E+01 -.113E+01   0.270E+01 -.228E+01 0.937E+00   0.582E+00 -.972E+00 0.364E+00   -.466E-04 0.829E-05 -.338E-05
   -.207E+01 -.508E+00 0.110E+01   0.187E+01 0.517E+00 -.844E+00   0.587E+00 0.808E-01 -.491E+00   -.305E-04 -.550E-05 -.733E-05
   0.721E-01 0.262E+01 0.123E+00   -.598E-01 -.232E+01 -.396E+00   -.153E+00 -.651E+00 0.225E+00   -.177E-04 0.301E-04 0.160E-04
   -.231E+01 -.768E-02 0.286E+01   0.190E+01 -.188E+00 -.246E+01   0.945E+00 0.330E+00 -.862E+00   -.267E-04 0.193E-04 0.246E-04
   0.230E+01 0.135E+01 -.836E+00   -.187E+01 -.114E+01 0.679E+00   -.111E+01 -.348E+00 0.170E+00   0.317E-05 0.223E-04 -.105E-04
   -.223E+01 -.481E+00 -.114E+01   0.203E+01 0.267E+00 0.114E+01   0.830E+00 0.176E+00 0.359E+00   -.629E-05 0.594E-05 -.225E-04
   0.116E+01 -.651E+00 -.212E+01   -.107E+01 0.524E+00 0.170E+01   -.499E+00 0.411E+00 0.823E+00   0.190E-04 -.199E-04 -.132E-04
   0.167E+01 -.639E+00 0.136E+01   -.148E+01 0.529E+00 -.108E+01   -.375E+00 0.235E+00 -.344E+00   0.340E-04 0.539E-05 -.171E-04
   -.532E+00 0.705E+00 0.529E+00   0.490E+00 -.451E+00 -.500E+00   -.648E-03 -.443E+00 -.332E-01   -.120E-04 -.189E-04 0.571E-05
   -.175E+01 -.210E+01 0.851E+00   0.156E+01 0.177E+01 -.636E+00   0.462E+00 0.614E+00 -.239E+00   -.322E-04 -.462E-05 -.154E-05
   -.104E+01 -.105E+01 -.316E+00   0.991E+00 0.994E+00 0.827E-01   0.303E+00 0.288E+00 0.234E+00   -.302E-04 -.366E-04 0.253E-04
   0.106E+01 -.148E+01 0.251E+01   -.111E+01 0.139E+01 -.215E+01   -.246E+00 0.101E+00 -.744E+00   0.314E-04 -.365E-04 0.430E-04
   0.120E+01 0.295E+00 -.119E+00   -.105E+01 -.426E-01 0.511E-01   -.628E-01 -.380E+00 0.127E+00   0.327E-04 -.103E-04 -.461E-05
   0.482E-02 0.152E-01 0.669E+00   -.135E+00 -.167E+00 -.500E+00   0.188E+00 -.671E-02 -.861E-01   0.138E-04 -.128E-04 -.248E-05
   0.203E+01 0.109E+01 0.104E+00   -.179E+01 -.921E+00 -.331E+00   -.427E+00 -.105E+00 -.606E-01   0.325E-04 0.265E-04 0.252E-04
   -.680E+00 -.320E+00 0.313E-01   0.576E+00 0.229E+00 0.376E-02   0.264E+00 0.108E+00 0.993E-01   0.470E-05 -.137E-04 -.158E-04
   0.199E+00 -.151E-01 -.134E+01   -.191E+00 0.633E-01 0.115E+01   0.416E-01 -.759E-01 0.305E+00   0.516E-05 -.209E-05 -.251E-04
   0.161E+00 -.616E+00 0.340E+00   -.113E+00 0.609E+00 -.104E+00   0.911E-01 0.254E+00 -.222E+00   0.562E-05 -.161E-04 -.134E-04
   0.217E+00 -.989E+00 -.205E+01   -.763E-01 0.897E+00 0.174E+01   -.202E+00 0.321E+00 0.450E+00   -.190E-04 -.147E-04 -.162E-04
   -.109E+01 0.508E+00 0.944E+00   0.920E+00 -.589E+00 -.676E+00   0.262E+00 -.283E+00 -.313E+00   0.964E-05 0.135E-04 -.428E-05
   0.135E+01 -.562E+00 -.229E+01   -.110E+01 0.501E+00 0.197E+01   -.567E+00 0.199E+00 0.664E+00   0.795E-05 0.886E-05 -.327E-04
   -.295E+00 -.291E+00 -.152E+01   0.199E+00 0.227E+00 0.149E+01   -.116E+00 0.352E-01 0.195E+00   -.224E-06 -.354E-05 -.440E-04
   -.184E+00 0.120E+01 -.355E+00   0.195E+00 -.100E+01 0.841E-01   -.194E+00 -.408E+00 0.346E-01   -.111E-04 0.270E-04 0.230E-04
   -.247E+01 -.175E+01 0.731E+00   0.228E+01 0.151E+01 -.447E+00   0.596E+00 0.309E+00 -.222E+00   -.583E-04 -.185E-04 0.226E-05
   0.149E+01 0.157E+01 0.188E+00   -.135E+01 -.124E+01 -.353E+00   -.486E+00 -.280E+00 -.132E+00   0.143E-04 0.227E-04 -.150E-05
   0.313E+00 -.199E+00 -.759E+00   -.405E+00 0.785E-01 0.866E+00   0.194E+00 0.448E-02 0.942E-01   0.137E-04 0.157E-04 -.327E-04
   -.126E+00 -.139E+00 -.491E+00   0.206E+00 0.159E+00 0.346E+00   0.234E-02 0.836E-01 -.195E+00   -.226E-04 -.312E-04 -.495E-05
   0.531E+00 -.202E+00 0.629E+00   -.537E+00 0.586E-01 -.353E+00   -.443E-01 0.251E+00 0.174E+00   0.311E-04 0.205E-04 0.156E-04
 -----------------------------------------------------------------------------------------------
   0.851E-02 -.564E-02 -.814E-02   -.191E-13 0.417E-13 -.136E-12   -.858E-02 0.569E-02 0.814E-02   -.816E-08 0.412E-07 -.118E-05


 POSITION                                       TOTAL-FORCE (eV/Angst)
 -----------------------------------------------------------------------------------
      8.14793      8.20248     -0.01979         0.214185      0.283359     -0.076728
      1.36419      1.39049      1.33596        -0.009348     -0.509717      0.199263
      2.72824      2.73033      0.00725        -0.033571      0.367338     -0.241584
      4.08425      4.12134      1.34983         0.056103     -0.068986     -0.048410
      5.47588     13.63212      8.10591        -0.105365      0.067714      0.263745
      6.80658      6.85010      1.33288        -0.280623     -0.068945     -0.218422
      2.72876      0.02186      2.72509        -0.497486     -0.153871     -0.169807
      4.05008      1.38565      4.07340         0.116089     -0.020351      0.181087
      5.42357     10.88728     10.85807         0.033479      0.272822     -0.074528
      6.77346      4.10755      4.03381        -0.181973      0.235887      0.083439
      8.11997      5.48966      2.66819         0.376811     -0.252035      0.198756
      9.49669      6.84567      4.03289         0.144399      0.102349      0.148671
     13.56418     16.37663     13.52894         0.055353      0.308527      0.229100
      6.74112      1.38445      6.80002         0.280993     -0.088352     -0.487793
      8.12339      2.77211      5.39246        -0.153194     -0.206921      0.428875
      9.47934      4.13351      6.76961         0.383701     -0.406395     -0.231547
     10.87244      5.49216      5.42896        -0.361956     -0.297098     -0.594151
     12.20888      6.83563      6.73986         0.175176      0.314259      0.271982
      8.18319     10.91292      2.68709        -0.172273      0.554711     -0.161417
      1.38703      4.10856      4.04793        -0.218929     -0.212497      0.186923
     10.83758      5.50779     10.85375         0.212303     -0.164825     -0.051705
      4.10482      6.81336      4.08171        -0.422764      0.496499     -0.280665
      5.43768      8.17714      2.68930         0.143625      0.304149      0.272188
      6.81775      9.59049      4.05706        -0.212646     -0.387880     -0.162426
      2.72629      2.75597      5.45496        -0.555090     -0.385405     -0.162635
      4.04187      4.11793      6.77623         0.520016      0.009969      0.214350
      5.41342      5.49026      5.42094         0.355884     -0.542199      0.171974
      6.76107      6.83494      6.79224         0.386148      0.090382     -0.235832
      8.14731      8.21868      5.41826        -0.141158     -0.345395     -0.047930
      9.48189      9.56424      6.78560         0.529432      0.134834     -0.466766
      5.42717      2.75294      8.14680        -0.676378     -0.137527      0.013579
      6.74467      4.11587      9.47799         0.621858     -0.038387      0.353611
      8.15197      5.45609      8.10824        -0.404988      0.283493      0.398324
      9.51157      6.83396      9.47141        -0.182055      0.125701     -0.070363
     10.86154      8.21264      8.10903        -0.042504     -0.188941     -0.003713
     12.19393      9.56397      9.47159         0.269086      0.285502     -0.024207
      8.15865     13.64222      5.39431         0.257363      0.227507      0.000624
      1.37121      6.81735      6.80807        -0.296990      0.008216     -0.381472
     10.82074      8.21687     13.55687         0.090453     -0.127047      0.058103
      4.07785      9.55232      6.77565         0.058063     -0.158795      0.083054
      5.45400     10.90802      5.43338        -0.181879      0.066874     -0.287218
      6.80913     12.27624      6.74314         0.159867      0.016962      0.134333
      2.70626      5.45707      8.14609         0.049477     -0.027659      0.121597
      4.05863      6.79974      9.50987         0.138962      0.246489      0.014394
      5.42486      8.17682      8.15120        -0.061325      0.229570      0.144203
      6.80240      9.58412      9.48678         0.087290     -0.363851     -0.045255
      8.17909     10.93618      8.10742        -0.324606      0.139133      0.342610
      9.53529     12.30188      9.46654        -0.211224     -0.028405      0.169872
      5.42503      5.46809     10.87398        -0.183156     -0.207180     -0.235947
      6.75321      6.82652     12.21184         0.405464      0.071846      0.061191
      8.15691      8.18053     10.85909        -0.343993      0.049335     -0.296051
      9.47173      9.57579     12.19003         0.101812     -0.116347      0.200814
     10.84728     10.91736     10.86005         0.082709      0.103806     -0.340059
     12.23004     12.28889     12.16436        -0.050628      0.107778      0.449970
 -----------------------------------------------------------------------------------
    total drift:                               -0.000068      0.000046     -0.000009


--------------------------------------------------------------------------------------------------------



  FREE ENERGIE OF THE ION-ELECTRON SYSTEM (eV)
  ---------------------------------------------------
  free  energy   TOTEN  =      -292.45305381 eV

  energy  without entropy=     -292.45305381  energy(sigma->0) =     -292.45305381



--------------------------------------------------------------------------------------------------------


    POTLOK:  cpu time    0.5000: real time    0.4985


--------------------------------------------------------------------------------------------------------


 writing wavefunctions
     LOOP+:  cpu time 1111.6880: real time 1111.3619
    4ORBIT:  cpu time    0.0000: real time    0.0000

 total amount of memory used by VASP on root node   133086. kBytes
========================================================================

   base      :      30000. kBytes
   nonl-proj :      28582. kBytes
   fftplans  :      14925. kBytes
   grid      :      25804. kBytes
   one-center:        165. kBytes
   wavefun   :      33610. kBytes

  
  
 General timing and accounting informations for this job:
 ========================================================
  
                  Total CPU time used (sec):     1130.308
                            User time (sec):     1094.452
                          System time (sec):       35.856
                         Elapsed time (sec):     1130.092
  
                   Maximum memory used (kb):      169192.
                   Average memory used (kb):           0.
  
                          Minor page faults:     11385368
                          Major page faults:            8
                 Voluntary context switches:          900
