       N       E                     dE             d eps       ncg     rms          rms(c)
DAV:   1     0.464113269602E+03    0.46411E+03   -0.65254E+04  4032   0.907E+02
DAV:   2    -0.239972692006E+03   -0.70409E+03   -0.67098E+03  4896   0.157E+02
DAV:   3    -0.284015525408E+03   -0.44043E+02   -0.43467E+02  5040   0.371E+01
DAV:   4    -0.284917221287E+03   -0.90170E+00   -0.89744E+00  5120   0.636E+00
DAV:   5    -0.284936013039E+03   -0.18792E-01   -0.18774E-01  5008   0.908E-01    0.241E+01
DAV:   6    -0.281652594269E+03    0.32834E+01   -0.18590E+00  4736   0.238E+00    0.148E+01
DAV:   7    -0.280214412757E+03    0.14382E+01   -0.39208E+00  4688   0.351E+00    0.971E-01
DAV:   8    -0.280231505248E+03   -0.17092E-01   -0.25021E-01  4752   0.106E+00    0.480E-01
DAV:   9    -0.280238275463E+03   -0.67702E-02   -0.18694E-02  5040   0.289E-01    0.317E-01
DAV:  10    -0.280239318655E+03   -0.10432E-02   -0.18398E-03  4608   0.824E-02    0.179E-01
DAV:  11    -0.280240158479E+03   -0.83982E-03   -0.91938E-04  4480   0.667E-02    0.677E-02
DAV:  12    -0.280240190838E+03   -0.32359E-04   -0.60251E-05  5072   0.160E-02    0.313E-02
DAV:  13    -0.280240202282E+03   -0.11444E-04   -0.17630E-05  4640   0.938E-03    0.889E-03
DAV:  14    -0.280240200697E+03    0.15852E-05   -0.24996E-06  4960   0.360E-03    0.413E-03
DAV:  15    -0.280240202133E+03   -0.14363E-05   -0.10486E-06  4736   0.226E-03    0.151E-03
DAV:  16    -0.280240202055E+03    0.78522E-07   -0.76476E-08  2688   0.704E-04
   1 F= -.28024020E+03 E0= -.28024020E+03  d E =-.392004E-11
