 vasp.5.4.1 24Jun15 (build Jan 30 2017 21:57:38) complex                         
 executed on           IFC91_ompi date 2018.07.26  12:09:30
 running on   16 total cores
 distrk:  each k-point on   16 cores,    1 groups
 distr:  one band on NCORES_PER_BAND=   1 cores,   16 groups


--------------------------------------------------------------------------------------------------------


 INCAR:
 POTCAR:    PAW_PBE Si 05Jan2001                  
 POTCAR:    PAW_PBE Ge 05Jan2001                  

 ----------------------------------------------------------------------------- 
|                                                                             |
|           W    W    AA    RRRRR   N    N  II  N    N   GGGG   !!!           |
|           W    W   A  A   R    R  NN   N  II  NN   N  G    G  !!!           |
|           W    W  A    A  R    R  N N  N  II  N N  N  G       !!!           |
|           W WW W  AAAAAA  RRRRR   N  N N  II  N  N N  G  GGG   !            |
|           WW  WW  A    A  R   R   N   NN  II  N   NN  G    G                |
|           W    W  A    A  R    R  N    N  II  N    N   GGGG   !!!           |
|                                                                             |
|      For optimal performance we recommend to set                            |
|        NCORE= 4 - approx SQRT( number of cores)                             |
|      NCORE specifies how many cores store one orbital (NPAR=cpu/NCORE).     |
|      This setting can  greatly improve the performance of VASP for DFT.     |
|      The default, NPAR=number of cores might be grossly inefficient         |
|      on modern multi-core architectures or massively parallel machines.     |
|      Do your own testing !!!!                                               |
|      Unfortunately you need to use the default for GW and RPA calculations. |
|      (for HF NCORE is supported but not extensively tested yet)             |
|                                                                             |
 ----------------------------------------------------------------------------- 

 POTCAR:    PAW_PBE Si 05Jan2001                  
   VRHFIN =Si: s2p2                                                             
   LEXCH  = PE                                                                  
   EATOM  =   103.0669 eV,    7.5752 Ry                                         
                                                                                
   TITEL  = PAW_PBE Si 05Jan2001                                                
   LULTRA =        F    use ultrasoft PP ?                                      
   IUNSCR =        1    unscreen: 0-lin 1-nonlin 2-no                           
   RPACOR =    1.500    partial core radius                                     
   POMASS =   28.085; ZVAL   =    4.000    mass and valenz                      
   RCORE  =    1.900    outmost cutoff radius                                   
   RWIGS  =    2.480; RWIGS  =    1.312    wigner-seitz radius (au A)           
   ENMAX  =  245.345; ENMIN  =  184.009 eV                                      
   ICORE  =        2    local potential                                         
   LCOR   =        T    correct aug charges                                     
   LPAW   =        T    paw PP                                                  
   EAUG   =  322.069                                                            
   DEXC   =    0.000                                                            
   RMAX   =    1.950    core radius for proj-oper                               
   RAUG   =    1.300    factor for augmentation sphere                          
   RDEP   =    1.993    radius for radial grids                                 
   RDEPT  =    1.837    core radius for aug-charge                              
                                                                                
   Atomic configuration                                                         
    6 entries                                                                   
     n  l   j            E        occ.                                          
     1  0  0.50     -1785.8828   2.0000                                         
     2  0  0.50      -139.4969   2.0000                                         
     2  1  1.50       -95.5546   6.0000                                         
     3  0  0.50       -10.8127   2.0000                                         
     3  1  0.50        -4.0811   2.0000                                         
     3  2  1.50        -4.0817   0.0000                                         
   Description                                                                  
     l       E           TYP  RCUT    TYP  RCUT                                 
     0    -10.8127223     23  1.900                                             
     0     -7.6451159     23  1.900                                             
     1     -4.0811372     23  1.900                                             
     1      2.4879257     23  1.900                                             
     2     -4.0817478      7  1.900                                             
  local pseudopotential read in
  partial core-charges read in
  partial kinetic energy density read in
  atomic valenz-charges read in
  non local Contribution for L=           0  read in
    real space projection operators read in
  non local Contribution for L=           0  read in
    real space projection operators read in
  non local Contribution for L=           1  read in
    real space projection operators read in
  non local Contribution for L=           1  read in
    real space projection operators read in
    PAW grid and wavefunctions read in

   number of l-projection  operators is LMAX  =           4
   number of lm-projection operators is LMMAX =           8

 POTCAR:    PAW_PBE Ge 05Jan2001                  
   VRHFIN =Ge: s2p2                                                             
   LEXCH  = PE                                                                  
   EATOM  =   104.9960 eV,    7.7170 Ry                                         
                                                                                
   TITEL  = PAW_PBE Ge 05Jan2001                                                
   LULTRA =        F    use ultrasoft PP ?                                      
   IUNSCR =        1    unscreen: 0-lin 1-nonlin 2-no                           
   RPACOR =    2.170    partial core radius                                     
   POMASS =   72.610; ZVAL   =    4.000    mass and valenz                      
   RCORE  =    2.300    outmost cutoff radius                                   
   RWIGS  =    2.300; RWIGS  =    1.217    wigner-seitz radius (au A)           
   ENMAX  =  173.807; ENMIN  =  130.355 eV                                      
   ICORE  =        3    local potential                                         
   LCOR   =        T    correct aug charges                                     
   LPAW   =        T    paw PP                                                  
   EAUG   =  385.843                                                            
   DEXC   =    0.000                                                            
   RMAX   =    2.342    core radius for proj-oper                               
   RAUG   =    1.300    factor for augmentation sphere                          
   RDEP   =    2.318    radius for radial grids                                 
   RDEPT  =    2.103    core radius for aug-charge                              
                                                                                
   Atomic configuration                                                         
   10 entries                                                                   
     n  l   j            E        occ.                                          
     1  0  0.50    -10959.8463   2.0000                                         
     2  0  0.50     -1371.6056   2.0000                                         
     2  1  1.50     -1198.4791   6.0000                                         
     3  0  0.50      -168.4733   2.0000                                         
     3  1  1.50      -115.6019   6.0000                                         
     3  2  2.50       -29.3106  10.0000                                         
     4  0  0.50       -11.7309   2.0000                                         
     4  1  0.50        -3.8952   2.0000                                         
     4  2  1.50        -4.0817   0.0000                                         
     4  3  2.50        -4.0817   0.0000                                         
   Description                                                                  
     l       E           TYP  RCUT    TYP  RCUT                                 
     0    -11.7309493     23  2.300                                             
     0     -7.4578696     23  2.300                                             
     1     -3.8952261     23  2.300                                             
     1      6.1178114     23  2.300                                             
     2     -4.0817478     23  2.300                                             
     3     -1.3605826      7  2.300                                             
  local pseudopotential read in
  partial core-charges read in
  partial kinetic energy density read in
  atomic valenz-charges read in
  non local Contribution for L=           0  read in
    real space projection operators read in
  non local Contribution for L=           0  read in
    real space projection operators read in
  non local Contribution for L=           1  read in
    real space projection operators read in
  non local Contribution for L=           1  read in
    real space projection operators read in
  non local Contribution for L=           2  read in
    real space projection operators read in
    PAW grid and wavefunctions read in

   number of l-projection  operators is LMAX  =           5
   number of lm-projection operators is LMMAX =          13


 ----------------------------------------------------------------------------- 
|                                                                             |
|  ADVICE TO THIS USER RUNNING 'VASP/VAMP'   (HEAR YOUR MASTER'S VOICE ...):  |
|                                                                             |
|      You have a (more or less) 'large supercell' and for larger cells       |
|      it might be more efficient to use real space projection opertators     |
|      So try LREAL= Auto  in the INCAR   file.                               |
|      Mind: At the moment your POTCAR file does not contain real space       |
|       projectors, and has to be modified,  BUT if you                       |
|      want to do an extremely  accurate calculation you might also keep the  |
|      reciprocal projection scheme          (i.e. LREAL=.FALSE.)             |
|                                                                             |
 ----------------------------------------------------------------------------- 

  PAW_PBE Si 05Jan2001                  :
 energy of atom  1       EATOM= -103.0669
 kinetic energy error for atom=    0.0013 (will be added to EATOM!!)
  PAW_PBE Ge 05Jan2001                  :
 energy of atom  2       EATOM= -104.9960
 kinetic energy error for atom=    0.0005 (will be added to EATOM!!)


 POSCAR: supercell                               
  positions in direct lattice
  No initial velocities read in
 exchange correlation table for  LEXCH =        8
   RHO(1)=    0.500       N(1)  =     2000
   RHO(2)=  100.500       N(2)  =     4000



--------------------------------------------------------------------------------------------------------


 ion  position               nearest neighbor table
   1  0.083  0.086  0.084-  46 2.33   2 2.34  44 2.36  48 2.38
   2  0.001  1.000  0.334-   3 2.33  12 2.33   1 2.34  32 2.38
   3  0.084  0.081  0.417-   2 2.33  45 2.33  15 2.34   6 2.37
   4  0.082  0.081  0.749-  45 2.32  44 2.37  17 2.38   8 2.38
   5  0.085  0.416  0.081-  10 2.34  19 2.36  46 2.37   6 2.38
   6  0.997  0.334  0.336-   7 2.34  37 2.35   3 2.37   5 2.38
   7  0.082  0.416  0.417-   8 2.33  47 2.34   6 2.34  21 2.36
   8  0.001  0.335  0.666-   9 2.33   7 2.33  39 2.37   4 2.38
   9  0.085  0.417  0.746-   8 2.33  13 2.33  50 2.34  46 2.35
  10  0.999  0.666  0.001-  14 2.33   5 2.34  40 2.35  11 2.38
  11  0.081  0.751  0.086-  44 2.34  47 2.34  51 2.38  10 2.38
  12  0.082  0.751  0.415-   2 2.33  47 2.35  13 2.37  25 2.39
  13  0.001  0.666  0.668-   9 2.33  14 2.34  43 2.36  12 2.37
  14  0.082  0.749  0.752-  10 2.33  13 2.34  45 2.36  27 2.38
  15  0.331  0.001  0.335-   3 2.34  16 2.35  26 2.36  49 2.38
  16  0.416  0.081  0.418-  17 2.32  15 2.35  21 2.38  31 2.40
  17  0.333  0.000  0.666-  16 2.32  28 2.35   4 2.38  18 2.39
  18  0.417  0.086  0.750-  48 2.33  50 2.34  52 2.37  17 2.39
  19  0.333  0.333  0.998-  23 2.33  49 2.33   5 2.36  20 2.40
  20  0.417  0.418  0.083-  51 2.34  21 2.35  34 2.35  19 2.40
  21  0.330  0.335  0.334-  20 2.35   7 2.36  16 2.38  22 2.39
  22  0.418  0.418  0.417-  50 2.33  25 2.33  36 2.33  21 2.39
  23  0.417  0.418  0.748-  19 2.33  38 2.35  50 2.35  27 2.37
  24  0.417  0.750  0.082-  25 2.33  48 2.33  51 2.33  53 2.35
  25  0.334  0.667  0.331-  24 2.33  22 2.33  26 2.38  12 2.39
  26  0.416  0.749  0.419-  27 2.30  15 2.36  25 2.38  41 2.38
  27  0.333  0.670  0.665-  26 2.30  28 2.35  23 2.37  14 2.38
  28  0.417  0.750  0.750-  17 2.35  51 2.35  27 2.35  42 2.38
  29  0.666  0.001  0.999-  33 2.31  49 2.34  30 2.35  40 2.35
  30  0.751  0.079  0.084-  31 2.32  29 2.35  44 2.36  34 2.37
  31  0.670  0.999  0.332-  30 2.32  32 2.36  54 2.36  16 2.40
  32  0.750  0.083  0.419-  52 2.31  36 2.35  31 2.36   2 2.38
  33  0.750  0.083  0.752-  29 2.31  38 2.33  45 2.37  52 2.40
  34  0.665  0.332  0.003-  35 2.33  39 2.35  20 2.35  30 2.37
  35  0.748  0.416  0.083-  34 2.33  36 2.36  53 2.38  46 2.39
  36  0.664  0.333  0.336-  22 2.33  32 2.35  37 2.36  35 2.36
  37  0.749  0.419  0.415-  41 2.29   6 2.35  36 2.36  38 2.37
  38  0.665  0.332  0.669-  33 2.33  23 2.35  37 2.37  39 2.40
  39  0.750  0.417  0.752-  42 2.34  34 2.35   8 2.37  38 2.40
  40  0.751  0.750  0.084-  41 2.33  10 2.35  29 2.35  53 2.38
  41  0.667  0.664  0.333-  37 2.29  40 2.33  54 2.37  26 2.38
  42  0.668  0.666  0.664-  54 2.31  39 2.34  43 2.37  28 2.38
  43  0.752  0.750  0.747-  52 2.32  53 2.35  13 2.36  42 2.37
  44  0.000  1.000  0.003-  11 2.34   1 2.36  30 2.36   4 2.37
  45  0.000  0.001  0.667-   4 2.32   3 2.33  14 2.36  33 2.37
  46  0.000  0.334  0.997-   1 2.33   9 2.35   5 2.37  35 2.39
  47  0.999  0.665  0.336-   7 2.34  11 2.34  12 2.35  54 2.36
  48  0.335  0.998  0.999-  18 2.33  24 2.33  49 2.38   1 2.38
  49  0.419  0.084  0.081-  19 2.33  29 2.34  15 2.38  48 2.38
  50  0.332  0.336  0.666-  22 2.33  18 2.34   9 2.34  23 2.35
  51  0.332  0.668  0.002-  24 2.33  20 2.34  28 2.35  11 2.38
  52  0.667  0.997  0.666-  32 2.31  43 2.32  18 2.37  33 2.40
  53  0.665  0.670  0.999-  24 2.35  43 2.35  40 2.38  35 2.38
  54  0.750  0.748  0.417-  42 2.31  31 2.36  47 2.36  41 2.37

  LATTYP: Found a triclinic cell.
 ALAT       =    11.4452227482
 B/A-ratio  =     1.0071505547
 C/A-ratio  =     1.0060456285
 COS(alpha) =     0.0012692412
 COS(beta)  =     0.4936157191
 COS(gamma) =     0.4985803594
  
  Lattice vectors:
  
 A1 = (   0.0223693219,  -8.0980057049,   8.0879494912)
 A2 = (   8.1457423635,   0.0455365232,   8.1558553363)
 A3 = (  -8.1366613728,   0.0811941763,   8.1467743456)


Analysis of symmetry for initial positions (statically):
=====================================================================
 Subroutine PRICEL returns:
 Original cell was already a primitive cell.
 

 Routine SETGRP: Setting up the symmetry group for a 
 triclinic supercell.


 Subroutine GETGRP returns: Found  1 space group operations
 (whereof  1 operations were pure point group operations)
 out of a pool of  2 trial point group operations.


The static configuration has the point symmetry C_1 .


Analysis of symmetry for dynamics (positions and initial velocities):
=====================================================================
 Subroutine PRICEL returns:
 Original cell was already a primitive cell.
 

 Routine SETGRP: Setting up the symmetry group for a 
 triclinic supercell.


 Subroutine GETGRP returns: Found  1 space group operations
 (whereof  1 operations were pure point group operations)
 out of a pool of  2 trial point group operations.


The dynamic configuration has the point symmetry C_1 .


 KPOINTS: Automatic kpoint scheme                 

Automatic generation of k-mesh.
Space group operators:
 irot       det(A)        alpha          n_x          n_y          n_z        tau_x        tau_y        tau_z
    1     1.000000     0.000000     1.000000     0.000000     0.000000     0.000000     0.000000     0.000000
 
 Subroutine IBZKPT returns following result:
 ===========================================
 
 Found     14 irreducible k-points:
 
 Following reciprocal coordinates:
            Coordinates               Weight
  0.000000  0.000000  0.000000      1.000000
  0.333333  0.000000  0.000000      2.000000
  0.000000  0.333333  0.000000      2.000000
  0.333333  0.333333  0.000000      2.000000
 -0.333333  0.333333  0.000000      2.000000
  0.000000  0.000000  0.333333      2.000000
  0.333333  0.000000  0.333333      2.000000
 -0.333333  0.000000  0.333333      2.000000
  0.000000  0.333333  0.333333      2.000000
  0.333333  0.333333  0.333333      2.000000
 -0.333333  0.333333  0.333333      2.000000
  0.000000 -0.333333  0.333333      2.000000
  0.333333 -0.333333  0.333333      2.000000
 -0.333333 -0.333333  0.333333      2.000000
 
 Following cartesian coordinates:
            Coordinates               Weight
  0.000000  0.000000  0.000000      1.000000
 -0.020439  0.020219  0.020301      2.000000
  0.020416 -0.020537  0.020595      2.000000
 -0.000024 -0.000318  0.040896      2.000000
  0.040855 -0.040756  0.000294      2.000000
  0.020529  0.020626 -0.020618      2.000000
  0.000090  0.040845 -0.000318      2.000000
  0.040968  0.000407 -0.040919      2.000000
  0.040944  0.000090 -0.000024      2.000000
  0.020505  0.020309  0.020277      2.000000
  0.061383 -0.020130 -0.020324      2.000000
  0.000113  0.041163 -0.041213      2.000000
 -0.020326  0.061382 -0.020912      2.000000
  0.020552  0.020944 -0.061514      2.000000
 


--------------------------------------------------------------------------------------------------------




 Dimension of arrays:
   k-points           NKPTS =       14   k-points in BZ     NKDIM =       14   number of bands    NBANDS=    144
   number of dos      NEDOS =    301   number of ions     NIONS =     54
   non local maximal  LDIM  =      5   non local SUM 2l+1 LMDIM =     13
   total plane-waves  NPLWV = 352800
   max r-space proj   IRMAX =      1   max aug-charges    IRDMAX=  17901
   dimension x,y,z NGX =    72 NGY =   70 NGZ =   70
   dimension x,y,z NGXF=   144 NGYF=  140 NGZF=  140
   support grid    NGXF=   144 NGYF=  140 NGZF=  140
   ions per type =              43  11
 NGX,Y,Z   is equivalent  to a cutoff of  10.30, 10.10, 10.12 a.u.
 NGXF,Y,Z  is equivalent  to a cutoff of  20.59, 20.19, 20.23 a.u.


 I would recommend the setting:
   dimension x,y,z NGX =    71 NGY =   70 NGZ =   70
 SYSTEM =  unknown system                          
 POSCAR =  supercell                               

 Startparameter for this run:
   NWRITE =      2    write-flag & timer
   PREC   = accura    normal or accurate (medium, high low for compatibility)
   ISTART =      0    job   : 0-new  1-cont  2-samecut
   ICHARG =      2    charge: 1-file 2-atom 10-const
   ISPIN  =      1    spin polarized calculation?
   LNONCOLLINEAR =      F non collinear calculations
   LSORBIT =      F    spin-orbit coupling
   INIWAV =      1    electr: 0-lowe 1-rand  2-diag
   LASPH  =      F    aspherical Exc in radial PAW
   METAGGA=      F    non-selfconsistent MetaGGA calc.

 Electronic Relaxation 1
   ENCUT  =  350.0 eV  25.72 Ry    5.07 a.u.  17.73 17.58 17.55*2*pi/ulx,y,z
   ENINI  =  350.0     initial cutoff
   ENAUG  =  385.8 eV  augmentation charge cutoff
   NELM   =     60;   NELMIN=  2; NELMDL= -5     # of ELM steps 
   EDIFF  = 0.1E-06   stopping-criterion for ELM
   LREAL  =      F    real-space projection
   NLSPLINE    = F    spline interpolate recip. space projectors
   LCOMPAT=      F    compatible to vasp.4.4
   GGA_COMPAT  = T    GGA compatible to vasp.4.4-vasp.4.6
   LMAXPAW     = -100 max onsite density
   LMAXMIX     =    2 max onsite mixed and CHGCAR
   VOSKOWN=      0    Vosko Wilk Nusair interpolation
   ROPT   =    0.00000   0.00000
 Ionic relaxation
   EDIFFG = 0.1E-05   stopping-criterion for IOM
   NSW    =      0    number of steps for IOM
   NBLOCK =      1;   KBLOCK =      1    inner block; outer block 
   IBRION =     -1    ionic relax: 0-MD 1-quasi-New 2-CG
   NFREE  =      0    steps in history (QN), initial steepest desc. (CG)
   ISIF   =      2    stress and relaxation
   IWAVPR =     10    prediction:  0-non 1-charg 2-wave 3-comb
   ISYM   =      2    0-nonsym 1-usesym 2-fastsym
   LCORR  =      T    Harris-Foulkes like correction to forces

   POTIM  = 0.5000    time-step for ionic-motion
   TEIN   =    0.0    initial temperature
   TEBEG  =    0.0;   TEEND  =   0.0 temperature during run
   SMASS  =  -3.00    Nose mass-parameter (am)
   estimated Nose-frequenzy (Omega)   =  0.10E-29 period in steps =****** mass=  -0.309E-26a.u.
   SCALEE = 1.0000    scale energy and forces
   NPACO  =    256;   APACO  = 16.0  distance and # of slots for P.C.
   PSTRESS=    0.0 pullay stress

  Mass of Ions in am
   POMASS =  28.09 72.61
  Ionic Valenz
   ZVAL   =   4.00  4.00
  Atomic Wigner-Seitz radii
   RWIGS  =  -1.00 -1.00
  virtual crystal weights 
   VCA    =   1.00  1.00
   NELECT =     216.0000    total number of electrons
   NUPDOWN=      -1.0000    fix difference up-down

 DOS related values:
   EMIN   =  10.00;   EMAX   =-10.00  energy-range for DOS
   EFERMI =   0.00
   ISMEAR =     0;   SIGMA  =   0.05  broadening in eV -4-tet -1-fermi 0-gaus

 Electronic relaxation 2 (details)
   IALGO  =     38    algorithm
   LDIAG  =      T    sub-space diagonalisation (order eigenvalues)
   LSUBROT=      F    optimize rotation matrix (better conditioning)
   TURBO    =      0    0=normal 1=particle mesh
   IRESTART =      0    0=no restart 2=restart with 2 vectors
   NREBOOT  =      0    no. of reboots
   NMIN     =      0    reboot dimension
   EREF     =   0.00    reference energy to select bands
   IMIX   =      4    mixing-type and parameters
     AMIX     =   0.40;   BMIX     =  1.00
     AMIX_MAG =   1.60;   BMIX_MAG =  1.00
     AMIN     =   0.10
     WC   =   100.;   INIMIX=   1;  MIXPRE=   1;  MAXMIX= -45

 Intra band minimization:
   WEIMIN = 0.0000     energy-eigenvalue tresh-hold
   EBREAK =  0.17E-09  absolut break condition
   DEPER  =   0.30     relativ break condition  

   TIME   =   0.40     timestep for ELM

  volume/ion in A,a.u.               =      20.06       135.36
  Fermi-wavevector in a.u.,A,eV,Ry     =   0.956458  1.807443 12.446765  0.914811
  Thomas-Fermi vector in A             =   2.085388

 Write flags
   LWAVE  =      T    write WAVECAR
   LCHARG =      T    write CHGCAR
   LVTOT  =      F    write LOCPOT, total local potential
   LVHAR  =      F    write LOCPOT, Hartree potential only
   LELF   =      F    write electronic localiz. function (ELF)
   LORBIT =      0    0 simple, 1 ext, 2 COOP (PROOUT)


 Dipole corrections
   LMONO  =      F    monopole corrections only (constant potential shift)
   LDIPOL =      F    correct potential (dipole corrections)
   IDIPOL =      0    1-x, 2-y, 3-z, 4-all directions 
   EPSILON=  1.0000000 bulk dielectric constant

 Exchange correlation treatment:
   GGA     =    --    GGA type
   LEXCH   =     8    internal setting for exchange type
   VOSKOWN=      0    Vosko Wilk Nusair interpolation
   LHFCALC =     F    Hartree Fock is set to
   LHFONE  =     F    Hartree Fock one center treatment
   AEXX    =    0.0000 exact exchange contribution

 Linear response parameters
   LEPSILON=     F    determine dielectric tensor
   LRPA    =     F    only Hartree local field effects (RPA)
   LNABLA  =     F    use nabla operator in PAW spheres
   LVEL    =     F    velocity operator in full k-point grid
   LINTERFAST=   F  fast interpolation
   KINTER  =     0    interpolate to denser k-point grid
   CSHIFT  =0.1000    complex shift for real part using Kramers Kronig
   OMEGAMAX=  -1.0    maximum frequency
   DEG_THRESHOLD= 0.2000000E-02 threshold for treating states as degnerate
   RTIME   =    0.100 relaxation time in fs

 Orbital magnetization related:
   ORBITALMAG=     F  switch on orbital magnetization
   LCHIMAG   =     F  perturbation theory with respect to B field
   DQ        =  0.001000  dq finite difference perturbation B field



--------------------------------------------------------------------------------------------------------


 Static calculation
 charge density and potential will be updated during run
 non-spin polarized calculation
 Variant of blocked Davidson
 Davidson routine will perform the subspace rotation
 perform sub-space diagonalisation
    after iterative eigenvector-optimisation
 modified Broyden-mixing scheme, WC =      100.0
 initial mixing is a Kerker type mixing with AMIX =  0.4000 and BMIX =      1.0000
 Hartree-type preconditioning will be used
 using additional bands           36
 reciprocal scheme for non local part
 use partial core corrections
 calculate Harris-corrections to forces   (improved forces if not selfconsistent)
 use gradient corrections 
 use of overlap-Matrix (Vanderbilt PP)
 Gauss-broadening in eV      SIGMA  =   0.05


--------------------------------------------------------------------------------------------------------


  energy-cutoff  :      350.00
  volume of cell :     1083.13
      direct lattice vectors                 reciprocal lattice vectors
    -0.013288331  8.224736404  8.214680191    -0.061317123  0.060657417  0.060902424
     8.145742364  0.045536523  8.155855336     0.061246612 -0.061610120  0.061784616
     8.123373042  8.143542228  0.067905845     0.061586003  0.061879000 -0.061855127

  length of vectors
    11.624432723 11.527062440 11.502655380     0.105585117  0.106603438  0.106994874



 k-points in units of 2pi/SCALE and weight: Automatic kpoint scheme                 
   0.00000000  0.00000000  0.00000000       0.037
  -0.02043904  0.02021914  0.02030081       0.074
   0.02041554 -0.02053671  0.02059487       0.074
  -0.00002350 -0.00031757  0.04089568       0.074
   0.04085458 -0.04075585  0.00029406       0.074
   0.02052867  0.02062633 -0.02061838       0.074
   0.00008963  0.04084547 -0.00031757       0.074
   0.04096771  0.00040719 -0.04091918       0.074
   0.04094420  0.00008963 -0.00002350       0.074
   0.02050516  0.02030877  0.02027730       0.074
   0.06138325 -0.02012951 -0.02032431       0.074
   0.00011313  0.04116304 -0.04121325       0.074
  -0.02032591  0.06138218 -0.02091244       0.074
   0.02055217  0.02094390 -0.06151406       0.074

 k-points in reciprocal lattice and weights: Automatic kpoint scheme                 
   0.00000000  0.00000000  0.00000000       0.037
   0.33333333  0.00000000  0.00000000       0.074
   0.00000000  0.33333333  0.00000000       0.074
   0.33333333  0.33333333  0.00000000       0.074
  -0.33333333  0.33333333  0.00000000       0.074
   0.00000000  0.00000000  0.33333333       0.074
   0.33333333  0.00000000  0.33333333       0.074
  -0.33333333  0.00000000  0.33333333       0.074
   0.00000000  0.33333333  0.33333333       0.074
   0.33333333  0.33333333  0.33333333       0.074
  -0.33333333  0.33333333  0.33333333       0.074
   0.00000000 -0.33333333  0.33333333       0.074
   0.33333333 -0.33333333  0.33333333       0.074
  -0.33333333 -0.33333333  0.33333333       0.074

 position of ions in fractional coordinates (direct lattice) 
   0.08301841  0.08556795  0.08369819
   0.00106546  0.99979113  0.33429124
   0.08381503  0.08094669  0.41685516
   0.08220045  0.08134711  0.74927273
   0.08459000  0.41630828  0.08107138
   0.99713573  0.33368287  0.33563190
   0.08164558  0.41611368  0.41653832
   0.00058788  0.33523294  0.66606459
   0.08487604  0.41728882  0.74639301
   0.99915924  0.66605313  0.00064008
   0.08120429  0.75057061  0.08571868
   0.08205829  0.75138016  0.41518093
   0.00127327  0.66575666  0.66823464
   0.08186225  0.74925924  0.75171182
   0.33114229  0.00084409  0.33524535
   0.41640846  0.08120420  0.41771940
   0.33332119  0.00036359  0.66574149
   0.41677220  0.08610647  0.74972942
   0.33330669  0.33316118  0.99750460
   0.41705167  0.41774196  0.08318033
   0.33028607  0.33482247  0.33440136
   0.41810472  0.41807293  0.41667170
   0.41703568  0.41778059  0.74821223
   0.41680049  0.74963128  0.08193452
   0.33440166  0.66661565  0.33132322
   0.41551926  0.74910051  0.41934059
   0.33281787  0.66992963  0.66533401
   0.41686030  0.75017521  0.75004009
   0.66610968  0.00117115  0.99901692
   0.75121748  0.07933531  0.08428640
   0.67015748  0.99923152  0.33209529
   0.74953614  0.08251108  0.41927263
   0.74956942  0.08311295  0.75238636
   0.66510847  0.33180704  0.00315166
   0.74790502  0.41581567  0.08327530
   0.66434684  0.33342595  0.33628770
   0.74935185  0.41905594  0.41544679
   0.66499465  0.33179426  0.66874372
   0.75036102  0.41688031  0.75186878
   0.75078647  0.75040696  0.08399183
   0.66716678  0.66369123  0.33314162
   0.66835885  0.66631027  0.66448394
   0.75212436  0.75008508  0.74731742
   0.00044128  0.99975768  0.00255017
   0.00032630  0.00059227  0.66659324
   0.00042466  0.33366879  0.99749766
   0.99907676  0.66523436  0.33601778
   0.33461583  0.99849111  0.99862197
   0.41854572  0.08429048  0.08082394
   0.33217821  0.33579478  0.66607510
   0.33198771  0.66767999  0.00167970
   0.66747341  0.99747746  0.66602358
   0.66459791  0.66959962  0.99917769
   0.74975928  0.74753261  0.41733985

 position of ions in cartesian coordinates  (Angst):
   1.37582292  1.36830074  1.38553316
  10.85959926  2.77660496  8.18560463
   4.04452710  4.08772020  1.37701003
   6.74816213  6.78151538  1.38958562
   4.04858905  1.37489589  4.09573512
   5.43130761 10.94960585 10.93541171
   6.77216607  4.08255918  4.09274071
   8.14140442  5.44422558  2.78417024
   9.46122825  6.79536799  4.15126127
   5.41741963  8.25336361 13.64004999
   6.80920053  1.40011591  6.79443338
   9.49212832  4.09016646  6.83042366
  10.85138461  5.48258556  5.48565158
  12.20862047  6.82901103  6.83436779
   2.72579851  5.45368116  2.74987740
   4.04922569  6.83026315  4.11131762
   5.40659891  8.16298945  2.78630015
   6.78619460  9.53721567  4.17683326
  10.81251807 10.87975148  5.52295864
   4.07298127  4.12654510  6.83863750
   5.43945564  5.45497408  5.46666589
   6.78473816  6.85102235  6.87263337
   9.47559841  9.54213073  6.88398083
   6.76634935  4.12944698  9.54333088
   8.11709780  5.47886548  8.20632228
   9.50291819  6.86656557  9.55138885
  10.85740790  8.18602111  8.24302160
  12.19805001  9.57070954  9.59362659
   8.11607554 13.61416634  5.54926884
   1.32095244  6.86856827  6.82378225
  10.82831121  8.26180220 13.67726834
   4.06806185  9.58285881  6.85861918
   6.77897120 12.29588562  6.88642164
   2.71957855  5.51111684  8.17003760
   4.05366529  6.84841237  9.54078790
   5.43896423  8.21783377  8.19960657
   6.77839337  9.56551224  9.60165671
   8.12632860 10.93045722  8.21419596
   9.49353908 12.31338002  9.61504759
   6.78494206  6.89318278 12.29338494
   8.10362589  8.23044597 10.91615364
  10.81656131 10.93866977 10.96980669
  12.17074353 12.30599182 12.34679374
   8.16447860  0.06992237  8.15767716
   5.41980565  5.43114093  0.05277650
  10.82101994  8.14185113  2.79257868
   8.13514944 10.98381044 13.65546882
  16.24118363 10.92991494 10.96012335
   1.33760980  4.10445972  4.13116866
   8.14166013  8.17157979  5.51266176
   5.44798250  2.77459396  8.17278837
  13.52668279 10.95900560 13.66358934
  13.56224768 13.63347961 10.98846692
   9.46945225  9.59923716 12.28414033



--------------------------------------------------------------------------------------------------------


 k-point  1 :   0.0000 0.0000 0.0000  plane waves:   16173
 k-point  2 :   0.3333 0.0000 0.0000  plane waves:   16115
 k-point  3 :   0.0000 0.3333 0.0000  plane waves:   16116
 k-point  4 :   0.3333 0.3333 0.0000  plane waves:   16093
 k-point  5 :  -0.3333 0.3333 0.0000  plane waves:   16097
 k-point  6 :   0.0000 0.0000 0.3333  plane waves:   16128
 k-point  7 :   0.3333 0.0000 0.3333  plane waves:   16103
 k-point  8 :  -0.3333 0.0000 0.3333  plane waves:   16092
 k-point  9 :   0.0000 0.3333 0.3333  plane waves:   16093
 k-point 10 :   0.3333 0.3333 0.3333  plane waves:   16109
 k-point 11 :  -0.3333 0.3333 0.3333  plane waves:   16111
 k-point 12 :   0.0000-0.3333 0.3333  plane waves:   16095
 k-point 13 :   0.3333-0.3333 0.3333  plane waves:   16093
 k-point 14 :  -0.3333-0.3333 0.3333  plane waves:   16103

 maximum and minimum number of plane-waves per node :     16173    16092

 maximum number of plane-waves:     16173
 maximum index in each direction: 
   IXMAX=   18   IYMAX=   17   IZMAX=   17
   IXMIN=  -18   IYMIN=  -17   IZMIN=  -17

 WARNING: aliasing errors must be expected set NGX to  74 to avoid them
 NGY is ok and might be reduce to  70
 NGZ is ok and might be reduce to  70
 aliasing errors are usually negligible using standard VASP settings
 and one can safely disregard these warnings

 serial   3D FFT for wavefunctions
 parallel 3D FFT for charge:
    minimum data exchange during FFTs selected (reduces bandwidth)


 total amount of memory used by VASP on root node   168025. kBytes
========================================================================

   base      :      30000. kBytes
   nonl-proj :      61080. kBytes
   fftplans  :      14673. kBytes
   grid      :      28224. kBytes
   one-center:        438. kBytes
   wavefun   :      33610. kBytes

     INWAV:  cpu time    0.0000: real time    0.0000
 Broyden mixing: mesh for mixing (old mesh)
   NGX = 35   NGY = 35   NGZ = 35
  (NGX  =144   NGY  =140   NGZ  =140)
  gives a total of  42875 points

 initial charge density was supplied:
 charge density of overlapping atoms calculated
 number of electron     216.0000000 magnetization 
 keeping initial charge density in first step


--------------------------------------------------------------------------------------------------------


 Maximum index for augmentation-charges         1086 (set IRDMAX)


--------------------------------------------------------------------------------------------------------


 First call to EWALD:  gamma=   0.173
 Maximum number of real-space cells 3x 3x 3
 Maximum number of reciprocal cells 3x 3x 3

 FEWALD executed in parallel
    FEWALD:  cpu time    0.0080: real time    0.0055


----------------------------------------- Iteration    1(   1)  ---------------------------------------


    POTLOK:  cpu time    0.3960: real time    0.3949
    SETDIJ:  cpu time    0.0240: real time    0.0230
     EDDAV:  cpu time   57.7520: real time   57.7358
       DOS:  cpu time    0.0000: real time    0.0012
    --------------------------------------------
      LOOP:  cpu time   58.1720: real time   58.1555

 eigenvalue-minimisations  :  4032
 total energy-change (2. order) : 0.4641133E+03  (-0.6525426E+04)
 number of electron     216.0000000 magnetization 
 augmentation part      216.0000000 magnetization 

 Free energy of the ion-electron system (eV)
  ---------------------------------------------------
  alpha Z        PSCENC =       176.98545557
  Ewald energy   TEWEN  =     -6165.54281523
  -Hartree energ DENC   =      -297.11244341
  -exchange      EXHF   =         0.00000000
  -V(xc)+E(xc)   XCENC  =      -480.58523171
  PAW double counting   =      4758.92053063    -3843.04614049
  entropy T*S    EENTRO =        -0.01482732
  eigenvalues    EBANDS =       727.73655234
  atomic energy  EATOM  =      5586.77218921
  Solvation  Ediel_sol  =         0.00000000
  ---------------------------------------------------
  free energy    TOTEN  =       464.11326960 eV

  energy without entropy =      464.12809692  energy(sigma->0) =      464.12068326


--------------------------------------------------------------------------------------------------------




----------------------------------------- Iteration    1(   2)  ---------------------------------------


     EDDAV:  cpu time   69.6520: real time   69.6276
       DOS:  cpu time    0.0000: real time    0.0009
    --------------------------------------------
      LOOP:  cpu time   69.6520: real time   69.6289

 eigenvalue-minimisations  :  4896
 total energy-change (2. order) :-0.7040860E+03  (-0.6709779E+03)
 number of electron     216.0000000 magnetization 
 augmentation part      216.0000000 magnetization 

 Free energy of the ion-electron system (eV)
  ---------------------------------------------------
  alpha Z        PSCENC =       176.98545557
  Ewald energy   TEWEN  =     -6165.54281523
  -Hartree energ DENC   =      -297.11244341
  -exchange      EXHF   =         0.00000000
  -V(xc)+E(xc)   XCENC  =      -480.58523171
  PAW double counting   =      4758.92053063    -3843.04614049
  entropy T*S    EENTRO =        -0.00000012
  eigenvalues    EBANDS =        23.63576354
  atomic energy  EATOM  =      5586.77218921
  Solvation  Ediel_sol  =         0.00000000
  ---------------------------------------------------
  free energy    TOTEN  =      -239.97269201 eV

  energy without entropy =     -239.97269189  energy(sigma->0) =     -239.97269195


--------------------------------------------------------------------------------------------------------




----------------------------------------- Iteration    1(   3)  ---------------------------------------


     EDDAV:  cpu time   71.5400: real time   71.5165
       DOS:  cpu time    0.0000: real time    0.0009
    --------------------------------------------
      LOOP:  cpu time   71.5400: real time   71.5178

 eigenvalue-minimisations  :  5040
 total energy-change (2. order) :-0.4404283E+02  (-0.4346670E+02)
 number of electron     216.0000000 magnetization 
 augmentation part      216.0000000 magnetization 

 Free energy of the ion-electron system (eV)
  ---------------------------------------------------
  alpha Z        PSCENC =       176.98545557
  Ewald energy   TEWEN  =     -6165.54281523
  -Hartree energ DENC   =      -297.11244341
  -exchange      EXHF   =         0.00000000
  -V(xc)+E(xc)   XCENC  =      -480.58523171
  PAW double counting   =      4758.92053063    -3843.04614049
  entropy T*S    EENTRO =        -0.00000000
  eigenvalues    EBANDS =       -20.40706998
  atomic energy  EATOM  =      5586.77218921
  Solvation  Ediel_sol  =         0.00000000
  ---------------------------------------------------
  free energy    TOTEN  =      -284.01552541 eV

  energy without entropy =     -284.01552541  energy(sigma->0) =     -284.01552541


--------------------------------------------------------------------------------------------------------




----------------------------------------- Iteration    1(   4)  ---------------------------------------


     EDDAV:  cpu time   72.6880: real time   72.6663
       DOS:  cpu time    0.0040: real time    0.0010
    --------------------------------------------
      LOOP:  cpu time   72.6920: real time   72.6677

 eigenvalue-minimisations  :  5120
 total energy-change (2. order) :-0.9016959E+00  (-0.8974396E+00)
 number of electron     216.0000000 magnetization 
 augmentation part      216.0000000 magnetization 

 Free energy of the ion-electron system (eV)
  ---------------------------------------------------
  alpha Z        PSCENC =       176.98545557
  Ewald energy   TEWEN  =     -6165.54281523
  -Hartree energ DENC   =      -297.11244341
  -exchange      EXHF   =         0.00000000
  -V(xc)+E(xc)   XCENC  =      -480.58523171
  PAW double counting   =      4758.92053063    -3843.04614049
  entropy T*S    EENTRO =        -0.00000000
  eigenvalues    EBANDS =       -21.30876586
  atomic energy  EATOM  =      5586.77218921
  Solvation  Ediel_sol  =         0.00000000
  ---------------------------------------------------
  free energy    TOTEN  =      -284.91722129 eV

  energy without entropy =     -284.91722129  energy(sigma->0) =     -284.91722129


--------------------------------------------------------------------------------------------------------




----------------------------------------- Iteration    1(   5)  ---------------------------------------


     EDDAV:  cpu time   71.6560: real time   71.6379
       DOS:  cpu time    0.0040: real time    0.0011
    CHARGE:  cpu time    1.9400: real time    1.9429
    MIXING:  cpu time    0.0160: real time    0.0129
    --------------------------------------------
      LOOP:  cpu time   73.6160: real time   73.5955

 eigenvalue-minimisations  :  5008
 total energy-change (2. order) :-0.1879175E-01  (-0.1877360E-01)
 number of electron     216.0000002 magnetization 
 augmentation part      -17.2901036 magnetization 

 Broyden mixing:
  rms(total) = 0.24131E+01    rms(broyden)= 0.24131E+01
  rms(prec ) = 0.27739E+01
  weight for this iteration     100.00

 Free energy of the ion-electron system (eV)
  ---------------------------------------------------
  alpha Z        PSCENC =       176.98545557
  Ewald energy   TEWEN  =     -6165.54281523
  -Hartree energ DENC   =      -297.11244341
  -exchange      EXHF   =         0.00000000
  -V(xc)+E(xc)   XCENC  =      -480.58523171
  PAW double counting   =      4758.92053063    -3843.04614049
  entropy T*S    EENTRO =        -0.00000000
  eigenvalues    EBANDS =       -21.32755761
  atomic energy  EATOM  =      5586.77218921
  Solvation  Ediel_sol  =         0.00000000
  ---------------------------------------------------
  free energy    TOTEN  =      -284.93601304 eV

  energy without entropy =     -284.93601304  energy(sigma->0) =     -284.93601304


--------------------------------------------------------------------------------------------------------




----------------------------------------- Iteration    1(   6)  ---------------------------------------


    POTLOK:  cpu time    0.5080: real time    0.5082
    SETDIJ:  cpu time    0.0200: real time    0.0217
     EDDAV:  cpu time   69.9160: real time   69.8938
       DOS:  cpu time    0.0000: real time    0.0021
    CHARGE:  cpu time    1.9400: real time    1.9406
    MIXING:  cpu time    0.0160: real time    0.0154
    --------------------------------------------
      LOOP:  cpu time   72.4000: real time   72.3825

 eigenvalue-minimisations  :  4736
 total energy-change (2. order) : 0.3283419E+01  (-0.1858968E+00)
 number of electron     216.0000002 magnetization 
 augmentation part      -17.1162739 magnetization 

 Broyden mixing:
  rms(total) = 0.14775E+01    rms(broyden)= 0.14775E+01
  rms(prec ) = 0.16835E+01
  weight for this iteration     100.00

 eigenvalues of (default mixing * dielectric matrix)
  average eigenvalue GAMMA=   2.5658
  2.5658

 Free energy of the ion-electron system (eV)
  ---------------------------------------------------
  alpha Z        PSCENC =       176.98545557
  Ewald energy   TEWEN  =     -6165.54281523
  -Hartree energ DENC   =      -335.96807466
  -exchange      EXHF   =         0.00000000
  -V(xc)+E(xc)   XCENC  =      -474.21742809
  PAW double counting   =      9804.41250090    -8892.00060430
  entropy T*S    EENTRO =        -0.00000000
  eigenvalues    EBANDS =        17.90618233
  atomic energy  EATOM  =      5586.77218921
  Solvation  Ediel_sol  =         0.00000000
  ---------------------------------------------------
  free energy    TOTEN  =      -281.65259427 eV

  energy without entropy =     -281.65259427  energy(sigma->0) =     -281.65259427


--------------------------------------------------------------------------------------------------------




----------------------------------------- Iteration    1(   7)  ---------------------------------------


    POTLOK:  cpu time    0.5240: real time    0.5226
    SETDIJ:  cpu time    0.0240: real time    0.0254
     EDDAV:  cpu time   68.3680: real time   68.3491
       DOS:  cpu time    0.0040: real time    0.0020
    CHARGE:  cpu time    1.9760: real time    1.9776
    MIXING:  cpu time    0.0160: real time    0.0152
    --------------------------------------------
      LOOP:  cpu time   70.9120: real time   70.8928

 eigenvalue-minimisations  :  4688
 total energy-change (2. order) : 0.1438182E+01  (-0.3920754E+00)
 number of electron     216.0000002 magnetization 
 augmentation part      -16.8854838 magnetization 

 Broyden mixing:
  rms(total) = 0.97066E-01    rms(broyden)= 0.97065E-01
  rms(prec ) = 0.12933E+00
  weight for this iteration     100.00

 eigenvalues of (default mixing * dielectric matrix)
  average eigenvalue GAMMA=   2.1073
  1.8118  2.4028

 Free energy of the ion-electron system (eV)
  ---------------------------------------------------
  alpha Z        PSCENC =       176.98545557
  Ewald energy   TEWEN  =     -6165.54281523
  -Hartree energ DENC   =      -401.47712740
  -exchange      EXHF   =         0.00000000
  -V(xc)+E(xc)   XCENC  =      -463.21911451
  PAW double counting   =     22100.26738035   -21192.59183171
  entropy T*S    EENTRO =        -0.00000000
  eigenvalues    EBANDS =        78.59145096
  atomic energy  EATOM  =      5586.77218921
  Solvation  Ediel_sol  =         0.00000000
  ---------------------------------------------------
  free energy    TOTEN  =      -280.21441276 eV

  energy without entropy =     -280.21441276  energy(sigma->0) =     -280.21441276


--------------------------------------------------------------------------------------------------------




----------------------------------------- Iteration    1(   8)  ---------------------------------------


    POTLOK:  cpu time    0.5120: real time    0.5115
    SETDIJ:  cpu time    0.0280: real time    0.0290
     EDDAV:  cpu time   69.3720: real time   69.3536
       DOS:  cpu time    0.0000: real time    0.0011
    CHARGE:  cpu time    1.9960: real time    1.9944
    MIXING:  cpu time    0.0240: real time    0.0235
    --------------------------------------------
      LOOP:  cpu time   71.9320: real time   71.9140

 eigenvalue-minimisations  :  4752
 total energy-change (2. order) :-0.1709249E-01  (-0.2502102E-01)
 number of electron     216.0000002 magnetization 
 augmentation part      -16.9202373 magnetization 

 Broyden mixing:
  rms(total) = 0.47991E-01    rms(broyden)= 0.47990E-01
  rms(prec ) = 0.53776E-01
  weight for this iteration     100.00

 eigenvalues of (default mixing * dielectric matrix)
  average eigenvalue GAMMA=   2.1299
  2.6882  1.8507  1.8507

 Free energy of the ion-electron system (eV)
  ---------------------------------------------------
  alpha Z        PSCENC =       176.98545557
  Ewald energy   TEWEN  =     -6165.54281523
  -Hartree energ DENC   =      -397.41547400
  -exchange      EXHF   =         0.00000000
  -V(xc)+E(xc)   XCENC  =      -463.50221006
  PAW double counting   =     21920.89332792   -21012.41112047
  entropy T*S    EENTRO =        -0.00000000
  eigenvalues    EBANDS =        73.98914181
  atomic energy  EATOM  =      5586.77218921
  Solvation  Ediel_sol  =         0.00000000
  ---------------------------------------------------
  free energy    TOTEN  =      -280.23150525 eV

  energy without entropy =     -280.23150525  energy(sigma->0) =     -280.23150525


--------------------------------------------------------------------------------------------------------




----------------------------------------- Iteration    1(   9)  ---------------------------------------


    POTLOK:  cpu time    0.5640: real time    0.5625
    SETDIJ:  cpu time    0.0240: real time    0.0266
     EDDAV:  cpu time   72.7360: real time   72.7163
       DOS:  cpu time    0.0040: real time    0.0016
    CHARGE:  cpu time    1.9920: real time    1.9935
    MIXING:  cpu time    0.0200: real time    0.0163
    --------------------------------------------
      LOOP:  cpu time   75.3400: real time   75.3177

 eigenvalue-minimisations  :  5040
 total energy-change (2. order) :-0.6770215E-02  (-0.1869379E-02)
 number of electron     216.0000002 magnetization 
 augmentation part      -16.9161140 magnetization 

 Broyden mixing:
  rms(total) = 0.31715E-01    rms(broyden)= 0.31714E-01
  rms(prec ) = 0.34337E-01
  weight for this iteration     100.00

 eigenvalues of (default mixing * dielectric matrix)
  average eigenvalue GAMMA=   1.8107
  2.5378  2.0297  2.0297  0.6455

 Free energy of the ion-electron system (eV)
  ---------------------------------------------------
  alpha Z        PSCENC =       176.98545557
  Ewald energy   TEWEN  =     -6165.54281523
  -Hartree energ DENC   =      -399.10381279
  -exchange      EXHF   =         0.00000000
  -V(xc)+E(xc)   XCENC  =      -463.20930408
  PAW double counting   =     22160.00811183   -21251.57470880
  entropy T*S    EENTRO =        -0.00000000
  eigenvalues    EBANDS =        75.42660884
  atomic energy  EATOM  =      5586.77218921
  Solvation  Ediel_sol  =         0.00000000
  ---------------------------------------------------
  free energy    TOTEN  =      -280.23827546 eV

  energy without entropy =     -280.23827546  energy(sigma->0) =     -280.23827546


--------------------------------------------------------------------------------------------------------




----------------------------------------- Iteration    1(  10)  ---------------------------------------


    POTLOK:  cpu time    0.5880: real time    0.5906
    SETDIJ:  cpu time    0.0320: real time    0.0300
     EDDAV:  cpu time   67.0520: real time   67.0357
       DOS:  cpu time    0.0040: real time    0.0011
    CHARGE:  cpu time    2.0320: real time    2.0328
    MIXING:  cpu time    0.0200: real time    0.0184
    --------------------------------------------
      LOOP:  cpu time   69.7280: real time   69.7094

 eigenvalue-minimisations  :  4608
 total energy-change (2. order) :-0.1043193E-02  (-0.1839827E-03)
 number of electron     216.0000002 magnetization 
 augmentation part      -16.9203231 magnetization 

 Broyden mixing:
  rms(total) = 0.17873E-01    rms(broyden)= 0.17873E-01
  rms(prec ) = 0.19059E-01
  weight for this iteration     100.00

 eigenvalues of (default mixing * dielectric matrix)
  average eigenvalue GAMMA=   1.9215
  2.8691  2.2686  2.2686  1.1006  1.1006

 Free energy of the ion-electron system (eV)
  ---------------------------------------------------
  alpha Z        PSCENC =       176.98545557
  Ewald energy   TEWEN  =     -6165.54281523
  -Hartree energ DENC   =      -398.62218846
  -exchange      EXHF   =         0.00000000
  -V(xc)+E(xc)   XCENC  =      -463.26895546
  PAW double counting   =     21977.51062909   -21068.99373334
  entropy T*S    EENTRO =        -0.00000000
  eigenvalues    EBANDS =        74.92009996
  atomic energy  EATOM  =      5586.77218921
  Solvation  Ediel_sol  =         0.00000000
  ---------------------------------------------------
  free energy    TOTEN  =      -280.23931866 eV

  energy without entropy =     -280.23931866  energy(sigma->0) =     -280.23931866


--------------------------------------------------------------------------------------------------------




----------------------------------------- Iteration    1(  11)  ---------------------------------------


    POTLOK:  cpu time    0.5960: real time    0.5955
    SETDIJ:  cpu time    0.0280: real time    0.0300
     EDDAV:  cpu time   65.4200: real time   65.4042
       DOS:  cpu time    0.0040: real time    0.0010
    CHARGE:  cpu time    2.1600: real time    2.1613
    MIXING:  cpu time    0.0200: real time    0.0196
    --------------------------------------------
      LOOP:  cpu time   68.2280: real time   68.2126

 eigenvalue-minimisations  :  4480
 total energy-change (2. order) :-0.8398236E-03  (-0.9193791E-04)
 number of electron     216.0000002 magnetization 
 augmentation part      -16.9210381 magnetization 

 Broyden mixing:
  rms(total) = 0.67703E-02    rms(broyden)= 0.67703E-02
  rms(prec ) = 0.69963E-02
  weight for this iteration     100.00

 eigenvalues of (default mixing * dielectric matrix)
  average eigenvalue GAMMA=   1.7955
  2.7944  2.0561  2.0561  1.6865  0.8549  1.3252

 Free energy of the ion-electron system (eV)
  ---------------------------------------------------
  alpha Z        PSCENC =       176.98545557
  Ewald energy   TEWEN  =     -6165.54281523
  -Hartree energ DENC   =      -398.87235365
  -exchange      EXHF   =         0.00000000
  -V(xc)+E(xc)   XCENC  =      -463.21697390
  PAW double counting   =     21884.78843346   -20976.24013661
  entropy T*S    EENTRO =        -0.00000000
  eigenvalues    EBANDS =        75.08604267
  atomic energy  EATOM  =      5586.77218921
  Solvation  Ediel_sol  =         0.00000000
  ---------------------------------------------------
  free energy    TOTEN  =      -280.24015848 eV

  energy without entropy =     -280.24015848  energy(sigma->0) =     -280.24015848


--------------------------------------------------------------------------------------------------------




----------------------------------------- Iteration    1(  12)  ---------------------------------------


    POTLOK:  cpu time    0.5840: real time    0.5847
    SETDIJ:  cpu time    0.0280: real time    0.0269
     EDDAV:  cpu time   72.6560: real time   72.6360
       DOS:  cpu time    0.0000: real time    0.0008
    CHARGE:  cpu time    2.2680: real time    2.2647
    MIXING:  cpu time    0.0200: real time    0.0228
    --------------------------------------------
      LOOP:  cpu time   75.5560: real time   75.5368

 eigenvalue-minimisations  :  5072
 total energy-change (2. order) :-0.3235862E-04  (-0.6025126E-05)
 number of electron     216.0000002 magnetization 
 augmentation part      -16.9215091 magnetization 

 Broyden mixing:
  rms(total) = 0.31320E-02    rms(broyden)= 0.31319E-02
  rms(prec ) = 0.32724E-02
  weight for this iteration     100.00

 eigenvalues of (default mixing * dielectric matrix)
  average eigenvalue GAMMA=   1.7064
  2.8386  2.1895  2.1895  1.8046  1.2577  0.8324  0.8324

 Free energy of the ion-electron system (eV)
  ---------------------------------------------------
  alpha Z        PSCENC =       176.98545557
  Ewald energy   TEWEN  =     -6165.54281523
  -Hartree energ DENC   =      -398.88849319
  -exchange      EXHF   =         0.00000000
  -V(xc)+E(xc)   XCENC  =      -463.21472370
  PAW double counting   =     21860.49547514   -20951.94102268
  entropy T*S    EENTRO =        -0.00000000
  eigenvalues    EBANDS =        75.09374403
  atomic energy  EATOM  =      5586.77218921
  Solvation  Ediel_sol  =         0.00000000
  ---------------------------------------------------
  free energy    TOTEN  =      -280.24019084 eV

  energy without entropy =     -280.24019084  energy(sigma->0) =     -280.24019084


--------------------------------------------------------------------------------------------------------




----------------------------------------- Iteration    1(  13)  ---------------------------------------


    POTLOK:  cpu time    0.5360: real time    0.5329
    SETDIJ:  cpu time    0.0240: real time    0.0239
     EDDAV:  cpu time   67.7320: real time   67.7168
       DOS:  cpu time    0.0040: real time    0.0020
    CHARGE:  cpu time    2.1120: real time    2.1104
    MIXING:  cpu time    0.0160: real time    0.0177
    --------------------------------------------
      LOOP:  cpu time   70.4240: real time   70.4049

 eigenvalue-minimisations  :  4640
 total energy-change (2. order) :-0.1144450E-04  (-0.1762996E-05)
 number of electron     216.0000002 magnetization 
 augmentation part      -16.9214063 magnetization 

 Broyden mixing:
  rms(total) = 0.88932E-03    rms(broyden)= 0.88932E-03
  rms(prec ) = 0.95875E-03
  weight for this iteration     100.00

 eigenvalues of (default mixing * dielectric matrix)
  average eigenvalue GAMMA=   1.7647
  3.0391  2.5187  2.0166  2.0166  1.3443  1.3443  0.9190  0.9190

 Free energy of the ion-electron system (eV)
  ---------------------------------------------------
  alpha Z        PSCENC =       176.98545557
  Ewald energy   TEWEN  =     -6165.54281523
  -Hartree energ DENC   =      -398.92482641
  -exchange      EXHF   =         0.00000000
  -V(xc)+E(xc)   XCENC  =      -463.21241704
  PAW double counting   =     21837.34688245   -20928.79224786
  entropy T*S    EENTRO =        -0.00000000
  eigenvalues    EBANDS =        75.12757703
  atomic energy  EATOM  =      5586.77218921
  Solvation  Ediel_sol  =         0.00000000
  ---------------------------------------------------
  free energy    TOTEN  =      -280.24020228 eV

  energy without entropy =     -280.24020228  energy(sigma->0) =     -280.24020228


--------------------------------------------------------------------------------------------------------




----------------------------------------- Iteration    1(  14)  ---------------------------------------


    POTLOK:  cpu time    0.4960: real time    0.4947
    SETDIJ:  cpu time    0.0280: real time    0.0278
     EDDAV:  cpu time   71.3920: real time   71.3752
       DOS:  cpu time    0.0040: real time    0.0010
    CHARGE:  cpu time    2.0280: real time    2.0293
    MIXING:  cpu time    0.0200: real time    0.0208
    --------------------------------------------
      LOOP:  cpu time   73.9680: real time   73.9495

 eigenvalue-minimisations  :  4960
 total energy-change (2. order) : 0.1585169E-05  (-0.2499605E-06)
 number of electron     216.0000002 magnetization 
 augmentation part      -16.9215177 magnetization 

 Broyden mixing:
  rms(total) = 0.41333E-03    rms(broyden)= 0.41333E-03
  rms(prec ) = 0.45465E-03
  weight for this iteration     100.00

 eigenvalues of (default mixing * dielectric matrix)
  average eigenvalue GAMMA=   1.7891
  3.0636  2.5287  2.2189  2.2189  1.7857  1.3114  0.9575  1.0086  1.0086

 Free energy of the ion-electron system (eV)
  ---------------------------------------------------
  alpha Z        PSCENC =       176.98545557
  Ewald energy   TEWEN  =     -6165.54281523
  -Hartree energ DENC   =      -398.91851635
  -exchange      EXHF   =         0.00000000
  -V(xc)+E(xc)   XCENC  =      -463.21322472
  PAW double counting   =     21836.01909673   -20927.46241709
  entropy T*S    EENTRO =        -0.00000000
  eigenvalues    EBANDS =        75.12003119
  atomic energy  EATOM  =      5586.77218921
  Solvation  Ediel_sol  =         0.00000000
  ---------------------------------------------------
  free energy    TOTEN  =      -280.24020070 eV

  energy without entropy =     -280.24020070  energy(sigma->0) =     -280.24020070


--------------------------------------------------------------------------------------------------------




----------------------------------------- Iteration    1(  15)  ---------------------------------------


    POTLOK:  cpu time    0.5440: real time    0.5422
    SETDIJ:  cpu time    0.0280: real time    0.0263
     EDDAV:  cpu time   68.9280: real time   68.9127
       DOS:  cpu time    0.0040: real time    0.0032
    CHARGE:  cpu time    2.1120: real time    2.1119
    MIXING:  cpu time    0.0200: real time    0.0216
    --------------------------------------------
      LOOP:  cpu time   71.6360: real time   71.6188

 eigenvalue-minimisations  :  4736
 total energy-change (2. order) :-0.1436340E-05  (-0.1048645E-06)
 number of electron     216.0000002 magnetization 
 augmentation part      -16.9214314 magnetization 

 Broyden mixing:
  rms(total) = 0.15090E-03    rms(broyden)= 0.15090E-03
  rms(prec ) = 0.16427E-03
  weight for this iteration     100.00

 eigenvalues of (default mixing * dielectric matrix)
  average eigenvalue GAMMA=   1.7365
  3.1920  2.5385  2.1588  2.1588  1.6373  1.3332  1.3332  1.1650  0.9243  0.9243

 Free energy of the ion-electron system (eV)
  ---------------------------------------------------
  alpha Z        PSCENC =       176.98545557
  Ewald energy   TEWEN  =     -6165.54281523
  -Hartree energ DENC   =      -398.93060784
  -exchange      EXHF   =         0.00000000
  -V(xc)+E(xc)   XCENC  =      -463.21266118
  PAW double counting   =     21835.25056961   -20926.69458648
  entropy T*S    EENTRO =        -0.00000000
  eigenvalues    EBANDS =        75.13225420
  atomic energy  EATOM  =      5586.77218921
  Solvation  Ediel_sol  =         0.00000000
  ---------------------------------------------------
  free energy    TOTEN  =      -280.24020213 eV

  energy without entropy =     -280.24020213  energy(sigma->0) =     -280.24020213


--------------------------------------------------------------------------------------------------------




----------------------------------------- Iteration    1(  16)  ---------------------------------------


    POTLOK:  cpu time    0.5440: real time    0.5418
    SETDIJ:  cpu time    0.0280: real time    0.0283
     EDDAV:  cpu time   45.6640: real time   45.6533
       DOS:  cpu time    0.0040: real time    0.0022
    --------------------------------------------
      LOOP:  cpu time   46.2400: real time   46.2264

 eigenvalue-minimisations  :  2688
 total energy-change (2. order) : 0.7852213E-07  (-0.7647638E-08)
 number of electron     216.0000002 magnetization 
 augmentation part      -16.9214314 magnetization 

 Free energy of the ion-electron system (eV)
  ---------------------------------------------------
  alpha Z        PSCENC =       176.98545557
  Ewald energy   TEWEN  =     -6165.54281523
  -Hartree energ DENC   =      -398.93085612
  -exchange      EXHF   =         0.00000000
  -V(xc)+E(xc)   XCENC  =      -463.21259651
  PAW double counting   =     21835.35167806   -20926.79562681
  entropy T*S    EENTRO =        -0.00000000
  eigenvalues    EBANDS =        75.13236977
  atomic energy  EATOM  =      5586.77218921
  Solvation  Ediel_sol  =         0.00000000
  ---------------------------------------------------
  free energy    TOTEN  =      -280.24020205 eV

  energy without entropy =     -280.24020205  energy(sigma->0) =     -280.24020205


--------------------------------------------------------------------------------------------------------




 average (electrostatic) potential at core
  the test charge radii are     0.9892  1.1631
  (the norm of the test charge is              1.0000)
       1 -83.7340       2 -83.5815       3 -83.6532       4 -83.6826       5 -83.6355
       6 -83.6047       7 -83.6108       8 -83.5577       9 -83.6976      10 -83.5730
      11 -83.7237      12 -83.6500      13 -83.5817      14 -83.6486      15 -83.6224
      16 -83.5303      17 -83.5060      18 -83.7406      19 -83.6078      20 -83.5936
      21 -83.5474      22 -83.6210      23 -83.6065      24 -83.7141      25 -83.5623
      26 -83.5788      27 -83.5710      28 -83.6070      29 -83.6290      30 -83.5993
      31 -83.6262      32 -83.6532      33 -83.6877      34 -83.5295      35 -83.6540
      36 -83.5634      37 -83.5888      38 -83.5877      39 -83.5639      40 -83.6484
      41 -83.6409      42 -83.6009      43 -83.6801      44 -30.5895      45 -30.6249
      46 -30.6054      47 -30.6436      48 -30.6350      49 -30.6643      50 -30.6152
      51 -30.5819      52 -30.6119      53 -30.5883      54 -30.6442



 E-fermi :   5.8686     XC(G=0):  -9.4465     alpha+bet :-11.6270


 k-point     1 :       0.0000    0.0000    0.0000
  band No.  band energies     occupation 
      1      -6.7596      2.00000
      2      -5.7166      2.00000
      3      -5.5159      2.00000
      4      -5.4774      2.00000
      5      -5.4446      2.00000
      6      -5.3414      2.00000
      7      -5.2648      2.00000
      8      -5.2432      2.00000
      9      -5.1397      2.00000
     10      -4.9676      2.00000
     11      -4.8292      2.00000
     12      -4.7978      2.00000
     13      -4.7119      2.00000
     14      -4.6660      2.00000
     15      -4.5930      2.00000
     16      -3.8206      2.00000
     17      -3.6601      2.00000
     18      -3.5935      2.00000
     19      -3.5448      2.00000
     20      -3.4393      2.00000
     21      -3.4250      2.00000
     22      -3.3382      2.00000
     23      -3.2954      2.00000
     24      -3.2610      2.00000
     25      -3.2306      2.00000
     26      -3.1821      2.00000
     27      -3.1470      2.00000
     28      -1.7224      2.00000
     29      -1.6246      2.00000
     30      -1.5634      2.00000
     31      -1.5092      2.00000
     32      -1.4389      2.00000
     33      -1.4201      2.00000
     34      -1.3835      2.00000
     35      -1.3542      2.00000
     36      -1.3285      2.00000
     37      -1.3094      2.00000
     38      -1.2662      2.00000
     39      -1.2389      2.00000
     40      -0.0719      2.00000
     41       0.0133      2.00000
     42       0.0217      2.00000
     43       0.0468      2.00000
     44       0.0837      2.00000
     45       0.0897      2.00000
     46       0.0951      2.00000
     47       0.1192      2.00000
     48       0.2677      2.00000
     49       0.3532      2.00000
     50       0.3885      2.00000
     51       0.4145      2.00000
     52       0.4365      2.00000
     53       0.4682      2.00000
     54       1.0220      2.00000
     55       1.0291      2.00000
     56       1.0329      2.00000
     57       1.0390      2.00000
     58       1.0479      2.00000
     59       1.0557      2.00000
     60       1.0602      2.00000
     61       1.0723      2.00000
     62       1.0796      2.00000
     63       1.0851      2.00000
     64       1.1024      2.00000
     65       1.1201      2.00000
     66       2.9751      2.00000
     67       2.9921      2.00000
     68       3.0410      2.00000
     69       3.0493      2.00000
     70       3.0733      2.00000
     71       3.0802      2.00000
     72       3.0906      2.00000
     73       3.0937      2.00000
     74       3.0995      2.00000
     75       3.1181      2.00000
     76       3.1395      2.00000
     77       3.1955      2.00000
     78       3.3014      2.00000
     79       3.3225      2.00000
     80       3.3643      2.00000
     81       3.3768      2.00000
     82       3.3940      2.00000
     83       3.3971      2.00000
     84       3.4103      2.00000
     85       3.4235      2.00000
     86       3.4302      2.00000
     87       3.4452      2.00000
     88       3.4589      2.00000
     89       3.4747      2.00000
     90       4.4179      2.00000
     91       4.4570      2.00000
     92       4.4712      2.00000
     93       4.4898      2.00000
     94       4.4999      2.00000
     95       4.5069      2.00000
     96       4.5249      2.00000
     97       4.5429      2.00000
     98       4.5528      2.00000
     99       4.5688      2.00000
    100       4.5871      2.00000
    101       4.6069      2.00000
    102       4.6257      2.00000
    103       4.6360      2.00000
    104       4.6435      2.00000
    105       4.6532      2.00000
    106       5.5804      2.00000
    107       5.6228      2.00000
    108       5.6482      2.00000
    109       6.1557      0.00000
    110       6.2533      0.00000
    111       6.2595      0.00000
    112       6.3046      0.00000
    113       6.3290      0.00000
    114       6.3488      0.00000
    115       6.9174      0.00000
    116       6.9551      0.00000
    117       7.0062      0.00000
    118       7.0264      0.00000
    119       7.0365      0.00000
    120       7.0780      0.00000
    121       7.0904      0.00000
    122       7.1106      0.00000
    123       7.1347      0.00000
    124       7.1404      0.00000
    125       7.1742      0.00000
    126       7.1819      0.00000
    127       7.2046      0.00000
    128       7.2212      0.00000
    129       7.2326      0.00000
    130       7.2842      0.00000
    131       7.3086      0.00000
    132       7.3346      0.00000
    133       7.3644      0.00000
    134       7.3894      0.00000
    135       7.5282      0.00000
    136       7.5640      0.00000
    137       7.5941      0.00000
    138       7.6408      0.00000
    139       7.6665      0.00000
    140       7.6759      0.00000
    141       8.0542      0.00000
    142       8.1253      0.00000
    143       8.2715      0.00000
    144       8.6252      0.00000

 k-point     2 :       0.3333    0.0000    0.0000
  band No.  band energies     occupation 
      1      -6.6044      2.00000
      2      -6.1561      2.00000
      3      -5.6760      2.00000
      4      -5.5448      2.00000
      5      -5.4684      2.00000
      6      -5.3978      2.00000
      7      -5.2553      2.00000
      8      -5.1473      2.00000
      9      -5.0178      2.00000
     10      -4.8673      2.00000
     11      -4.7684      2.00000
     12      -4.6179      2.00000
     13      -4.4321      2.00000
     14      -4.2259      2.00000
     15      -4.2102      2.00000
     16      -4.1122      2.00000
     17      -4.0115      2.00000
     18      -3.9154      2.00000
     19      -3.6547      2.00000
     20      -3.5156      2.00000
     21      -3.3980      2.00000
     22      -3.3503      2.00000
     23      -3.3206      2.00000
     24      -3.2671      2.00000
     25      -3.2046      2.00000
     26      -3.1428      2.00000
     27      -3.0954      2.00000
     28      -1.7826      2.00000
     29      -1.6800      2.00000
     30      -1.6320      2.00000
     31      -1.5458      2.00000
     32      -1.5248      2.00000
     33      -1.4667      2.00000
     34      -1.4312      2.00000
     35      -1.4015      2.00000
     36      -1.3781      2.00000
     37      -1.3058      2.00000
     38      -0.9047      2.00000
     39      -0.8196      2.00000
     40      -0.7746      2.00000
     41      -0.7426      2.00000
     42      -0.6671      2.00000
     43      -0.6057      2.00000
     44      -0.4534      2.00000
     45      -0.3838      2.00000
     46      -0.3674      2.00000
     47       0.6336      2.00000
     48       0.7093      2.00000
     49       0.7333      2.00000
     50       0.9632      2.00000
     51       1.0408      2.00000
     52       1.0778      2.00000
     53       1.2974      2.00000
     54       1.3053      2.00000
     55       1.3153      2.00000
     56       1.3300      2.00000
     57       1.3318      2.00000
     58       1.3785      2.00000
     59       1.3999      2.00000
     60       1.4265      2.00000
     61       1.4327      2.00000
     62       1.6867      2.00000
     63       1.7019      2.00000
     64       1.7470      2.00000
     65       1.9751      2.00000
     66       2.2792      2.00000
     67       2.3140      2.00000
     68       2.3315      2.00000
     69       2.8543      2.00000
     70       2.8824      2.00000
     71       2.8930      2.00000
     72       2.9146      2.00000
     73       2.9207      2.00000
     74       2.9341      2.00000
     75       2.9469      2.00000
     76       2.9591      2.00000
     77       2.9914      2.00000
     78       3.0385      2.00000
     79       3.0572      2.00000
     80       3.1034      2.00000
     81       3.1517      2.00000
     82       3.1855      2.00000
     83       3.2021      2.00000
     84       3.2184      2.00000
     85       3.2561      2.00000
     86       3.2671      2.00000
     87       3.4881      2.00000
     88       3.5154      2.00000
     89       3.5741      2.00000
     90       3.9249      2.00000
     91       3.9478      2.00000
     92       3.9656      2.00000
     93       3.9833      2.00000
     94       4.0113      2.00000
     95       4.0302      2.00000
     96       4.0655      2.00000
     97       4.0891      2.00000
     98       4.1198      2.00000
     99       4.1452      2.00000
    100       4.3984      2.00000
    101       4.4105      2.00000
    102       4.4489      2.00000
    103       4.4749      2.00000
    104       4.5240      2.00000
    105       4.9410      2.00000
    106       4.9588      2.00000
    107       5.3750      2.00000
    108       5.4024      2.00000
    109       6.4815      0.00000
    110       6.5651      0.00000
    111       6.6066      0.00000
    112       6.7107      0.00000
    113       6.7808      0.00000
    114       6.8490      0.00000
    115       6.9732      0.00000
    116       7.0143      0.00000
    117       7.0565      0.00000
    118       7.0829      0.00000
    119       7.5265      0.00000
    120       7.5926      0.00000
    121       7.6316      0.00000
    122       7.6585      0.00000
    123       7.6862      0.00000
    124       7.7268      0.00000
    125       7.7677      0.00000
    126       7.7826      0.00000
    127       7.8332      0.00000
    128       7.8825      0.00000
    129       7.8983      0.00000
    130       7.9529      0.00000
    131       7.9681      0.00000
    132       7.9903      0.00000
    133       8.0215      0.00000
    134       8.0425      0.00000
    135       8.0661      0.00000
    136       8.1222      0.00000
    137       8.1582      0.00000
    138       8.2247      0.00000
    139       8.4909      0.00000
    140       8.6244      0.00000
    141       8.6465      0.00000
    142       8.7287      0.00000
    143       8.7673      0.00000
    144       8.9277      0.00000

 k-point     3 :       0.0000    0.3333    0.0000
  band No.  band energies     occupation 
      1      -6.6058      2.00000
      2      -6.1297      2.00000
      3      -5.6590      2.00000
      4      -5.5814      2.00000
      5      -5.4943      2.00000
      6      -5.4056      2.00000
      7      -5.2572      2.00000
      8      -5.1703      2.00000
      9      -5.0057      2.00000
     10      -4.9381      2.00000
     11      -4.7621      2.00000
     12      -4.5526      2.00000
     13      -4.3709      2.00000
     14      -4.2600      2.00000
     15      -4.1471      2.00000
     16      -4.0706      2.00000
     17      -4.0217      2.00000
     18      -3.8984      2.00000
     19      -3.6975      2.00000
     20      -3.5332      2.00000
     21      -3.4280      2.00000
     22      -3.3633      2.00000
     23      -3.3180      2.00000
     24      -3.2925      2.00000
     25      -3.1827      2.00000
     26      -3.1265      2.00000
     27      -3.0598      2.00000
     28      -1.8177      2.00000
     29      -1.7029      2.00000
     30      -1.6219      2.00000
     31      -1.5930      2.00000
     32      -1.5009      2.00000
     33      -1.4713      2.00000
     34      -1.4444      2.00000
     35      -1.4063      2.00000
     36      -1.3567      2.00000
     37      -1.2949      2.00000
     38      -0.8782      2.00000
     39      -0.8636      2.00000
     40      -0.7820      2.00000
     41      -0.7580      2.00000
     42      -0.7115      2.00000
     43      -0.6118      2.00000
     44      -0.4516      2.00000
     45      -0.4286      2.00000
     46      -0.3829      2.00000
     47       0.6500      2.00000
     48       0.6771      2.00000
     49       0.7609      2.00000
     50       1.0036      2.00000
     51       1.0396      2.00000
     52       1.1047      2.00000
     53       1.3130      2.00000
     54       1.3264      2.00000
     55       1.3402      2.00000
     56       1.3452      2.00000
     57       1.3498      2.00000
     58       1.3831      2.00000
     59       1.4174      2.00000
     60       1.4434      2.00000
     61       1.4593      2.00000
     62       1.7109      2.00000
     63       1.7465      2.00000
     64       1.7629      2.00000
     65       2.0527      2.00000
     66       2.3362      2.00000
     67       2.3574      2.00000
     68       2.3858      2.00000
     69       2.8219      2.00000
     70       2.8734      2.00000
     71       2.8911      2.00000
     72       2.9089      2.00000
     73       2.9152      2.00000
     74       2.9267      2.00000
     75       2.9386      2.00000
     76       2.9455      2.00000
     77       2.9562      2.00000
     78       2.9677      2.00000
     79       3.0422      2.00000
     80       3.0538      2.00000
     81       3.1636      2.00000
     82       3.1883      2.00000
     83       3.2354      2.00000
     84       3.2546      2.00000
     85       3.2918      2.00000
     86       3.3062      2.00000
     87       3.4101      2.00000
     88       3.5183      2.00000
     89       3.5321      2.00000
     90       3.8754      2.00000
     91       3.9447      2.00000
     92       3.9629      2.00000
     93       3.9756      2.00000
     94       3.9901      2.00000
     95       4.0054      2.00000
     96       4.0417      2.00000
     97       4.1015      2.00000
     98       4.1207      2.00000
     99       4.2069      2.00000
    100       4.3205      2.00000
    101       4.3523      2.00000
    102       4.4186      2.00000
    103       4.5063      2.00000
    104       4.5228      2.00000
    105       4.8684      2.00000
    106       4.9161      2.00000
    107       5.3243      2.00000
    108       5.3765      2.00000
    109       6.4385      0.00000
    110       6.5135      0.00000
    111       6.5698      0.00000
    112       6.6405      0.00000
    113       6.7450      0.00000
    114       6.7852      0.00000
    115       6.9183      0.00000
    116       6.9903      0.00000
    117       7.0348      0.00000
    118       7.0758      0.00000
    119       7.4896      0.00000
    120       7.5660      0.00000
    121       7.6192      0.00000
    122       7.6360      0.00000
    123       7.6891      0.00000
    124       7.7269      0.00000
    125       7.7741      0.00000
    126       7.7940      0.00000
    127       7.8059      0.00000
    128       7.8739      0.00000
    129       7.9288      0.00000
    130       7.9634      0.00000
    131       7.9744      0.00000
    132       8.0086      0.00000
    133       8.0598      0.00000
    134       8.1217      0.00000
    135       8.1344      0.00000
    136       8.1626      0.00000
    137       8.2111      0.00000
    138       8.2695      0.00000
    139       8.4412      0.00000
    140       8.6028      0.00000
    141       8.7517      0.00000
    142       8.7860      0.00000
    143       8.8349      0.00000
    144       8.9702      0.00000

 k-point     4 :       0.3333    0.3333    0.0000
  band No.  band energies     occupation 
      1      -6.5525      2.00000
      2      -6.0090      2.00000
      3      -5.8594      2.00000
      4      -5.7734      2.00000
      5      -5.6644      2.00000
      6      -5.6281      2.00000
      7      -4.9389      2.00000
      8      -4.8531      2.00000
      9      -4.7362      2.00000
     10      -4.6572      2.00000
     11      -4.5976      2.00000
     12      -4.5618      2.00000
     13      -4.4651      2.00000
     14      -4.4405      2.00000
     15      -4.2894      2.00000
     16      -4.1428      2.00000
     17      -4.0121      2.00000
     18      -3.9797      2.00000
     19      -3.9003      2.00000
     20      -3.8582      2.00000
     21      -3.7264      2.00000
     22      -3.6163      2.00000
     23      -3.3282      2.00000
     24      -2.8762      2.00000
     25      -2.7666      2.00000
     26      -2.6443      2.00000
     27      -2.5732      2.00000
     28      -2.1871      2.00000
     29      -2.0876      2.00000
     30      -2.0146      2.00000
[...]
    101       4.3514      2.00000
    102       4.3652      2.00000
    103       4.4042      2.00000
    104       4.4118      2.00000
    105       4.4917      2.00000
    106       4.5286      2.00000
    107       4.5420      2.00000
    108       5.3669      2.00000
    109       6.3545      0.00000
    110       7.1271      0.00000
    111       7.1879      0.00000
    112       7.2039      0.00000
    113       7.2339      0.00000
    114       7.2817      0.00000
    115       7.5306      0.00000
    116       7.5716      0.00000
    117       7.6025      0.00000
    118       7.6754      0.00000
    119       7.7089      0.00000
    120       7.7641      0.00000
    121       7.7918      0.00000
    122       7.8327      0.00000
    123       7.8509      0.00000
    124       7.9100      0.00000
    125       7.9804      0.00000
    126       8.0075      0.00000
    127       8.2147      0.00000
    128       8.2446      0.00000
    129       8.2797      0.00000
    130       8.3374      0.00000
    131       8.3557      0.00000
    132       8.4051      0.00000
    133       8.4575      0.00000
    134       8.4724      0.00000
    135       8.5070      0.00000
    136       8.5435      0.00000
    137       8.6414      0.00000
    138       8.7510      0.00000
    139       8.7838      0.00000
    140       8.8546      0.00000
    141       8.8666      0.00000
    142       8.8899      0.00000
    143       8.9528      0.00000
    144       8.9928      0.00000


--------------------------------------------------------------------------------------------------------


 soft charge-density along one line, spin component           1
         0         1         2         3         4         5         6         7         8         9
 total charge-density along one line

 pseudopotential strength for first ion, spin component:           1
 18.473   0.000  25.773   0.000  -0.002   0.000   0.001   0.000  -0.002   0.000  -0.004   0.000   0.003   0.000  -0.003   0.000
 25.773   0.000  35.962   0.000  -0.003   0.000   0.002   0.000  -0.002   0.000  -0.005   0.000   0.004   0.000  -0.004   0.000
 -0.002   0.000  -0.003   0.000   4.188   0.000   0.000   0.000  -0.000   0.000   7.804   0.000   0.000   0.000  -0.000   0.000
  0.001   0.000   0.002   0.000   0.000   0.000   4.188   0.000   0.000   0.000   0.000   0.000   7.804   0.000   0.001   0.000
 -0.002   0.000  -0.002   0.000  -0.000   0.000   0.000   0.000   4.188   0.000  -0.000   0.000   0.001   0.000   7.804   0.000
 -0.004   0.000  -0.005   0.000   7.804   0.000   0.000   0.000  -0.000   0.000  14.554   0.000   0.001   0.000  -0.001   0.000
  0.003   0.000   0.004   0.000   0.000   0.000   7.804   0.000   0.001   0.000   0.001   0.000  14.554   0.000   0.002   0.000
 -0.003   0.000  -0.004   0.000  -0.000   0.000   0.001   0.000   7.804   0.000  -0.001   0.000   0.002   0.000  14.554   0.000
 total augmentation occupancy for first ion, spin component:           1
  5.627  -2.130  -0.032  -0.042   0.077   0.011   0.013  -0.027
 -2.130   0.939   0.022   0.027  -0.031  -0.008  -0.005   0.010
 -0.032   0.022   2.952  -0.088   0.011  -0.664   0.023  -0.003
 -0.042   0.027  -0.088   2.944   0.005   0.023  -0.662  -0.004
  0.077  -0.031   0.011   0.005   2.939  -0.003  -0.004  -0.660
  0.011  -0.008  -0.664   0.023  -0.003   0.160  -0.006   0.000
  0.013  -0.005   0.023  -0.662  -0.004  -0.006   0.159   0.002
 -0.027   0.010  -0.003  -0.004  -0.660   0.000   0.002   0.158


------------------------ aborting loop because EDIFF is reached ----------------------------------------


    CHARGE:  cpu time    2.0880: real time    2.0891
    FORLOC:  cpu time    0.2120: real time    0.2139
    FORNL :  cpu time   24.9880: real time   24.9776
    STRESS:  cpu time   58.9760: real time   58.9557
    FORCOR:  cpu time    0.5200: real time    0.5199
    FORHAR:  cpu time    0.3200: real time    0.3213
    MIXING:  cpu time    0.0160: real time    0.0157
    OFIELD:  cpu time    0.0000: real time    0.0000

  FORCE on cell =-STRESS in cart. coord.  units (eV):
  Direction    XX          YY          ZZ          XY          YZ          ZX
  --------------------------------------------------------------------------------------
  Alpha Z   176.98546   176.98546   176.98546
  Ewald   -2059.04292 -2051.24292 -2055.29678     8.30035   -28.97598    -2.90866
  Hartree   132.21796   133.76805   132.94571     2.15711    -7.70586    -0.52549
  E(xc)    -702.26685  -702.28776  -702.28805    -0.08319     0.33763     0.03134
  Local    -753.47357  -763.23481  -758.02344   -10.38583    36.30015     3.40440
  n-local  1908.66452  1909.78592  1909.15201     1.42510    -4.75330    -0.61171
  augment  -237.80041  -237.82057  -237.80202    -0.17727     0.55667     0.05436
  Kinetic  1567.74549  1565.77765  1566.83042     1.76238    -6.32091    -0.33887
  Fock        0.00000     0.00000     0.00000     0.00000     0.00000     0.00000
  -------------------------------------------------------------------------------------
  Total      33.02967    31.73101    32.50332     2.99864   -10.56160    -0.89463
  in kB      48.85780    46.93682    48.07922     4.43562   -15.62281    -1.32334
  external pressure =       47.96 kB  Pullay stress =        0.00 kB


 VOLUME and BASIS-vectors are now :
 -----------------------------------------------------------------------------
  energy-cutoff  :      350.00
  volume of cell :     1083.13
      direct lattice vectors                 reciprocal lattice vectors
    -0.013288331  8.224736404  8.214680191    -0.061317123  0.060657417  0.060902424
     8.145742364  0.045536523  8.155855336     0.061246612 -0.061610120  0.061784616
     8.123373042  8.143542228  0.067905845     0.061586003  0.061879000 -0.061855127

  length of vectors
    11.624432723 11.527062440 11.502655380     0.105585117  0.106603438  0.106994874


 FORCES acting on ions
    electron-ion (+dipol)            ewald-force                    non-local-force                 convergence-correction
 -----------------------------------------------------------------------------------------------
   0.158E+01 -.614E-01 -.114E+01   -.937E+00 0.371E+00 0.844E+00   -.694E+00 0.216E+00 -.259E-01   -.432E-04 0.732E-04 -.752E-04
   -.148E+01 0.170E+01 0.188E+00   0.111E+01 -.162E+01 0.199E-01   0.461E+00 -.432E+00 -.350E+00   -.140E-03 -.328E-04 0.932E-04
   -.350E-01 0.915E+00 -.158E+01   -.210E+00 -.116E+01 0.174E+01   0.184E+00 -.170E+00 0.397E+00   -.127E-03 0.445E-04 -.168E-04
   -.929E+00 -.104E+01 -.560E+00   0.102E+01 0.110E+01 0.118E+01   0.298E+00 0.297E+00 0.484E+00   -.422E-04 0.100E-03 0.740E-04
   0.899E+00 -.102E+01 0.146E+01   -.390E+00 0.126E+01 -.104E+01   -.846E-01 0.172E+00 -.336E+00   0.272E-04 -.469E-04 0.145E-03
   0.147E+01 0.264E+00 0.333E+00   -.159E+01 -.267E+00 -.193E+00   -.310E+00 -.676E-01 -.381E-01   -.607E-04 0.587E-04 0.106E-03
   0.283E+01 0.319E+00 -.618E+00   -.270E+01 0.156E+00 0.241E+00   -.491E+00 -.298E-01 0.171E+00   0.406E-04 0.693E-04 0.632E-04
   -.441E+00 -.121E+01 0.270E+01   0.988E-01 0.108E+01 -.244E+01   0.143E+00 0.133E+00 -.708E+00   -.163E-05 0.747E-04 0.129E-03
   0.103E+01 -.130E+01 0.751E+00   -.742E+00 0.553E+00 -.854E+00   -.168E+00 0.251E+00 0.197E-01   0.356E-04 -.109E-03 0.293E-05
   -.154E+01 -.154E+01 0.196E+00   0.113E+01 0.149E+01 -.925E-01   0.622E+00 0.277E+00 -.185E-02   0.597E-05 0.581E-04 0.592E-04
   0.263E+01 0.600E-01 -.581E+00   -.242E+01 -.284E+00 0.218E+00   -.874E+00 -.423E-01 0.610E-01   -.268E-04 -.152E-04 0.466E-05
   0.198E+01 -.611E+00 -.514E+00   -.134E+01 0.886E+00 0.769E+00   -.464E+00 0.488E+00 0.881E-01   -.180E-04 0.173E-04 0.579E-04
   -.121E+01 0.254E+00 -.199E+00   0.947E+00 -.246E+00 0.185E+00   0.202E+00 -.354E+00 0.101E+00   -.517E-04 0.194E-04 -.683E-04
   0.543E+00 -.202E+00 -.150E+01   -.510E+00 0.554E+00 0.940E+00   -.425E+00 -.127E-02 0.572E+00   -.347E-05 0.712E-04 -.651E-04
   0.102E+01 0.150E+01 -.184E+01   -.789E+00 -.101E+01 0.159E+01   -.275E+00 -.202E+00 0.112E+00   0.553E-04 0.397E-04 -.671E-05
   0.221E+01 0.284E+00 -.375E+01   -.169E+01 -.264E+00 0.327E+01   -.595E+00 -.937E-01 0.100E+01   0.643E-04 0.504E-04 -.697E-04
   -.353E+01 -.115E+01 -.108E+00   0.298E+01 0.102E+01 0.202E+00   0.932E+00 0.319E+00 -.159E+00   -.400E-04 -.190E-04 0.288E-04
   0.191E+01 0.878E+00 -.581E+00   -.191E+01 -.108E+01 -.242E-01   -.829E+00 -.291E+00 0.175E+00   -.621E-04 -.226E-04 -.202E-03
   -.315E+01 -.197E+01 0.329E+00   0.300E+01 0.145E+01 0.143E+00   0.885E+00 0.418E+00 0.101E+00   0.531E-04 0.229E-04 0.103E-03
   0.179E+01 0.135E+01 0.928E+00   -.173E+01 -.839E+00 -.129E+01   -.567E+00 -.381E+00 -.281E+00   -.539E-04 0.228E-04 0.486E-04
   -.342E+00 -.149E+01 0.375E+00   -.118E+00 0.127E+01 -.297E+00   0.350E+00 0.544E+00 -.156E-01   -.487E-04 0.559E-05 0.259E-05
   0.279E+01 0.111E+01 0.162E+01   -.271E+01 -.133E+01 -.119E+01   -.655E+00 -.451E+00 -.454E+00   -.400E-04 -.877E-04 0.958E-04
   0.422E+00 0.700E+00 -.118E+01   0.272E+00 -.155E+00 0.125E+01   -.278E+00 -.358E+00 0.322E+00   0.168E-03 0.137E-04 0.450E-05
   0.137E+01 0.214E+00 -.102E+01   -.768E+00 0.134E+00 0.642E+00   -.262E+00 0.514E-01 0.163E+00   0.466E-04 -.271E-04 -.337E-04
   -.271E+01 0.791E+00 -.196E+00   0.215E+01 -.767E+00 0.276E+00   0.101E+01 -.495E-01 -.123E+00   -.844E-04 -.101E-03 0.659E-04
   0.272E+01 0.172E+01 -.227E+01   -.216E+01 -.167E+01 0.202E+01   -.990E+00 -.427E+00 0.595E+00   0.104E-04 -.367E-04 -.431E-04
   -.294E+01 -.132E+01 0.174E+01   0.244E+01 0.130E+01 -.145E+01   0.688E+00 0.330E+00 -.757E+00   0.112E-04 0.209E-04 -.254E-05
   0.579E+00 -.198E+01 0.229E+00   -.518E+00 0.146E+01 0.160E+00   -.439E+00 0.313E+00 0.691E-01   0.530E-04 -.182E-04 0.580E-04
   -.240E+01 -.576E+00 0.202E+01   0.172E+01 0.797E+00 -.142E+01   0.511E+00 0.466E+00 -.458E+00   0.794E-04 0.714E-04 0.852E-04
   0.130E+01 0.911E+00 -.170E+01   -.586E+00 -.105E+01 0.115E+01   -.341E+00 -.389E+00 0.579E+00   0.321E-04 -.685E-04 0.297E-05
   -.290E+01 0.325E+00 0.152E+01   0.263E+01 -.771E+00 -.990E+00   0.890E+00 0.774E-01 -.704E+00   -.769E-05 -.125E-03 0.492E-04
   0.160E+01 0.119E+01 -.174E+01   -.148E+01 -.144E+01 0.183E+01   -.802E+00 -.299E+00 0.628E+00   -.748E-04 -.806E-04 0.498E-04
   0.399E+01 0.111E+01 -.748E+00   -.280E+01 -.997E+00 0.649E+00   -.121E+01 -.413E+00 0.140E+00   0.809E-04 0.149E-03 -.910E-04
   0.126E+00 -.283E+00 0.172E+01   -.137E+00 0.327E+00 -.142E+01   -.169E+00 -.403E-01 -.369E+00   0.800E-04 0.868E-04 -.839E-04
   0.425E+00 -.134E+01 -.255E+01   -.269E+00 0.113E+01 0.158E+01   0.166E-01 0.434E+00 0.676E+00   0.193E-06 -.631E-04 -.121E-03
   0.116E+01 -.669E+00 -.570E+00   -.138E+01 0.469E+00 0.630E+00   -.626E-01 0.224E+00 0.203E+00   -.112E-03 -.188E-03 0.466E-05
   0.251E+01 -.160E+01 0.126E+01   -.214E+01 0.140E+01 -.116E+01   -.603E+00 0.533E+00 -.614E+00   -.525E-05 -.149E-03 0.208E-04
   -.139E+01 -.934E+00 -.145E+01   0.111E+01 0.918E+00 0.127E+01   0.444E+00 0.570E-01 0.625E+00   0.122E-03 0.176E-04 -.802E-04
   0.178E+01 -.406E+00 0.136E+01   -.127E+01 0.379E+00 -.128E+01   -.765E+00 -.744E-01 -.256E+00   0.157E-03 0.612E-04 0.136E-04
   0.188E+01 0.133E+01 0.423E+00   -.125E+01 -.940E+00 -.217E+00   -.566E+00 -.386E+00 -.162E-01   -.447E-05 0.740E-05 0.706E-04
   -.335E+01 0.195E+01 -.555E+00   0.253E+01 -.205E+01 0.328E+00   0.118E+01 -.440E+00 0.130E+00   0.230E-04 -.681E-04 0.233E-04
   -.276E+01 0.163E+00 0.157E+01   0.262E+01 0.200E+00 -.176E+01   0.930E+00 0.105E+00 -.424E+00   0.102E-03 0.192E-04 0.238E-04
   0.827E+00 -.929E+00 0.112E+01   -.114E+01 0.864E+00 -.122E+01   -.476E+00 0.236E+00 -.202E+00   -.614E-04 0.185E-04 -.786E-04
   -.994E+00 0.398E+00 -.182E+01   0.824E+00 -.433E+00 0.181E+01   0.139E+00 -.195E+00 0.116E+00   0.526E-04 0.752E-04 -.211E-04
   -.100E+01 0.822E+00 0.993E+00   0.917E+00 -.850E+00 -.106E+01   0.704E-01 -.151E+00 -.381E+00   -.360E-04 0.707E-04 0.251E-04
   -.257E+01 0.980E+00 0.928E+00   0.252E+01 -.986E+00 -.958E+00   0.458E+00 -.197E+00 -.332E-01   -.504E-04 -.342E-04 -.753E-04
   -.105E+01 -.824E-02 0.258E+00   0.544E+00 0.177E+00 0.726E-01   0.256E+00 0.379E-02 -.469E-01   -.624E-04 0.664E-05 0.730E-04
   -.250E+01 -.470E+00 0.589E+00   0.214E+01 0.131E+00 -.877E+00   0.568E+00 0.447E-01 -.733E-01   -.617E-04 0.105E-04 -.187E-03
   0.376E-01 -.531E+00 0.186E+01   0.410E+00 0.785E+00 -.171E+01   -.115E+00 0.104E+00 -.309E+00   -.230E-04 0.201E-04 0.213E-04
   -.535E+00 -.375E+00 0.108E+01   0.398E+00 0.407E+00 -.961E+00   0.178E+00 0.104E+00 -.691E-01   0.287E-04 -.813E-04 -.436E-04
   -.198E+00 0.140E+01 0.117E+01   0.745E-01 -.143E+01 -.120E+01   0.637E-01 -.219E+00 -.144E+00   0.747E-04 0.543E-04 0.286E-04
   -.285E+01 -.408E+00 0.507E+00   0.287E+01 0.435E+00 -.478E+00   0.742E+00 0.166E+00 0.320E-01   -.568E-04 0.854E-05 -.120E-03
   -.309E+00 -.139E+01 -.137E+00   0.105E+00 0.141E+01 0.102E+00   0.223E-01 0.290E+00 0.139E-01   -.110E-04 -.772E-04 -.120E-03
   0.132E+01 0.197E+01 -.757E+00   -.896E+00 -.228E+01 0.477E+00   -.342E+00 -.301E+00 0.214E+00   0.402E-04 0.150E-04 -.207E-05
 -----------------------------------------------------------------------------------------------
   0.161E+01 -.200E+00 -.439E+00   -.666E-14 0.524E-13 -.333E-14   -.161E+01 0.200E+00 0.439E+00   0.331E-04 0.434E-05 0.280E-04


 POSITION                                       TOTAL-FORCE (eV/Angst)
 -----------------------------------------------------------------------------------
      1.37582      1.36830      1.38553        -0.047011      0.525842     -0.317951
     10.85960      2.77660      8.18560         0.091106     -0.348451     -0.142109
      4.04453      4.08772      1.37701        -0.061094     -0.419850      0.562987
      6.74816      6.78152      1.38959         0.384554      0.360207      1.106208
      4.04859      1.37490      4.09574         0.424869      0.418848      0.078348
      5.43131     10.94961     10.93541        -0.429740     -0.070061      0.102107
      6.77217      4.08256      4.09274        -0.351685      0.445209     -0.206321
      8.14140      5.44423      2.78417        -0.199467      0.005966     -0.453002
      9.46123      6.79537      4.15126         0.117414     -0.493517     -0.083632
      5.41742      8.25336     13.64005         0.210218      0.224445      0.101630
      6.80920      1.40012      6.79443        -0.672245     -0.266283     -0.302042
      9.49213      4.09017      6.83042         0.176775      0.763520      0.342752
     10.85138      5.48259      5.48565        -0.066174     -0.345767      0.086725
     12.20862      6.82901      6.83437        -0.391480      0.350795      0.015348
      2.72580      5.45368      2.74988        -0.045050      0.294778     -0.130701
      4.04923      6.83026      4.11132        -0.071021     -0.073667      0.525061
      5.40660      8.16299      2.78630         0.386565      0.180232     -0.064449
      6.78619      9.53722      4.17683        -0.832588     -0.493042     -0.430913
     10.81252     10.87975      5.52296         0.739473     -0.104856      0.573242
      4.07298      4.12655      6.83864        -0.505041      0.133127     -0.644755
      5.43946      5.45497      5.46667        -0.110442      0.326507      0.062037
      6.78474      6.85102      6.87263        -0.573010     -0.674639     -0.021297
      9.47560      9.54213      6.88398         0.416788      0.187222      0.398258
      6.76635      4.12945      9.54333         0.338685      0.399494     -0.216335
      8.11710      5.47887      8.20632         0.448562     -0.025402     -0.043736
      9.50292      6.86657      9.55139        -0.431627     -0.384923      0.345609
     10.85741      8.18602      8.24302         0.195016      0.309063     -0.469611
     12.19805      9.57071      9.59363        -0.378473     -0.204316      0.458214
      8.11608     13.61417      5.54927        -0.166911      0.687128      0.142003
      1.32095      6.86857      6.82378         0.369423     -0.523280      0.032783
     10.82831      8.26180     13.67727         0.624532     -0.368739     -0.171240
      4.06806      9.58286      6.85862        -0.679827     -0.549106      0.716541
      6.77897     12.29589      6.88642        -0.021857     -0.301415      0.041400
      2.71958      5.51112      8.17004        -0.180706      0.003593     -0.068726
      4.05367      6.84841      9.54079         0.173451      0.227031     -0.295813
      5.43896      8.21783      8.19961        -0.284067      0.024036      0.263110
      6.77839      9.56551      9.60166        -0.232837      0.328503     -0.522586
      8.12633     10.93046      8.21420         0.166371      0.040894      0.436727
      9.49354     12.31338      9.61505        -0.251198     -0.101372     -0.177219
      6.78494      6.89318     12.29338         0.072770      0.005747      0.189934
      8.10363      8.23045     10.91615         0.347638     -0.540408     -0.097646
     10.81656     10.93867     10.96981         0.789477      0.467625     -0.609493
     12.17074     12.30599     12.34679        -0.791056      0.171182     -0.305495
      8.16448      0.06992      8.15768        -0.031022     -0.229475      0.104345
      5.41981      5.43114      0.05278        -0.011917     -0.179078     -0.450497
     10.82102      8.14185      2.79258         0.412988     -0.202558     -0.063621
      8.13515     10.98381     13.65547        -0.252420      0.172806      0.283308
     16.24118     10.92991     10.96012         0.211009     -0.293700     -0.361569
      1.33761      4.10446      4.13117         0.332411      0.357428     -0.162117
      8.14166      8.17158      5.51266         0.040831      0.136179      0.048008
      5.44798      2.77459      8.17279        -0.060202     -0.242317     -0.177429
     13.52668     10.95901     13.66359         0.760631      0.193186      0.060300
     13.56225     13.63348     10.98847        -0.182154      0.308362     -0.021283
      9.46945      9.59924     12.28414         0.080765     -0.612730     -0.065397
 -----------------------------------------------------------------------------------
    total drift:                                0.000797      0.000274     -0.000473


--------------------------------------------------------------------------------------------------------



  FREE ENERGIE OF THE ION-ELECTRON SYSTEM (eV)
  ---------------------------------------------------
  free  energy   TOTEN  =      -280.24020205 eV

  energy  without entropy=     -280.24020205  energy(sigma->0) =     -280.24020205



--------------------------------------------------------------------------------------------------------


    POTLOK:  cpu time    0.5400: real time    0.5399


--------------------------------------------------------------------------------------------------------


 writing wavefunctions
     LOOP+:  cpu time 1207.8240: real time 1207.4918
    4ORBIT:  cpu time    0.0000: real time    0.0000

 total amount of memory used by VASP on root node   168025. kBytes
========================================================================

   base      :      30000. kBytes
   nonl-proj :      61080. kBytes
   fftplans  :      14673. kBytes
   grid      :      28224. kBytes
   one-center:        438. kBytes
   wavefun   :      33610. kBytes

  
  
 General timing and accounting informations for this job:
 ========================================================
  
                  Total CPU time used (sec):     1223.764
                            User time (sec):     1186.188
                          System time (sec):       37.576
                         Elapsed time (sec):     1223.523
  
                   Maximum memory used (kb):      195472.
                   Average memory used (kb):           0.
  
                          Minor page faults:     11430248
                          Major page faults:            7
                 Voluntary context switches:          641
