
     Program PWSCF v.5.1 starts on 15Mar2018 at 14:38: 6 

     This program is part of the open-source Quantum ESPRESSO suite
     for quantum simulation of materials; please cite
         "P. Giannozzi et al., J. Phys.:Condens. Matter 21 395502 (2009);
          URL http://www.quantum-espresso.org", 
     in publications or presentations arising from this work. More details at
     http://www.quantum-espresso.org/quote

     Parallel version (MPI), running on    16 processors
     R & G space division:  proc/nbgrp/npool/nimage =      16
     Waiting for input...
     Reading input from standard input
Warning: card &IONS ignored
Warning: card   ION_DYNAMICS='BFGS', ignored
Warning: card / ignored
Warning: card &CELL ignored
Warning: card  CELL_DYNAMICS = 'BFGS' ignored
Warning: card / ignored

     Current dimensions of program PWSCF are:
     Max number of different atomic species (ntypx) = 10
     Max number of k-points (npk) =  40000
     Max angular momentum in pseudopotentials (lmaxx) =  3
 kfg - two_fermi_energies  F

     Subspace diagonalization in iterative solution of the eigenvalue problem:
     a serial algorithm will be used


     Parallelization info
     --------------------
     sticks:   dense  smooth     PW     G-vecs:    dense   smooth      PW
     Min         181     128     35                 6459     3770     554
     Max         182     129     38                 6463     3791     555
     Sum        2905    2053    571               103379    60495    8873



     bravais-lattice index     =            0
     lattice parameter (alat)  =    14.515605984  a.u.
     unit-cell volume          =    2162.6713 (a.u.)^3
     number of atoms/cell      =           16
     number of atomic types    =            1
     number of electrons       =        64.00
     number of Kohn-Sham states=           38
     kinetic-energy cutoff     =      35.0000  Ry
     charge density cutoff     =     200.0000  Ry
     convergence threshold     =      1.0E-09
     mixing beta               =       0.3000
     number of iterations used =            8  local-TF  mixing
     Exchange-correlation      = SLA  PW   PSX  PSC ( 1  4 10  8 0)
     A smooth kinetic-energy cutoff is imposed at      34.5000 Ry
     height of the smooth step-function =             800.0000 Ry
     width of the smooth step-function  =               1.0000 Ry


     celldm(1)=  14.515606  celldm(2)=   0.000000  celldm(3)=   0.000000
     celldm(4)=   0.000000  celldm(5)=   0.000000  celldm(6)=   0.000000

     crystal axes: (cart. coord. in units of alat)
               a(1) = (  -0.000000000000   0.707106781187   0.707106781187 )  
               a(2) = (   0.707106781187  -0.000000000000   0.707106781187 )  
               a(3) = (   0.707106781187   0.707106781187   0.000000000000 )  

     reciprocal axes: (cart. coord. in units 2 pi/alat)
               b(1) = ( -0.707107  0.707107  0.707107 )  
               b(2) = (  0.707107 -0.707107  0.707107 )  
               b(3) = (  0.707107  0.707107 -0.707107 )  


     PseudoPot. # 1 for Si read from file:
     /users/kfg/psuedo/gbrv_1.5/si.pbesol.UPF
     MD5 check sum: ef58ba74faed4df802eb8a9742fc00a8
     Pseudo is Ultrasoft + core correction, Zval =  4.0
     Generated by new atomic code, or converted to UPF format
     Using radial grid of  899 points,  6 beta functions with: 
                l(1) =   0
                l(2) =   0
                l(3) =   1
                l(4) =   1
                l(5) =   2
                l(6) =   2
     Q(r) pseudized with  8 coefficients,  rinner =    0.900   0.900   0.900
                                                       0.900   0.900

     atomic species   valence    mass     pseudopotential
        Si             4.00    28.08550     Si( 1.00)

     No symmetry found


                                    s                        frac. trans.

      isym =  1     identity                                     

 cryst.   s( 1) = (     1          0          0      )
                  (     0          1          0      )
                  (     0          0          1      )

 cart.    s( 1) = (  1.0000000  0.0000000  0.0000000 )
                  (  0.0000000  1.0000000  0.0000000 )
                  (  0.0000000  0.0000000  1.0000000 )


     point group C_1 (1)    
     there are  1 classes
     the character table:

       E    
A      1.00

     the symmetry operations in each class:
     E        1

   Cartesian axes

     site n.     atom                  positions (alat units)
         1           Si  tau(   1) = (   -0.01330798724    0.01370310592   -0.02968509965  )
         2           Si  tau(   2) = (    0.17888301119    0.17216159916    0.15884212797  )
         3           Si  tau(   3) = (    0.36600802665    0.31660598892   -0.03101038991  )
         4           Si  tau(   4) = (    0.56069973282    0.50451428175    0.14483145637  )
         5           Si  tau(   5) = (    0.32916457114    0.01735529081    0.37525340934  )
         6           Si  tau(   6) = (    0.50201146946    0.21074791966    0.54104795955  )
         7           Si  tau(   7) = (    0.72484246577    0.36498030306    0.37108947715  )
         8           Si  tau(   8) = (    0.88905438563    0.52892192259    0.56143919949  )
         9           Si  tau(   9) = (   -0.00995046687    0.33067433368    0.33217355629  )
        10           Si  tau(  10) = (    0.17308385077    0.54059014974    0.48701769254  )
        11           Si  tau(  11) = (    0.38711772061    0.68666517219    0.33218336496  )
        12           Si  tau(  12) = (    0.55928963307    0.84648326343    0.52083740306  )
        13           Si  tau(  13) = (    0.32292035326    0.37926066629    0.71850961220  )
        14           Si  tau(  14) = (    0.50108170885    0.54841990140    0.91229961641  )
        15           Si  tau(  15) = (    0.70927553298    0.71125323396    0.75944295909  )
        16           Si  tau(  16) = (    0.89089380377    0.89873067931    0.91679546701  )

   Crystallographic axes

     site n.     atom                  positions (cryst. coord.)
         1           Si  tau(   1) = (   -0.00189080812   -0.04009026240    0.02126992636  )
         2           Si  tau(   2) = (    0.10756558980    0.11707110185    0.13590767866  )
         3           Si  tau(   3) = (   -0.05686017288    0.01300485888    0.50460865634  )
         4           Si  tau(   4) = (    0.06268219147    0.14214041838    0.65080874819  )
         5           Si  tau(   5) = (    0.04486177385    0.48582668697   -0.02031768621  )
         6           Si  tau(   6) = (    0.17662424997    0.58853311232    0.12141831626  )
         7           Si  tau(   7) = (    0.00793891017    0.51686086127    0.50822118441  )
         8           Si  tau(   8) = (    0.14234535844    0.65164957193    0.60566319791  )
         9           Si  tau(   9) = (    0.47574028049   -0.00597593212   -0.00809615308  )
        10           Si  tau(  10) = (    0.60423970908    0.08450731683    0.16027021236  )
        11           Si  tau(  11) = (    0.44670114426    0.02307707566    0.52439005506  )
        12           Si  tau(  12) = (    0.57136422315    0.16521109605    0.62574388832  )
        13           Si  tau(  13) = (    0.54790163653    0.46822440174   -0.01154605859  )
        14           Si  tau(  14) = (    0.67856640220    0.61162008828    0.09701646024  )
        15           Si  tau(  15) = (    0.53840571207    0.53560882052    0.46745825768  )
        16           Si  tau(  16) = (    0.65381379951    0.64273078385    0.61718331608  )

     number of k points=    36  gaussian smearing, width (Ry)=  0.0150
                       cart. coord. in units 2pi/alat
        k(    1) = (   0.0000000   0.0000000   0.0000000), wk =   0.0312500
        k(    2) = (   0.1767767   0.1767767  -0.1767767), wk =   0.0625000
        k(    3) = (  -0.3535534  -0.3535534   0.3535534), wk =   0.0312500
        k(    4) = (   0.3535534   0.0000000   0.0000000), wk =   0.0625000
        k(    5) = (  -0.1767767  -0.5303301   0.5303301), wk =   0.0625000
        k(    6) = (   0.0000000  -0.3535534   0.3535534), wk =   0.0625000
        k(    7) = (  -0.7071068   0.0000000   0.0000000), wk =   0.0312500
        k(    8) = (  -0.7071068   0.3535534   0.0000000), wk =   0.0625000
        k(    9) = (  -0.1767767  -0.1767767  -0.1767767), wk =   0.0625000
        k(   10) = (  -0.1767767   0.1767767   0.1767767), wk =   0.0625000
        k(   11) = (   0.1767767  -0.1767767   0.1767767), wk =   0.0625000
        k(   12) = (   0.3535534   0.3535534   0.3535534), wk =   0.0312500
        k(   13) = (   0.3535534  -0.3535534  -0.3535534), wk =   0.0312500
        k(   14) = (  -0.3535534   0.3535534  -0.3535534), wk =   0.0312500
        k(   15) = (   0.0000000   0.3535534   0.0000000), wk =   0.0625000
        k(   16) = (   0.0000000   0.0000000   0.3535534), wk =   0.0625000
        k(   17) = (   0.1767767   0.5303301   0.5303301), wk =   0.0625000
        k(   18) = (   0.1767767  -0.5303301  -0.5303301), wk =   0.0625000
        k(   19) = (  -0.1767767   0.5303301  -0.5303301), wk =   0.0625000
        k(   20) = (  -0.5303301  -0.1767767  -0.5303301), wk =   0.0625000
        k(   21) = (   0.5303301   0.1767767  -0.5303301), wk =   0.0625000
        k(   22) = (  -0.5303301   0.1767767   0.5303301), wk =   0.0625000
        k(   23) = (   0.5303301  -0.1767767   0.5303301), wk =   0.0625000
        k(   24) = (   0.5303301   0.5303301  -0.1767767), wk =   0.0625000
        k(   25) = (  -0.5303301   0.5303301   0.1767767), wk =   0.0625000
        k(   26) = (   0.5303301  -0.5303301   0.1767767), wk =   0.0625000
        k(   27) = (  -0.5303301  -0.5303301  -0.1767767), wk =   0.0625000
        k(   28) = (   0.0000000   0.3535534   0.3535534), wk =   0.0625000
        k(   29) = (  -0.3535534   0.0000000  -0.3535534), wk =   0.0625000
        k(   30) = (   0.3535534   0.0000000  -0.3535534), wk =   0.0625000
        k(   31) = (   0.3535534   0.3535534   0.0000000), wk =   0.0625000
        k(   32) = (  -0.3535534   0.3535534   0.0000000), wk =   0.0625000
        k(   33) = (   0.0000000  -0.7071068   0.0000000), wk =   0.0312500
        k(   34) = (   0.0000000   0.0000000  -0.7071068), wk =   0.0312500
        k(   35) = (   0.3535534  -0.7071068   0.0000000), wk =   0.0625000
        k(   36) = (   0.7071068   0.0000000   0.3535534), wk =   0.0625000

                       cryst. coord.
        k(    1) = (   0.0000000   0.0000000   0.0000000), wk =   0.0312500
        k(    2) = (   0.0000000   0.0000000   0.2500000), wk =   0.0625000
        k(    3) = (   0.0000000   0.0000000  -0.5000000), wk =   0.0312500
        k(    4) = (  -0.0000000   0.2500000   0.2500000), wk =   0.0625000
        k(    5) = (   0.0000000   0.2500000  -0.5000000), wk =   0.0625000
        k(    6) = (   0.0000000   0.2500000  -0.2500000), wk =   0.0625000
        k(    7) = (   0.0000000  -0.5000000  -0.5000000), wk =   0.0312500
        k(    8) = (   0.2500000  -0.5000000  -0.2500000), wk =   0.0625000
        k(    9) = (  -0.2500000  -0.2500000  -0.2500000), wk =   0.0625000
        k(   10) = (   0.2500000   0.0000000   0.0000000), wk =   0.0625000
        k(   11) = (   0.0000000   0.2500000   0.0000000), wk =   0.0625000
        k(   12) = (   0.5000000   0.5000000   0.5000000), wk =   0.0312500
        k(   13) = (  -0.5000000   0.0000000  -0.0000000), wk =   0.0312500
        k(   14) = (   0.0000000  -0.5000000  -0.0000000), wk =   0.0312500
        k(   15) = (   0.2500000  -0.0000000   0.2500000), wk =   0.0625000
        k(   16) = (   0.2500000   0.2500000   0.0000000), wk =   0.0625000
        k(   17) = (   0.7500000   0.5000000   0.5000000), wk =   0.0625000
        k(   18) = (  -0.7500000  -0.2500000  -0.2500000), wk =   0.0625000
        k(   19) = (   0.0000000  -0.5000000   0.2500000), wk =   0.0625000
        k(   20) = (  -0.5000000  -0.7500000  -0.5000000), wk =   0.0625000
        k(   21) = (  -0.2500000   0.0000000   0.5000000), wk =   0.0625000
        k(   22) = (   0.5000000   0.0000000  -0.2500000), wk =   0.0625000
        k(   23) = (   0.2500000   0.7500000   0.2500000), wk =   0.0625000
        k(   24) = (   0.2500000   0.2500000   0.7500000), wk =   0.0625000
        k(   25) = (   0.5000000  -0.2500000   0.0000000), wk =   0.0625000
        k(   26) = (  -0.2500000   0.5000000   0.0000000), wk =   0.0625000
        k(   27) = (  -0.5000000  -0.5000000  -0.7500000), wk =   0.0625000
        k(   28) = (   0.5000000   0.2500000   0.2500000), wk =   0.0625000
        k(   29) = (  -0.2500000  -0.5000000  -0.2500000), wk =   0.0625000
        k(   30) = (  -0.2500000   0.0000000   0.2500000), wk =   0.0625000
        k(   31) = (   0.2500000   0.2500000   0.5000000), wk =   0.0625000
        k(   32) = (   0.2500000  -0.2500000   0.0000000), wk =   0.0625000
        k(   33) = (  -0.5000000   0.0000000  -0.5000000), wk =   0.0312500
        k(   34) = (  -0.5000000  -0.5000000  -0.0000000), wk =   0.0312500
        k(   35) = (  -0.5000000   0.2500000  -0.2500000), wk =   0.0625000
        k(   36) = (   0.2500000   0.7500000   0.5000000), wk =   0.0625000

     Dense  grid:   103379 G-vectors     FFT dimensions: (  72,  72,  72)

     Smooth grid:    60495 G-vectors     FFT dimensions: (  60,  60,  60)

     Largest allocated arrays     est. size (Mb)     dimensions
        Kohn-Sham Wavefunctions         0.28 Mb     (     486,   38)
        NL pseudopotentials             2.14 Mb     (     486,  288)
        Each V/rho on FFT grid          0.40 Mb     (   25920)
        Each G-vector array             0.05 Mb     (    6463)
        G-vector shells                 0.01 Mb     (     700)
     Largest temporary arrays     est. size (Mb)     dimensions
        Auxiliary wavefunctions         1.13 Mb     (     486,  152)
        Each subspace H/S matrix        0.35 Mb     (     152,  152)
        Each <psi_i|beta_j> matrix      0.17 Mb     (     288,   38)
        Arrays for rho mixing           3.16 Mb     (   25920,    8)

     Initial potential from superposition of free atoms

     starting charge   63.98963, renormalised to   64.00000
     Starting wfc are   64 randomized atomic wfcs

     total cpu time spent up to now is        8.1 secs

     Self-consistent Calculation

     iteration #  1     ecut=    35.00 Ry     beta=0.30
     Davidson diagonalization with overlap
     ethr =  1.00E-02,  avg # of iterations =  3.1

     Threshold (ethr) on eigenvalues was too large:
     Diagonalizing with lowered threshold

     Davidson diagonalization with overlap
     ethr =  6.56E-04,  avg # of iterations =  2.0

     total cpu time spent up to now is       43.1 secs

     total energy              =    -152.91778514 Ry
     Harris-Foulkes estimate   =    -152.96219409 Ry
     estimated scf accuracy    <       0.41369213 Ry

     iteration #  2     ecut=    35.00 Ry     beta=0.30
     Davidson diagonalization with overlap
     ethr =  6.46E-04,  avg # of iterations =  1.0

     total cpu time spent up to now is       55.9 secs

     total energy              =    -152.83068804 Ry
     Harris-Foulkes estimate   =    -152.92007387 Ry
     estimated scf accuracy    <       0.25575298 Ry

     iteration #  3     ecut=    35.00 Ry     beta=0.30
     Davidson diagonalization with overlap
     ethr =  4.00E-04,  avg # of iterations =  2.4

     total cpu time spent up to now is       70.6 secs

     total energy              =    -152.84865169 Ry
     Harris-Foulkes estimate   =    -152.84838447 Ry
     estimated scf accuracy    <       0.00273946 Ry

     iteration #  4     ecut=    35.00 Ry     beta=0.30
     Davidson diagonalization with overlap
     c_bands:  2 eigenvalues not converged
     c_bands:  1 eigenvalues not converged
     c_bands:  1 eigenvalues not converged
     c_bands:  1 eigenvalues not converged
     ethr =  4.28E-06,  avg # of iterations = 12.9

     total cpu time spent up to now is      129.7 secs

     total energy              =    -152.85096687 Ry
     Harris-Foulkes estimate   =    -152.85082976 Ry
     estimated scf accuracy    <       0.00117318 Ry

     iteration #  5     ecut=    35.00 Ry     beta=0.30
     Davidson diagonalization with overlap
     ethr =  1.83E-06,  avg # of iterations =  1.8

     total cpu time spent up to now is      143.6 secs

     total energy              =    -152.85103898 Ry
     Harris-Foulkes estimate   =    -152.85100195 Ry
     estimated scf accuracy    <       0.00021413 Ry

     iteration #  6     ecut=    35.00 Ry     beta=0.30
     Davidson diagonalization with overlap
     ethr =  3.35E-07,  avg # of iterations =  2.1

     total cpu time spent up to now is      160.6 secs

     total energy              =    -152.85106103 Ry
     Harris-Foulkes estimate   =    -152.85106123 Ry
     estimated scf accuracy    <       0.00000818 Ry

     iteration #  7     ecut=    35.00 Ry     beta=0.30
     Davidson diagonalization with overlap
     ethr =  1.28E-08,  avg # of iterations =  3.1

     total cpu time spent up to now is      179.0 secs

     total energy              =    -152.85106280 Ry
     Harris-Foulkes estimate   =    -152.85106300 Ry
     estimated scf accuracy    <       0.00000428 Ry

     iteration #  8     ecut=    35.00 Ry     beta=0.30
     Davidson diagonalization with overlap
     ethr =  6.69E-09,  avg # of iterations =  2.1

     total cpu time spent up to now is      195.2 secs

     total energy              =    -152.85106329 Ry
     Harris-Foulkes estimate   =    -152.85106330 Ry
     estimated scf accuracy    <       0.00000025 Ry

     iteration #  9     ecut=    35.00 Ry     beta=0.30
     Davidson diagonalization with overlap
     ethr =  3.94E-10,  avg # of iterations =  2.3

     total cpu time spent up to now is      211.0 secs

     total energy              =    -152.85106329 Ry
     Harris-Foulkes estimate   =    -152.85106332 Ry
     estimated scf accuracy    <       0.00000017 Ry

     iteration # 10     ecut=    35.00 Ry     beta=0.30
     Davidson diagonalization with overlap
     ethr =  2.65E-10,  avg # of iterations =  2.1

     total cpu time spent up to now is      227.6 secs

     total energy              =    -152.85106331 Ry
     Harris-Foulkes estimate   =    -152.85106331 Ry
     estimated scf accuracy    <       0.00000003 Ry

     iteration # 11     ecut=    35.00 Ry     beta=0.30
     Davidson diagonalization with overlap
     ethr =  5.18E-11,  avg # of iterations =  1.4

     total cpu time spent up to now is      241.1 secs

     total energy              =    -152.85106331 Ry
     Harris-Foulkes estimate   =    -152.85106331 Ry
     estimated scf accuracy    <       0.00000002 Ry

     iteration # 12     ecut=    35.00 Ry     beta=0.30
     Davidson diagonalization with overlap
     ethr =  2.94E-11,  avg # of iterations =  2.1

     total cpu time spent up to now is      258.2 secs

     End of self-consistent calculation

          k = 0.0000 0.0000 0.0000 (  7631 PWs)   bands (ev):

    -5.8355  -3.6241  -3.5313  -3.3581  -3.3035  -1.9133  -1.7581  -1.7235
    -1.6565  -1.5433  -1.5178  -0.8833  -0.8185  -0.7014  -0.6425   3.2406
     3.2463   3.3151   3.3507   3.3773   3.5172   4.6648   4.7551   4.9277
     4.9580   5.0147   5.0799   5.1165   5.2279   5.9668   6.0998   6.2019
     6.4413   6.5360   6.7259   6.7780   6.9137   7.1899

     occupation numbers 
     1.0000   1.0000   1.0000   1.0000   1.0000   1.0000   1.0000   1.0000
     1.0000   1.0000   1.0000   1.0000   1.0000   1.0000   1.0000   1.0000
     1.0000   1.0000   1.0000   1.0000   1.0000   1.0000   1.0000   1.0000
     1.0000   1.0000   1.0000   1.0000   1.0000   0.9939   0.9432   0.8091
     0.2165   0.0748   0.0029   0.0009   0.0000   0.0000

          k = 0.1768 0.1768-0.1768 (  7564 PWs)   bands (ev):

    -5.6322  -4.1288  -3.5211  -3.3928  -3.2163  -2.6127  -2.4795  -2.3663
    -0.9423  -0.8465  -0.7060  -0.5438  -0.4274  -0.2236   0.1821   2.5565
     2.6416   2.7178   3.3435   3.4880   3.6635   3.8514   3.8782   4.0484
     4.4162   4.6387   4.7141   4.8602   4.9217   5.2795   5.8127   6.0262
     6.6501   6.8913   7.2633   7.5380   7.7113   7.8218

     occupation numbers 
     1.0000   1.0000   1.0000   1.0000   1.0000   1.0000   1.0000   1.0000
     1.0000   1.0000   1.0000   1.0000   1.0000   1.0000   1.0000   1.0000
     1.0000   1.0000   1.0000   1.0000   1.0000   1.0000   1.0000   1.0000
     1.0000   1.0000   1.0000   1.0000   1.0000   1.0000   0.9998   0.9818
     0.0128   0.0000   0.0000   0.0000   0.0000   0.0000

          k =-0.3536-0.3536 0.3536 (  7570 PWs)   bands (ev):

    -5.1115  -4.9481  -3.3808  -3.2243  -3.0833  -2.9662  -2.8872  -2.8523
    -0.5036  -0.3831  -0.3503  -0.1368  -0.0152   0.1807   2.0708   2.1412
     2.3279   2.4449   2.4890   2.5980   2.7353   2.8145   3.8110   4.0700
     4.1094   4.1393   4.1493   4.2667   5.1117   5.4313   5.4520   5.7677
     7.0269   7.2880   7.4283   7.6631   7.7041   7.8574

     occupation numbers 
     1.0000   1.0000   1.0000   1.0000   1.0000   1.0000   1.0000   1.0000
     1.0000   1.0000   1.0000   1.0000   1.0000   1.0000   1.0000   1.0000
     1.0000   1.0000   1.0000   1.0000   1.0000   1.0000   1.0000   1.0000
     1.0000   1.0000   1.0000   1.0000   1.0000   1.0000   1.0000   0.9999
     0.0000   0.0000   0.0000   0.0000   0.0000   0.0000

          k = 0.3536 0.0000 0.0000 (  7563 PWs)   bands (ev):

    -5.5636  -3.8093  -3.7285  -3.6127  -3.4326  -3.3063  -1.6853  -1.5973
    -1.5302  -1.4705  -0.3824  -0.2657  -0.2195  -0.0618   0.5513   2.5852
     2.6287   2.7126   2.7658   3.3971   3.6087   3.6422   3.7004   3.8203
     3.9405   4.7477   4.8235   4.8730   4.9894   5.1213   5.4462   5.5381
     6.7620   7.2931   7.6612   7.7305   7.8575   8.0572

     occupation numbers 
     1.0000   1.0000   1.0000   1.0000   1.0000   1.0000   1.0000   1.0000
     1.0000   1.0000   1.0000   1.0000   1.0000   1.0000   1.0000   1.0000
     1.0000   1.0000   1.0000   1.0000   1.0000   1.0000   1.0000   1.0000
     1.0000   1.0000   1.0000   1.0000   1.0000   1.0000   1.0000   1.0000
     0.0013   0.0000   0.0000   0.0000   0.0000   0.0000

          k =-0.1768-0.5303 0.5303 (  7554 PWs)   bands (ev):

    -5.1039  -4.5753  -4.0546  -3.6249  -3.5117  -2.8450  -2.3603  -2.2041
    -0.8374  -0.7502  -0.4215   0.2931   0.3645   1.2998   1.4853   1.9321
     2.0103   2.1191   2.6694   2.7705   2.9838   3.1441   3.3255   3.5086
     3.8949   4.0639   4.2518   4.3740   4.4011   4.8500   5.1938   5.3349
     7.6269   7.7886   8.0136   8.2032   8.3151   8.5777

     occupation numbers 
     1.0000   1.0000   1.0000   1.0000   1.0000   1.0000   1.0000   1.0000
     1.0000   1.0000   1.0000   1.0000   1.0000   1.0000   1.0000   1.0000
     1.0000   1.0000   1.0000   1.0000   1.0000   1.0000   1.0000   1.0000
     1.0000   1.0000   1.0000   1.0000   1.0000   1.0000   1.0000   1.0000
     0.0000   0.0000   0.0000   0.0000   0.0000   0.0000

          k = 0.0000-0.3536 0.3536 (  7592 PWs)   bands (ev):

    -5.3006  -4.3250  -4.2165  -3.2979  -3.1881  -2.9117  -2.7627  -1.9998
    -1.0507  -0.8130  -0.6439   0.1915   0.3537   0.8538   0.9440   1.7370
     2.4326   2.5444   2.8202   2.9363   3.3775   3.4645   3.5423   3.7683
     3.9788   4.0940   4.3647   4.4744   4.5469   4.6784   4.8173   5.8505
     7.2318   7.8172   7.9811   8.1279   8.2329   8.3383

     occupation numbers 
     1.0000   1.0000   1.0000   1.0000   1.0000   1.0000   1.0000   1.0000
     1.0000   1.0000   1.0000   1.0000   1.0000   1.0000   1.0000   1.0000
     1.0000   1.0000   1.0000   1.0000   1.0000   1.0000   1.0000   1.0000
     1.0000   1.0000   1.0000   1.0000   1.0000   1.0000   1.0000   0.9995
     0.0000   0.0000   0.0000   0.0000   0.0000   0.0000

          k =-0.7071 0.0000 0.0000 (  7528 PWs)   bands (ev):

    -4.8279  -4.6921  -3.9447  -3.7869  -3.7279  -3.5259  -1.5834  -1.4740
    -1.4058  -1.3554   0.5883   0.6230   0.7221   0.7655   1.9412   2.1037
     2.1955   2.2273   2.3374   2.3856   2.5024   2.5590   2.8020   2.8518
     4.1248   4.2479   4.2753   4.4270   4.8364   4.9887   5.0391   5.1098
     7.2095   7.2988   8.2435   8.2638   8.3395   8.3831

     occupation numbers 
     1.0000   1.0000   1.0000   1.0000   1.0000   1.0000   1.0000   1.0000
     1.0000   1.0000   1.0000   1.0000   1.0000   1.0000   1.0000   1.0000
     1.0000   1.0000   1.0000   1.0000   1.0000   1.0000   1.0000   1.0000
     1.0000   1.0000   1.0000   1.0000   1.0000   1.0000   1.0000   1.0000
     0.0000   0.0000   0.0000   0.0000   0.0000   0.0000

          k =-0.7071 0.3536 0.0000 (  7564 PWs)   bands (ev):

    -4.6940  -4.5042  -4.4445  -4.3358  -2.8362  -2.6762  -2.5728  -2.4959
    -0.5394  -0.4273  -0.3377  -0.2859   1.6132   1.6348   1.6870   1.8413
     1.8973   1.9905   2.0400   2.2261   3.2323   3.2746   3.4048   3.5238
     3.5909   3.6546   3.7173   3.8885   4.6871   4.7665   4.9186   4.9779
     8.2163   8.3716   8.4500   8.5137   8.6714   8.7146

     occupation numbers 
     1.0000   1.0000   1.0000   1.0000   1.0000   1.0000   1.0000   1.0000
     1.0000   1.0000   1.0000   1.0000   1.0000   1.0000   1.0000   1.0000
     1.0000   1.0000   1.0000   1.0000   1.0000   1.0000   1.0000   1.0000
     1.0000   1.0000   1.0000   1.0000   1.0000   1.0000   1.0000   1.0000
     0.0000   0.0000   0.0000   0.0000   0.0000   0.0000

          k =-0.1768-0.1768-0.1768 (  7564 PWs)   bands (ev):

    -5.6339  -4.1529  -3.4840  -3.3475  -3.2523  -2.6000  -2.4956  -2.3468
    -1.0009  -0.8148  -0.7279  -0.5716  -0.4605  -0.2675   0.2453   2.6247
     2.6558   2.8254   3.3209   3.4709   3.5620   3.8567   3.9937   4.1355
     4.4108   4.6174   4.6947   4.8842   4.9528   5.1524   5.7388   5.9692
     6.6389   6.8540   7.0830   7.4654   7.7267   7.9350

     occupation numbers 
     1.0000   1.0000   1.0000   1.0000   1.0000   1.0000   1.0000   1.0000
     1.0000   1.0000   1.0000   1.0000   1.0000   1.0000   1.0000   1.0000
     1.0000   1.0000   1.0000   1.0000   1.0000   1.0000   1.0000   1.0000
     1.0000   1.0000   1.0000   1.0000   1.0000   1.0000   1.0000   0.9936
     0.0156   0.0001   0.0000   0.0000   0.0000   0.0000

          k =-0.1768 0.1768 0.1768 (  7564 PWs)   bands (ev):

    -5.6311  -4.1213  -3.5271  -3.3784  -3.2396  -2.6032  -2.4859  -2.3885
    -1.0120  -0.8088  -0.6539  -0.5292  -0.3963  -0.2485   0.2154   2.5795
     2.6569   2.7571   3.3066   3.3659   3.4989   3.8276   3.8929   4.0744
     4.4904   4.6657   4.7281   4.8355   5.0815   5.1797   5.8769   5.9554
     6.6357   6.8617   6.9763   7.5169   7.7575   7.9057

     occupation numbers 
     1.0000   1.0000   1.0000   1.0000   1.0000   1.0000   1.0000   1.0000
     1.0000   1.0000   1.0000   1.0000   1.0000   1.0000   1.0000   1.0000
     1.0000   1.0000   1.0000   1.0000   1.0000   1.0000   1.0000   1.0000
     1.0000   1.0000   1.0000   1.0000   1.0000   1.0000   0.9991   0.9951
     0.0165   0.0001   0.0000   0.0000   0.0000   0.0000

          k = 0.1768-0.1768 0.1768 (  7564 PWs)   bands (ev):

    -5.6326  -4.1504  -3.5013  -3.3557  -3.2541  -2.5957  -2.4809  -2.3109
    -1.0200  -0.8605  -0.7872  -0.5891  -0.4498  -0.1586   0.2780   2.5696
     2.6435   2.7310   3.3625   3.4817   3.5522   3.9124   4.0070   4.0972
     4.4951   4.5655   4.6558   4.7490   5.1000   5.1747   5.8354   5.9856
     6.7269   6.8522   7.1191   7.5615   7.7107   7.7946

     occupation numbers 
     1.0000   1.0000   1.0000   1.0000   1.0000   1.0000   1.0000   1.0000
     1.0000   1.0000   1.0000   1.0000   1.0000   1.0000   1.0000   1.0000
     1.0000   1.0000   1.0000   1.0000   1.0000   1.0000   1.0000   1.0000
     1.0000   1.0000   1.0000   1.0000   1.0000   1.0000   0.9997   0.9912
     0.0029   0.0001   0.0000   0.0000   0.0000   0.0000

          k = 0.3536 0.3536 0.3536 (  7570 PWs)   bands (ev):

    -5.1242  -4.9487  -3.3622  -3.1357  -3.0738  -3.0363  -2.9020  -2.8232
    -0.6336  -0.3525  -0.2292  -0.2138  -0.1574   0.1375   2.0777   2.2028
     2.3695   2.5223   2.6587   2.7177   2.7608   2.8699   3.8322   3.9719
     4.0237   4.0758   4.1403   4.3379   5.0863   5.3517   5.4169   5.6043
     6.9881   7.2825   7.5034   7.6436   7.7049   7.7507

     occupation numbers 
     1.0000   1.0000   1.0000   1.0000   1.0000   1.0000   1.0000   1.0000
     1.0000   1.0000   1.0000   1.0000   1.0000   1.0000   1.0000   1.0000
     1.0000   1.0000   1.0000   1.0000   1.0000   1.0000   1.0000   1.0000
     1.0000   1.0000   1.0000   1.0000   1.0000   1.0000   1.0000   1.0000
     0.0000   0.0000   0.0000   0.0000   0.0000   0.0000

          k = 0.3536-0.3536-0.3536 (  7570 PWs)   bands (ev):

    -5.0942  -4.9613  -3.3577  -3.2193  -3.0473  -3.0408  -2.9259  -2.8393
    -0.6818  -0.4355  -0.1689  -0.1053   0.1792   0.2040   1.9835   2.1620
     2.3670   2.4041   2.4685   2.5461   2.6575   2.8461   3.7507   3.9103
     3.9912   4.1045   4.2557   4.3719   5.3042   5.3905   5.5217   5.5662
     6.9962   7.1068   7.5158   7.6456   7.8762   7.9050

     occupation numbers 
     1.0000   1.0000   1.0000   1.0000   1.0000   1.0000   1.0000   1.0000
     1.0000   1.0000   1.0000   1.0000   1.0000   1.0000   1.0000   1.0000
     1.0000   1.0000   1.0000   1.0000   1.0000   1.0000   1.0000   1.0000
     1.0000   1.0000   1.0000   1.0000   1.0000   1.0000   1.0000   1.0000
     0.0000   0.0000   0.0000   0.0000   0.0000   0.0000

          k =-0.3536 0.3536-0.3536 (  7570 PWs)   bands (ev):

    -5.1011  -4.9703  -3.3299  -3.2739  -3.0944  -3.0185  -2.9161  -2.6630
    -0.6475  -0.4653  -0.4055  -0.1834  -0.0730   0.3600   2.1439   2.2051
     2.3042   2.4643   2.5383   2.6576   2.7380   3.0005   3.8128   3.9332
     3.9929   4.0719   4.1564   4.2673   5.1746   5.3258   5.6044   5.7920
     6.9822   7.1699   7.4376   7.5599   7.7560   7.8078

     occupation numbers 
     1.0000   1.0000   1.0000   1.0000   1.0000   1.0000   1.0000   1.0000
     1.0000   1.0000   1.0000   1.0000   1.0000   1.0000   1.0000   1.0000
     1.0000   1.0000   1.0000   1.0000   1.0000   1.0000   1.0000   1.0000
     1.0000   1.0000   1.0000   1.0000   1.0000   1.0000   1.0000   0.9999
     0.0000   0.0000   0.0000   0.0000   0.0000   0.0000

          k = 0.0000 0.3536 0.0000 (  7563 PWs)   bands (ev):

    -5.5644  -3.8359  -3.7084  -3.5462  -3.4948  -3.2999  -1.7413  -1.6033
    -1.5246  -1.3926  -0.4557  -0.2885  -0.1319  -0.0914   0.5585   2.5636
     2.6299   2.6985   2.8106   3.4484   3.5537   3.6665   3.7364   3.8315
     3.8755   4.6687   4.8227   4.9525   5.0153   5.1373   5.3948   5.5576
     6.7934   7.2747   7.5711   7.7821   7.8418   8.0467

     occupation numbers 
     1.0000   1.0000   1.0000   1.0000   1.0000   1.0000   1.0000   1.0000
     1.0000   1.0000   1.0000   1.0000   1.0000   1.0000   1.0000   1.0000
     1.0000   1.0000   1.0000   1.0000   1.0000   1.0000   1.0000   1.0000
     1.0000   1.0000   1.0000   1.0000   1.0000   1.0000   1.0000   1.0000
     0.0006   0.0000   0.0000   0.0000   0.0000   0.0000

          k = 0.0000 0.0000 0.3536 (  7563 PWs)   bands (ev):

    -5.5646  -3.8282  -3.7065  -3.5699  -3.4555  -3.3399  -1.7466  -1.5702
    -1.4863  -1.3834  -0.4275  -0.3510  -0.2053  -0.1041   0.6026   2.5125
     2.6468   2.7345   2.7800   3.4818   3.5569   3.6082   3.7368   3.8408
     3.9015   4.8008   4.8892   4.9405   5.0166   5.1193   5.4508   5.4963
     6.6372   7.2041   7.6527   7.7809   7.9614   8.0341

     occupation numbers 
     1.0000   1.0000   1.0000   1.0000   1.0000   1.0000   1.0000   1.0000
     1.0000   1.0000   1.0000   1.0000   1.0000   1.0000   1.0000   1.0000
     1.0000   1.0000   1.0000   1.0000   1.0000   1.0000   1.0000   1.0000
     1.0000   1.0000   1.0000   1.0000   1.0000   1.0000   1.0000   1.0000
     0.0161   0.0000   0.0000   0.0000   0.0000   0.0000

          k = 0.1768 0.5303 0.5303 (  7554 PWs)   bands (ev):

    -5.1097  -4.5816  -4.0392  -3.6105  -3.5289  -2.8192  -2.3112  -2.2505
    -0.9170  -0.7034  -0.4646   0.2359   0.3962   1.2241   1.5077   1.9454
     2.0335   2.2634   2.6120   2.8710   3.1395   3.2144   3.2434   3.5648
     3.7750   3.8739   4.2239   4.4235   4.4368   4.8850   4.9893   5.5491
     7.2997   7.6390   8.0568   8.2153   8.4024   8.6144

     occupation numbers 
     1.0000   1.0000   1.0000   1.0000   1.0000   1.0000   1.0000   1.0000
     1.0000   1.0000   1.0000   1.0000   1.0000   1.0000   1.0000   1.0000
     1.0000   1.0000   1.0000   1.0000   1.0000   1.0000   1.0000   1.0000
     1.0000   1.0000   1.0000   1.0000   1.0000   1.0000   1.0000   1.0000
     0.0000   0.0000   0.0000   0.0000   0.0000   0.0000

          k = 0.1768-0.5303-0.5303 (  7554 PWs)   bands (ev):

    -5.0987  -4.5808  -4.0495  -3.6128  -3.5306  -2.8424  -2.3351  -2.2592
    -0.9215  -0.6885  -0.3129   0.2325   0.4172   1.3611   1.4683   1.8684
     2.0167   2.0856   2.7028   2.8062   3.0234   3.1709   3.2297   3.4763
     3.8046   3.9252   4.2081   4.3873   4.4916   4.9741   5.0891   5.5024
     7.3122   7.5542   8.1878   8.3956   8.4715   8.5320

     occupation numbers 
     1.0000   1.0000   1.0000   1.0000   1.0000   1.0000   1.0000   1.0000
     1.0000   1.0000   1.0000   1.0000   1.0000   1.0000   1.0000   1.0000
     1.0000   1.0000   1.0000   1.0000   1.0000   1.0000   1.0000   1.0000
     1.0000   1.0000   1.0000   1.0000   1.0000   1.0000   1.0000   1.0000
     0.0000   0.0000   0.0000   0.0000   0.0000   0.0000

          k =-0.1768 0.5303-0.5303 (  7554 PWs)   bands (ev):

    -5.1038  -4.5882  -4.0389  -3.6227  -3.5280  -2.8236  -2.3224  -2.1969
    -0.9067  -0.7633  -0.4901   0.2450   0.4569   1.2187   1.5755   1.9553
     2.0771   2.1458   2.6012   2.7928   3.0611   3.1932   3.3099   3.4642
     3.8266   4.0171   4.2723   4.3516   4.5036   4.8789   5.0098   5.5181
     7.3210   7.7374   8.0564   8.2349   8.3310   8.5217

     occupation numbers 
     1.0000   1.0000   1.0000   1.0000   1.0000   1.0000   1.0000   1.0000
     1.0000   1.0000   1.0000   1.0000   1.0000   1.0000   1.0000   1.0000
     1.0000   1.0000   1.0000   1.0000   1.0000   1.0000   1.0000   1.0000
     1.0000   1.0000   1.0000   1.0000   1.0000   1.0000   1.0000   1.0000
     0.0000   0.0000   0.0000   0.0000   0.0000   0.0000

          k =-0.5303-0.1768-0.5303 (  7554 PWs)   bands (ev):

    -5.1113  -4.5851  -4.0313  -3.6426  -3.4686  -2.8691  -2.3434  -2.2015
    -0.8844  -0.7492  -0.3943   0.1264   0.4007   1.2410   1.5613   1.9560
     2.1001   2.2151   2.6106   2.7509   3.0352   3.1881   3.3783   3.5739
     3.8511   3.9771   4.2344   4.3094   4.5120   4.8289   5.1351   5.3025
     7.4774   7.7310   7.9772   8.1446   8.3022   8.5950

     occupation numbers 
     1.0000   1.0000   1.0000   1.0000   1.0000   1.0000   1.0000   1.0000
     1.0000   1.0000   1.0000   1.0000   1.0000   1.0000   1.0000   1.0000
     1.0000   1.0000   1.0000   1.0000   1.0000   1.0000   1.0000   1.0000
     1.0000   1.0000   1.0000   1.0000   1.0000   1.0000   1.0000   1.0000
     0.0000   0.0000   0.0000   0.0000   0.0000   0.0000

          k = 0.5303 0.1768-0.5303 (  7554 PWs)   bands (ev):

    -5.1079  -4.5708  -4.0347  -3.6854  -3.4795  -2.8144  -2.3899  -2.1931
    -0.8285  -0.7306  -0.5165   0.3339   0.4332   1.2470   1.4556   1.8881
     2.0183   2.1660   2.6237   2.8268   3.1224   3.2346   3.2567   3.4850
     3.8292   3.9049   4.2075   4.3695   4.4772   4.9355   5.0011   5.6286
     7.3458   7.7477   8.0502   8.2526   8.4218   8.5626

     occupation numbers 
     1.0000   1.0000   1.0000   1.0000   1.0000   1.0000   1.0000   1.0000
     1.0000   1.0000   1.0000   1.0000   1.0000   1.0000   1.0000   1.0000
     1.0000   1.0000   1.0000   1.0000   1.0000   1.0000   1.0000   1.0000
     1.0000   1.0000   1.0000   1.0000   1.0000   1.0000   1.0000   1.0000
     0.0000   0.0000   0.0000   0.0000   0.0000   0.0000

          k =-0.5303 0.1768 0.5303 (  7554 PWs)   bands (ev):

    -5.1030  -4.5744  -4.0354  -3.6872  -3.4696  -2.8258  -2.3963  -2.2156
    -0.8758  -0.6992  -0.4250   0.3060   0.4438   1.2983   1.4721   1.9013
     1.9686   2.1781   2.6590   2.7680   2.9796   3.2484   3.2818   3.4801
     3.8152   3.9139   4.2087   4.3769   4.4452   4.9910   5.0177   5.5546
     7.4080   7.6080   8.1567   8.2522   8.4951   8.5289

     occupation numbers 
     1.0000   1.0000   1.0000   1.0000   1.0000   1.0000   1.0000   1.0000
     1.0000   1.0000   1.0000   1.0000   1.0000   1.0000   1.0000   1.0000
     1.0000   1.0000   1.0000   1.0000   1.0000   1.0000   1.0000   1.0000
     1.0000   1.0000   1.0000   1.0000   1.0000   1.0000   1.0000   1.0000
     0.0000   0.0000   0.0000   0.0000   0.0000   0.0000

          k = 0.5303-0.1768 0.5303 (  7554 PWs)   bands (ev):

    -5.1043  -4.5969  -4.0222  -3.6524  -3.4750  -2.8657  -2.3666  -2.1494
    -0.8711  -0.7889  -0.4093   0.1086   0.4368   1.3202   1.5604   1.9050
     2.0551   2.1600   2.6977   2.8997   2.9867   3.1825   3.2399   3.4724
     3.8570   3.9187   4.2802   4.3599   4.5189   4.9537   5.0576   5.4443
     7.2864   7.5665   8.0475   8.2802   8.4464   8.5549

     occupation numbers 
     1.0000   1.0000   1.0000   1.0000   1.0000   1.0000   1.0000   1.0000
     1.0000   1.0000   1.0000   1.0000   1.0000   1.0000   1.0000   1.0000
     1.0000   1.0000   1.0000   1.0000   1.0000   1.0000   1.0000   1.0000
     1.0000   1.0000   1.0000   1.0000   1.0000   1.0000   1.0000   1.0000
     0.0000   0.0000   0.0000   0.0000   0.0000   0.0000

          k = 0.5303 0.5303-0.1768 (  7554 PWs)   bands (ev):

    -5.1059  -4.5780  -4.0303  -3.6888  -3.4617  -2.8612  -2.3355  -2.2131
    -0.8377  -0.6798  -0.4787   0.1907   0.4377   1.2485   1.5095   1.9411
     1.9982   2.1213   2.6347   2.7749   3.0348   3.1896   3.2922   3.4712
     3.8665   4.0736   4.2716   4.4094   4.4675   4.9549   5.0619   5.5185
     7.1820   7.5502   8.0822   8.2444   8.4213   8.5924

     occupation numbers 
     1.0000   1.0000   1.0000   1.0000   1.0000   1.0000   1.0000   1.0000
     1.0000   1.0000   1.0000   1.0000   1.0000   1.0000   1.0000   1.0000
     1.0000   1.0000   1.0000   1.0000   1.0000   1.0000   1.0000   1.0000
     1.0000   1.0000   1.0000   1.0000   1.0000   1.0000   1.0000   1.0000
     0.0000   0.0000   0.0000   0.0000   0.0000   0.0000

          k =-0.5303 0.5303 0.1768 (  7554 PWs)   bands (ev):

    -5.1032  -4.5719  -4.0460  -3.6632  -3.4858  -2.8582  -2.3613  -2.2035
    -0.8459  -0.7245  -0.3901   0.2317   0.4126   1.2216   1.5838   1.9505
     2.0549   2.1130   2.5484   2.6421   2.9785   3.3109   3.3955   3.5124
     3.8419   3.9101   4.2884   4.3454   4.4532   4.9029   5.0897   5.5200
     7.3423   7.7549   8.0326   8.1390   8.2672   8.6910

     occupation numbers 
     1.0000   1.0000   1.0000   1.0000   1.0000   1.0000   1.0000   1.0000
     1.0000   1.0000   1.0000   1.0000   1.0000   1.0000   1.0000   1.0000
     1.0000   1.0000   1.0000   1.0000   1.0000   1.0000   1.0000   1.0000
     1.0000   1.0000   1.0000   1.0000   1.0000   1.0000   1.0000   1.0000
     0.0000   0.0000   0.0000   0.0000   0.0000   0.0000

          k = 0.5303-0.5303 0.1768 (  7554 PWs)   bands (ev):

    -5.1075  -4.5826  -4.0332  -3.6672  -3.4923  -2.8100  -2.3350  -2.2069
    -0.8332  -0.7420  -0.5087   0.1891   0.3706   1.2883   1.5496   1.9180
     1.9480   2.1332   2.7813   2.9228   3.0322   3.2327   3.3119   3.5894
     3.8405   3.8922   4.2191   4.3622   4.4106   4.9076   4.9500   5.5804
     7.3374   7.6784   7.9848   8.3476   8.3901   8.5199

     occupation numbers 
     1.0000   1.0000   1.0000   1.0000   1.0000   1.0000   1.0000   1.0000
     1.0000   1.0000   1.0000   1.0000   1.0000   1.0000   1.0000   1.0000
     1.0000   1.0000   1.0000   1.0000   1.0000   1.0000   1.0000   1.0000
     1.0000   1.0000   1.0000   1.0000   1.0000   1.0000   1.0000   1.0000
     0.0000   0.0000   0.0000   0.0000   0.0000   0.0000

          k =-0.5303-0.5303-0.1768 (  7554 PWs)   bands (ev):

    -5.1115  -4.5843  -4.0185  -3.6786  -3.4637  -2.8454  -2.3362  -2.2081
    -0.8424  -0.6920  -0.5442   0.1813   0.4105   1.2391   1.5004   1.9183
     2.0427   2.2291   2.6759   2.7911   3.0971   3.2029   3.3115   3.5586
     3.8426   4.0251   4.2478   4.3924   4.4355   4.8926   5.0071   5.4428
     7.2708   7.6025   8.0587   8.1752   8.3586   8.5347

     occupation numbers 
     1.0000   1.0000   1.0000   1.0000   1.0000   1.0000   1.0000   1.0000
     1.0000   1.0000   1.0000   1.0000   1.0000   1.0000   1.0000   1.0000
     1.0000   1.0000   1.0000   1.0000   1.0000   1.0000   1.0000   1.0000
     1.0000   1.0000   1.0000   1.0000   1.0000   1.0000   1.0000   1.0000
     0.0000   0.0000   0.0000   0.0000   0.0000   0.0000

          k = 0.0000 0.3536 0.3536 (  7592 PWs)   bands (ev):

    -5.3011  -4.3288  -4.2039  -3.2819  -3.1885  -2.8909  -2.8256  -2.0253
    -1.1086  -0.7268  -0.5491   0.1642   0.2916   0.8471   0.9575   1.7784
     2.5834   2.6116   2.7796   2.8755   3.2438   3.3287   3.5510   3.8085
     3.9991   4.1215   4.2881   4.4596   4.5415   4.6793   4.8155   5.9760
     6.9947   7.7438   7.8176   8.1657   8.3501   8.5922

     occupation numbers 
     1.0000   1.0000   1.0000   1.0000   1.0000   1.0000   1.0000   1.0000
     1.0000   1.0000   1.0000   1.0000   1.0000   1.0000   1.0000   1.0000
     1.0000   1.0000   1.0000   1.0000   1.0000   1.0000   1.0000   1.0000
     1.0000   1.0000   1.0000   1.0000   1.0000   1.0000   1.0000   0.9927
     0.0000   0.0000   0.0000   0.0000   0.0000   0.0000

          k =-0.3536 0.0000-0.3536 (  7592 PWs)   bands (ev):

    -5.3030  -4.3807  -4.1534  -3.3009  -3.1882  -2.9181  -2.6902  -2.0795
    -1.0097  -0.8067  -0.6746   0.0595   0.3736   0.8323   0.9897   1.7793
     2.4785   2.6114   2.8359   2.9568   3.3499   3.5264   3.5618   3.7705
     4.0346   4.0777   4.3269   4.4349   4.4937   4.6459   4.8424   5.7972
     7.1026   7.7184   7.9264   8.0677   8.2347   8.3627

     occupation numbers 
     1.0000   1.0000   1.0000   1.0000   1.0000   1.0000   1.0000   1.0000
     1.0000   1.0000   1.0000   1.0000   1.0000   1.0000   1.0000   1.0000
     1.0000   1.0000   1.0000   1.0000   1.0000   1.0000   1.0000   1.0000
     1.0000   1.0000   1.0000   1.0000   1.0000   1.0000   1.0000   0.9999
     0.0000   0.0000   0.0000   0.0000   0.0000   0.0000

          k = 0.3536 0.0000-0.3536 (  7592 PWs)   bands (ev):

    -5.2969  -4.3495  -4.1681  -3.3538  -3.1235  -2.9813  -2.7960  -1.9638
    -1.1705  -0.6509  -0.5636   0.2377   0.3348   0.7809   0.9847   1.7496
     2.4368   2.6032   2.7445   2.8830   3.1873   3.3923   3.4741   3.8311
     4.0861   4.1239   4.2795   4.4148   4.5252   4.7211   4.8613   6.0448
     7.0901   7.7332   7.9261   8.1381   8.4233   8.5081

     occupation numbers 
     1.0000   1.0000   1.0000   1.0000   1.0000   1.0000   1.0000   1.0000
     1.0000   1.0000   1.0000   1.0000   1.0000   1.0000   1.0000   1.0000
     1.0000   1.0000   1.0000   1.0000   1.0000   1.0000   1.0000   1.0000
     1.0000   1.0000   1.0000   1.0000   1.0000   1.0000   1.0000   0.9752
     0.0000   0.0000   0.0000   0.0000   0.0000   0.0000

          k = 0.3536 0.3536 0.0000 (  7592 PWs)   bands (ev):

    -5.3025  -4.3631  -4.1591  -3.3862  -3.1051  -2.8637  -2.7966  -2.0400
    -1.1859  -0.6679  -0.5634   0.1076   0.4020   0.7720   0.9219   1.7709
     2.4949   2.6307   2.8506   2.9160   3.3087   3.3853   3.4784   3.7738
     4.0673   4.1590   4.2894   4.3924   4.6070   4.6875   4.8247   5.9582
     6.9319   7.8100   7.9557   8.1202   8.2883   8.3928

     occupation numbers 
     1.0000   1.0000   1.0000   1.0000   1.0000   1.0000   1.0000   1.0000
     1.0000   1.0000   1.0000   1.0000   1.0000   1.0000   1.0000   1.0000
     1.0000   1.0000   1.0000   1.0000   1.0000   1.0000   1.0000   1.0000
     1.0000   1.0000   1.0000   1.0000   1.0000   1.0000   1.0000   0.9948
     0.0000   0.0000   0.0000   0.0000   0.0000   0.0000

          k =-0.3536 0.3536 0.0000 (  7592 PWs)   bands (ev):

    -5.2973  -4.3556  -4.1775  -3.3525  -3.1305  -2.8969  -2.8033  -2.0200
    -1.0785  -0.7671  -0.6156   0.2033   0.3489   0.8380   0.9999   1.7333
     2.5190   2.6343   2.7255   2.8269   3.2478   3.4284   3.5218   3.8221
     4.0539   4.1363   4.2894   4.4326   4.5266   4.7166   4.7695   5.9889
     7.1151   7.8004   7.8701   8.1381   8.2863   8.3887

     occupation numbers 
     1.0000   1.0000   1.0000   1.0000   1.0000   1.0000   1.0000   1.0000
     1.0000   1.0000   1.0000   1.0000   1.0000   1.0000   1.0000   1.0000
     1.0000   1.0000   1.0000   1.0000   1.0000   1.0000   1.0000   1.0000
     1.0000   1.0000   1.0000   1.0000   1.0000   1.0000   1.0000   0.9906
     0.0000   0.0000   0.0000   0.0000   0.0000   0.0000

          k = 0.0000-0.7071 0.0000 (  7528 PWs)   bands (ev):

    -4.8546  -4.6652  -3.9298  -3.8259  -3.6420  -3.5847  -1.6387  -1.4754
    -1.4091  -1.2789   0.4017   0.6764   0.7713   0.7976   2.0066   2.0685
     2.1697   2.2539   2.3160   2.4065   2.5396   2.6058   2.7452   2.8586
     4.0994   4.1783   4.3742   4.4343   4.8023   4.9046   5.0279   5.2327
     7.1378   7.3234   8.1831   8.2609   8.2723   8.4809

     occupation numbers 
     1.0000   1.0000   1.0000   1.0000   1.0000   1.0000   1.0000   1.0000
     1.0000   1.0000   1.0000   1.0000   1.0000   1.0000   1.0000   1.0000
     1.0000   1.0000   1.0000   1.0000   1.0000   1.0000   1.0000   1.0000
     1.0000   1.0000   1.0000   1.0000   1.0000   1.0000   1.0000   1.0000
     0.0000   0.0000   0.0000   0.0000   0.0000   0.0000

          k = 0.0000 0.0000-0.7071 (  7528 PWs)   bands (ev):

    -4.8594  -4.6537  -3.9470  -3.8389  -3.6490  -3.5592  -1.6408  -1.4605
    -1.3819  -1.2656   0.4815   0.5400   0.6903   0.8051   1.9483   1.9940
     2.1550   2.2387   2.3473   2.3987   2.6140   2.6852   2.7935   2.8841
     4.1401   4.2836   4.3561   4.4771   4.8160   4.9394   5.0418   5.1039
     7.0638   7.1791   8.1243   8.2268   8.3885   8.4511

     occupation numbers 
     1.0000   1.0000   1.0000   1.0000   1.0000   1.0000   1.0000   1.0000
     1.0000   1.0000   1.0000   1.0000   1.0000   1.0000   1.0000   1.0000
     1.0000   1.0000   1.0000   1.0000   1.0000   1.0000   1.0000   1.0000
     1.0000   1.0000   1.0000   1.0000   1.0000   1.0000   1.0000   1.0000
     0.0000   0.0000   0.0000   0.0000   0.0000   0.0000

          k = 0.3536-0.7071 0.0000 (  7564 PWs)   bands (ev):

    -4.6782  -4.5809  -4.4065  -4.3016  -2.8808  -2.6627  -2.5846  -2.4592
    -0.5191  -0.4224  -0.3850  -0.2838   1.5542   1.6929   1.7592   1.7925
     1.8549   2.0258   2.0820   2.1977   3.2291   3.2979   3.3989   3.4478
     3.6364   3.6733   3.7508   3.8324   4.7107   4.7621   4.9281   4.9674
     8.2511   8.3705   8.4321   8.5340   8.6306   8.6832

     occupation numbers 
     1.0000   1.0000   1.0000   1.0000   1.0000   1.0000   1.0000   1.0000
     1.0000   1.0000   1.0000   1.0000   1.0000   1.0000   1.0000   1.0000
     1.0000   1.0000   1.0000   1.0000   1.0000   1.0000   1.0000   1.0000
     1.0000   1.0000   1.0000   1.0000   1.0000   1.0000   1.0000   1.0000
     0.0000   0.0000   0.0000   0.0000   0.0000   0.0000

          k = 0.7071 0.0000 0.3536 (  7564 PWs)   bands (ev):

    -4.6646  -4.5854  -4.4153  -4.3046  -2.8076  -2.7316  -2.6158  -2.4388
    -0.5958  -0.4373  -0.3399  -0.2088   1.6244   1.6750   1.7421   1.8142
     1.8806   1.9431   2.0547   2.2545   3.2177   3.2597   3.3511   3.5255
     3.5804   3.6854   3.7207   3.8435   4.6003   4.7553   4.9168   5.0792
     8.2753   8.3207   8.4840   8.5719   8.5998   8.7455

     occupation numbers 
     1.0000   1.0000   1.0000   1.0000   1.0000   1.0000   1.0000   1.0000
     1.0000   1.0000   1.0000   1.0000   1.0000   1.0000   1.0000   1.0000
     1.0000   1.0000   1.0000   1.0000   1.0000   1.0000   1.0000   1.0000
     1.0000   1.0000   1.0000   1.0000   1.0000   1.0000   1.0000   1.0000
     0.0000   0.0000   0.0000   0.0000   0.0000   0.0000

     the Fermi energy is     6.3281 ev

!    total energy              =    -152.85106331 Ry
     Harris-Foulkes estimate   =    -152.85106331 Ry
     estimated scf accuracy    <          6.9E-10 Ry

     The total energy is the sum of the following terms:

     one-electron contribution =      41.74273678 Ry
     hartree contribution      =       8.31937501 Ry
     xc contribution           =     -68.02340302 Ry
     ewald contribution        =    -134.88922663 Ry
     smearing contrib. (-TS)   =      -0.00054546 Ry

     convergence has been achieved in  12 iterations

     Forces acting on atoms (Ry/au):

     atom    1 type  1   force =   0.29600882E-01 -0.22298095E-01 -0.19143159E-02
     atom    2 type  1   force =  -0.19806437E-01 -0.19008889E-01 -0.13304567E-01
     atom    3 type  1   force =   0.28162986E-01  0.33045773E-01  0.34974926E-01
     atom    4 type  1   force =  -0.25988528E-01  0.46324119E-02  0.25269424E-02
     atom    5 type  1   force =   0.41986041E-02  0.65698469E-02  0.11232993E-01
     atom    6 type  1   force =   0.29504046E-01 -0.76664777E-02 -0.14953408E-01
     atom    7 type  1   force =  -0.73970009E-01  0.14597733E-01  0.19359653E-01
     atom    8 type  1   force =  -0.13417990E-01  0.32406338E-01  0.14222027E-01
     atom    9 type  1   force =   0.75250774E-02  0.62338867E-01  0.10235129E-01
     atom   10 type  1   force =  -0.30114119E-01 -0.21886566E-01  0.46634549E-01
     atom   11 type  1   force =  -0.14339259E-01  0.95255260E-04 -0.22752203E-01
     atom   12 type  1   force =  -0.22247056E-02  0.34015446E-02  0.22533192E-01
     atom   13 type  1   force =   0.17126285E-02  0.26745988E-01 -0.12154124E-01
     atom   14 type  1   force =   0.23623961E-01 -0.45454240E-01 -0.19471802E-01
     atom   15 type  1   force =   0.85680099E-02 -0.19761834E-01 -0.44705255E-01
     atom   16 type  1   force =   0.46964852E-01 -0.47757655E-01 -0.32463737E-01
     The non-local contrib.  to forces
     atom    1 type  1   force =   0.26496845E-01 -0.19662189E-01 -0.10237432E-01
     atom    2 type  1   force =   0.34074745E-02 -0.15662046E-01 -0.93123767E-02
     atom    3 type  1   force =   0.24805205E-01  0.30575714E-01  0.27128625E-01
     atom    4 type  1   force =  -0.25756373E-01 -0.17446627E-01  0.65281835E-02
     atom    5 type  1   force =  -0.16488647E-01  0.10195663E-01  0.17972354E-01
     atom    6 type  1   force =   0.30731398E-01  0.84009285E-02 -0.34702553E-01
     atom    7 type  1   force =  -0.87695345E-01  0.16962350E-01  0.26751475E-01
     atom    8 type  1   force =  -0.14874862E-01  0.45961378E-01  0.36888507E-01
     atom    9 type  1   force =  -0.10134990E-01  0.59829195E-01  0.91091172E-02
     atom   10 type  1   force =  -0.31940556E-01 -0.20531354E-01  0.36995192E-01
     atom   11 type  1   force =  -0.13373654E-01  0.11232219E-01 -0.37965198E-01
     atom   12 type  1   force =   0.17781784E-01 -0.56066860E-02  0.34485883E-01
     atom   13 type  1   force =  -0.56568350E-02  0.24066871E-01 -0.53484398E-02
     atom   14 type  1   force =   0.33313306E-01 -0.45193224E-01 -0.11457290E-01
     atom   15 type  1   force =   0.19915590E-01 -0.24566141E-01 -0.50922166E-01
     atom   16 type  1   force =   0.55088336E-01 -0.63824204E-01 -0.28398182E-01
     The ionic contribution  to forces
     atom    1 type  1   force =  -0.31865041E-01 -0.61979674E-01 -0.13928949E+00
     atom    2 type  1   force =   0.56212762E-01 -0.65130236E-02 -0.81895769E-01
     atom    3 type  1   force =   0.15414802E+00  0.40177462E-01  0.19883940E-01
     atom    4 type  1   force =  -0.55667374E-01 -0.18965743E+00 -0.17526860E+00
     atom    5 type  1   force =  -0.92689209E-01  0.14741400E+00  0.19111373E+00
     atom    6 type  1   force =  -0.33769603E-01  0.19287810E+00 -0.22832963E-01
     atom    7 type  1   force =  -0.34867461E+00  0.12965666E+00  0.18093576E+00
     atom    8 type  1   force =  -0.61641707E-01  0.24769273E+00  0.40484604E+00
     atom    9 type  1   force =  -0.57952074E-01  0.18261047E+00 -0.60994540E-01
     atom   10 type  1   force =  -0.13508582E+00 -0.71422283E-01 -0.28484273E-01
     atom   11 type  1   force =   0.89910997E-01 -0.18127039E+00 -0.28461223E+00
     atom   12 type  1   force =   0.25426755E+00 -0.18520631E+00  0.12446080E+00
     atom   13 type  1   force =  -0.13724837E+00  0.18781095E+00 -0.11345219E+00
     atom   14 type  1   force =   0.60100026E-01 -0.12403511E+00  0.66172824E-02
     atom   15 type  1   force =   0.83435646E-01 -0.98790535E-01  0.20377874E-01
     atom   16 type  1   force =   0.25651881E+00 -0.20936560E+00 -0.41405371E-01
     The local contribution  to forces
     atom    1 type  1   force =   0.37099818E-01  0.57930155E-01  0.14606266E+00
     atom    2 type  1   force =  -0.78747566E-01  0.16250755E-02  0.76709962E-01
     atom    3 type  1   force =  -0.14816475E+00 -0.35701677E-01 -0.10571130E-01
     atom    4 type  1   force =   0.53618000E-01  0.20907601E+00  0.17098921E+00
     atom    5 type  1   force =   0.11122554E+00 -0.14963813E+00 -0.19557172E+00
     atom    6 type  1   force =   0.34832022E-01 -0.20718690E+00  0.39520394E-01
     atom    7 type  1   force =   0.35443955E+00 -0.13009619E+00 -0.18529088E+00
     atom    8 type  1   force =   0.61672818E-01 -0.25660992E+00 -0.42294187E+00
     atom    9 type  1   force =   0.74185957E-01 -0.17494373E+00  0.62349371E-01
     atom   10 type  1   force =   0.13367356E+00  0.68433250E-01  0.40648724E-01
     atom   11 type  1   force =  -0.91218937E-01  0.17071297E+00  0.29539475E+00
     atom   12 type  1   force =  -0.27160443E+00  0.19262691E+00 -0.13321639E+00
     atom   13 type  1   force =   0.14307051E+00 -0.18219033E+00  0.10623369E+00
     atom   14 type  1   force =  -0.67380938E-01  0.11969593E+00 -0.15070502E-01
     atom   15 type  1   force =  -0.92838150E-01  0.10150530E+00 -0.17679415E-01
     atom   16 type  1   force =  -0.25897312E+00  0.21973966E+00  0.35661108E-01
     The core correction contribution to forces
     atom    1 type  1   force =  -0.21324458E-02  0.14147532E-02  0.15497340E-02
     atom    2 type  1   force =  -0.67559946E-03  0.15436214E-02  0.11928535E-02
     atom    3 type  1   force =  -0.26252518E-02 -0.20032704E-02 -0.14654165E-02
     atom    4 type  1   force =   0.18124302E-02  0.26566929E-02  0.27699000E-03
     atom    5 type  1   force =   0.21492083E-02 -0.14028605E-02 -0.22787607E-02
     atom    6 type  1   force =  -0.22907264E-02 -0.17566151E-02  0.30595929E-02
     atom    7 type  1   force =   0.79578715E-02 -0.19219182E-02 -0.30321761E-02
     atom    8 type  1   force =   0.14245596E-02 -0.46343511E-02 -0.45664188E-02
     atom    9 type  1   force =   0.14242343E-02 -0.51569607E-02 -0.22953633E-03
     atom   10 type  1   force =   0.32384136E-02  0.16322865E-02 -0.25274774E-02
     atom   11 type  1   force =   0.34428273E-03 -0.58006516E-03  0.44280219E-02
     atom   12 type  1   force =  -0.26670570E-02  0.15862399E-02 -0.31939177E-02
     atom   13 type  1   force =   0.15500192E-02 -0.29419118E-02  0.41418849E-03
     atom   14 type  1   force =  -0.24077348E-02  0.40782851E-02  0.43714591E-03
     atom   15 type  1   force =  -0.19434461E-02  0.20864249E-02  0.35133934E-02
     atom   16 type  1   force =  -0.56684481E-02  0.56898771E-02  0.16751968E-02
     The Hubbard contrib.    to forces
     atom    1 type  1   force =   0.00000000E+00  0.00000000E+00  0.00000000E+00
     atom    2 type  1   force =   0.00000000E+00  0.00000000E+00  0.00000000E+00
     atom    3 type  1   force =   0.00000000E+00  0.00000000E+00  0.00000000E+00
     atom    4 type  1   force =   0.00000000E+00  0.00000000E+00  0.00000000E+00
     atom    5 type  1   force =   0.00000000E+00  0.00000000E+00  0.00000000E+00
     atom    6 type  1   force =   0.00000000E+00  0.00000000E+00  0.00000000E+00
     atom    7 type  1   force =   0.00000000E+00  0.00000000E+00  0.00000000E+00
     atom    8 type  1   force =   0.00000000E+00  0.00000000E+00  0.00000000E+00
     atom    9 type  1   force =   0.00000000E+00  0.00000000E+00  0.00000000E+00
     atom   10 type  1   force =   0.00000000E+00  0.00000000E+00  0.00000000E+00
     atom   11 type  1   force =   0.00000000E+00  0.00000000E+00  0.00000000E+00
     atom   12 type  1   force =   0.00000000E+00  0.00000000E+00  0.00000000E+00
     atom   13 type  1   force =   0.00000000E+00  0.00000000E+00  0.00000000E+00
     atom   14 type  1   force =   0.00000000E+00  0.00000000E+00  0.00000000E+00
     atom   15 type  1   force =   0.00000000E+00  0.00000000E+00  0.00000000E+00
     atom   16 type  1   force =   0.00000000E+00  0.00000000E+00  0.00000000E+00
     The SCF correction term to forces
     atom    1 type  1   force =   0.16640433E-05 -0.11347971E-05  0.24687238E-07
     atom    2 type  1   force =  -0.35498946E-05 -0.25107875E-05  0.57501706E-06
     atom    3 type  1   force =  -0.27370493E-06 -0.24499155E-05 -0.12812750E-05
     atom    4 type  1   force =   0.47465135E-05  0.37749003E-05  0.97831633E-06
     atom    5 type  1   force =   0.16735301E-05  0.11865370E-05 -0.28019492E-05
     atom    6 type  1   force =   0.91226788E-06 -0.19846885E-05  0.19340428E-05
     atom    7 type  1   force =   0.24798645E-05 -0.31617597E-05 -0.47115918E-05
     atom    8 type  1   force =   0.11585101E-05 -0.34880992E-05 -0.44165506E-05
     atom    9 type  1   force =   0.19079604E-05 -0.99997127E-07  0.53010606E-06
     atom   10 type  1   force =   0.23775809E-06  0.15396631E-05  0.21962969E-05
     atom   11 type  1   force =  -0.19894901E-05  0.52550270E-06  0.22640579E-05
     atom   12 type  1   force =  -0.25931075E-05  0.13971235E-05 -0.33691440E-05
     atom   13 type  1   force =  -0.27350791E-05  0.41834764E-06 -0.15527197E-05
     atom   14 type  1   force =  -0.74093395E-06 -0.11056728E-06  0.13737197E-05
     atom   15 type  1   force =  -0.16726295E-05  0.31236741E-05  0.48718780E-05
     atom   16 type  1   force =  -0.76780024E-06  0.26241234E-05  0.33237649E-05

     Total force =     0.188889     Total SCF correction =     0.000016


     entering subroutine stress ...

          total   stress  (Ry/bohr**3)                   (kbar)     P=  -13.79
  -0.0000858018   0.0000247494  -0.0000703325        -12.62      3.64    -10.35
   0.0000247494  -0.0000824307   0.0000318711          3.64    -12.13      4.69
  -0.0000703325   0.0000318711  -0.0001129156        -10.35      4.69    -16.61

     kinetic stress (kbar)   2174.13      7.61      6.02
                                7.61   2174.91      1.55
                                6.02      1.55   2170.85

     local   stress (kbar)   -263.57     41.13     84.66
                               41.13   -258.89    -19.47
                               84.66    -19.47   -255.21

     nonloc. stress (kbar)   1930.42      1.73    -10.77
                                1.73   1930.85      5.04
                              -10.77      5.04   1933.20

     hartree stress (kbar)    190.99     -9.84     -9.44
                               -9.84    189.37      0.47
                               -9.44      0.47    185.52

     exc-cor stress (kbar)    997.12     -0.05     -0.12
                               -0.05    997.11      0.04
                               -0.12      0.04    997.12

     corecor stress (kbar)  -1986.57     -0.18      1.27
                               -0.18  -1986.62     -0.59
                                1.27     -0.59  -1986.90

     ewald   stress (kbar)  -3055.14    -36.77    -81.98
                              -36.77  -3058.85     17.66
                              -81.98     17.66  -3061.19

     hubbard stress (kbar)      0.00      0.00      0.00
                                0.00      0.00      0.00
                                0.00      0.00      0.00

     london  stress (kbar)      0.00      0.00      0.00
                                0.00      0.00      0.00
                                0.00      0.00      0.00

     XDM     stress (kbar)      0.00      0.00      0.00
                                0.00      0.00      0.00
                                0.00      0.00      0.00

     dft-nl  stress (kbar)      0.00      0.00      0.00
                                0.00      0.00      0.00
                                0.00      0.00      0.00



     Writing output data file Si_diamond.scf.in.super.222.replace6339.save

     init_run     :      8.08s CPU      7.80s WALL (       1 calls)
     electrons    :    248.03s CPU    250.19s WALL (       1 calls)
     forces       :      3.75s CPU      3.02s WALL (       1 calls)
     stress       :      4.80s CPU      4.74s WALL (       1 calls)

     Called by init_run:
     wfcinit      :      7.52s CPU      7.22s WALL (       1 calls)
     potinit      :      0.08s CPU      0.09s WALL (       1 calls)

     Called by electrons:
     c_bands      :    214.45s CPU    218.13s WALL (      13 calls)
     sum_band     :     30.59s CPU     29.00s WALL (      13 calls)
     v_of_rho     :      0.52s CPU      0.54s WALL (      13 calls)
     v_h          :      0.02s CPU      0.03s WALL (      13 calls)
     v_xc         :      0.57s CPU      0.59s WALL (      15 calls)
     newd         :      2.31s CPU      2.32s WALL (      13 calls)
     mix_rho      :      0.36s CPU      0.38s WALL (      13 calls)

     Called by c_bands:
     init_us_2    :      2.68s CPU      2.73s WALL (    1044 calls)
     cegterg      :    205.57s CPU    208.95s WALL (     468 calls)

     Called by sum_band:
     sum_band:bec :      0.42s CPU      0.40s WALL (     468 calls)
     addusdens    :      2.76s CPU      2.77s WALL (      13 calls)

     Called by *egterg:
     h_psi        :    133.41s CPU    145.38s WALL (    1893 calls)
     s_psi        :     18.41s CPU     12.90s WALL (    1893 calls)
     g_psi        :      0.23s CPU      0.22s WALL (    1389 calls)
     cdiaghg      :     19.79s CPU     20.05s WALL (    1821 calls)
     cegterg:over :     17.59s CPU     16.26s WALL (    1389 calls)
     cegterg:upda :      6.48s CPU      4.85s WALL (    1389 calls)
     cegterg:last :      4.10s CPU      2.89s WALL (     504 calls)

     Called by h_psi:
     h_psi:vloc   :     85.19s CPU    108.63s WALL (    1893 calls)
     h_psi:vnl    :     48.13s CPU     36.60s WALL (    1893 calls)
     add_vuspsi   :     20.77s CPU     14.65s WALL (    1893 calls)

     General routines
     calbec       :     38.67s CPU     31.04s WALL (    2433 calls)
     fft          :      0.64s CPU      0.66s WALL (     233 calls)
     ffts         :      0.28s CPU      0.27s WALL (     219 calls)
     fftw         :     96.50s CPU    119.82s WALL (  110852 calls)
     interpolate  :      0.11s CPU      0.11s WALL (      26 calls)

     Parallel routines
     fft_scatter  :     55.88s CPU     74.95s WALL (  111304 calls)

     PWSCF        :  4m25.81s CPU     4m27.28s WALL


   This run was terminated on:  14:42:33  15Mar2018            

=------------------------------------------------------------------------------=
   JOB DONE.
=------------------------------------------------------------------------------=
