--------------------------------------------------------------------------
[[29661,1],9]: A high-performance Open MPI point-to-point messaging module
was unable to find any relevant network interfaces:

Module: OpenFabrics (openib)
  Host: r040

Another transport will be used instead, although this may result in
lower performance.
--------------------------------------------------------------------------

     Program PWSCF v.6.2.2 starts on 15Jul2019 at 14:37: 3 

     This program is part of the open-source Quantum ESPRESSO suite
     for quantum simulation of materials; please cite
         "P. Giannozzi et al., J. Phys.:Condens. Matter 21 395502 (2009);
         "P. Giannozzi et al., J. Phys.:Condens. Matter 29 465901 (2017);
          URL http://www.quantum-espresso.org", 
     in publications or presentations arising from this work. More details at
     http://www.quantum-espresso.org/quote

     Parallel version (MPI), running on    16 processors

     MPI processes distributed on     1 nodes
     R & G space division:  proc/nbgrp/npool/nimage =      16
     Waiting for input...
     Reading input from standard input
Warning: card &IONS ignored
Warning: card   ION_DYNAMICS='BFGS', ignored
Warning: card / ignored
Warning: card &CELL ignored
Warning: card  CELL_DYNAMICS = 'BFGS' ignored
Warning: card / ignored

     Current dimensions of program PWSCF are:
     Max number of different atomic species (ntypx) = 10
     Max number of k-points (npk) =  40000
     Max angular momentum in pseudopotentials (lmaxx) =  3

     Subspace diagonalization in iterative solution of the eigenvalue problem:
     one sub-group per band group will be used
     scalapack distributed-memory algorithm (size of sub-group:  2*  2 procs)


     Parallelization info
     --------------------
     sticks:   dense  smooth     PW     G-vecs:    dense   smooth      PW
     Min         181     128     35                 6459     3780     554
     Max         182     129     38                 6463     3782     555
     Sum        2905    2053    571               103379    60495    8873



     bravais-lattice index     =            0
     lattice parameter (alat)  =      14.5156  a.u.
     unit-cell volume          =    2162.6713 (a.u.)^3
     number of atoms/cell      =           16
     number of atomic types    =            1
     number of electrons       =        64.00
     number of Kohn-Sham states=           38
     kinetic-energy cutoff     =      35.0000  Ry
     charge density cutoff     =     200.0000  Ry
     convergence threshold     =      1.0E-09
     mixing beta               =       0.3000
     number of iterations used =            8  local-TF  mixing
     Exchange-correlation      = SLA  PW   PSX  PSC ( 1  4 10  8 0 0)
     A smooth kinetic-energy cutoff is imposed at      34.5000 Ry
     height of the smooth step-function =             800.0000 Ry
     width of the smooth step-function  =               1.0000 Ry


     celldm(1)=  14.515606  celldm(2)=   0.000000  celldm(3)=   0.000000
     celldm(4)=   0.000000  celldm(5)=   0.000000  celldm(6)=   0.000000

     crystal axes: (cart. coord. in units of alat)
               a(1) = (  -0.000000   0.707107   0.707107 )  
               a(2) = (   0.707107  -0.000000   0.707107 )  
               a(3) = (   0.707107   0.707107   0.000000 )  

     reciprocal axes: (cart. coord. in units 2 pi/alat)
               b(1) = ( -0.707107  0.707107  0.707107 )  
               b(2) = (  0.707107 -0.707107  0.707107 )  
               b(3) = (  0.707107  0.707107 -0.707107 )  


     PseudoPot. # 1 for Si read from file:
     /users/kfg/psuedo/gbrv_1.5/si.pbesol.UPF
     MD5 check sum: ef58ba74faed4df802eb8a9742fc00a8
     Pseudo is Ultrasoft + core correction, Zval =  4.0
     Generated by new atomic code, or converted to UPF format
     Using radial grid of  899 points,  6 beta functions with: 
                l(1) =   0
                l(2) =   0
                l(3) =   1
                l(4) =   1
                l(5) =   2
                l(6) =   2
     Q(r) pseudized with  8 coefficients,  rinner =    0.900   0.900   0.900
                                                       0.900   0.900

     atomic species   valence    mass     pseudopotential
        Si             4.00    28.08550     Si( 1.00)

     No symmetry found


                                    s                        frac. trans.

      isym =  1     identity                                     

 cryst.   s( 1) = (     1          0          0      )
                  (     0          1          0      )
                  (     0          0          1      )

 cart.    s( 1) = (  1.0000000  0.0000000  0.0000000 )
                  (  0.0000000  1.0000000  0.0000000 )
                  (  0.0000000  0.0000000  1.0000000 )


   Cartesian axes

     site n.     atom                  positions (alat units)
         1           Si  tau(   1) = (  -0.0115443  -0.0326824  -0.0109503  )
         2           Si  tau(   2) = (   0.1380065   0.1247263   0.2126547  )
         3           Si  tau(   3) = (   0.3105117   0.3253696   0.0145927  )
         4           Si  tau(   4) = (   0.5018468   0.5125128   0.1665904  )
         5           Si  tau(   5) = (   0.3927744   0.0473737   0.3438612  )
         6           Si  tau(   6) = (   0.5629466   0.2059699   0.5542776  )
         7           Si  tau(   7) = (   0.7119542   0.3744752   0.3454399  )
         8           Si  tau(   8) = (   0.9138895   0.5417633   0.5121596  )
         9           Si  tau(   9) = (  -0.0170352   0.3438428   0.3573171  )
        10           Si  tau(  10) = (   0.1842150   0.5168698   0.5133352  )
        11           Si  tau(  11) = (   0.3533094   0.7122346   0.3474659  )
        12           Si  tau(  12) = (   0.5140994   0.8819488   0.5451214  )
        13           Si  tau(  13) = (   0.3611061   0.3692269   0.7182071  )
        14           Si  tau(  14) = (   0.5484592   0.5473357   0.8825573  )
        15           Si  tau(  15) = (   0.7236259   0.7088302   0.6887429  )
        16           Si  tau(  16) = (   0.8829027   0.8912704   0.8796952  )

   Crystallographic axes

     site n.     atom                  positions (cryst. coord.)
         1           Si  tau(   1) = ( -0.0226899  0.0072038 -0.0235300  )
         2           Si  tau(   2) = (  0.1409790  0.1597601  0.0354106  )
         3           Si  tau(   3) = (  0.0208247 -0.0001876  0.4393175  )
         4           Si  tau(   4) = (  0.1253392  0.1102552  0.5994633  )
         5           Si  tau(   5) = ( -0.0010886  0.4873817  0.0680852  )
         6           Si  tau(   6) = (  0.1395128  0.6443541  0.1517726  )
         7           Si  tau(   7) = (  0.0056292  0.4828966  0.5239587  )
         8           Si  tau(   8) = (  0.0990187  0.6252845  0.6671504  )
         9           Si  tau(   9) = (  0.5078406 -0.0025180 -0.0215735  )
        10           Si  tau(  10) = (  0.5982053  0.1277603  0.1327591  )
        11           Si  tau(  11) = (  0.4994939 -0.0081029  0.5077579  )
        12           Si  tau(  12) = (  0.6455678  0.1253502  0.6016962  )
        13           Si  tau(  13) = (  0.5135914  0.5021068  0.0085743  )
        14           Si  tau(  14) = (  0.6232678  0.6248567  0.1507817  )
        15           Si  tau(  15) = (  0.4765526  0.4974769  0.5258847  )
        16           Si  tau(  16) = (  0.6279553  0.6161216  0.6324914  )

     number of k points=    36  gaussian smearing, width (Ry)=  0.0150
                       cart. coord. in units 2pi/alat
        k(    1) = (   0.0000000   0.0000000   0.0000000), wk =   0.0312500
        k(    2) = (   0.1767767   0.1767767  -0.1767767), wk =   0.0625000
        k(    3) = (  -0.3535534  -0.3535534   0.3535534), wk =   0.0312500
        k(    4) = (   0.3535534   0.0000000   0.0000000), wk =   0.0625000
        k(    5) = (  -0.1767767  -0.5303301   0.5303301), wk =   0.0625000
        k(    6) = (   0.0000000  -0.3535534   0.3535534), wk =   0.0625000
        k(    7) = (  -0.7071068   0.0000000   0.0000000), wk =   0.0312500
        k(    8) = (  -0.7071068   0.3535534   0.0000000), wk =   0.0625000
        k(    9) = (  -0.1767767  -0.1767767  -0.1767767), wk =   0.0625000
        k(   10) = (  -0.1767767   0.1767767   0.1767767), wk =   0.0625000
        k(   11) = (   0.1767767  -0.1767767   0.1767767), wk =   0.0625000
        k(   12) = (   0.3535534   0.3535534   0.3535534), wk =   0.0312500
        k(   13) = (   0.3535534  -0.3535534  -0.3535534), wk =   0.0312500
        k(   14) = (  -0.3535534   0.3535534  -0.3535534), wk =   0.0312500
        k(   15) = (   0.0000000   0.3535534   0.0000000), wk =   0.0625000
        k(   16) = (   0.0000000   0.0000000   0.3535534), wk =   0.0625000
        k(   17) = (   0.1767767   0.5303301   0.5303301), wk =   0.0625000
        k(   18) = (   0.1767767  -0.5303301  -0.5303301), wk =   0.0625000
        k(   19) = (  -0.1767767   0.5303301  -0.5303301), wk =   0.0625000
        k(   20) = (  -0.5303301  -0.1767767  -0.5303301), wk =   0.0625000
        k(   21) = (   0.5303301   0.1767767  -0.5303301), wk =   0.0625000
        k(   22) = (  -0.5303301   0.1767767   0.5303301), wk =   0.0625000
        k(   23) = (   0.5303301  -0.1767767   0.5303301), wk =   0.0625000
        k(   24) = (   0.5303301   0.5303301  -0.1767767), wk =   0.0625000
        k(   25) = (  -0.5303301   0.5303301   0.1767767), wk =   0.0625000
        k(   26) = (   0.5303301  -0.5303301   0.1767767), wk =   0.0625000
        k(   27) = (  -0.5303301  -0.5303301  -0.1767767), wk =   0.0625000
        k(   28) = (   0.0000000   0.3535534   0.3535534), wk =   0.0625000
        k(   29) = (  -0.3535534   0.0000000  -0.3535534), wk =   0.0625000
        k(   30) = (   0.3535534   0.0000000  -0.3535534), wk =   0.0625000
        k(   31) = (   0.3535534   0.3535534   0.0000000), wk =   0.0625000
        k(   32) = (  -0.3535534   0.3535534   0.0000000), wk =   0.0625000
        k(   33) = (   0.0000000  -0.7071068   0.0000000), wk =   0.0312500
        k(   34) = (   0.0000000   0.0000000  -0.7071068), wk =   0.0312500
        k(   35) = (   0.3535534  -0.7071068   0.0000000), wk =   0.0625000
        k(   36) = (   0.7071068   0.0000000   0.3535534), wk =   0.0625000

                       cryst. coord.
        k(    1) = (   0.0000000   0.0000000   0.0000000), wk =   0.0312500
        k(    2) = (   0.0000000   0.0000000   0.2500000), wk =   0.0625000
        k(    3) = (   0.0000000   0.0000000  -0.5000000), wk =   0.0312500
        k(    4) = (  -0.0000000   0.2500000   0.2500000), wk =   0.0625000
        k(    5) = (   0.0000000   0.2500000  -0.5000000), wk =   0.0625000
        k(    6) = (   0.0000000   0.2500000  -0.2500000), wk =   0.0625000
        k(    7) = (   0.0000000  -0.5000000  -0.5000000), wk =   0.0312500
        k(    8) = (   0.2500000  -0.5000000  -0.2500000), wk =   0.0625000
        k(    9) = (  -0.2500000  -0.2500000  -0.2500000), wk =   0.0625000
        k(   10) = (   0.2500000   0.0000000   0.0000000), wk =   0.0625000
        k(   11) = (   0.0000000   0.2500000   0.0000000), wk =   0.0625000
        k(   12) = (   0.5000000   0.5000000   0.5000000), wk =   0.0312500
        k(   13) = (  -0.5000000   0.0000000  -0.0000000), wk =   0.0312500
        k(   14) = (   0.0000000  -0.5000000  -0.0000000), wk =   0.0312500
        k(   15) = (   0.2500000  -0.0000000   0.2500000), wk =   0.0625000
        k(   16) = (   0.2500000   0.2500000   0.0000000), wk =   0.0625000
        k(   17) = (   0.7500000   0.5000000   0.5000000), wk =   0.0625000
        k(   18) = (  -0.7500000  -0.2500000  -0.2500000), wk =   0.0625000
        k(   19) = (   0.0000000  -0.5000000   0.2500000), wk =   0.0625000
        k(   20) = (  -0.5000000  -0.7500000  -0.5000000), wk =   0.0625000
        k(   21) = (  -0.2500000   0.0000000   0.5000000), wk =   0.0625000
        k(   22) = (   0.5000000   0.0000000  -0.2500000), wk =   0.0625000
        k(   23) = (   0.2500000   0.7500000   0.2500000), wk =   0.0625000
        k(   24) = (   0.2500000   0.2500000   0.7500000), wk =   0.0625000
        k(   25) = (   0.5000000  -0.2500000   0.0000000), wk =   0.0625000
        k(   26) = (  -0.2500000   0.5000000   0.0000000), wk =   0.0625000
        k(   27) = (  -0.5000000  -0.5000000  -0.7500000), wk =   0.0625000
        k(   28) = (   0.5000000   0.2500000   0.2500000), wk =   0.0625000
        k(   29) = (  -0.2500000  -0.5000000  -0.2500000), wk =   0.0625000
        k(   30) = (  -0.2500000   0.0000000   0.2500000), wk =   0.0625000
        k(   31) = (   0.2500000   0.2500000   0.5000000), wk =   0.0625000
        k(   32) = (   0.2500000  -0.2500000   0.0000000), wk =   0.0625000
        k(   33) = (  -0.5000000   0.0000000  -0.5000000), wk =   0.0312500
        k(   34) = (  -0.5000000  -0.5000000  -0.0000000), wk =   0.0312500
        k(   35) = (  -0.5000000   0.2500000  -0.2500000), wk =   0.0625000
        k(   36) = (   0.2500000   0.7500000   0.5000000), wk =   0.0625000

     Dense  grid:   103379 G-vectors     FFT dimensions: (  72,  72,  72)

     Smooth grid:    60495 G-vectors     FFT dimensions: (  60,  60,  60)

     Dynamical RAM for                 wfc:       0.27 MB

     Dynamical RAM for     wfc (w. buffer):      10.13 MB

     Dynamical RAM for           str. fact:       0.10 MB

     Dynamical RAM for           local pot:       0.00 MB

     Dynamical RAM for          nlocal pot:       2.07 MB

     Dynamical RAM for                qrad:       2.62 MB

     Dynamical RAM for          rho,v,vnew:       0.89 MB

     Dynamical RAM for               rhoin:       0.30 MB

     Dynamical RAM for            rho*nmix:       1.58 MB

     Dynamical RAM for           G-vectors:       0.40 MB

     Dynamical RAM for          h,s,v(r/c):       0.26 MB

     Dynamical RAM for          <psi|beta>:       0.17 MB

     Dynamical RAM for                 psi:       1.09 MB

     Dynamical RAM for                hpsi:       1.09 MB

     Dynamical RAM for                spsi:       1.09 MB

     Dynamical RAM for      wfcinit/wfcrot:       1.02 MB

     Dynamical RAM for           addusdens:      19.92 MB

     Dynamical RAM for          addusforce:      22.99 MB

     Dynamical RAM for         addusstress:      19.82 MB

     Estimated static dynamical RAM per process >      19.27 MB

     Estimated max dynamical RAM per process >      42.26 MB

     Estimated total dynamical RAM >     676.14 MB

     Initial potential from superposition of free atoms

     starting charge   63.98963, renormalised to   64.00000
     Starting wfcs are   64 randomized atomic wfcs

     total cpu time spent up to now is        6.6 secs

     Self-consistent Calculation

     iteration #  1     ecut=    35.00 Ry     beta= 0.30
     Davidson diagonalization with overlap
     ethr =  1.00E-02,  avg # of iterations =  3.1

     Threshold (ethr) on eigenvalues was too large:
     Diagonalizing with lowered threshold

     Davidson diagonalization with overlap
     ethr =  6.49E-04,  avg # of iterations =  2.1

     total cpu time spent up to now is       38.0 secs

     total energy              =    -152.93233492 Ry
     Harris-Foulkes estimate   =    -152.97643939 Ry
     estimated scf accuracy    <       0.40968704 Ry

     iteration #  2     ecut=    35.00 Ry     beta= 0.30
     Davidson diagonalization with overlap
     ethr =  6.40E-04,  avg # of iterations =  1.0

     total cpu time spent up to now is       48.9 secs

     total energy              =    -152.84627879 Ry
     Harris-Foulkes estimate   =    -152.93476912 Ry
     estimated scf accuracy    <       0.25312036 Ry

     iteration #  3     ecut=    35.00 Ry     beta= 0.30
     Davidson diagonalization with overlap
     ethr =  3.96E-04,  avg # of iterations =  2.5

     total cpu time spent up to now is       60.8 secs

     total energy              =    -152.86434810 Ry
     Harris-Foulkes estimate   =    -152.86393069 Ry
     estimated scf accuracy    <       0.00279051 Ry

     iteration #  4     ecut=    35.00 Ry     beta= 0.30
     Davidson diagonalization with overlap
     c_bands:  1 eigenvalues not converged
     ethr =  4.36E-06,  avg # of iterations = 12.0

     total cpu time spent up to now is       91.8 secs

     total energy              =    -152.86657671 Ry
     Harris-Foulkes estimate   =    -152.86659020 Ry
     estimated scf accuracy    <       0.00117848 Ry

     iteration #  5     ecut=    35.00 Ry     beta= 0.30
     Davidson diagonalization with overlap
     ethr =  1.84E-06,  avg # of iterations =  1.7

     total cpu time spent up to now is      103.1 secs

     total energy              =    -152.86665633 Ry
     Harris-Foulkes estimate   =    -152.86663818 Ry
     estimated scf accuracy    <       0.00009126 Ry

     iteration #  6     ecut=    35.00 Ry     beta= 0.30
     Davidson diagonalization with overlap
     ethr =  1.43E-07,  avg # of iterations =  2.2

     total cpu time spent up to now is      117.6 secs

     total energy              =    -152.86666901 Ry
     Harris-Foulkes estimate   =    -152.86667191 Ry
     estimated scf accuracy    <       0.00001580 Ry

     iteration #  7     ecut=    35.00 Ry     beta= 0.30
     Davidson diagonalization with overlap
     ethr =  2.47E-08,  avg # of iterations =  1.4

     total cpu time spent up to now is      128.7 secs

     total energy              =    -152.86666941 Ry
     Harris-Foulkes estimate   =    -152.86666998 Ry
     estimated scf accuracy    <       0.00000379 Ry

     iteration #  8     ecut=    35.00 Ry     beta= 0.30
     Davidson diagonalization with overlap
     ethr =  5.92E-09,  avg # of iterations =  2.2

     total cpu time spent up to now is      144.0 secs

     total energy              =    -152.86667020 Ry
     Harris-Foulkes estimate   =    -152.86667025 Ry
     estimated scf accuracy    <       0.00000048 Ry

     iteration #  9     ecut=    35.00 Ry     beta= 0.30
     Davidson diagonalization with overlap
     ethr =  7.53E-10,  avg # of iterations =  1.4

     total cpu time spent up to now is      155.1 secs

     total energy              =    -152.86667015 Ry
     Harris-Foulkes estimate   =    -152.86667023 Ry
     estimated scf accuracy    <       0.00000022 Ry

     iteration # 10     ecut=    35.00 Ry     beta= 0.30
     Davidson diagonalization with overlap
     ethr =  3.48E-10,  avg # of iterations =  2.1

     total cpu time spent up to now is      170.0 secs

     total energy              =    -152.86667020 Ry
     Harris-Foulkes estimate   =    -152.86667020 Ry
     estimated scf accuracy    <       0.00000003 Ry

     iteration # 11     ecut=    35.00 Ry     beta= 0.30
     Davidson diagonalization with overlap
     ethr =  4.79E-11,  avg # of iterations =  2.0

     total cpu time spent up to now is      182.5 secs

     total energy              =    -152.86667020 Ry
     Harris-Foulkes estimate   =    -152.86667020 Ry
     estimated scf accuracy    <          9.8E-09 Ry

     iteration # 12     ecut=    35.00 Ry     beta= 0.30
     Davidson diagonalization with overlap
     ethr =  1.53E-11,  avg # of iterations =  2.1

     total cpu time spent up to now is      196.7 secs

     total energy              =    -152.86667020 Ry
     Harris-Foulkes estimate   =    -152.86667020 Ry
     estimated scf accuracy    <          1.3E-09 Ry

     iteration # 13     ecut=    35.00 Ry     beta= 0.30
     Davidson diagonalization with overlap
     ethr =  2.08E-12,  avg # of iterations =  2.9

     total cpu time spent up to now is      214.2 secs

     End of self-consistent calculation

          k = 0.0000 0.0000 0.0000 (  7631 PWs)   bands (ev):

    -5.8064  -3.4773  -3.4721  -3.4017  -3.3422  -1.8144  -1.7245  -1.6785
    -1.6061  -1.5498  -1.4845  -0.9368  -0.8797  -0.7794  -0.5919   3.2171
     3.3079   3.3405   3.3944   3.4313   3.4837   4.7558   4.8886   4.9229
     5.0136   5.0691   5.0952   5.1559   5.2837   5.9242   5.9683   6.2042
     6.2366   6.5697   6.7068   6.8460   7.0656   7.1980

     occupation numbers 
     1.0000   1.0000   1.0000   1.0000   1.0000   1.0000   1.0000   1.0000
     1.0000   1.0000   1.0000   1.0000   1.0000   1.0000   1.0000   1.0000
     1.0000   1.0000   1.0000   1.0000   1.0000   1.0000   1.0000   1.0000
     1.0000   1.0000   1.0000   1.0000   1.0000   0.9910   0.9803   0.6650
     0.5799   0.0176   0.0011   0.0000   0.0000   0.0000

          k = 0.1768 0.1768-0.1768 (  7564 PWs)   bands (ev):

    -5.6018  -4.0939  -3.3889  -3.3568  -3.2835  -2.5352  -2.4946  -2.3625
    -0.8342  -0.8026  -0.6696  -0.5626  -0.5152  -0.4210   0.3330   2.6703
     2.7319   2.7848   3.3345   3.4535   3.5329   3.8958   3.9560   4.0909
     4.5948   4.6435   4.6972   4.7892   5.0706   5.1738   5.8282   5.8956
     6.5329   6.8831   6.9660   7.5306   7.8299   7.9144

     occupation numbers 
     1.0000   1.0000   1.0000   1.0000   1.0000   1.0000   1.0000   1.0000
     1.0000   1.0000   1.0000   1.0000   1.0000   1.0000   1.0000   1.0000
     1.0000   1.0000   1.0000   1.0000   1.0000   1.0000   1.0000   1.0000
     1.0000   1.0000   1.0000   1.0000   1.0000   1.0000   0.9988   0.9948
     0.0320   0.0000   0.0000   0.0000   0.0000   0.0000

          k =-0.3536-0.3536 0.3536 (  7570 PWs)   bands (ev):

    -5.0583  -4.9413  -3.1961  -3.1118  -3.0947  -3.0426  -3.0067  -2.7825
    -0.4643  -0.3874  -0.3387  -0.1263  -0.0190   0.0526   2.2243   2.2969
     2.4951   2.5464   2.5684   2.6426   2.7342   2.7909   3.8014   3.8956
     3.9744   4.0591   4.1737   4.2561   5.2289   5.4080   5.5432   5.5819
     6.8460   7.3523   7.5285   7.5508   7.6727   7.8009

     occupation numbers 
     1.0000   1.0000   1.0000   1.0000   1.0000   1.0000   1.0000   1.0000
     1.0000   1.0000   1.0000   1.0000   1.0000   1.0000   1.0000   1.0000
     1.0000   1.0000   1.0000   1.0000   1.0000   1.0000   1.0000   1.0000
     1.0000   1.0000   1.0000   1.0000   1.0000   1.0000   1.0000   1.0000
     0.0000   0.0000   0.0000   0.0000   0.0000   0.0000

          k = 0.3536 0.0000 0.0000 (  7563 PWs)   bands (ev):

    -5.5326  -3.7119  -3.6336  -3.5497  -3.5071  -3.3693  -1.6115  -1.5772
    -1.5258  -1.3687  -0.4591  -0.2584  -0.2015  -0.1195   0.5734   2.5052
     2.6741   2.8087   2.8229   3.4882   3.6022   3.6464   3.7671   3.7909
     3.9021   4.8242   4.8845   4.9698   5.0204   5.1473   5.3773   5.6331
     6.5013   7.2215   7.5504   7.8464   7.9133   8.0906

     occupation numbers 
     1.0000   1.0000   1.0000   1.0000   1.0000   1.0000   1.0000   1.0000
     1.0000   1.0000   1.0000   1.0000   1.0000   1.0000   1.0000   1.0000
     1.0000   1.0000   1.0000   1.0000   1.0000   1.0000   1.0000   1.0000
     1.0000   1.0000   1.0000   1.0000   1.0000   1.0000   1.0000   1.0000
     0.0513   0.0000   0.0000   0.0000   0.0000   0.0000

          k =-0.1768-0.5303 0.5303 (  7554 PWs)   bands (ev):

    -5.0672  -4.5425  -3.9898  -3.5879  -3.5428  -2.8105  -2.3195  -2.1999
    -0.7377  -0.7222  -0.5265   0.2530   0.3622   1.1620   1.6459   2.0710
     2.1047   2.1589   2.5914   2.8123   3.0548   3.3028   3.3589   3.5580
     3.8267   3.9884   4.1976   4.3589   4.4285   4.8910   4.9688   5.4678
     7.3526   7.6970   7.9500   8.2950   8.3833   8.5882

     occupation numbers 
     1.0000   1.0000   1.0000   1.0000   1.0000   1.0000   1.0000   1.0000
     1.0000   1.0000   1.0000   1.0000   1.0000   1.0000   1.0000   1.0000
     1.0000   1.0000   1.0000   1.0000   1.0000   1.0000   1.0000   1.0000
     1.0000   1.0000   1.0000   1.0000   1.0000   1.0000   1.0000   1.0000
     0.0000   0.0000   0.0000   0.0000   0.0000   0.0000

          k = 0.0000-0.3536 0.3536 (  7592 PWs)   bands (ev):

    -5.2643  -4.2837  -4.1698  -3.2428  -3.2032  -2.9238  -2.7459  -1.9978
    -1.0398  -0.7347  -0.5978   0.2515   0.2989   0.8225   1.0000   1.7550
     2.5297   2.6730   2.7672   2.8670   3.3628   3.4524   3.5534   3.7808
     4.0841   4.1229   4.3162   4.4098   4.5978   4.6587   4.7081   5.8871
     7.1987   7.8115   8.0218   8.0533   8.2778   8.3733

     occupation numbers 
     1.0000   1.0000   1.0000   1.0000   1.0000   1.0000   1.0000   1.0000
     1.0000   1.0000   1.0000   1.0000   1.0000   1.0000   1.0000   1.0000
     1.0000   1.0000   1.0000   1.0000   1.0000   1.0000   1.0000   1.0000
     1.0000   1.0000   1.0000   1.0000   1.0000   1.0000   1.0000   0.9956
     0.0000   0.0000   0.0000   0.0000   0.0000   0.0000

          k =-0.7071 0.0000 0.0000 (  7528 PWs)   bands (ev):

    -4.7761  -4.6634  -3.8641  -3.7648  -3.6666  -3.6225  -1.4951  -1.4679
    -1.4401  -1.2679   0.5326   0.5926   0.6809   0.8205   1.9730   2.0924
     2.1776   2.3311   2.3894   2.4396   2.5173   2.5851   2.7602   2.8774
     4.2241   4.2662   4.3524   4.4653   4.7858   4.9391   5.0101   5.2552
     6.9330   7.1410   8.1223   8.3111   8.3368   8.4971

     occupation numbers 
     1.0000   1.0000   1.0000   1.0000   1.0000   1.0000   1.0000   1.0000
     1.0000   1.0000   1.0000   1.0000   1.0000   1.0000   1.0000   1.0000
     1.0000   1.0000   1.0000   1.0000   1.0000   1.0000   1.0000   1.0000
     1.0000   1.0000   1.0000   1.0000   1.0000   1.0000   1.0000   1.0000
     0.0000   0.0000   0.0000   0.0000   0.0000   0.0000

          k =-0.7071 0.3536 0.0000 (  7564 PWs)   bands (ev):

    -4.5694  -4.5015  -4.4492  -4.3294  -2.7766  -2.6882  -2.5706  -2.4899
    -0.4501  -0.4170  -0.3748  -0.2463   1.5939   1.7352   1.7929   1.8176
     1.9356   1.9944   2.0381   2.1974   3.3034   3.3777   3.4184   3.4635
     3.5982   3.6452   3.6936   3.7667   4.6731   4.8024   4.8773   5.0130
     8.1767   8.3499   8.5143   8.5465   8.7042   8.7302

     occupation numbers 
     1.0000   1.0000   1.0000   1.0000   1.0000   1.0000   1.0000   1.0000
     1.0000   1.0000   1.0000   1.0000   1.0000   1.0000   1.0000   1.0000
     1.0000   1.0000   1.0000   1.0000   1.0000   1.0000   1.0000   1.0000
     1.0000   1.0000   1.0000   1.0000   1.0000   1.0000   1.0000   1.0000
     0.0000   0.0000   0.0000   0.0000   0.0000   0.0000

          k =-0.1768-0.1768-0.1768 (  7564 PWs)   bands (ev):

    -5.6010  -4.0972  -3.4046  -3.3283  -3.2825  -2.5682  -2.4703  -2.3820
    -0.9513  -0.7536  -0.6353  -0.5752  -0.5036  -0.2330   0.2130   2.6034
     2.6881   2.8028   3.3340   3.5319   3.5933   3.8219   3.9739   4.0278
     4.4762   4.6282   4.7351   4.8438   5.0407   5.2723   5.7717   6.0762
     6.4863   6.8042   7.1277   7.5912   7.7490   7.9159

     occupation numbers 
     1.0000   1.0000   1.0000   1.0000   1.0000   1.0000   1.0000   1.0000
     1.0000   1.0000   1.0000   1.0000   1.0000   1.0000   1.0000   1.0000
     1.0000   1.0000   1.0000   1.0000   1.0000   1.0000   1.0000   1.0000
     1.0000   1.0000   1.0000   1.0000   1.0000   1.0000   0.9997   0.9055
     0.0632   0.0001   0.0000   0.0000   0.0000   0.0000

          k =-0.1768 0.1768 0.1768 (  7564 PWs)   bands (ev):

    -5.6016  -4.1018  -3.4189  -3.3115  -3.2781  -2.5751  -2.4545  -2.3779
    -0.9124  -0.7569  -0.6721  -0.5658  -0.5023  -0.2677   0.1839   2.5938
     2.6742   2.8142   3.4113   3.5049   3.6438   3.8614   3.9970   4.0347
     4.4043   4.6364   4.7096   4.9238   5.0058   5.2612   5.7576   6.0538
     6.4734   6.8332   7.2295   7.5201   7.7477   7.8531

     occupation numbers 
     1.0000   1.0000   1.0000   1.0000   1.0000   1.0000   1.0000   1.0000
     1.0000   1.0000   1.0000   1.0000   1.0000   1.0000   1.0000   1.0000
     1.0000   1.0000   1.0000   1.0000   1.0000   1.0000   1.0000   1.0000
     1.0000   1.0000   1.0000   1.0000   1.0000   1.0000   0.9998   0.9290
     0.0751   0.0000   0.0000   0.0000   0.0000   0.0000

          k = 0.1768-0.1768 0.1768 (  7564 PWs)   bands (ev):

    -5.6008  -4.0790  -3.4016  -3.3845  -3.2813  -2.5117  -2.4933  -2.3874
    -0.9393  -0.7740  -0.6258  -0.5770  -0.4262  -0.2368   0.1670   2.5403
     2.6490   2.6931   3.5052   3.5735   3.6193   3.8524   3.8725   3.9994
     4.5253   4.6333   4.6829   4.8064   5.1312   5.2643   5.7983   5.8818
     6.8984   7.0536   7.1429   7.4577   7.7140   7.8304

     occupation numbers 
     1.0000   1.0000   1.0000   1.0000   1.0000   1.0000   1.0000   1.0000
     1.0000   1.0000   1.0000   1.0000   1.0000   1.0000   1.0000   1.0000
     1.0000   1.0000   1.0000   1.0000   1.0000   1.0000   1.0000   1.0000
     1.0000   1.0000   1.0000   1.0000   1.0000   1.0000   0.9994   0.9961
     0.0000   0.0000   0.0000   0.0000   0.0000   0.0000

          k = 0.3536 0.3536 0.3536 (  7570 PWs)   bands (ev):

    -5.0181  -4.9834  -3.1912  -3.1092  -3.0709  -3.0411  -2.9682  -2.8736
    -0.5450  -0.4296  -0.2352  -0.1631   0.0428   0.2073   2.1120   2.2382
     2.4099   2.4879   2.6102   2.6373   2.6754   2.7734   3.8265   3.8728
     4.0088   4.1453   4.2000   4.2919   5.2245   5.4058   5.4659   5.8227
     6.8239   7.1687   7.5231   7.6908   7.7208   7.8541

     occupation numbers 
     1.0000   1.0000   1.0000   1.0000   1.0000   1.0000   1.0000   1.0000
     1.0000   1.0000   1.0000   1.0000   1.0000   1.0000   1.0000   1.0000
     1.0000   1.0000   1.0000   1.0000   1.0000   1.0000   1.0000   1.0000
     1.0000   1.0000   1.0000   1.0000   1.0000   1.0000   1.0000   0.9989
     0.0001   0.0000   0.0000   0.0000   0.0000   0.0000

          k = 0.3536-0.3536-0.3536 (  7570 PWs)   bands (ev):

    -5.0297  -4.9757  -3.2350  -3.0801  -3.0773  -3.0114  -2.9426  -2.8863
    -0.4440  -0.3350  -0.2137  -0.2032  -0.1413   0.0856   2.0882   2.2030
     2.4481   2.5667   2.6291   2.6549   2.7112   2.7649   3.9755   3.9993
     4.0162   4.0225   4.1683   4.3129   5.2177   5.3850   5.4773   5.7103
     6.8862   7.3793   7.4486   7.5108   7.5858   7.8412

     occupation numbers 
     1.0000   1.0000   1.0000   1.0000   1.0000   1.0000   1.0000   1.0000
     1.0000   1.0000   1.0000   1.0000   1.0000   1.0000   1.0000   1.0000
     1.0000   1.0000   1.0000   1.0000   1.0000   1.0000   1.0000   1.0000
     1.0000   1.0000   1.0000   1.0000   1.0000   1.0000   1.0000   0.9999
     0.0000   0.0000   0.0000   0.0000   0.0000   0.0000

          k =-0.3536 0.3536-0.3536 (  7570 PWs)   bands (ev):

    -5.0530  -4.9373  -3.2441  -3.1505  -3.0946  -3.0587  -2.9264  -2.8018
    -0.4886  -0.3641  -0.2390  -0.1590   0.0170   0.1904   2.0644   2.1561
     2.3480   2.4239   2.5241   2.5879   2.7780   2.7913   3.9657   4.0256
     4.0615   4.0995   4.1411   4.1964   5.2769   5.3584   5.6123   5.7518
     7.1343   7.4105   7.4798   7.6062   7.6176   7.7104

     occupation numbers 
     1.0000   1.0000   1.0000   1.0000   1.0000   1.0000   1.0000   1.0000
     1.0000   1.0000   1.0000   1.0000   1.0000   1.0000   1.0000   1.0000
     1.0000   1.0000   1.0000   1.0000   1.0000   1.0000   1.0000   1.0000
     1.0000   1.0000   1.0000   1.0000   1.0000   1.0000   1.0000   0.9998
     0.0000   0.0000   0.0000   0.0000   0.0000   0.0000

          k = 0.0000 0.3536 0.0000 (  7563 PWs)   bands (ev):

    -5.5322  -3.6781  -3.6392  -3.6259  -3.5059  -3.3070  -1.6558  -1.5775
    -1.4762  -1.4525  -0.3934  -0.3062  -0.1731  -0.0352   0.5227   2.5925
     2.6478   2.7298   2.8225   3.4818   3.6541   3.6650   3.7320   3.8107
     3.8751   4.7650   4.8909   4.9862   5.0234   5.1035   5.3887   5.4854
     6.6647   7.2151   7.7173   7.8381   7.9373   8.0256

     occupation numbers 
     1.0000   1.0000   1.0000   1.0000   1.0000   1.0000   1.0000   1.0000
     1.0000   1.0000   1.0000   1.0000   1.0000   1.0000   1.0000   1.0000
     1.0000   1.0000   1.0000   1.0000   1.0000   1.0000   1.0000   1.0000
     1.0000   1.0000   1.0000   1.0000   1.0000   1.0000   1.0000   1.0000
     0.0028   0.0000   0.0000   0.0000   0.0000   0.0000

          k = 0.0000 0.0000 0.3536 (  7563 PWs)   bands (ev):

    -5.5324  -3.6736  -3.6282  -3.6113  -3.5193  -3.3282  -1.6214  -1.5727
    -1.5154  -1.4743  -0.3496  -0.2947  -0.1651  -0.0600   0.5246   2.6128
     2.6687   2.7450   2.7968   3.4773   3.5922   3.6646   3.7408   3.8051
     3.8567   4.7721   4.8738   4.9632   5.0311   5.0648   5.4087   5.4787
     6.8001   7.2444   7.6559   7.8313   7.9675   8.0800

     occupation numbers 
     1.0000   1.0000   1.0000   1.0000   1.0000   1.0000   1.0000   1.0000
     1.0000   1.0000   1.0000   1.0000   1.0000   1.0000   1.0000   1.0000
     1.0000   1.0000   1.0000   1.0000   1.0000   1.0000   1.0000   1.0000
     1.0000   1.0000   1.0000   1.0000   1.0000   1.0000   1.0000   1.0000
     0.0001   0.0000   0.0000   0.0000   0.0000   0.0000

          k = 0.1768 0.5303 0.5303 (  7554 PWs)   bands (ev):

    -5.0623  -4.5488  -4.0062  -3.6182  -3.4657  -2.8434  -2.3187  -2.2172
    -0.8128  -0.7039  -0.4182   0.2010   0.4461   1.3270   1.4804   1.8936
     2.0909   2.1842   2.6880   2.8814   3.0219   3.1941   3.2924   3.4877
     3.9010   3.9693   4.2080   4.3903   4.4720   4.9346   4.9951   5.6682
     7.0492   7.5353   8.0286   8.3480   8.4918   8.5694

     occupation numbers 
     1.0000   1.0000   1.0000   1.0000   1.0000   1.0000   1.0000   1.0000
     1.0000   1.0000   1.0000   1.0000   1.0000   1.0000   1.0000   1.0000
     1.0000   1.0000   1.0000   1.0000   1.0000   1.0000   1.0000   1.0000
     1.0000   1.0000   1.0000   1.0000   1.0000   1.0000   1.0000   1.0000
     0.0000   0.0000   0.0000   0.0000   0.0000   0.0000

          k = 0.1768-0.5303-0.5303 (  7554 PWs)   bands (ev):

    -5.0644  -4.5489  -4.0068  -3.6163  -3.4654  -2.8493  -2.2922  -2.2177
    -0.8071  -0.6491  -0.5276   0.2137   0.4540   1.2636   1.4666   1.9315
     2.1037   2.2053   2.6266   2.8611   3.1078   3.1974   3.3203   3.5218
     3.8794   4.0262   4.2305   4.3660   4.4258   4.9326   5.0113   5.6497
     7.0770   7.6079   8.0101   8.1405   8.5492   8.6256

     occupation numbers 
     1.0000   1.0000   1.0000   1.0000   1.0000   1.0000   1.0000   1.0000
     1.0000   1.0000   1.0000   1.0000   1.0000   1.0000   1.0000   1.0000
     1.0000   1.0000   1.0000   1.0000   1.0000   1.0000   1.0000   1.0000
     1.0000   1.0000   1.0000   1.0000   1.0000   1.0000   1.0000   1.0000
     0.0000   0.0000   0.0000   0.0000   0.0000   0.0000

          k =-0.1768 0.5303-0.5303 (  7554 PWs)   bands (ev):

    -5.0634  -4.5401  -3.9961  -3.5887  -3.5468  -2.8216  -2.3203  -2.2065
    -0.7642  -0.7198  -0.4108   0.2533   0.3652   1.3460   1.5131   1.8889
     2.0217   2.0745   2.7846   2.8639   2.9477   3.2687   3.2893   3.5072
     3.9305   3.9876   4.2284   4.3860   4.4259   4.8804   5.1277   5.4820
     7.3410   7.7987   8.0228   8.2945   8.4479   8.4966

     occupation numbers 
     1.0000   1.0000   1.0000   1.0000   1.0000   1.0000   1.0000   1.0000
     1.0000   1.0000   1.0000   1.0000   1.0000   1.0000   1.0000   1.0000
     1.0000   1.0000   1.0000   1.0000   1.0000   1.0000   1.0000   1.0000
     1.0000   1.0000   1.0000   1.0000   1.0000   1.0000   1.0000   1.0000
     0.0000   0.0000   0.0000   0.0000   0.0000   0.0000

          k =-0.5303-0.1768-0.5303 (  7554 PWs)   bands (ev):

    -5.0620  -4.5501  -3.9941  -3.5856  -3.5336  -2.7967  -2.3052  -2.2549
    -0.8160  -0.7030  -0.5001   0.3232   0.4756   1.2356   1.5317   2.0011
     2.0571   2.1484   2.6395   2.7611   3.0197   3.2739   3.3738   3.5066
     3.8475   4.0436   4.1906   4.3109   4.4433   4.9093   5.0006   5.5129
     7.4118   7.8054   7.9811   8.1304   8.3663   8.6575

     occupation numbers 
     1.0000   1.0000   1.0000   1.0000   1.0000   1.0000   1.0000   1.0000
     1.0000   1.0000   1.0000   1.0000   1.0000   1.0000   1.0000   1.0000
     1.0000   1.0000   1.0000   1.0000   1.0000   1.0000   1.0000   1.0000
     1.0000   1.0000   1.0000   1.0000   1.0000   1.0000   1.0000   1.0000
     0.0000   0.0000   0.0000   0.0000   0.0000   0.0000

          k = 0.5303 0.1768-0.5303 (  7554 PWs)   bands (ev):

    -5.0655  -4.5435  -4.0100  -3.6068  -3.4730  -2.8429  -2.3159  -2.2211
    -0.7894  -0.7228  -0.4319   0.2353   0.3510   1.2681   1.6080   2.0024
     2.0299   2.1766   2.7574   2.8807   3.0478   3.1946   3.2444   3.5497
     3.8482   3.9003   4.2693   4.3705   4.4480   4.9222   4.9411   5.4901
     7.1889   7.6233   8.1102   8.3353   8.4400   8.6114

     occupation numbers 
     1.0000   1.0000   1.0000   1.0000   1.0000   1.0000   1.0000   1.0000
     1.0000   1.0000   1.0000   1.0000   1.0000   1.0000   1.0000   1.0000
     1.0000   1.0000   1.0000   1.0000   1.0000   1.0000   1.0000   1.0000
     1.0000   1.0000   1.0000   1.0000   1.0000   1.0000   1.0000   1.0000
     0.0000   0.0000   0.0000   0.0000   0.0000   0.0000

          k =-0.5303 0.1768 0.5303 (  7554 PWs)   bands (ev):

    -5.0626  -4.5545  -4.0013  -3.6083  -3.4728  -2.8404  -2.3045  -2.2281
    -0.8122  -0.7553  -0.3615   0.2345   0.3645   1.3027   1.5087   2.0056
     2.0310   2.1551   2.6962   2.8165   3.0933   3.2197   3.2668   3.5509
     3.8847   3.9761   4.2551   4.3013   4.4946   4.9058   5.0750   5.4489
     7.2278   7.7056   8.0885   8.2294   8.3844   8.6110

     occupation numbers 
     1.0000   1.0000   1.0000   1.0000   1.0000   1.0000   1.0000   1.0000
     1.0000   1.0000   1.0000   1.0000   1.0000   1.0000   1.0000   1.0000
     1.0000   1.0000   1.0000   1.0000   1.0000   1.0000   1.0000   1.0000
     1.0000   1.0000   1.0000   1.0000   1.0000   1.0000   1.0000   1.0000
     0.0000   0.0000   0.0000   0.0000   0.0000   0.0000

          k = 0.5303-0.1768 0.5303 (  7554 PWs)   bands (ev):

    -5.0637  -4.5342  -4.0119  -3.5870  -3.5371  -2.8057  -2.3058  -2.2474
    -0.7483  -0.7152  -0.5052   0.3296   0.4572   1.2891   1.4828   1.9245
     1.9676   2.1468   2.7641   2.8634   2.9665   3.2188   3.3131   3.4583
     3.8645   4.0509   4.2345   4.3265   4.4533   4.9525   5.0103   5.5397
     7.3647   7.8203   7.9568   8.3160   8.4841   8.5343

     occupation numbers 
     1.0000   1.0000   1.0000   1.0000   1.0000   1.0000   1.0000   1.0000
     1.0000   1.0000   1.0000   1.0000   1.0000   1.0000   1.0000   1.0000
     1.0000   1.0000   1.0000   1.0000   1.0000   1.0000   1.0000   1.0000
     1.0000   1.0000   1.0000   1.0000   1.0000   1.0000   1.0000   1.0000
     0.0000   0.0000   0.0000   0.0000   0.0000   0.0000

          k = 0.5303 0.5303-0.1768 (  7554 PWs)   bands (ev):

    -5.0670  -4.5407  -4.0033  -3.5833  -3.5105  -2.8438  -2.2975  -2.2351
    -0.8038  -0.7507  -0.3804   0.2654   0.3212   1.2705   1.6319   2.0055
     2.0342   2.1558   2.7856   2.8422   3.1320   3.1734   3.2065   3.5979
     3.7828   3.8439   4.2330   4.3709   4.4497   4.8940   4.9733   5.4854
     7.3278   7.7191   8.1894   8.2937   8.3834   8.5789

     occupation numbers 
     1.0000   1.0000   1.0000   1.0000   1.0000   1.0000   1.0000   1.0000
     1.0000   1.0000   1.0000   1.0000   1.0000   1.0000   1.0000   1.0000
     1.0000   1.0000   1.0000   1.0000   1.0000   1.0000   1.0000   1.0000
     1.0000   1.0000   1.0000   1.0000   1.0000   1.0000   1.0000   1.0000
     0.0000   0.0000   0.0000   0.0000   0.0000   0.0000

          k =-0.5303 0.5303 0.1768 (  7554 PWs)   bands (ev):

    -5.0645  -4.5498  -3.9916  -3.5883  -3.5263  -2.7990  -2.3132  -2.2479
    -0.7974  -0.7030  -0.5134   0.2999   0.4751   1.2573   1.4774   1.9899
     2.0660   2.1662   2.7095   2.8738   2.9944   3.1423   3.2812   3.5129
     3.8830   4.1016   4.2102   4.3370   4.4455   4.9120   5.0749   5.3838
     7.5379   7.7844   7.9747   8.1514   8.3615   8.5824

     occupation numbers 
     1.0000   1.0000   1.0000   1.0000   1.0000   1.0000   1.0000   1.0000
     1.0000   1.0000   1.0000   1.0000   1.0000   1.0000   1.0000   1.0000
     1.0000   1.0000   1.0000   1.0000   1.0000   1.0000   1.0000   1.0000
     1.0000   1.0000   1.0000   1.0000   1.0000   1.0000   1.0000   1.0000
     0.0000   0.0000   0.0000   0.0000   0.0000   0.0000

          k = 0.5303-0.5303 0.1768 (  7554 PWs)   bands (ev):

    -5.0641  -4.5350  -4.0027  -3.5925  -3.5327  -2.8297  -2.3074  -2.2266
    -0.7884  -0.7167  -0.4946   0.3458   0.5100   1.2840   1.4742   1.9404
     2.0203   2.1623   2.6836   2.8386   2.9621   3.1513   3.2862   3.3981
     3.8639   4.0939   4.2703   4.3506   4.4874   4.9559   5.0682   5.5200
     7.3312   7.7354   7.9753   8.4149   8.4525   8.5842

     occupation numbers 
     1.0000   1.0000   1.0000   1.0000   1.0000   1.0000   1.0000   1.0000
     1.0000   1.0000   1.0000   1.0000   1.0000   1.0000   1.0000   1.0000
     1.0000   1.0000   1.0000   1.0000   1.0000   1.0000   1.0000   1.0000
     1.0000   1.0000   1.0000   1.0000   1.0000   1.0000   1.0000   1.0000
     0.0000   0.0000   0.0000   0.0000   0.0000   0.0000

          k =-0.5303-0.5303-0.1768 (  7554 PWs)   bands (ev):

    -5.0620  -4.5519  -3.9929  -3.5856  -3.5121  -2.8394  -2.3017  -2.2475
    -0.8499  -0.7632  -0.2588   0.2680   0.3114   1.3506   1.5484   1.9727
     2.0416   2.1473   2.7437   2.8243   3.0308   3.1917   3.2377   3.5419
     3.7845   3.9167   4.2214   4.3542   4.4823   4.9249   5.1004   5.4599
     7.3352   7.6658   8.1554   8.3071   8.4823   8.5811

     occupation numbers 
     1.0000   1.0000   1.0000   1.0000   1.0000   1.0000   1.0000   1.0000
     1.0000   1.0000   1.0000   1.0000   1.0000   1.0000   1.0000   1.0000
     1.0000   1.0000   1.0000   1.0000   1.0000   1.0000   1.0000   1.0000
     1.0000   1.0000   1.0000   1.0000   1.0000   1.0000   1.0000   1.0000
     0.0000   0.0000   0.0000   0.0000   0.0000   0.0000

          k = 0.0000 0.3536 0.3536 (  7592 PWs)   bands (ev):

    -5.2637  -4.2880  -4.1875  -3.2531  -3.1099  -2.8894  -2.8115  -2.0257
    -1.1643  -0.6944  -0.4669   0.1533   0.3825   0.7857   0.9497   1.7773
     2.6067   2.6898   2.7878   2.8775   3.2838   3.4136   3.4827   3.8161
     4.0305   4.2023   4.3466   4.4175   4.5302   4.5941   4.8928   6.1077
     6.8122   7.7195   7.8934   8.1316   8.3435   8.4138

     occupation numbers 
     1.0000   1.0000   1.0000   1.0000   1.0000   1.0000   1.0000   1.0000
     1.0000   1.0000   1.0000   1.0000   1.0000   1.0000   1.0000   1.0000
     1.0000   1.0000   1.0000   1.0000   1.0000   1.0000   1.0000   1.0000
     1.0000   1.0000   1.0000   1.0000   1.0000   1.0000   1.0000   0.8633
     0.0001   0.0000   0.0000   0.0000   0.0000   0.0000

          k =-0.3536 0.0000-0.3536 (  7592 PWs)   bands (ev):

    -5.2628  -4.2699  -4.1913  -3.2271  -3.1780  -2.8927  -2.8425  -1.9643
    -1.0785  -0.6988  -0.6166   0.2852   0.4023   0.8288   0.9093   1.7379
     2.4800   2.6414   2.8083   2.8441   3.3489   3.4383   3.4840   3.8522
     4.0340   4.1516   4.3459   4.3649   4.5539   4.7025   4.8215   5.9237
     7.3221   7.7935   7.9748   8.0869   8.2498   8.3812

     occupation numbers 
     1.0000   1.0000   1.0000   1.0000   1.0000   1.0000   1.0000   1.0000
     1.0000   1.0000   1.0000   1.0000   1.0000   1.0000   1.0000   1.0000
     1.0000   1.0000   1.0000   1.0000   1.0000   1.0000   1.0000   1.0000
     1.0000   1.0000   1.0000   1.0000   1.0000   1.0000   1.0000   0.9911
     0.0000   0.0000   0.0000   0.0000   0.0000   0.0000

          k = 0.3536 0.0000-0.3536 (  7592 PWs)   bands (ev):

    -5.2661  -4.2749  -4.1942  -3.2568  -3.1260  -2.8671  -2.8197  -2.0347
    -1.0112  -0.7145  -0.6169   0.1623   0.2715   0.8411   0.9830   1.8028
     2.6392   2.6949   2.7740   2.8974   3.3645   3.4261   3.5268   3.8165
     4.0418   4.1043   4.3500   4.4377   4.5527   4.6508   4.7125   5.9130
     6.9607   7.7842   7.9627   8.1197   8.3180   8.4395

     occupation numbers 
     1.0000   1.0000   1.0000   1.0000   1.0000   1.0000   1.0000   1.0000
     1.0000   1.0000   1.0000   1.0000   1.0000   1.0000   1.0000   1.0000
     1.0000   1.0000   1.0000   1.0000   1.0000   1.0000   1.0000   1.0000
     1.0000   1.0000   1.0000   1.0000   1.0000   1.0000   1.0000   0.9927
     0.0000   0.0000   0.0000   0.0000   0.0000   0.0000

          k = 0.3536 0.3536 0.0000 (  7592 PWs)   bands (ev):

    -5.2647  -4.2943  -4.1695  -3.2230  -3.1613  -2.8822  -2.8292  -2.0374
    -0.9538  -0.7171  -0.6427   0.1768   0.2202   0.8616   1.0467   1.8064
     2.6205   2.6653   2.8067   2.8829   3.3487   3.3599   3.6091   3.8383
     3.9926   4.0340   4.3630   4.4291   4.5351   4.6503   4.7172   5.8972
     7.0721   7.6586   7.8844   8.2610   8.3335   8.5760

     occupation numbers 
     1.0000   1.0000   1.0000   1.0000   1.0000   1.0000   1.0000   1.0000
     1.0000   1.0000   1.0000   1.0000   1.0000   1.0000   1.0000   1.0000
     1.0000   1.0000   1.0000   1.0000   1.0000   1.0000   1.0000   1.0000
     1.0000   1.0000   1.0000   1.0000   1.0000   1.0000   1.0000   0.9947
     0.0000   0.0000   0.0000   0.0000   0.0000   0.0000

          k =-0.3536 0.3536 0.0000 (  7592 PWs)   bands (ev):

    -5.2636  -4.2917  -4.1674  -3.2509  -3.1824  -2.8835  -2.8024  -1.9738
    -1.0836  -0.7542  -0.5501   0.2699   0.3867   0.7947   0.9065   1.7580
     2.4119   2.5762   2.8575   2.9542   3.4053   3.4593   3.4893   3.8552
     3.9717   4.1212   4.3534   4.4072   4.5483   4.6721   4.9311   5.8546
     7.2997   7.8004   7.9567   8.0177   8.2313   8.3813

     occupation numbers 
     1.0000   1.0000   1.0000   1.0000   1.0000   1.0000   1.0000   1.0000
     1.0000   1.0000   1.0000   1.0000   1.0000   1.0000   1.0000   1.0000
     1.0000   1.0000   1.0000   1.0000   1.0000   1.0000   1.0000   1.0000
     1.0000   1.0000   1.0000   1.0000   1.0000   1.0000   1.0000   0.9978
     0.0000   0.0000   0.0000   0.0000   0.0000   0.0000

          k = 0.0000-0.7071 0.0000 (  7528 PWs)   bands (ev):

    -4.7613  -4.6800  -3.8124  -3.7836  -3.7554  -3.5574  -1.5451  -1.4431
    -1.3923  -1.3499   0.5854   0.6984   0.7188   0.7730   1.9496   2.1394
     2.1944   2.2641   2.3784   2.3892   2.5576   2.5825   2.7513   2.8414
     4.1911   4.3230   4.3448   4.3828   4.8234   4.9088   4.9961   5.1380
     7.1041   7.1607   8.1982   8.2837   8.4507   8.4996

     occupation numbers 
     1.0000   1.0000   1.0000   1.0000   1.0000   1.0000   1.0000   1.0000
     1.0000   1.0000   1.0000   1.0000   1.0000   1.0000   1.0000   1.0000
     1.0000   1.0000   1.0000   1.0000   1.0000   1.0000   1.0000   1.0000
     1.0000   1.0000   1.0000   1.0000   1.0000   1.0000   1.0000   1.0000
     0.0000   0.0000   0.0000   0.0000   0.0000   0.0000

          k = 0.0000 0.0000-0.7071 (  7528 PWs)   bands (ev):

    -4.7849  -4.6513  -3.8091  -3.7662  -3.7390  -3.6058  -1.5234  -1.4361
    -1.4111  -1.3798   0.6212   0.6648   0.7282   0.8650   1.9989   2.1535
     2.2611   2.2867   2.3654   2.4139   2.4344   2.4632   2.7086   2.8360
     4.0637   4.2793   4.3826   4.4520   4.8508   4.9299   5.0385   5.0999
     7.1994   7.2631   8.2027   8.2645   8.3921   8.4918

     occupation numbers 
     1.0000   1.0000   1.0000   1.0000   1.0000   1.0000   1.0000   1.0000
     1.0000   1.0000   1.0000   1.0000   1.0000   1.0000   1.0000   1.0000
     1.0000   1.0000   1.0000   1.0000   1.0000   1.0000   1.0000   1.0000
     1.0000   1.0000   1.0000   1.0000   1.0000   1.0000   1.0000   1.0000
     0.0000   0.0000   0.0000   0.0000   0.0000   0.0000

          k = 0.3536-0.7071 0.0000 (  7564 PWs)   bands (ev):

    -4.5777  -4.4808  -4.4530  -4.3383  -2.7530  -2.6464  -2.5872  -2.5515
    -0.4938  -0.4202  -0.3379  -0.2123   1.5691   1.7413   1.8643   1.8917
     1.9126   1.9741   2.0257   2.1548   3.2421   3.2874   3.4381   3.5349
     3.5867   3.6440   3.6594   3.8276   4.6885   4.7834   4.8809   4.9615
     8.2068   8.3339   8.4762   8.6428   8.7593   8.7850

     occupation numbers 
     1.0000   1.0000   1.0000   1.0000   1.0000   1.0000   1.0000   1.0000
     1.0000   1.0000   1.0000   1.0000   1.0000   1.0000   1.0000   1.0000
     1.0000   1.0000   1.0000   1.0000   1.0000   1.0000   1.0000   1.0000
     1.0000   1.0000   1.0000   1.0000   1.0000   1.0000   1.0000   1.0000
     0.0000   0.0000   0.0000   0.0000   0.0000   0.0000

          k = 0.7071 0.0000 0.3536 (  7564 PWs)   bands (ev):

    -4.5573  -4.5020  -4.4577  -4.3382  -2.7477  -2.6883  -2.5953  -2.4804
    -0.4514  -0.4247  -0.3715  -0.2512   1.5144   1.7305   1.8152   1.8803
     1.8977   1.9960   2.0414   2.1995   3.3200   3.3769   3.4624   3.4752
     3.5900   3.6463   3.6978   3.7875   4.7037   4.7893   4.8327   5.0040
     8.1065   8.3713   8.4799   8.5984   8.6837   8.7693

     occupation numbers 
     1.0000   1.0000   1.0000   1.0000   1.0000   1.0000   1.0000   1.0000
     1.0000   1.0000   1.0000   1.0000   1.0000   1.0000   1.0000   1.0000
     1.0000   1.0000   1.0000   1.0000   1.0000   1.0000   1.0000   1.0000
     1.0000   1.0000   1.0000   1.0000   1.0000   1.0000   1.0000   1.0000
     0.0000   0.0000   0.0000   0.0000   0.0000   0.0000

     the Fermi energy is     6.2657 ev

!    total energy              =    -152.86667021 Ry
     Harris-Foulkes estimate   =    -152.86667020 Ry
     estimated scf accuracy    <          2.1E-10 Ry

     The total energy is the sum of the following terms:

     one-electron contribution =      42.02910977 Ry
     hartree contribution      =       8.19073891 Ry
     xc contribution           =     -67.98457887 Ry
     ewald contribution        =    -135.10092612 Ry
     smearing contrib. (-TS)   =      -0.00101390 Ry

     convergence has been achieved in  13 iterations

     Forces acting on atoms (cartesian axes, Ry/au):

     atom    1 type  1   force =     0.00929644    0.00597511    0.00999850
     atom    2 type  1   force =     0.00799720    0.04293649   -0.05772673
     atom    3 type  1   force =    -0.00308160    0.00353667   -0.00295337
     atom    4 type  1   force =     0.00873924    0.00486565    0.00349257
     atom    5 type  1   force =     0.00087551   -0.05204514    0.04620032
     atom    6 type  1   force =    -0.02000035   -0.01167378   -0.02078068
     atom    7 type  1   force =     0.01217465   -0.00358030    0.00379029
     atom    8 type  1   force =     0.00144125    0.00283473    0.00158516
     atom    9 type  1   force =     0.00320933    0.00577021    0.01132809
     atom   10 type  1   force =    -0.00735262    0.00636730    0.01425472
     atom   11 type  1   force =    -0.00587416   -0.00654991   -0.00263481
     atom   12 type  1   force =     0.00184248    0.00168152   -0.00322121
     atom   13 type  1   force =    -0.00336931   -0.00414411   -0.00630803
     atom   14 type  1   force =    -0.00773375    0.00133572   -0.00408295
     atom   15 type  1   force =     0.00236771    0.00141357    0.00690335
     atom   16 type  1   force =    -0.00053201    0.00127627    0.00015479
     The non-local contrib.  to forces
     atom    1 type  1   force =     0.01394210    0.01658142    0.00550905
     atom    2 type  1   force =     0.00387084    0.02150247   -0.04389359
     atom    3 type  1   force =    -0.01732848   -0.00494962    0.00474189
     atom    4 type  1   force =     0.00714516    0.00302812    0.00060982
     atom    5 type  1   force =     0.00274771   -0.03352940    0.03391437
     atom    6 type  1   force =    -0.01123390   -0.02397242   -0.00938203
     atom    7 type  1   force =     0.00304274   -0.00068167   -0.00055075
     atom    8 type  1   force =     0.01606179    0.00462372   -0.00011650
     atom    9 type  1   force =     0.00578147    0.00912949   -0.00905366
     atom   10 type  1   force =    -0.01102620    0.00114065    0.01485812
     atom   11 type  1   force =    -0.00413535   -0.00634012   -0.00193711
     atom   12 type  1   force =    -0.00112388    0.00224649    0.00243561
     atom   13 type  1   force =    -0.00412199   -0.00073665   -0.01022166
     atom   14 type  1   force =    -0.00736409   -0.00014190    0.02007175
     atom   15 type  1   force =     0.00132092    0.00542253    0.00163864
     atom   16 type  1   force =     0.00211870    0.00356031   -0.00075543
     The ionic contribution  to forces
     atom    1 type  1   force =    -0.02406982   -0.13667768   -0.21533691
     atom    2 type  1   force =    -0.19280400   -0.14819029   -0.07404180
     atom    3 type  1   force =    -0.40193655   -0.10226584    0.03987957
     atom    4 type  1   force =    -0.16310547   -0.07352882   -0.12558667
     atom    5 type  1   force =     0.27923290    0.11749385    0.13593237
     atom    6 type  1   force =     0.13784548    0.01960479    0.19211605
     atom    7 type  1   force =     0.05718983    0.08459854   -0.02015615
     atom    8 type  1   force =     0.42476684   -0.01448853   -0.04791370
     atom    9 type  1   force =    -0.11554001    0.13241404   -0.01028859
     atom   10 type  1   force =     0.05024591   -0.02369361   -0.08285502
     atom   11 type  1   force =    -0.00026780    0.08783319   -0.02501370
     atom   12 type  1   force =    -0.11404762    0.10872188    0.16397568
     atom   13 type  1   force =    -0.08903538    0.02419678    0.07775091
     atom   14 type  1   force =     0.05417402    0.01993987    0.07908811
     atom   15 type  1   force =     0.14298299   -0.06731978   -0.08943037
     atom   16 type  1   force =    -0.04563131   -0.02863840    0.00188020
     The local contribution  to forces
     atom    1 type  1   force =     0.02051075    0.12644132    0.21947978
     atom    2 type  1   force =     0.19582870    0.17001061    0.05685949
     atom    3 type  1   force =     0.41248299    0.10935635   -0.04646554
     atom    4 type  1   force =     0.16452956    0.07515030    0.12811060
     atom    5 type  1   force =    -0.27931687   -0.13740469   -0.12055965
     atom    6 type  1   force =    -0.14665669   -0.00867126   -0.20319555
     atom    7 type  1   force =    -0.04783332   -0.08677493    0.02419408
     atom    8 type  1   force =    -0.43606606    0.01332370    0.04880735
     atom    9 type  1   force =     0.11283689   -0.13481621    0.02987099
     atom   10 type  1   force =    -0.04694890    0.02868890    0.08276552
     atom   11 type  1   force =    -0.00133465   -0.08802825    0.02403837
     atom   12 type  1   force =     0.11666162   -0.10870206   -0.16855304
     atom   13 type  1   force =     0.08902297   -0.02740338   -0.07416170
     atom   14 type  1   force =    -0.05479689   -0.01818421   -0.10145267
     atom   15 type  1   force =    -0.14129866    0.06339212    0.09401165
     atom   16 type  1   force =     0.04265401    0.02651086   -0.00101285
     The core correction contribution to forces
     atom    1 type  1   force =    -0.00108741   -0.00037052    0.00034917
     atom    2 type  1   force =     0.00110424   -0.00038757    0.00335066
     atom    3 type  1   force =     0.00370083    0.00139759   -0.00110940
     atom    4 type  1   force =     0.00016837    0.00021421    0.00035830
     atom    5 type  1   force =    -0.00179278    0.00139534   -0.00308563
     atom    6 type  1   force =     0.00004387    0.00136638   -0.00031965
     atom    7 type  1   force =    -0.00022394   -0.00071878    0.00030318
     atom    8 type  1   force =    -0.00332074   -0.00062250    0.00080893
     atom    9 type  1   force =     0.00013172   -0.00096004    0.00080003
     atom   10 type  1   force =     0.00037865    0.00023054   -0.00051351
     atom   11 type  1   force =    -0.00013415   -0.00001551    0.00027708
     atom   12 type  1   force =     0.00035203   -0.00058501   -0.00107664
     atom   13 type  1   force =     0.00076418   -0.00020150    0.00032404
     atom   14 type  1   force =     0.00025235   -0.00027634   -0.00179147
     atom   15 type  1   force =    -0.00063478   -0.00008135    0.00067949
     atom   16 type  1   force =     0.00032586   -0.00015597    0.00004106
     The Hubbard contrib.    to forces
     atom    1 type  1   force =     0.00000000    0.00000000    0.00000000
     atom    2 type  1   force =     0.00000000    0.00000000    0.00000000
     atom    3 type  1   force =     0.00000000    0.00000000    0.00000000
     atom    4 type  1   force =     0.00000000    0.00000000    0.00000000
     atom    5 type  1   force =     0.00000000    0.00000000    0.00000000
     atom    6 type  1   force =     0.00000000    0.00000000    0.00000000
     atom    7 type  1   force =     0.00000000    0.00000000    0.00000000
     atom    8 type  1   force =     0.00000000    0.00000000    0.00000000
     atom    9 type  1   force =     0.00000000    0.00000000    0.00000000
     atom   10 type  1   force =     0.00000000    0.00000000    0.00000000
     atom   11 type  1   force =     0.00000000    0.00000000    0.00000000
     atom   12 type  1   force =     0.00000000    0.00000000    0.00000000
     atom   13 type  1   force =     0.00000000    0.00000000    0.00000000
     atom   14 type  1   force =     0.00000000    0.00000000    0.00000000
     atom   15 type  1   force =     0.00000000    0.00000000    0.00000000
     atom   16 type  1   force =     0.00000000    0.00000000    0.00000000
     The SCF correction term to forces
     atom    1 type  1   force =     0.00000086    0.00000070   -0.00000253
     atom    2 type  1   force =    -0.00000254    0.00000140   -0.00000144
     atom    3 type  1   force =    -0.00000035   -0.00000168    0.00000018
     atom    4 type  1   force =     0.00000166    0.00000198    0.00000058
     atom    5 type  1   force =     0.00000458   -0.00000010   -0.00000109
     atom    6 type  1   force =     0.00000093   -0.00000113    0.00000055
     atom    7 type  1   force =    -0.00000062   -0.00000332   -0.00000002
     atom    8 type  1   force =    -0.00000053   -0.00000153   -0.00000087
     atom    9 type  1   force =    -0.00000070    0.00000306   -0.00000062
     atom   10 type  1   force =    -0.00000204    0.00000094   -0.00000035
     atom   11 type  1   force =    -0.00000218    0.00000092    0.00000061
     atom   12 type  1   force =     0.00000037    0.00000035   -0.00000278
     atom   13 type  1   force =     0.00000095    0.00000076    0.00000044
     atom   14 type  1   force =     0.00000090   -0.00000156    0.00000138
     atom   15 type  1   force =    -0.00000273    0.00000020    0.00000400
     atom   16 type  1   force =     0.00000077   -0.00000039    0.00000187

     Total force =     0.111263     Total SCF correction =     0.000011


     Computing stress (Cartesian axis) and pressure

          total   stress  (Ry/bohr**3)                   (kbar)     P=  -18.99
  -0.00010315  -0.00005601   0.00003069        -15.17     -8.24      4.51
  -0.00005601  -0.00015649   0.00004534         -8.24    -23.02      6.67
   0.00003069   0.00004534  -0.00012755          4.51      6.67    -18.76

     kinetic stress (kbar)   2168.99     -1.20     -4.07
                               -1.20   2167.60      3.92
                               -4.07      3.92   2170.50

     local   stress (kbar)   -262.62      3.51    -37.41
                                3.51   -246.75     -1.69
                              -37.41     -1.69   -242.55

     nonloc. stress (kbar)   1933.21     -4.61      3.23
                               -4.61   1927.42      6.14
                                3.23      6.14   1925.45

     hartree stress (kbar)    184.03      3.62      4.44
                                3.62    185.97     -4.21
                                4.44     -4.21    187.14

     exc-cor stress (kbar)    997.70     -0.01      0.04
                               -0.01    997.69      0.01
                                0.04      0.01    997.66

     corecor stress (kbar)  -1986.83      0.53     -0.39
                                0.53  -1986.12     -0.73
                               -0.39     -0.73  -1985.87

     ewald   stress (kbar)  -3049.65    -10.08     38.68
                              -10.08  -3068.84      3.22
                               38.68      3.22  -3071.09

     hubbard stress (kbar)      0.00      0.00      0.00
                                0.00      0.00      0.00
                                0.00      0.00      0.00

     london  stress (kbar)      0.00      0.00      0.00
                                0.00      0.00      0.00
                                0.00      0.00      0.00

     DFT-D3  stress (kbar)      0.00      0.00      0.00
                                0.00      0.00      0.00
                                0.00      0.00      0.00

     XDM     stress (kbar)      0.00      0.00      0.00
                                0.00      0.00      0.00
                                0.00      0.00      0.00

     dft-nl  stress (kbar)      0.00      0.00      0.00
                                0.00      0.00      0.00
                                0.00      0.00      0.00

     TS-vdW  stress (kbar)      0.00      0.00      0.00
                                0.00      0.00      0.00
                                0.00      0.00      0.00



     Writing output data file Si_diamond.scf.in.super.222.replace8147.save/

     init_run     :      5.64s CPU      6.35s WALL (       1 calls)
     electrons    :    200.83s CPU    207.67s WALL (       1 calls)
     forces       :      2.77s CPU      2.84s WALL (       1 calls)
     stress       :      7.23s CPU      7.32s WALL (       1 calls)

     Called by init_run:
     wfcinit      :      5.25s CPU      5.93s WALL (       1 calls)
     wfcinit:atom :      0.02s CPU      0.03s WALL (      36 calls)
     wfcinit:wfcr :      5.00s CPU      5.66s WALL (      36 calls)
     potinit      :      0.08s CPU      0.09s WALL (       1 calls)
     hinit0       :      0.20s CPU      0.20s WALL (       1 calls)

     Called by electrons:
     c_bands      :    175.02s CPU    180.60s WALL (      14 calls)
     sum_band     :     23.74s CPU     24.74s WALL (      14 calls)
     v_of_rho     :      0.66s CPU      0.69s WALL (      14 calls)
     v_h          :      0.04s CPU      0.03s WALL (      14 calls)
     v_xc         :      0.71s CPU      0.75s WALL (      16 calls)
     newd         :      1.01s CPU      1.19s WALL (      14 calls)
     mix_rho      :      0.45s CPU      0.48s WALL (      14 calls)

     Called by c_bands:
     init_us_2    :      1.18s CPU      1.28s WALL (    1116 calls)
     cegterg      :    168.84s CPU    174.24s WALL (     504 calls)

     Called by sum_band:
     sum_band:bec :      0.24s CPU      0.20s WALL (     504 calls)
     addusdens    :      0.78s CPU      0.97s WALL (      14 calls)

     Called by *egterg:
     h_psi        :    101.64s CPU    106.48s WALL (    1938 calls)
     s_psi        :     12.25s CPU     12.34s WALL (    1938 calls)
     g_psi        :      0.13s CPU      0.15s WALL (    1398 calls)
     cdiaghg      :     21.08s CPU     21.29s WALL (    1866 calls)
     cegterg:over :     19.35s CPU     19.59s WALL (    1398 calls)
     cegterg:upda :      5.54s CPU      5.45s WALL (    1398 calls)
     cegterg:last :      3.17s CPU      3.12s WALL (     538 calls)
     cdiaghg:chol :      1.25s CPU      1.27s WALL (    1866 calls)
     cdiaghg:inve :      0.17s CPU      0.18s WALL (    1866 calls)
     cdiaghg:para :      4.21s CPU      4.51s WALL (    3732 calls)

     Called by h_psi:
     h_psi:pot    :    101.46s CPU    106.29s WALL (    1938 calls)
     h_psi:calbec :     19.07s CPU     19.24s WALL (    1938 calls)
     vloc_psi     :     70.12s CPU     74.52s WALL (    1938 calls)
     add_vuspsi   :     12.27s CPU     12.52s WALL (    1938 calls)

     General routines
     calbec       :     30.20s CPU     30.50s WALL (    2622 calls)
     fft          :      0.73s CPU      0.75s WALL (     207 calls)
     ffts         :      0.29s CPU      0.33s WALL (     240 calls)
     fftw         :     81.40s CPU     86.20s WALL (  120042 calls)
     interpolate  :      0.04s CPU      0.05s WALL (      14 calls)

     Parallel routines
     fft_scatt_xy :      5.40s CPU      5.79s WALL (  120489 calls)
     fft_scatt_yz :     43.47s CPU     45.68s WALL (  120489 calls)

     PWSCF        :  3m36.97s CPU     3m45.18s WALL


   This run was terminated on:  14:40:48  15Jul2019            

=------------------------------------------------------------------------------=
   JOB DONE.
=------------------------------------------------------------------------------=
