--------------------------------------------------------------------------
[[30395,1],8]: A high-performance Open MPI point-to-point messaging module
was unable to find any relevant network interfaces:

Module: OpenFabrics (openib)
  Host: r040

Another transport will be used instead, although this may result in
lower performance.
--------------------------------------------------------------------------

     Program PWSCF v.6.2.2 starts on 15Jul2019 at 10:49:40 

     This program is part of the open-source Quantum ESPRESSO suite
     for quantum simulation of materials; please cite
         "P. Giannozzi et al., J. Phys.:Condens. Matter 21 395502 (2009);
         "P. Giannozzi et al., J. Phys.:Condens. Matter 29 465901 (2017);
          URL http://www.quantum-espresso.org", 
     in publications or presentations arising from this work. More details at
     http://www.quantum-espresso.org/quote

     Parallel version (MPI), running on    16 processors

     MPI processes distributed on     1 nodes
     R & G space division:  proc/nbgrp/npool/nimage =      16
     Waiting for input...
     Reading input from standard input
Warning: card &IONS ignored
Warning: card   ION_DYNAMICS='BFGS', ignored
Warning: card / ignored
Warning: card &CELL ignored
Warning: card  CELL_DYNAMICS = 'BFGS' ignored
Warning: card / ignored

     Current dimensions of program PWSCF are:
     Max number of different atomic species (ntypx) = 10
     Max number of k-points (npk) =  40000
     Max angular momentum in pseudopotentials (lmaxx) =  3

     Subspace diagonalization in iterative solution of the eigenvalue problem:
     one sub-group per band group will be used
     scalapack distributed-memory algorithm (size of sub-group:  2*  2 procs)


     Parallelization info
     --------------------
     sticks:   dense  smooth     PW     G-vecs:    dense   smooth      PW
     Min         181     128     35                 6459     3780     554
     Max         182     129     38                 6463     3782     555
     Sum        2905    2053    571               103379    60495    8873



     bravais-lattice index     =            0
     lattice parameter (alat)  =      14.5156  a.u.
     unit-cell volume          =    2162.6713 (a.u.)^3
     number of atoms/cell      =           16
     number of atomic types    =            1
     number of electrons       =        64.00
     number of Kohn-Sham states=           38
     kinetic-energy cutoff     =      35.0000  Ry
     charge density cutoff     =     200.0000  Ry
     convergence threshold     =      1.0E-09
     mixing beta               =       0.3000
     number of iterations used =            8  local-TF  mixing
     Exchange-correlation      = SLA  PW   PSX  PSC ( 1  4 10  8 0 0)
     A smooth kinetic-energy cutoff is imposed at      34.5000 Ry
     height of the smooth step-function =             800.0000 Ry
     width of the smooth step-function  =               1.0000 Ry


     celldm(1)=  14.515606  celldm(2)=   0.000000  celldm(3)=   0.000000
     celldm(4)=   0.000000  celldm(5)=   0.000000  celldm(6)=   0.000000

     crystal axes: (cart. coord. in units of alat)
               a(1) = (  -0.000000   0.707107   0.707107 )  
               a(2) = (   0.707107  -0.000000   0.707107 )  
               a(3) = (   0.707107   0.707107   0.000000 )  

     reciprocal axes: (cart. coord. in units 2 pi/alat)
               b(1) = ( -0.707107  0.707107  0.707107 )  
               b(2) = (  0.707107 -0.707107  0.707107 )  
               b(3) = (  0.707107  0.707107 -0.707107 )  


     PseudoPot. # 1 for Si read from file:
     /users/kfg/psuedo/gbrv_1.5/si.pbesol.UPF
     MD5 check sum: ef58ba74faed4df802eb8a9742fc00a8
     Pseudo is Ultrasoft + core correction, Zval =  4.0
     Generated by new atomic code, or converted to UPF format
     Using radial grid of  899 points,  6 beta functions with: 
                l(1) =   0
                l(2) =   0
                l(3) =   1
                l(4) =   1
                l(5) =   2
                l(6) =   2
     Q(r) pseudized with  8 coefficients,  rinner =    0.900   0.900   0.900
                                                       0.900   0.900

     atomic species   valence    mass     pseudopotential
        Si             4.00    28.08550     Si( 1.00)

     No symmetry found


                                    s                        frac. trans.

      isym =  1     identity                                     

 cryst.   s( 1) = (     1          0          0      )
                  (     0          1          0      )
                  (     0          0          1      )

 cart.    s( 1) = (  1.0000000  0.0000000  0.0000000 )
                  (  0.0000000  1.0000000  0.0000000 )
                  (  0.0000000  0.0000000  1.0000000 )


   Cartesian axes

     site n.     atom                  positions (alat units)
         1           Si  tau(   1) = (  -0.0169218   0.0136845   0.0003148  )
         2           Si  tau(   2) = (   0.2631361   0.1631452   0.1850081  )
         3           Si  tau(   3) = (   0.3783210   0.3810170  -0.0548524  )
         4           Si  tau(   4) = (   0.5336751   0.5303265   0.1765841  )
         5           Si  tau(   5) = (   0.2180757  -0.0649153   0.3472664  )
         6           Si  tau(   6) = (   0.4755586   0.1392001   0.5144632  )
         7           Si  tau(   7) = (   0.6650244   0.3428519   0.3736690  )
         8           Si  tau(   8) = (   0.8287749   0.4856149   0.5712466  )
         9           Si  tau(   9) = (   0.1048907   0.3704804   0.3674585  )
        10           Si  tau(  10) = (   0.2230287   0.5831238   0.5453686  )
        11           Si  tau(  11) = (   0.3739662   0.7477939   0.3461167  )
        12           Si  tau(  12) = (   0.5734692   0.9161523   0.4914273  )
        13           Si  tau(  13) = (   0.3796779   0.3490740   0.7131995  )
        14           Si  tau(  14) = (   0.5548524   0.4941672   0.8925949  )
        15           Si  tau(  15) = (   0.6606671   0.7402415   0.7189215  )
        16           Si  tau(  16) = (   0.8548717   0.8791097   0.8822809  )

   Crystallographic axes

     site n.     atom                  positions (cryst. coord.)
         1           Si  tau(   1) = (  0.0218645 -0.0214193 -0.0025117  )
         2           Si  tau(   2) = (  0.0601163  0.2015247  0.1706060  )
         3           Si  tau(   3) = ( -0.0368801 -0.0406929  0.5757196  )
         4           Si  tau(   4) = (  0.1224960  0.1272316  0.6274989  )
         5           Si  tau(   5) = (  0.0454496  0.4456593 -0.1372536  )
         6           Si  tau(   6) = (  0.1259391  0.6016217  0.0709196  )
         7           Si  tau(   7) = (  0.0364136  0.4920343  0.4484522  )
         8           Si  tau(   8) = (  0.1612816  0.6465831  0.5254815  )
         9           Si  tau(   9) = (  0.4476326  0.0720321  0.0763058  )
        10           Si  tau(  10) = (  0.6402595  0.1310081  0.1844021  )
        11           Si  tau(  11) = (  0.5090776 -0.0195946  0.5484627  )
        12           Si  tau(  12) = (  0.5898051  0.1051780  0.7058299  )
        13           Si  tau(  13) = (  0.4826680  0.5259484  0.0109972  )
        14           Si  tau(  14) = (  0.5882490  0.6740708  0.1106090  )
        15           Si  tau(  15) = (  0.5646218  0.4520866  0.4822377  )
        16           Si  tau(  16) = (  0.6410057  0.6067280  0.6022431  )

     number of k points=    36  gaussian smearing, width (Ry)=  0.0150
                       cart. coord. in units 2pi/alat
        k(    1) = (   0.0000000   0.0000000   0.0000000), wk =   0.0312500
        k(    2) = (   0.1767767   0.1767767  -0.1767767), wk =   0.0625000
        k(    3) = (  -0.3535534  -0.3535534   0.3535534), wk =   0.0312500
        k(    4) = (   0.3535534   0.0000000   0.0000000), wk =   0.0625000
        k(    5) = (  -0.1767767  -0.5303301   0.5303301), wk =   0.0625000
        k(    6) = (   0.0000000  -0.3535534   0.3535534), wk =   0.0625000
        k(    7) = (  -0.7071068   0.0000000   0.0000000), wk =   0.0312500
        k(    8) = (  -0.7071068   0.3535534   0.0000000), wk =   0.0625000
        k(    9) = (  -0.1767767  -0.1767767  -0.1767767), wk =   0.0625000
        k(   10) = (  -0.1767767   0.1767767   0.1767767), wk =   0.0625000
        k(   11) = (   0.1767767  -0.1767767   0.1767767), wk =   0.0625000
        k(   12) = (   0.3535534   0.3535534   0.3535534), wk =   0.0312500
        k(   13) = (   0.3535534  -0.3535534  -0.3535534), wk =   0.0312500
        k(   14) = (  -0.3535534   0.3535534  -0.3535534), wk =   0.0312500
        k(   15) = (   0.0000000   0.3535534   0.0000000), wk =   0.0625000
        k(   16) = (   0.0000000   0.0000000   0.3535534), wk =   0.0625000
        k(   17) = (   0.1767767   0.5303301   0.5303301), wk =   0.0625000
        k(   18) = (   0.1767767  -0.5303301  -0.5303301), wk =   0.0625000
        k(   19) = (  -0.1767767   0.5303301  -0.5303301), wk =   0.0625000
        k(   20) = (  -0.5303301  -0.1767767  -0.5303301), wk =   0.0625000
        k(   21) = (   0.5303301   0.1767767  -0.5303301), wk =   0.0625000
        k(   22) = (  -0.5303301   0.1767767   0.5303301), wk =   0.0625000
        k(   23) = (   0.5303301  -0.1767767   0.5303301), wk =   0.0625000
        k(   24) = (   0.5303301   0.5303301  -0.1767767), wk =   0.0625000
        k(   25) = (  -0.5303301   0.5303301   0.1767767), wk =   0.0625000
        k(   26) = (   0.5303301  -0.5303301   0.1767767), wk =   0.0625000
        k(   27) = (  -0.5303301  -0.5303301  -0.1767767), wk =   0.0625000
        k(   28) = (   0.0000000   0.3535534   0.3535534), wk =   0.0625000
        k(   29) = (  -0.3535534   0.0000000  -0.3535534), wk =   0.0625000
        k(   30) = (   0.3535534   0.0000000  -0.3535534), wk =   0.0625000
        k(   31) = (   0.3535534   0.3535534   0.0000000), wk =   0.0625000
        k(   32) = (  -0.3535534   0.3535534   0.0000000), wk =   0.0625000
        k(   33) = (   0.0000000  -0.7071068   0.0000000), wk =   0.0312500
        k(   34) = (   0.0000000   0.0000000  -0.7071068), wk =   0.0312500
        k(   35) = (   0.3535534  -0.7071068   0.0000000), wk =   0.0625000
        k(   36) = (   0.7071068   0.0000000   0.3535534), wk =   0.0625000

                       cryst. coord.
        k(    1) = (   0.0000000   0.0000000   0.0000000), wk =   0.0312500
        k(    2) = (   0.0000000   0.0000000   0.2500000), wk =   0.0625000
        k(    3) = (   0.0000000   0.0000000  -0.5000000), wk =   0.0312500
        k(    4) = (  -0.0000000   0.2500000   0.2500000), wk =   0.0625000
        k(    5) = (   0.0000000   0.2500000  -0.5000000), wk =   0.0625000
        k(    6) = (   0.0000000   0.2500000  -0.2500000), wk =   0.0625000
        k(    7) = (   0.0000000  -0.5000000  -0.5000000), wk =   0.0312500
        k(    8) = (   0.2500000  -0.5000000  -0.2500000), wk =   0.0625000
        k(    9) = (  -0.2500000  -0.2500000  -0.2500000), wk =   0.0625000
        k(   10) = (   0.2500000   0.0000000   0.0000000), wk =   0.0625000
        k(   11) = (   0.0000000   0.2500000   0.0000000), wk =   0.0625000
        k(   12) = (   0.5000000   0.5000000   0.5000000), wk =   0.0312500
        k(   13) = (  -0.5000000   0.0000000  -0.0000000), wk =   0.0312500
        k(   14) = (   0.0000000  -0.5000000  -0.0000000), wk =   0.0312500
        k(   15) = (   0.2500000  -0.0000000   0.2500000), wk =   0.0625000
        k(   16) = (   0.2500000   0.2500000   0.0000000), wk =   0.0625000
        k(   17) = (   0.7500000   0.5000000   0.5000000), wk =   0.0625000
        k(   18) = (  -0.7500000  -0.2500000  -0.2500000), wk =   0.0625000
        k(   19) = (   0.0000000  -0.5000000   0.2500000), wk =   0.0625000
        k(   20) = (  -0.5000000  -0.7500000  -0.5000000), wk =   0.0625000
        k(   21) = (  -0.2500000   0.0000000   0.5000000), wk =   0.0625000
        k(   22) = (   0.5000000   0.0000000  -0.2500000), wk =   0.0625000
        k(   23) = (   0.2500000   0.7500000   0.2500000), wk =   0.0625000
        k(   24) = (   0.2500000   0.2500000   0.7500000), wk =   0.0625000
        k(   25) = (   0.5000000  -0.2500000   0.0000000), wk =   0.0625000
        k(   26) = (  -0.2500000   0.5000000   0.0000000), wk =   0.0625000
        k(   27) = (  -0.5000000  -0.5000000  -0.7500000), wk =   0.0625000
        k(   28) = (   0.5000000   0.2500000   0.2500000), wk =   0.0625000
        k(   29) = (  -0.2500000  -0.5000000  -0.2500000), wk =   0.0625000
        k(   30) = (  -0.2500000   0.0000000   0.2500000), wk =   0.0625000
        k(   31) = (   0.2500000   0.2500000   0.5000000), wk =   0.0625000
        k(   32) = (   0.2500000  -0.2500000   0.0000000), wk =   0.0625000
        k(   33) = (  -0.5000000   0.0000000  -0.5000000), wk =   0.0312500
        k(   34) = (  -0.5000000  -0.5000000  -0.0000000), wk =   0.0312500
        k(   35) = (  -0.5000000   0.2500000  -0.2500000), wk =   0.0625000
        k(   36) = (   0.2500000   0.7500000   0.5000000), wk =   0.0625000

     Dense  grid:   103379 G-vectors     FFT dimensions: (  72,  72,  72)

     Smooth grid:    60495 G-vectors     FFT dimensions: (  60,  60,  60)

     Dynamical RAM for                 wfc:       0.27 MB

     Dynamical RAM for     wfc (w. buffer):      10.13 MB

     Dynamical RAM for           str. fact:       0.10 MB

     Dynamical RAM for           local pot:       0.00 MB

     Dynamical RAM for          nlocal pot:       2.07 MB

     Dynamical RAM for                qrad:       2.62 MB

     Dynamical RAM for          rho,v,vnew:       0.89 MB

     Dynamical RAM for               rhoin:       0.30 MB

     Dynamical RAM for            rho*nmix:       1.58 MB

     Dynamical RAM for           G-vectors:       0.40 MB

     Dynamical RAM for          h,s,v(r/c):       0.26 MB

     Dynamical RAM for          <psi|beta>:       0.17 MB

     Dynamical RAM for                 psi:       1.09 MB

     Dynamical RAM for                hpsi:       1.09 MB

     Dynamical RAM for                spsi:       1.09 MB

     Dynamical RAM for      wfcinit/wfcrot:       1.02 MB

     Dynamical RAM for           addusdens:      19.92 MB

     Dynamical RAM for          addusforce:      22.99 MB

     Dynamical RAM for         addusstress:      19.82 MB

     Estimated static dynamical RAM per process >      19.27 MB

     Estimated max dynamical RAM per process >      42.26 MB

     Estimated total dynamical RAM >     676.14 MB

     Initial potential from superposition of free atoms

     starting charge   63.98963, renormalised to   64.00000
     Starting wfcs are   64 randomized atomic wfcs

     total cpu time spent up to now is        6.1 secs

     Self-consistent Calculation

     iteration #  1     ecut=    35.00 Ry     beta= 0.30
     Davidson diagonalization with overlap
     ethr =  1.00E-02,  avg # of iterations =  3.0

     Threshold (ethr) on eigenvalues was too large:
     Diagonalizing with lowered threshold

     Davidson diagonalization with overlap
     ethr =  5.94E-04,  avg # of iterations =  2.1

     total cpu time spent up to now is       28.5 secs

     total energy              =    -152.58436279 Ry
     Harris-Foulkes estimate   =    -152.62844982 Ry
     estimated scf accuracy    <       0.37800257 Ry

     iteration #  2     ecut=    35.00 Ry     beta= 0.30
     Davidson diagonalization with overlap
     ethr =  5.91E-04,  avg # of iterations =  1.0

     total cpu time spent up to now is       36.1 secs

     total energy              =    -152.49954601 Ry
     Harris-Foulkes estimate   =    -152.58742184 Ry
     estimated scf accuracy    <       0.23078814 Ry

     iteration #  3     ecut=    35.00 Ry     beta= 0.30
     Davidson diagonalization with overlap
     ethr =  3.61E-04,  avg # of iterations =  2.2

     total cpu time spent up to now is       45.7 secs

     total energy              =    -152.52186350 Ry
     Harris-Foulkes estimate   =    -152.52217717 Ry
     estimated scf accuracy    <       0.00267223 Ry

     iteration #  4     ecut=    35.00 Ry     beta= 0.30
     Davidson diagonalization with overlap
     ethr =  4.18E-06,  avg # of iterations = 11.1

     total cpu time spent up to now is       67.7 secs

     total energy              =    -152.52427252 Ry
     Harris-Foulkes estimate   =    -152.52428003 Ry
     estimated scf accuracy    <       0.00123862 Ry

     iteration #  5     ecut=    35.00 Ry     beta= 0.30
     Davidson diagonalization with overlap
     ethr =  1.94E-06,  avg # of iterations =  1.0

     total cpu time spent up to now is       75.2 secs

     total energy              =    -152.52423732 Ry
     Harris-Foulkes estimate   =    -152.52428799 Ry
     estimated scf accuracy    <       0.00073670 Ry

     iteration #  6     ecut=    35.00 Ry     beta= 0.30
     Davidson diagonalization with overlap
     ethr =  1.15E-06,  avg # of iterations =  2.0

     total cpu time spent up to now is       84.7 secs

     total energy              =    -152.52433851 Ry
     Harris-Foulkes estimate   =    -152.52434117 Ry
     estimated scf accuracy    <       0.00006539 Ry

     iteration #  7     ecut=    35.00 Ry     beta= 0.30
     Davidson diagonalization with overlap
     ethr =  1.02E-07,  avg # of iterations =  1.9

     total cpu time spent up to now is       92.9 secs

     total energy              =    -152.52432764 Ry
     Harris-Foulkes estimate   =    -152.52434155 Ry
     estimated scf accuracy    <       0.00005798 Ry

     iteration #  8     ecut=    35.00 Ry     beta= 0.30
     Davidson diagonalization with overlap
     ethr =  9.06E-08,  avg # of iterations =  1.0

     total cpu time spent up to now is      101.6 secs

     total energy              =    -152.52432580 Ry
     Harris-Foulkes estimate   =    -152.52433110 Ry
     estimated scf accuracy    <       0.00001183 Ry

     iteration #  9     ecut=    35.00 Ry     beta= 0.30
     Davidson diagonalization with overlap
     ethr =  1.85E-08,  avg # of iterations =  2.8

     total cpu time spent up to now is      112.8 secs

     total energy              =    -152.52433082 Ry
     Harris-Foulkes estimate   =    -152.52433155 Ry
     estimated scf accuracy    <       0.00000718 Ry

     iteration # 10     ecut=    35.00 Ry     beta= 0.30
     Davidson diagonalization with overlap
     ethr =  1.12E-08,  avg # of iterations =  1.0

     total cpu time spent up to now is      120.4 secs

     total energy              =    -152.52432939 Ry
     Harris-Foulkes estimate   =    -152.52433093 Ry
     estimated scf accuracy    <       0.00000445 Ry

     iteration # 11     ecut=    35.00 Ry     beta= 0.30
     Davidson diagonalization with overlap
     ethr =  6.95E-09,  avg # of iterations =  2.0

     total cpu time spent up to now is      131.8 secs

     total energy              =    -152.52433006 Ry
     Harris-Foulkes estimate   =    -152.52433007 Ry
     estimated scf accuracy    <       0.00000006 Ry

     iteration # 12     ecut=    35.00 Ry     beta= 0.30
     Davidson diagonalization with overlap
     ethr =  9.30E-11,  avg # of iterations =  3.4

     total cpu time spent up to now is      150.2 secs

     total energy              =    -152.52433007 Ry
     Harris-Foulkes estimate   =    -152.52433008 Ry
     estimated scf accuracy    <       0.00000003 Ry

     iteration # 13     ecut=    35.00 Ry     beta= 0.30
     Davidson diagonalization with overlap
     ethr =  5.30E-11,  avg # of iterations =  2.0

     total cpu time spent up to now is      165.1 secs

     End of self-consistent calculation

          k = 0.0000 0.0000 0.0000 (  7631 PWs)   bands (ev):

    -5.9051  -3.8571  -3.4993  -3.2887  -3.2365  -2.2370  -2.1879  -1.7148
    -1.6318  -1.4884  -1.3382  -0.8845  -0.6415  -0.5923   0.1770   3.0182
     3.2299   3.3160   3.4013   3.5485   3.7538   4.4418   4.5822   4.6081
     4.7851   5.0023   5.2067   5.3875   5.6541   5.8415   6.1111   6.1840
     6.3609   6.4688   6.8126   6.9207   7.0281   7.2732

     occupation numbers 
     1.0000   1.0000   1.0000   1.0000   1.0000   1.0000   1.0000   1.0000
     1.0000   1.0000   1.0000   1.0000   1.0000   1.0000   1.0000   1.0000
     1.0000   1.0000   1.0000   1.0000   1.0000   1.0000   1.0000   1.0000
     1.0000   1.0000   1.0000   1.0000   1.0000   0.9997   0.9365   0.8463
     0.4185   0.1702   0.0004   0.0000   0.0000   0.0000

          k = 0.1768 0.1768-0.1768 (  7564 PWs)   bands (ev):

    -5.7161  -4.1375  -3.7771  -3.3044  -3.1666  -2.7251  -2.4354  -2.3518
    -1.3019  -0.9237  -0.6153  -0.4136  -0.1969   0.1086   0.6400   2.2634
     2.6031   2.8626   3.2749   3.4144   3.5588   3.6574   4.0576   4.2094
     4.5308   4.6963   4.8109   4.9682   5.2744   5.5401   6.0574   6.1572
     6.4492   6.8462   6.9675   7.1721   7.3605   7.6120

     occupation numbers 
     1.0000   1.0000   1.0000   1.0000   1.0000   1.0000   1.0000   1.0000
     1.0000   1.0000   1.0000   1.0000   1.0000   1.0000   1.0000   1.0000
     1.0000   1.0000   1.0000   1.0000   1.0000   1.0000   1.0000   1.0000
     1.0000   1.0000   1.0000   1.0000   1.0000   1.0000   0.9712   0.8861
     0.2070   0.0002   0.0000   0.0000   0.0000   0.0000

          k =-0.3536-0.3536 0.3536 (  7570 PWs)   bands (ev):

    -5.3464  -4.7874  -3.7549  -3.2284  -3.0786  -2.8842  -2.8162  -2.7130
    -0.8258  -0.6058  -0.3414   0.0743   0.2902   0.9481   1.6819   2.1326
     2.1679   2.3980   2.5443   2.6690   2.8163   3.0526   3.5021   3.8873
     4.1895   4.2029   4.5165   4.8702   5.0227   5.5934   5.9792   6.3234
     6.3367   6.9033   7.0925   7.3134   7.5932   7.6422

     occupation numbers 
     1.0000   1.0000   1.0000   1.0000   1.0000   1.0000   1.0000   1.0000
     1.0000   1.0000   1.0000   1.0000   1.0000   1.0000   1.0000   1.0000
     1.0000   1.0000   1.0000   1.0000   1.0000   1.0000   1.0000   1.0000
     1.0000   1.0000   1.0000   1.0000   1.0000   1.0000   0.9927   0.5218
     0.4850   0.0000   0.0000   0.0000   0.0000   0.0000

          k = 0.3536 0.0000 0.0000 (  7563 PWs)   bands (ev):

    -5.6425  -4.1008  -3.7595  -3.5248  -3.4724  -3.1069  -1.9684  -1.6281
    -1.4560  -1.3208  -0.5458  -0.1608  -0.1055   0.1619   0.9632   2.2129
     2.5066   2.6630   2.9493   3.2624   3.5529   3.5935   3.8704   4.1032
     4.2760   4.7238   4.8978   5.0272   5.2727   5.5567   5.6604   5.9895
     6.2038   6.8901   7.1819   7.4469   7.6258   7.7289

     occupation numbers 
     1.0000   1.0000   1.0000   1.0000   1.0000   1.0000   1.0000   1.0000
     1.0000   1.0000   1.0000   1.0000   1.0000   1.0000   1.0000   1.0000
     1.0000   1.0000   1.0000   1.0000   1.0000   1.0000   1.0000   1.0000
     1.0000   1.0000   1.0000   1.0000   1.0000   1.0000   1.0000   0.9911
     0.8114   0.0001   0.0000   0.0000   0.0000   0.0000

          k =-0.1768-0.5303 0.5303 (  7554 PWs)   bands (ev):

    -5.2585  -4.5241  -4.2056  -3.6743  -3.5009  -2.7214  -2.3853  -2.1225
    -1.0050  -0.6554  -0.4952   0.4311   0.7598   1.1642   1.5177   1.8249
     2.0046   2.2097   2.3839   2.8376   3.0780   3.2677   3.5654   3.6457
     3.9016   4.0261   4.2290   4.5400   4.8291   5.0921   5.2925   6.0502
     6.9332   7.3094   7.6535   7.7842   8.1982   8.2414

     occupation numbers 
     1.0000   1.0000   1.0000   1.0000   1.0000   1.0000   1.0000   1.0000
     1.0000   1.0000   1.0000   1.0000   1.0000   1.0000   1.0000   1.0000
     1.0000   1.0000   1.0000   1.0000   1.0000   1.0000   1.0000   1.0000
     1.0000   1.0000   1.0000   1.0000   1.0000   1.0000   1.0000   0.9743
     0.0000   0.0000   0.0000   0.0000   0.0000   0.0000

          k = 0.0000-0.3536 0.3536 (  7592 PWs)   bands (ev):

    -5.4046  -4.3830  -4.2195  -3.4954  -3.1935  -2.9021  -2.7041  -1.8544
    -1.1307  -0.9008  -0.4695   0.4747   0.5837   0.7001   1.2092   1.7440
     2.2832   2.4966   2.6182   2.8619   3.1328   3.3366   3.6123   3.8375
     4.1324   4.2149   4.5521   4.5906   4.7769   4.9867   5.4211   6.3793
     7.1198   7.3091   7.5434   7.7161   7.9029   8.1715

     occupation numbers 
     1.0000   1.0000   1.0000   1.0000   1.0000   1.0000   1.0000   1.0000
     1.0000   1.0000   1.0000   1.0000   1.0000   1.0000   1.0000   1.0000
     1.0000   1.0000   1.0000   1.0000   1.0000   1.0000   1.0000   1.0000
     1.0000   1.0000   1.0000   1.0000   1.0000   1.0000   1.0000   0.3695
     0.0000   0.0000   0.0000   0.0000   0.0000   0.0000

          k =-0.7071 0.0000 0.0000 (  7528 PWs)   bands (ev):

    -4.9650  -4.8121  -4.0953  -3.7442  -3.6387  -3.3981  -1.7902  -1.4250
    -1.3328  -1.1088   0.4603   0.6849   0.7142   0.8908   1.6361   1.7124
     1.9618   2.1701   2.2834   2.6038   2.6858   2.8489   3.2556   3.4248
     4.1712   4.3409   4.4667   4.5156   4.9821   5.1481   5.3059   5.7915
     6.3492   6.8550   7.7321   7.8178   8.1839   8.3832

     occupation numbers 
     1.0000   1.0000   1.0000   1.0000   1.0000   1.0000   1.0000   1.0000
     1.0000   1.0000   1.0000   1.0000   1.0000   1.0000   1.0000   1.0000
     1.0000   1.0000   1.0000   1.0000   1.0000   1.0000   1.0000   1.0000
     1.0000   1.0000   1.0000   1.0000   1.0000   1.0000   1.0000   0.9999
     0.4505   0.0001   0.0000   0.0000   0.0000   0.0000

          k =-0.7071 0.3536 0.0000 (  7564 PWs)   bands (ev):

    -4.9655  -4.6022  -4.3846  -4.2299  -3.0142  -2.6572  -2.4889  -2.3309
    -0.6031  -0.5622  -0.1959   0.0803   1.0070   1.5805   1.6448   1.7731
     1.9724   2.0811   2.3655   2.6836   2.9150   3.1788   3.3031   3.5429
     3.6766   3.8835   3.9451   4.2952   4.8084   5.0102   5.2474   5.5217
     7.3964   7.6908   8.0635   8.2688   8.4088   8.5393

     occupation numbers 
     1.0000   1.0000   1.0000   1.0000   1.0000   1.0000   1.0000   1.0000
     1.0000   1.0000   1.0000   1.0000   1.0000   1.0000   1.0000   1.0000
     1.0000   1.0000   1.0000   1.0000   1.0000   1.0000   1.0000   1.0000
     1.0000   1.0000   1.0000   1.0000   1.0000   1.0000   1.0000   1.0000
     0.0000   0.0000   0.0000   0.0000   0.0000   0.0000

          k =-0.1768-0.1768-0.1768 (  7564 PWs)   bands (ev):

    -5.7056  -4.1718  -3.7511  -3.3844  -3.1639  -2.7509  -2.5708  -1.9957
    -1.2378  -0.9476  -0.6042  -0.4796  -0.3200   0.0646   0.6973   2.2883
     2.4669   2.8079   3.2917   3.3295   3.5789   3.8471   3.8881   4.1125
     4.6037   4.7982   4.9850   5.1198   5.3360   5.6150   5.8920   6.1159
     6.3515   6.5519   7.0742   7.2995   7.4274   7.6503

     occupation numbers 
     1.0000   1.0000   1.0000   1.0000   1.0000   1.0000   1.0000   1.0000
     1.0000   1.0000   1.0000   1.0000   1.0000   1.0000   1.0000   1.0000
     1.0000   1.0000   1.0000   1.0000   1.0000   1.0000   1.0000   1.0000
     1.0000   1.0000   1.0000   1.0000   1.0000   1.0000   0.9988   0.9322
     0.4443   0.0632   0.0000   0.0000   0.0000   0.0000

          k =-0.1768 0.1768 0.1768 (  7564 PWs)   bands (ev):

    -5.7135  -4.3258  -3.4815  -3.3378  -3.1705  -2.6757  -2.6014  -1.9763
    -1.3333  -1.1780  -0.8063  -0.5605  -0.3104   0.1739   0.6787   2.5792
     2.6330   3.0222   3.2880   3.4247   3.6525   3.9382   4.0845   4.3513
     4.3998   4.6285   4.8247   4.9391   5.1677   5.4640   5.9563   6.0954
     6.3021   6.6468   7.1308   7.2317   7.3369   7.4943

     occupation numbers 
     1.0000   1.0000   1.0000   1.0000   1.0000   1.0000   1.0000   1.0000
     1.0000   1.0000   1.0000   1.0000   1.0000   1.0000   1.0000   1.0000
     1.0000   1.0000   1.0000   1.0000   1.0000   1.0000   1.0000   1.0000
     1.0000   1.0000   1.0000   1.0000   1.0000   1.0000   0.9953   0.9489
     0.5800   0.0144   0.0000   0.0000   0.0000   0.0000

          k = 0.1768-0.1768 0.1768 (  7564 PWs)   bands (ev):

    -5.7049  -4.2300  -3.6270  -3.3846  -3.2292  -2.7806  -2.4068  -2.1407
    -1.3608  -0.9334  -0.6505  -0.3739  -0.2486   0.1506   0.6577   2.1451
     2.4865   2.6782   3.2755   3.5013   3.6846   3.7827   4.0839   4.1532
     4.4921   4.6817   4.8475   5.0906   5.2890   5.5867   5.9737   6.3348
     6.5452   6.7685   7.0265   7.2131   7.3953   7.6147

     occupation numbers 
     1.0000   1.0000   1.0000   1.0000   1.0000   1.0000   1.0000   1.0000
     1.0000   1.0000   1.0000   1.0000   1.0000   1.0000   1.0000   1.0000
     1.0000   1.0000   1.0000   1.0000   1.0000   1.0000   1.0000   1.0000
     1.0000   1.0000   1.0000   1.0000   1.0000   1.0000   0.9934   0.4903
     0.0691   0.0012   0.0000   0.0000   0.0000   0.0000

          k = 0.3536 0.3536 0.3536 (  7570 PWs)   bands (ev):

    -5.2501  -4.9261  -3.6905  -3.3035  -3.1817  -2.9705  -2.9296  -2.2509
    -0.8289  -0.4839  -0.2322   0.0195   0.1297   0.8159   1.7597   1.9027
     2.1124   2.2490   2.3278   2.4675   3.0486   3.1027   3.8852   4.1383
     4.2213   4.2705   4.5986   4.7421   5.2214   5.6569   5.6770   5.9243
     6.5826   6.7654   7.0824   7.4349   7.4805   7.8403

     occupation numbers 
     1.0000   1.0000   1.0000   1.0000   1.0000   1.0000   1.0000   1.0000
     1.0000   1.0000   1.0000   1.0000   1.0000   1.0000   1.0000   1.0000
     1.0000   1.0000   1.0000   1.0000   1.0000   1.0000   1.0000   1.0000
     1.0000   1.0000   1.0000   1.0000   1.0000   1.0000   1.0000   0.9976
     0.0408   0.0013   0.0000   0.0000   0.0000   0.0000

          k = 0.3536-0.3536-0.3536 (  7570 PWs)   bands (ev):

    -5.2694  -5.0068  -3.4116  -3.2882  -3.0702  -2.9998  -2.9642  -2.1617
    -1.0201  -0.9130  -0.4205  -0.2268   0.0165   0.6322   2.0342   2.1776
     2.5420   2.6940   2.7002   2.8715   3.0940   3.6007   3.7160   3.8070
     4.1377   4.2665   4.4526   4.5076   4.8774   5.1828   6.0238   6.1467
     6.3882   6.6381   6.9017   7.1341   7.4578   7.5651

     occupation numbers 
     1.0000   1.0000   1.0000   1.0000   1.0000   1.0000   1.0000   1.0000
     1.0000   1.0000   1.0000   1.0000   1.0000   1.0000   1.0000   1.0000
     1.0000   1.0000   1.0000   1.0000   1.0000   1.0000   1.0000   1.0000
     1.0000   1.0000   1.0000   1.0000   1.0000   1.0000   0.9834   0.8996
     0.3466   0.0167   0.0000   0.0000   0.0000   0.0000

          k =-0.3536 0.3536-0.3536 (  7570 PWs)   bands (ev):

    -5.2248  -4.9790  -3.6256  -3.2924  -3.1422  -3.0420  -2.8308  -2.4048
    -0.9012  -0.4356  -0.3384   0.1260   0.2487   1.0082   1.3764   1.7732
     2.2616   2.4013   2.4700   2.4763   2.7325   3.1886   3.9109   4.1475
     4.2130   4.3377   4.4574   4.7171   5.2457   5.4465   5.8263   6.3899
     6.7425   6.8925   7.2071   7.2789   7.4960   7.5737

     occupation numbers 
     1.0000   1.0000   1.0000   1.0000   1.0000   1.0000   1.0000   1.0000
     1.0000   1.0000   1.0000   1.0000   1.0000   1.0000   1.0000   1.0000
     1.0000   1.0000   1.0000   1.0000   1.0000   1.0000   1.0000   1.0000
     1.0000   1.0000   1.0000   1.0000   1.0000   1.0000   0.9998   0.3422
     0.0022   0.0001   0.0000   0.0000   0.0000   0.0000

          k = 0.0000 0.3536 0.0000 (  7563 PWs)   bands (ev):

    -5.6429  -4.1051  -3.7644  -3.5264  -3.3748  -3.2205  -1.9810  -1.6521
    -1.4126  -1.1052  -0.6984  -0.4023   0.0609   0.1630   0.9717   2.2865
     2.5581   2.6370   2.8479   3.3015   3.4289   3.7036   3.9037   4.0503
     4.1860   4.6434   4.7542   5.1115   5.2916   5.4827   6.0166   6.2475
     6.5004   6.8429   7.0177   7.3623   7.6099   7.7597

     occupation numbers 
     1.0000   1.0000   1.0000   1.0000   1.0000   1.0000   1.0000   1.0000
     1.0000   1.0000   1.0000   1.0000   1.0000   1.0000   1.0000   1.0000
     1.0000   1.0000   1.0000   1.0000   1.0000   1.0000   1.0000   1.0000
     1.0000   1.0000   1.0000   1.0000   1.0000   1.0000   0.9854   0.7192
     0.1205   0.0002   0.0000   0.0000   0.0000   0.0000

          k = 0.0000 0.0000 0.3536 (  7563 PWs)   bands (ev):

    -5.6469  -4.0040  -3.7993  -3.5287  -3.4578  -3.2494  -1.8733  -1.7502
    -1.4082  -1.1722  -0.5596  -0.2238  -0.1072   0.1236   1.0498   2.1925
     2.5657   2.6344   2.9184   3.3129   3.5964   3.6488   3.7515   3.9266
     4.1603   4.5457   4.8007   5.1291   5.3195   5.4989   5.8602   6.1989
     6.5593   6.8571   7.2091   7.3261   7.5544   7.6863

     occupation numbers 
     1.0000   1.0000   1.0000   1.0000   1.0000   1.0000   1.0000   1.0000
     1.0000   1.0000   1.0000   1.0000   1.0000   1.0000   1.0000   1.0000
     1.0000   1.0000   1.0000   1.0000   1.0000   1.0000   1.0000   1.0000
     1.0000   1.0000   1.0000   1.0000   1.0000   1.0000   0.9995   0.8204
     0.0570   0.0001   0.0000   0.0000   0.0000   0.0000

          k = 0.1768 0.5303 0.5303 (  7554 PWs)   bands (ev):

    -5.2082  -4.6363  -4.2076  -3.6951  -3.2848  -2.9732  -2.3689  -2.0150
    -0.9623  -0.6568  -0.2104   0.1808   0.5905   1.3393   1.4556   1.7199
     1.9350   2.1589   2.4244   2.6540   3.1324   3.2948   3.3843   3.6611
     4.0870   4.2410   4.3996   4.6765   4.9293   5.0740   5.3864   5.7757
     6.4885   7.2983   7.6689   7.8830   8.0899   8.2537

     occupation numbers 
     1.0000   1.0000   1.0000   1.0000   1.0000   1.0000   1.0000   1.0000
     1.0000   1.0000   1.0000   1.0000   1.0000   1.0000   1.0000   1.0000
     1.0000   1.0000   1.0000   1.0000   1.0000   1.0000   1.0000   1.0000
     1.0000   1.0000   1.0000   1.0000   1.0000   1.0000   1.0000   0.9999
     0.1380   0.0000   0.0000   0.0000   0.0000   0.0000

          k = 0.1768-0.5303-0.5303 (  7554 PWs)   bands (ev):

    -5.2278  -4.7056  -4.1078  -3.6947  -3.2756  -2.7899  -2.3238  -2.1315
    -1.0385  -0.8808  -0.3234   0.1380   0.4194   1.2411   1.5787   1.8002
     2.1634   2.4872   2.5657   2.9788   3.1342   3.3403   3.4406   3.6935
     3.9707   4.1159   4.3335   4.5718   4.7967   5.0277   5.3776   5.8055
     6.3733   7.1088   7.5883   7.8371   8.0182   8.2131

     occupation numbers 
     1.0000   1.0000   1.0000   1.0000   1.0000   1.0000   1.0000   1.0000
     1.0000   1.0000   1.0000   1.0000   1.0000   1.0000   1.0000   1.0000
     1.0000   1.0000   1.0000   1.0000   1.0000   1.0000   1.0000   1.0000
     1.0000   1.0000   1.0000   1.0000   1.0000   1.0000   1.0000   0.9999
     0.3855   0.0000   0.0000   0.0000   0.0000   0.0000

          k =-0.1768 0.5303-0.5303 (  7554 PWs)   bands (ev):

    -5.1972  -4.7124  -4.0303  -3.7390  -3.5030  -2.7351  -2.3383  -2.1403
    -0.9530  -0.5759  -0.4948   0.4177   0.6826   1.1968   1.3548   1.7188
     1.9822   2.0780   2.7389   2.7744   3.0091   3.2715   3.4211   3.7555
     4.0236   4.1606   4.3597   4.4599   4.6265   5.0520   5.3938   6.1363
     7.1223   7.2540   7.5466   7.8312   8.0461   8.2313

     occupation numbers 
     1.0000   1.0000   1.0000   1.0000   1.0000   1.0000   1.0000   1.0000
     1.0000   1.0000   1.0000   1.0000   1.0000   1.0000   1.0000   1.0000
     1.0000   1.0000   1.0000   1.0000   1.0000   1.0000   1.0000   1.0000
     1.0000   1.0000   1.0000   1.0000   1.0000   1.0000   1.0000   0.9116
     0.0000   0.0000   0.0000   0.0000   0.0000   0.0000

          k =-0.5303-0.1768-0.5303 (  7554 PWs)   bands (ev):

    -5.2161  -4.6050  -4.2106  -3.7514  -3.3297  -2.8291  -2.4660  -1.9263
    -1.0790  -0.4719  -0.3333   0.1020   0.6690   1.2098   1.4362   1.8315
     1.9542   2.2452   2.4576   2.8042   2.9536   3.2972   3.4461   3.5908
     3.8974   4.1816   4.3655   4.4950   4.9412   5.1915   5.5058   5.9097
     7.1583   7.3654   7.5877   7.8583   7.9920   8.2917

     occupation numbers 
     1.0000   1.0000   1.0000   1.0000   1.0000   1.0000   1.0000   1.0000
     1.0000   1.0000   1.0000   1.0000   1.0000   1.0000   1.0000   1.0000
     1.0000   1.0000   1.0000   1.0000   1.0000   1.0000   1.0000   1.0000
     1.0000   1.0000   1.0000   1.0000   1.0000   1.0000   1.0000   0.9983
     0.0000   0.0000   0.0000   0.0000   0.0000   0.0000

          k = 0.5303 0.1768-0.5303 (  7554 PWs)   bands (ev):

    -5.2566  -4.5406  -4.2009  -3.6972  -3.3709  -2.9162  -2.2860  -2.1575
    -0.9499  -0.6951  -0.1836   0.1154   0.5862   1.1745   1.5769   1.8747
     2.1276   2.3308   2.4240   2.8668   2.9639   3.0899   3.3851   3.6224
     3.7769   4.0565   4.3316   4.7368   4.8481   5.0846   5.7202   6.1160
     6.7354   7.0390   7.6145   7.9416   8.0912   8.2438

     occupation numbers 
     1.0000   1.0000   1.0000   1.0000   1.0000   1.0000   1.0000   1.0000
     1.0000   1.0000   1.0000   1.0000   1.0000   1.0000   1.0000   1.0000
     1.0000   1.0000   1.0000   1.0000   1.0000   1.0000   1.0000   1.0000
     1.0000   1.0000   1.0000   1.0000   1.0000   1.0000   1.0000   0.9321
     0.0025   0.0000   0.0000   0.0000   0.0000   0.0000

          k =-0.5303 0.1768 0.5303 (  7554 PWs)   bands (ev):

    -5.2209  -4.7475  -3.9947  -3.6771  -3.4220  -2.8567  -2.3095  -1.9237
    -0.9718  -0.9303  -0.5264  -0.0446   0.7114   1.2521   1.5997   2.0165
     2.0535   2.3028   2.5309   2.8894   3.0399   3.3488   3.6248   3.7702
     3.9581   4.0667   4.2563   4.5528   4.7272   5.0648   5.4134   6.2088
     6.6149   7.2129   7.3112   7.5690   7.9495   8.2598

     occupation numbers 
     1.0000   1.0000   1.0000   1.0000   1.0000   1.0000   1.0000   1.0000
     1.0000   1.0000   1.0000   1.0000   1.0000   1.0000   1.0000   1.0000
     1.0000   1.0000   1.0000   1.0000   1.0000   1.0000   1.0000   1.0000
     1.0000   1.0000   1.0000   1.0000   1.0000   1.0000   1.0000   0.8019
     0.0247   0.0000   0.0000   0.0000   0.0000   0.0000

          k = 0.5303-0.1768 0.5303 (  7554 PWs)   bands (ev):

    -5.2048  -4.6763  -4.1093  -3.7805  -3.3241  -2.8136  -2.4804  -1.9773
    -1.0127  -0.6644  -0.2051   0.1189   0.8102   1.0679   1.5575   1.6665
     2.0305   2.1919   2.4772   2.7536   3.1288   3.1874   3.4369   3.6131
     3.9287   4.0840   4.3460   4.4668   4.9182   5.2857   5.4721   6.2442
     7.0119   7.3463   7.6220   7.7677   8.0314   8.2313

     occupation numbers 
     1.0000   1.0000   1.0000   1.0000   1.0000   1.0000   1.0000   1.0000
     1.0000   1.0000   1.0000   1.0000   1.0000   1.0000   1.0000   1.0000
     1.0000   1.0000   1.0000   1.0000   1.0000   1.0000   1.0000   1.0000
     1.0000   1.0000   1.0000   1.0000   1.0000   1.0000   1.0000   0.7269
     0.0000   0.0000   0.0000   0.0000   0.0000   0.0000

          k = 0.5303 0.5303-0.1768 (  7554 PWs)   bands (ev):

    -5.2731  -4.4925  -4.0965  -3.8643  -3.4428  -2.7744  -2.4298  -2.0162
    -1.0725  -0.7643  -0.0035   0.2373   0.5069   1.2071   1.6261   1.8762
     2.0607   2.2199   2.4982   2.8450   2.9690   3.1663   3.4611   3.5519
     3.7525   3.9228   4.2106   4.5069   4.8956   5.3044   5.5672   6.1374
     6.8831   7.3495   7.7327   7.8634   8.0040   8.3497

     occupation numbers 
     1.0000   1.0000   1.0000   1.0000   1.0000   1.0000   1.0000   1.0000
     1.0000   1.0000   1.0000   1.0000   1.0000   1.0000   1.0000   1.0000
     1.0000   1.0000   1.0000   1.0000   1.0000   1.0000   1.0000   1.0000
     1.0000   1.0000   1.0000   1.0000   1.0000   1.0000   1.0000   0.9105
     0.0001   0.0000   0.0000   0.0000   0.0000   0.0000

          k =-0.5303 0.5303 0.1768 (  7554 PWs)   bands (ev):

    -5.2450  -4.6714  -4.0940  -3.6117  -3.4073  -2.8783  -2.3907  -1.9443
    -1.0505  -0.7331  -0.4997   0.1451   0.4437   1.3250   1.5176   1.9647
     2.2252   2.3857   2.6679   2.7305   2.9268   3.1943   3.5390   3.7828
     4.0443   4.1349   4.2821   4.5245   4.8561   5.0062   5.3846   5.7289
     6.7904   7.3467   7.6332   7.7808   7.9817   8.0547

     occupation numbers 
     1.0000   1.0000   1.0000   1.0000   1.0000   1.0000   1.0000   1.0000
     1.0000   1.0000   1.0000   1.0000   1.0000   1.0000   1.0000   1.0000
     1.0000   1.0000   1.0000   1.0000   1.0000   1.0000   1.0000   1.0000
     1.0000   1.0000   1.0000   1.0000   1.0000   1.0000   1.0000   1.0000
     0.0007   0.0000   0.0000   0.0000   0.0000   0.0000

          k = 0.5303-0.5303 0.1768 (  7554 PWs)   bands (ev):

    -5.2181  -4.6502  -4.1300  -3.6287  -3.4119  -3.0361  -2.3232  -2.0295
    -0.9462  -0.6214  -0.1799   0.2350   0.5598   1.0623   1.6664   1.7785
     2.0609   2.1850   2.3503   2.7916   3.1152   3.1653   3.2942   3.3828
     3.9916   4.1642   4.4662   4.6416   4.9034   5.2453   5.5667   5.9539
     6.7928   7.1830   7.6453   7.9658   8.0660   8.2278

     occupation numbers 
     1.0000   1.0000   1.0000   1.0000   1.0000   1.0000   1.0000   1.0000
     1.0000   1.0000   1.0000   1.0000   1.0000   1.0000   1.0000   1.0000
     1.0000   1.0000   1.0000   1.0000   1.0000   1.0000   1.0000   1.0000
     1.0000   1.0000   1.0000   1.0000   1.0000   1.0000   1.0000   0.9955
     0.0007   0.0000   0.0000   0.0000   0.0000   0.0000

          k =-0.5303-0.5303-0.1768 (  7554 PWs)   bands (ev):

    -5.2260  -4.6236  -4.0093  -3.8645  -3.4671  -2.8086  -2.4289  -1.9560
    -0.9846  -0.5443  -0.3311   0.2306   0.6063   1.2623   1.5173   1.7202
     1.9763   2.0608   2.6419   2.7867   2.8786   3.3378   3.4660   3.6549
     3.9170   4.0200   4.2190   4.5607   4.8141   5.1716   5.5475   6.1387
     7.1010   7.2514   7.5773   7.7727   7.9587   8.3641

     occupation numbers 
     1.0000   1.0000   1.0000   1.0000   1.0000   1.0000   1.0000   1.0000
     1.0000   1.0000   1.0000   1.0000   1.0000   1.0000   1.0000   1.0000
     1.0000   1.0000   1.0000   1.0000   1.0000   1.0000   1.0000   1.0000
     1.0000   1.0000   1.0000   1.0000   1.0000   1.0000   1.0000   0.9089
     0.0000   0.0000   0.0000   0.0000   0.0000   0.0000

          k = 0.0000 0.3536 0.3536 (  7592 PWs)   bands (ev):

    -5.3979  -4.4337  -4.2959  -3.3852  -3.0608  -2.8499  -2.6401  -2.0516
    -1.1099  -0.8149  -0.6368   0.1601   0.3086   1.0072   1.1847   1.6962
     2.4917   2.6209   2.7080   2.8498   3.2174   3.5453   3.7344   3.9209
     4.1225   4.2474   4.6185   4.6973   4.8363   5.0182   5.1984   6.0265
     6.3501   7.4687   7.6286   7.6799   7.8330   8.0070

     occupation numbers 
     1.0000   1.0000   1.0000   1.0000   1.0000   1.0000   1.0000   1.0000
     1.0000   1.0000   1.0000   1.0000   1.0000   1.0000   1.0000   1.0000
     1.0000   1.0000   1.0000   1.0000   1.0000   1.0000   1.0000   1.0000
     1.0000   1.0000   1.0000   1.0000   1.0000   1.0000   1.0000   0.9827
     0.4482   0.0000   0.0000   0.0000   0.0000   0.0000

          k =-0.3536 0.0000-0.3536 (  7592 PWs)   bands (ev):

    -5.3793  -4.4493  -4.2202  -3.5117  -3.0786  -3.0259  -2.6570  -1.7430
    -1.3184  -0.6970  -0.3045   0.0865   0.5793   0.8946   1.2153   1.5515
     2.2080   2.3840   2.7035   2.8959   3.1585   3.3694   3.4915   4.0024
     4.1200   4.2607   4.5220   4.6594   4.8771   5.0521   5.4291   6.2456
     7.0518   7.2338   7.4991   7.7665   7.9612   8.2994

     occupation numbers 
     1.0000   1.0000   1.0000   1.0000   1.0000   1.0000   1.0000   1.0000
     1.0000   1.0000   1.0000   1.0000   1.0000   1.0000   1.0000   1.0000
     1.0000   1.0000   1.0000   1.0000   1.0000   1.0000   1.0000   1.0000
     1.0000   1.0000   1.0000   1.0000   1.0000   1.0000   1.0000   0.7236
     0.0000   0.0000   0.0000   0.0000   0.0000   0.0000

          k = 0.3536 0.0000-0.3536 (  7592 PWs)   bands (ev):

    -5.4212  -4.4313  -4.2113  -3.4171  -3.1406  -2.7946  -2.5802  -2.1187
    -1.2381  -0.9301  -0.4178  -0.0266   0.7015   0.7500   1.1961   1.8573
     2.3723   2.6963   2.8610   3.0869   3.3049   3.4211   3.5922   3.7920
     4.0334   4.2845   4.3932   4.4967   4.7481   5.1660   5.3223   6.2358
     6.5782   7.1058   7.2747   7.6800   7.8849   8.1286

     occupation numbers 
     1.0000   1.0000   1.0000   1.0000   1.0000   1.0000   1.0000   1.0000
     1.0000   1.0000   1.0000   1.0000   1.0000   1.0000   1.0000   1.0000
     1.0000   1.0000   1.0000   1.0000   1.0000   1.0000   1.0000   1.0000
     1.0000   1.0000   1.0000   1.0000   1.0000   1.0000   1.0000   0.7459
     0.0435   0.0000   0.0000   0.0000   0.0000   0.0000

          k = 0.3536 0.3536 0.0000 (  7592 PWs)   bands (ev):

    -5.4048  -4.4231  -4.0918  -3.6731  -3.1841  -2.9067  -2.5650  -1.9311
    -1.1643  -0.8308  -0.2705   0.1218   0.5079   0.8820   1.2237   1.7311
     2.2612   2.5136   2.6510   2.9366   3.2024   3.3308   3.4898   3.8273
     4.0676   4.3017   4.3986   4.5746   4.7891   5.2405   5.4162   6.2619
     6.9135   7.1595   7.4342   7.8277   7.9740   8.3543

     occupation numbers 
     1.0000   1.0000   1.0000   1.0000   1.0000   1.0000   1.0000   1.0000
     1.0000   1.0000   1.0000   1.0000   1.0000   1.0000   1.0000   1.0000
     1.0000   1.0000   1.0000   1.0000   1.0000   1.0000   1.0000   1.0000
     1.0000   1.0000   1.0000   1.0000   1.0000   1.0000   1.0000   0.6846
     0.0000   0.0000   0.0000   0.0000   0.0000   0.0000

          k =-0.3536 0.3536 0.0000 (  7592 PWs)   bands (ev):

    -5.3910  -4.5742  -4.1098  -3.3496  -3.1741  -2.9337  -2.4683  -2.1174
    -1.1164  -0.8833  -0.5979   0.1035   0.4966   0.9126   1.2665   1.6506
     2.2267   2.4685   2.8996   3.0921   3.3648   3.6287   3.7611   3.8487
     3.9878   4.2127   4.4359   4.5761   4.7747   5.0979   5.4053   5.9908
     6.6020   7.2690   7.5527   7.7151   7.8362   8.0797

     occupation numbers 
     1.0000   1.0000   1.0000   1.0000   1.0000   1.0000   1.0000   1.0000
     1.0000   1.0000   1.0000   1.0000   1.0000   1.0000   1.0000   1.0000
     1.0000   1.0000   1.0000   1.0000   1.0000   1.0000   1.0000   1.0000
     1.0000   1.0000   1.0000   1.0000   1.0000   1.0000   1.0000   0.9908
     0.0303   0.0000   0.0000   0.0000   0.0000   0.0000

          k = 0.0000-0.7071 0.0000 (  7528 PWs)   bands (ev):

    -4.9837  -4.7891  -4.0704  -3.8353  -3.5370  -3.4436  -1.8338  -1.4516
    -1.3394  -0.8258   0.0897   0.3897   0.8074   1.2193   1.6584   1.8091
     2.1623   2.2402   2.2633   2.4531   2.6700   2.8296   3.0647   3.2002
     3.9746   4.1466   4.5264   4.7870   5.0636   5.2110   5.7149   6.1402
     6.6640   7.0025   7.4690   7.6155   7.8956   8.2147

     occupation numbers 
     1.0000   1.0000   1.0000   1.0000   1.0000   1.0000   1.0000   1.0000
     1.0000   1.0000   1.0000   1.0000   1.0000   1.0000   1.0000   1.0000
     1.0000   1.0000   1.0000   1.0000   1.0000   1.0000   1.0000   1.0000
     1.0000   1.0000   1.0000   1.0000   1.0000   1.0000   1.0000   0.9073
     0.0106   0.0000   0.0000   0.0000   0.0000   0.0000

          k = 0.0000 0.0000-0.7071 (  7528 PWs)   bands (ev):

    -5.0824  -4.6061  -4.0528  -3.8464  -3.6388  -3.4962  -1.7732  -1.5709
    -1.2800  -0.8496   0.3714   0.5728   0.8091   0.9428   1.6432   1.9644
     2.0347   2.2350   2.3185   2.4322   2.5469   2.7502   2.9754   3.1967
     4.0597   4.3044   4.5334   4.6666   4.8307   5.2080   5.6594   6.0615
     6.7734   7.0278   7.5132   7.6735   7.9807   8.2535

     occupation numbers 
     1.0000   1.0000   1.0000   1.0000   1.0000   1.0000   1.0000   1.0000
     1.0000   1.0000   1.0000   1.0000   1.0000   1.0000   1.0000   1.0000
     1.0000   1.0000   1.0000   1.0000   1.0000   1.0000   1.0000   1.0000
     1.0000   1.0000   1.0000   1.0000   1.0000   1.0000   1.0000   0.9692
     0.0011   0.0000   0.0000   0.0000   0.0000   0.0000

          k = 0.3536-0.7071 0.0000 (  7564 PWs)   bands (ev):

    -4.9657  -4.6234  -4.3369  -4.2491  -2.9481  -2.7744  -2.6523  -2.0485
    -0.8110  -0.4166  -0.1713  -0.0170   1.1869   1.3879   1.7127   1.8850
     1.9480   2.0478   2.2617   2.6220   3.0424   3.1391   3.2578   3.5978
     3.7301   3.8950   3.9285   4.2554   4.5216   4.9445   5.4736   5.9071
     7.5797   7.8688   7.9806   8.1265   8.2082   8.4089

     occupation numbers 
     1.0000   1.0000   1.0000   1.0000   1.0000   1.0000   1.0000   1.0000
     1.0000   1.0000   1.0000   1.0000   1.0000   1.0000   1.0000   1.0000
     1.0000   1.0000   1.0000   1.0000   1.0000   1.0000   1.0000   1.0000
     1.0000   1.0000   1.0000   1.0000   1.0000   1.0000   1.0000   0.9984
     0.0000   0.0000   0.0000   0.0000   0.0000   0.0000

          k = 0.7071 0.0000 0.3536 (  7564 PWs)   bands (ev):

    -4.9157  -4.6648  -4.4462  -4.1889  -2.8286  -2.7280  -2.5998  -2.2324
    -0.8301  -0.4564  -0.2586   0.1460   1.1389   1.4587   1.5986   1.7209
     1.9688   2.0862   2.3123   2.7956   3.0024   3.1780   3.4406   3.6166
     3.6592   3.8226   3.9264   4.2470   4.7281   5.0261   5.2101   5.6745
     7.4038   7.7789   8.0724   8.2884   8.3596   8.5115

     occupation numbers 
     1.0000   1.0000   1.0000   1.0000   1.0000   1.0000   1.0000   1.0000
     1.0000   1.0000   1.0000   1.0000   1.0000   1.0000   1.0000   1.0000
     1.0000   1.0000   1.0000   1.0000   1.0000   1.0000   1.0000   1.0000
     1.0000   1.0000   1.0000   1.0000   1.0000   1.0000   1.0000   1.0000
     0.0000   0.0000   0.0000   0.0000   0.0000   0.0000

     the Fermi energy is     6.3313 ev

!    total energy              =    -152.52433008 Ry
     Harris-Foulkes estimate   =    -152.52433008 Ry
     estimated scf accuracy    <          9.6E-10 Ry

     The total energy is the sum of the following terms:

     one-electron contribution =      42.80120425 Ry
     hartree contribution      =       7.73830745 Ry
     xc contribution           =     -67.68827289 Ry
     ewald contribution        =    -135.36937543 Ry
     smearing contrib. (-TS)   =      -0.00619345 Ry

     convergence has been achieved in  13 iterations

     Forces acting on atoms (cartesian axes, Ry/au):

     atom    1 type  1   force =     0.05211056    0.01394835   -0.01185192
     atom    2 type  1   force =    -0.02944083    0.07534175   -0.06016433
     atom    3 type  1   force =     0.04743583   -0.03409340    0.06760870
     atom    4 type  1   force =    -0.02514149    0.02508449   -0.00286967
     atom    5 type  1   force =     0.08947185   -0.01912365   -0.00580430
     atom    6 type  1   force =    -0.00117163   -0.01839113   -0.01407804
     atom    7 type  1   force =    -0.00309718   -0.06336453   -0.04530181
     atom    8 type  1   force =    -0.05890034    0.04679219    0.05574273
     atom    9 type  1   force =    -0.05112371   -0.01518049   -0.04574564
     atom   10 type  1   force =    -0.01668003   -0.02664755    0.05388922
     atom   11 type  1   force =    -0.01402347   -0.03147920   -0.04687385
     atom   12 type  1   force =     0.01322656    0.02967600   -0.00360700
     atom   13 type  1   force =    -0.09122392   -0.01593443   -0.02165655
     atom   14 type  1   force =     0.02915856    0.04969608    0.04819728
     atom   15 type  1   force =    -0.00893669   -0.08868221   -0.00237565
     atom   16 type  1   force =     0.06833593    0.07235773    0.03489085
     The non-local contrib.  to forces
     atom    1 type  1   force =     0.06284083   -0.00027458   -0.02254941
     atom    2 type  1   force =    -0.01147258    0.07280691   -0.06372414
     atom    3 type  1   force =     0.03054116   -0.01078538    0.05455099
     atom    4 type  1   force =    -0.04424183   -0.00919438   -0.00062819
     atom    5 type  1   force =     0.09039579   -0.03259101    0.00071162
     atom    6 type  1   force =    -0.02507252   -0.05006070   -0.06410109
     atom    7 type  1   force =     0.00158991   -0.03705421   -0.03718735
     atom    8 type  1   force =    -0.06337245    0.02954255    0.10855630
     atom    9 type  1   force =    -0.08006760   -0.02604172   -0.03899999
     atom   10 type  1   force =    -0.00449858   -0.01579299    0.07024613
     atom   11 type  1   force =     0.00541502    0.00670780   -0.05496952
     atom   12 type  1   force =     0.01217769    0.03494475   -0.02388323
     atom   13 type  1   force =    -0.11537610   -0.01316120   -0.01568781
     atom   14 type  1   force =     0.04360785    0.05332801    0.06541845
     atom   15 type  1   force =    -0.01416217   -0.09430044   -0.03018249
     atom   16 type  1   force =     0.07397725    0.05773945    0.04538675
     The ionic contribution  to forces
     atom    1 type  1   force =     0.18775335    0.32774107   -0.13184319
     atom    2 type  1   force =     0.30125663    0.23462573   -0.64284698
     atom    3 type  1   force =     0.15046556    0.12118721   -0.04036255
     atom    4 type  1   force =    -0.17921141   -0.02898908   -0.17722754
     atom    5 type  1   force =     0.32752646   -0.28277974   -0.22751420
     atom    6 type  1   force =    -0.17922085   -0.79605599   -0.27147134
     atom    7 type  1   force =    -0.05720054   -0.46087522   -0.11118223
     atom    8 type  1   force =    -0.17055426   -0.09299462    0.87658552
     atom    9 type  1   force =    -0.04967222    0.22838730   -0.23433076
     atom   10 type  1   force =    -0.19086352    0.23015656    0.40542695
     atom   11 type  1   force =    -0.14147906    0.13908520   -0.32670431
     atom   12 type  1   force =     0.24513091    0.32326875   -0.28483005
     atom   13 type  1   force =    -0.32077744   -0.09051570    0.16935785
     atom   14 type  1   force =     0.13039095    0.20321449    0.76349515
     atom   15 type  1   force =    -0.24133481   -0.15933279    0.20447472
     atom   16 type  1   force =     0.18779027    0.10387684    0.02897296
     The local contribution  to forces
     atom    1 type  1   force =    -0.19264309   -0.31169875    0.14120455
     atom    2 type  1   force =    -0.31798065   -0.22474462    0.63823282
     atom    3 type  1   force =    -0.13021228   -0.14548013    0.05749980
     atom    4 type  1   force =     0.19413827    0.06192559    0.17521615
     atom    5 type  1   force =    -0.32168368    0.29192144    0.22052800
     atom    6 type  1   force =     0.19929707    0.82100761    0.31454562
     atom    7 type  1   force =     0.05214803    0.43056722    0.10002281
     atom    8 type  1   force =     0.16779604    0.11230729   -0.91664669
     atom    9 type  1   force =     0.07336017   -0.21934618    0.22381566
     atom   10 type  1   force =     0.17872844   -0.24108878   -0.41410470
     atom   11 type  1   force =     0.12270019   -0.17610280    0.32923459
     atom   12 type  1   force =    -0.24156696   -0.32494145    0.30161965
     atom   13 type  1   force =     0.33461374    0.08629217   -0.17677115
     atom   14 type  1   force =    -0.14061209   -0.20196744   -0.77258514
     atom   15 type  1   force =     0.24348763    0.15670120   -0.17956285
     atom   16 type  1   force =    -0.18683441   -0.08376276   -0.03568411
     The core correction contribution to forces
     atom    1 type  1   force =    -0.00583574   -0.00181477    0.00133684
     atom    2 type  1   force =    -0.00124460   -0.00734948    0.00817364
     atom    3 type  1   force =    -0.00336252    0.00098143   -0.00408082
     atom    4 type  1   force =     0.00417955    0.00133605   -0.00023094
     atom    5 type  1   force =    -0.00676608    0.00432578    0.00046563
     atom    6 type  1   force =     0.00382751    0.00672056    0.00694492
     atom    7 type  1   force =     0.00036621    0.00399679    0.00304735
     atom    8 type  1   force =     0.00723108   -0.00206751   -0.01275625
     atom    9 type  1   force =     0.00525597    0.00181502    0.00376360
     atom   10 type  1   force =    -0.00004765    0.00007868   -0.00767261
     atom   11 type  1   force =    -0.00065909   -0.00116564    0.00556977
     atom   12 type  1   force =    -0.00251559   -0.00359301    0.00348816
     atom   13 type  1   force =     0.01032274    0.00145458    0.00144498
     atom   14 type  1   force =    -0.00423099   -0.00487710   -0.00813296
     atom   15 type  1   force =     0.00306659    0.00824795    0.00289898
     atom   16 type  1   force =    -0.00660362   -0.00549043   -0.00378240
     The Hubbard contrib.    to forces
     atom    1 type  1   force =     0.00000000    0.00000000    0.00000000
     atom    2 type  1   force =     0.00000000    0.00000000    0.00000000
     atom    3 type  1   force =     0.00000000    0.00000000    0.00000000
     atom    4 type  1   force =     0.00000000    0.00000000    0.00000000
     atom    5 type  1   force =     0.00000000    0.00000000    0.00000000
     atom    6 type  1   force =     0.00000000    0.00000000    0.00000000
     atom    7 type  1   force =     0.00000000    0.00000000    0.00000000
     atom    8 type  1   force =     0.00000000    0.00000000    0.00000000
     atom    9 type  1   force =     0.00000000    0.00000000    0.00000000
     atom   10 type  1   force =     0.00000000    0.00000000    0.00000000
     atom   11 type  1   force =     0.00000000    0.00000000    0.00000000
     atom   12 type  1   force =     0.00000000    0.00000000    0.00000000
     atom   13 type  1   force =     0.00000000    0.00000000    0.00000000
     atom   14 type  1   force =     0.00000000    0.00000000    0.00000000
     atom   15 type  1   force =     0.00000000    0.00000000    0.00000000
     atom   16 type  1   force =     0.00000000    0.00000000    0.00000000
     The SCF correction term to forces
     atom    1 type  1   force =    -0.00000484   -0.00000451   -0.00000076
     atom    2 type  1   force =     0.00000032    0.00000333    0.00000029
     atom    3 type  1   force =     0.00000385    0.00000359    0.00000124
     atom    4 type  1   force =    -0.00000611    0.00000642    0.00000082
     atom    5 type  1   force =    -0.00000069   -0.00000001    0.00000461
     atom    6 type  1   force =    -0.00000289   -0.00000250    0.00000382
     atom    7 type  1   force =    -0.00000083    0.00000100   -0.00000243
     atom    8 type  1   force =    -0.00000080    0.00000458    0.00000381
     atom    9 type  1   force =    -0.00000007    0.00000520    0.00000581
     atom   10 type  1   force =     0.00000124   -0.00000089   -0.00000658
     atom   11 type  1   force =    -0.00000058   -0.00000365   -0.00000442
     atom   12 type  1   force =     0.00000046   -0.00000294   -0.00000156
     atom   13 type  1   force =    -0.00000690   -0.00000417   -0.00000046
     atom   14 type  1   force =     0.00000280   -0.00000177    0.00000174
     atom   15 type  1   force =     0.00000602    0.00000198   -0.00000405
     atom   16 type  1   force =     0.00000639   -0.00000526   -0.00000238

     Total force =     0.305442     Total SCF correction =     0.000025


     Computing stress (Cartesian axis) and pressure

          total   stress  (Ry/bohr**3)                   (kbar)     P=  -22.42
  -0.00035252   0.00011286   0.00008126        -51.86     16.60     11.95
   0.00011286  -0.00006182  -0.00004764         16.60     -9.09     -7.01
   0.00008126  -0.00004764  -0.00004281         11.95     -7.01     -6.30

     kinetic stress (kbar)   2131.10    -13.20    -19.08
                              -13.20   2158.34     13.17
                              -19.08     13.17   2151.29

     local   stress (kbar)   -185.68   -203.70   -167.83
                             -203.70   -215.28    176.18
                             -167.83    176.18   -270.36

     nonloc. stress (kbar)   1926.60     16.21     11.98
                               16.21   1931.10     -8.86
                               11.98     -8.86   1932.43

     hartree stress (kbar)    170.81     31.34     24.36
                               31.34    174.09    -25.83
                               24.36    -25.83    181.46

     exc-cor stress (kbar)   1003.71      0.18      0.18
                                0.18   1003.52     -0.13
                                0.18     -0.13   1003.63

     corecor stress (kbar)  -1984.89     -1.99     -1.42
                               -1.99  -1985.54      1.17
                               -1.42      1.17  -1985.74

     ewald   stress (kbar)  -3113.51    187.75    163.77
                              187.75  -3075.33   -162.69
                              163.77   -162.69  -3018.99

     hubbard stress (kbar)      0.00      0.00      0.00
                                0.00      0.00      0.00
                                0.00      0.00      0.00

     london  stress (kbar)      0.00      0.00      0.00
                                0.00      0.00      0.00
                                0.00      0.00      0.00

     DFT-D3  stress (kbar)      0.00      0.00      0.00
                                0.00      0.00      0.00
                                0.00      0.00      0.00

     XDM     stress (kbar)      0.00      0.00      0.00
                                0.00      0.00      0.00
                                0.00      0.00      0.00

     dft-nl  stress (kbar)      0.00      0.00      0.00
                                0.00      0.00      0.00
                                0.00      0.00      0.00

     TS-vdW  stress (kbar)      0.00      0.00      0.00
                                0.00      0.00      0.00
                                0.00      0.00      0.00



     Writing output data file Si_diamond.scf.in.super.222.replace5989.save/

     init_run     :      5.26s CPU      5.90s WALL (       1 calls)
     electrons    :    151.90s CPU    159.11s WALL (       1 calls)
     forces       :      2.79s CPU      2.85s WALL (       1 calls)
     stress       :      7.23s CPU      7.32s WALL (       1 calls)

     Called by init_run:
     wfcinit      :      4.89s CPU      5.50s WALL (       1 calls)
     wfcinit:atom :      0.02s CPU      0.03s WALL (      36 calls)
     wfcinit:wfcr :      4.63s CPU      5.23s WALL (      36 calls)
     potinit      :      0.09s CPU      0.09s WALL (       1 calls)
     hinit0       :      0.20s CPU      0.20s WALL (       1 calls)

     Called by electrons:
     c_bands      :    132.73s CPU    138.59s WALL (      14 calls)
     sum_band     :     17.40s CPU     18.53s WALL (      14 calls)
     v_of_rho     :      0.56s CPU      0.61s WALL (      14 calls)
     v_h          :      0.03s CPU      0.03s WALL (      14 calls)
     v_xc         :      0.62s CPU      0.68s WALL (      16 calls)
     newd         :      0.88s CPU      1.04s WALL (      14 calls)
     mix_rho      :      0.36s CPU      0.38s WALL (      14 calls)

     Called by c_bands:
     init_us_2    :      1.17s CPU      1.37s WALL (    1116 calls)
     cegterg      :    127.00s CPU    132.60s WALL (     504 calls)

     Called by sum_band:
     sum_band:bec :      0.21s CPU      0.20s WALL (     504 calls)
     addusdens    :      0.76s CPU      0.97s WALL (      14 calls)

     Called by *egterg:
     h_psi        :     80.48s CPU     85.39s WALL (    1859 calls)
     s_psi        :     12.27s CPU     12.62s WALL (    1859 calls)
     g_psi        :      0.12s CPU      0.16s WALL (    1319 calls)
     cdiaghg      :     17.69s CPU     17.77s WALL (    1787 calls)
     cegterg:over :      9.48s CPU      9.61s WALL (    1319 calls)
     cegterg:upda :      4.32s CPU      4.32s WALL (    1319 calls)
     cegterg:last :      2.39s CPU      2.43s WALL (     539 calls)
     cdiaghg:chol :      1.08s CPU      1.04s WALL (    1787 calls)
     cdiaghg:inve :      0.17s CPU      0.18s WALL (    1787 calls)
     cdiaghg:para :      3.72s CPU      3.67s WALL (    3574 calls)

     Called by h_psi:
     h_psi:pot    :     80.36s CPU     85.21s WALL (    1859 calls)
     h_psi:calbec :     14.20s CPU     14.65s WALL (    1859 calls)
     vloc_psi     :     53.53s CPU     57.76s WALL (    1859 calls)
     add_vuspsi   :     12.62s CPU     12.79s WALL (    1859 calls)

     General routines
     calbec       :     23.46s CPU     24.02s WALL (    2543 calls)
     fft          :      0.45s CPU      0.51s WALL (     207 calls)
     ffts         :      0.23s CPU      0.26s WALL (     238 calls)
     fftw         :     60.24s CPU     65.16s WALL (  119690 calls)
     interpolate  :      0.04s CPU      0.05s WALL (      14 calls)

     Parallel routines
     fft_scatt_xy :      5.30s CPU      5.93s WALL (  120135 calls)
     fft_scatt_yz :     21.69s CPU     23.27s WALL (  120135 calls)

     PWSCF        :  2m47.76s CPU     2m56.07s WALL


   This run was terminated on:  10:52:36  15Jul2019            

=------------------------------------------------------------------------------=
   JOB DONE.
=------------------------------------------------------------------------------=
