
     Program PWSCF v.5.1 starts on 14Mar2018 at 10:30:20 

     This program is part of the open-source Quantum ESPRESSO suite
     for quantum simulation of materials; please cite
         "P. Giannozzi et al., J. Phys.:Condens. Matter 21 395502 (2009);
          URL http://www.quantum-espresso.org", 
     in publications or presentations arising from this work. More details at
     http://www.quantum-espresso.org/quote

     Parallel version (MPI), running on    16 processors
     R & G space division:  proc/nbgrp/npool/nimage =      16
     Waiting for input...
     Reading input from standard input
Warning: card &IONS ignored
Warning: card   ION_DYNAMICS='BFGS', ignored
Warning: card / ignored
Warning: card &CELL ignored
Warning: card  CELL_DYNAMICS = 'BFGS' ignored
Warning: card / ignored

     Current dimensions of program PWSCF are:
     Max number of different atomic species (ntypx) = 10
     Max number of k-points (npk) =  40000
     Max angular momentum in pseudopotentials (lmaxx) =  3
 kfg - two_fermi_energies  F

     Subspace diagonalization in iterative solution of the eigenvalue problem:
     a serial algorithm will be used


     Parallelization info
     --------------------
     sticks:   dense  smooth     PW     G-vecs:    dense   smooth      PW
     Min         181     128     35                 6459     3770     554
     Max         182     129     38                 6463     3791     555
     Sum        2905    2053    571               103379    60495    8873



     bravais-lattice index     =            0
     lattice parameter (alat)  =    14.515605984  a.u.
     unit-cell volume          =    2162.6713 (a.u.)^3
     number of atoms/cell      =           16
     number of atomic types    =            1
     number of electrons       =        64.00
     number of Kohn-Sham states=           38
     kinetic-energy cutoff     =      35.0000  Ry
     charge density cutoff     =     200.0000  Ry
     convergence threshold     =      1.0E-09
     mixing beta               =       0.3000
     number of iterations used =            8  local-TF  mixing
     Exchange-correlation      = SLA  PW   PSX  PSC ( 1  4 10  8 0)
     A smooth kinetic-energy cutoff is imposed at      34.5000 Ry
     height of the smooth step-function =             800.0000 Ry
     width of the smooth step-function  =               1.0000 Ry


     celldm(1)=  14.515606  celldm(2)=   0.000000  celldm(3)=   0.000000
     celldm(4)=   0.000000  celldm(5)=   0.000000  celldm(6)=   0.000000

     crystal axes: (cart. coord. in units of alat)
               a(1) = (  -0.000000000000   0.707106781187   0.707106781187 )  
               a(2) = (   0.707106781187  -0.000000000000   0.707106781187 )  
               a(3) = (   0.707106781187   0.707106781187   0.000000000000 )  

     reciprocal axes: (cart. coord. in units 2 pi/alat)
               b(1) = ( -0.707107  0.707107  0.707107 )  
               b(2) = (  0.707107 -0.707107  0.707107 )  
               b(3) = (  0.707107  0.707107 -0.707107 )  


     PseudoPot. # 1 for Si read from file:
     /users/kfg/psuedo/gbrv_1.5/si.pbesol.UPF
     MD5 check sum: ef58ba74faed4df802eb8a9742fc00a8
     Pseudo is Ultrasoft + core correction, Zval =  4.0
     Generated by new atomic code, or converted to UPF format
     Using radial grid of  899 points,  6 beta functions with: 
                l(1) =   0
                l(2) =   0
                l(3) =   1
                l(4) =   1
                l(5) =   2
                l(6) =   2
     Q(r) pseudized with  8 coefficients,  rinner =    0.900   0.900   0.900
                                                       0.900   0.900

     atomic species   valence    mass     pseudopotential
        Si             4.00    28.08550     Si( 1.00)

     No symmetry found


                                    s                        frac. trans.

      isym =  1     identity                                     

 cryst.   s( 1) = (     1          0          0      )
                  (     0          1          0      )
                  (     0          0          1      )

 cart.    s( 1) = (  1.0000000  0.0000000  0.0000000 )
                  (  0.0000000  1.0000000  0.0000000 )
                  (  0.0000000  0.0000000  1.0000000 )


     point group C_1 (1)    
     there are  1 classes
     the character table:

       E    
A      1.00

     the symmetry operations in each class:
     E        1

   Cartesian axes

     site n.     atom                  positions (alat units)
         1           Si  tau(   1) = (    0.00886117368    0.02275296238    0.01844843247  )
         2           Si  tau(   2) = (    0.21022055461    0.19363888305    0.17538292748  )
         3           Si  tau(   3) = (    0.38991192744    0.36357532831   -0.00179360858  )
         4           Si  tau(   4) = (    0.54051849156    0.54398542451    0.18504586423  )
         5           Si  tau(   5) = (    0.34762266223   -0.00951668772    0.33253878359  )
         6           Si  tau(   6) = (    0.47490061978    0.16611300055    0.53912392102  )
         7           Si  tau(   7) = (    0.67346503475    0.33014263906    0.38938245991  )
         8           Si  tau(   8) = (    0.90019242027    0.49734191031    0.51452846894  )
         9           Si  tau(   9) = (    0.00555853025    0.36866680105    0.34795852646  )
        10           Si  tau(  10) = (    0.15701390291    0.54697333530    0.53631212077  )
        11           Si  tau(  11) = (    0.35494271700    0.71399923343    0.36013662993  )
        12           Si  tau(  12) = (    0.55368358056    0.87098977073    0.52681930799  )
        13           Si  tau(  13) = (    0.31379039443    0.35807570654    0.71388987445  )
        14           Si  tau(  14) = (    0.54160219408    0.52609096513    0.84640447353  )
        15           Si  tau(  15) = (    0.73616753160    0.69115477332    0.69121283975  )
        16           Si  tau(  16) = (    0.86261607674    0.88708376591    0.89567678995  )

   Crystallographic axes

     site n.     atom                  positions (cryst. coord.)
         1           Si  tau(   1) = (    0.02286798969    0.00322203370    0.00930955829  )
         2           Si  tau(   2) = (    0.11228944492    0.13573946973    0.16155728968  )
         3           Si  tau(   3) = (   -0.01989106063    0.01735451504    0.53406422088  )
         4           Si  tau(   4) = (    0.13329867723    0.12839569362    0.63601288785  )
         5           Si  tau(   5) = (   -0.01739522729    0.48767608505    0.00393659846  )
         6           Si  tau(   6) = (    0.16287236095    0.59956399996    0.07204689732  )
         7           Si  tau(   7) = (    0.03256938375    0.51810057200    0.43432281392  )
         8           Si  tau(   8) = (    0.07896824210    0.64868489690    0.62437943259  )
         9           Si  tau(   9) = (    0.50280015422   -0.01071248696    0.01857343583  )
        10           Si  tau(  10) = (    0.65497289646    0.10348697840    0.11856421258  )
        11           Si  tau(  11) = (    0.50854635077    0.00076375558    0.50120104866  )
        12           Si  tau(  12) = (    0.59688686392    0.14814814636    0.63487868254  )
        13           Si  tau(  13) = (    0.53611081575    0.47348192674   -0.02971529520  )
        14           Si  tau(  14) = (    0.58753024769    0.60946643803    0.15647473024  )
        15           Si  tau(  15) = (    0.45693245961    0.52059011285    0.52050799452  )
        16           Si  tau(  16) = (    0.65064040085    0.61603786299    0.60388549185  )

     number of k points=    36  gaussian smearing, width (Ry)=  0.0150
                       cart. coord. in units 2pi/alat
        k(    1) = (   0.0000000   0.0000000   0.0000000), wk =   0.0312500
        k(    2) = (   0.1767767   0.1767767  -0.1767767), wk =   0.0625000
        k(    3) = (  -0.3535534  -0.3535534   0.3535534), wk =   0.0312500
        k(    4) = (   0.3535534   0.0000000   0.0000000), wk =   0.0625000
        k(    5) = (  -0.1767767  -0.5303301   0.5303301), wk =   0.0625000
        k(    6) = (   0.0000000  -0.3535534   0.3535534), wk =   0.0625000
        k(    7) = (  -0.7071068   0.0000000   0.0000000), wk =   0.0312500
        k(    8) = (  -0.7071068   0.3535534   0.0000000), wk =   0.0625000
        k(    9) = (  -0.1767767  -0.1767767  -0.1767767), wk =   0.0625000
        k(   10) = (  -0.1767767   0.1767767   0.1767767), wk =   0.0625000
        k(   11) = (   0.1767767  -0.1767767   0.1767767), wk =   0.0625000
        k(   12) = (   0.3535534   0.3535534   0.3535534), wk =   0.0312500
        k(   13) = (   0.3535534  -0.3535534  -0.3535534), wk =   0.0312500
        k(   14) = (  -0.3535534   0.3535534  -0.3535534), wk =   0.0312500
        k(   15) = (   0.0000000   0.3535534   0.0000000), wk =   0.0625000
        k(   16) = (   0.0000000   0.0000000   0.3535534), wk =   0.0625000
        k(   17) = (   0.1767767   0.5303301   0.5303301), wk =   0.0625000
        k(   18) = (   0.1767767  -0.5303301  -0.5303301), wk =   0.0625000
        k(   19) = (  -0.1767767   0.5303301  -0.5303301), wk =   0.0625000
        k(   20) = (  -0.5303301  -0.1767767  -0.5303301), wk =   0.0625000
        k(   21) = (   0.5303301   0.1767767  -0.5303301), wk =   0.0625000
        k(   22) = (  -0.5303301   0.1767767   0.5303301), wk =   0.0625000
        k(   23) = (   0.5303301  -0.1767767   0.5303301), wk =   0.0625000
        k(   24) = (   0.5303301   0.5303301  -0.1767767), wk =   0.0625000
        k(   25) = (  -0.5303301   0.5303301   0.1767767), wk =   0.0625000
        k(   26) = (   0.5303301  -0.5303301   0.1767767), wk =   0.0625000
        k(   27) = (  -0.5303301  -0.5303301  -0.1767767), wk =   0.0625000
        k(   28) = (   0.0000000   0.3535534   0.3535534), wk =   0.0625000
        k(   29) = (  -0.3535534   0.0000000  -0.3535534), wk =   0.0625000
        k(   30) = (   0.3535534   0.0000000  -0.3535534), wk =   0.0625000
        k(   31) = (   0.3535534   0.3535534   0.0000000), wk =   0.0625000
        k(   32) = (  -0.3535534   0.3535534   0.0000000), wk =   0.0625000
        k(   33) = (   0.0000000  -0.7071068   0.0000000), wk =   0.0312500
        k(   34) = (   0.0000000   0.0000000  -0.7071068), wk =   0.0312500
        k(   35) = (   0.3535534  -0.7071068   0.0000000), wk =   0.0625000
        k(   36) = (   0.7071068   0.0000000   0.3535534), wk =   0.0625000

                       cryst. coord.
        k(    1) = (   0.0000000   0.0000000   0.0000000), wk =   0.0312500
        k(    2) = (   0.0000000   0.0000000   0.2500000), wk =   0.0625000
        k(    3) = (   0.0000000   0.0000000  -0.5000000), wk =   0.0312500
        k(    4) = (  -0.0000000   0.2500000   0.2500000), wk =   0.0625000
        k(    5) = (   0.0000000   0.2500000  -0.5000000), wk =   0.0625000
        k(    6) = (   0.0000000   0.2500000  -0.2500000), wk =   0.0625000
        k(    7) = (   0.0000000  -0.5000000  -0.5000000), wk =   0.0312500
        k(    8) = (   0.2500000  -0.5000000  -0.2500000), wk =   0.0625000
        k(    9) = (  -0.2500000  -0.2500000  -0.2500000), wk =   0.0625000
        k(   10) = (   0.2500000   0.0000000   0.0000000), wk =   0.0625000
        k(   11) = (   0.0000000   0.2500000   0.0000000), wk =   0.0625000
        k(   12) = (   0.5000000   0.5000000   0.5000000), wk =   0.0312500
        k(   13) = (  -0.5000000   0.0000000  -0.0000000), wk =   0.0312500
        k(   14) = (   0.0000000  -0.5000000  -0.0000000), wk =   0.0312500
        k(   15) = (   0.2500000  -0.0000000   0.2500000), wk =   0.0625000
        k(   16) = (   0.2500000   0.2500000   0.0000000), wk =   0.0625000
        k(   17) = (   0.7500000   0.5000000   0.5000000), wk =   0.0625000
        k(   18) = (  -0.7500000  -0.2500000  -0.2500000), wk =   0.0625000
        k(   19) = (   0.0000000  -0.5000000   0.2500000), wk =   0.0625000
        k(   20) = (  -0.5000000  -0.7500000  -0.5000000), wk =   0.0625000
        k(   21) = (  -0.2500000   0.0000000   0.5000000), wk =   0.0625000
        k(   22) = (   0.5000000   0.0000000  -0.2500000), wk =   0.0625000
        k(   23) = (   0.2500000   0.7500000   0.2500000), wk =   0.0625000
        k(   24) = (   0.2500000   0.2500000   0.7500000), wk =   0.0625000
        k(   25) = (   0.5000000  -0.2500000   0.0000000), wk =   0.0625000
        k(   26) = (  -0.2500000   0.5000000   0.0000000), wk =   0.0625000
        k(   27) = (  -0.5000000  -0.5000000  -0.7500000), wk =   0.0625000
        k(   28) = (   0.5000000   0.2500000   0.2500000), wk =   0.0625000
        k(   29) = (  -0.2500000  -0.5000000  -0.2500000), wk =   0.0625000
        k(   30) = (  -0.2500000   0.0000000   0.2500000), wk =   0.0625000
        k(   31) = (   0.2500000   0.2500000   0.5000000), wk =   0.0625000
        k(   32) = (   0.2500000  -0.2500000   0.0000000), wk =   0.0625000
        k(   33) = (  -0.5000000   0.0000000  -0.5000000), wk =   0.0312500
        k(   34) = (  -0.5000000  -0.5000000  -0.0000000), wk =   0.0312500
        k(   35) = (  -0.5000000   0.2500000  -0.2500000), wk =   0.0625000
        k(   36) = (   0.2500000   0.7500000   0.5000000), wk =   0.0625000

     Dense  grid:   103379 G-vectors     FFT dimensions: (  72,  72,  72)

     Smooth grid:    60495 G-vectors     FFT dimensions: (  60,  60,  60)

     Largest allocated arrays     est. size (Mb)     dimensions
        Kohn-Sham Wavefunctions         0.28 Mb     (     486,   38)
        NL pseudopotentials             2.14 Mb     (     486,  288)
        Each V/rho on FFT grid          0.40 Mb     (   25920)
        Each G-vector array             0.05 Mb     (    6463)
        G-vector shells                 0.01 Mb     (     700)
     Largest temporary arrays     est. size (Mb)     dimensions
        Auxiliary wavefunctions         1.13 Mb     (     486,  152)
        Each subspace H/S matrix        0.35 Mb     (     152,  152)
        Each <psi_i|beta_j> matrix      0.17 Mb     (     288,   38)
        Arrays for rho mixing           3.16 Mb     (   25920,    8)

     Initial potential from superposition of free atoms

     starting charge   63.98963, renormalised to   64.00000
     Starting wfc are   64 randomized atomic wfcs

     total cpu time spent up to now is        8.0 secs

     Self-consistent Calculation

     iteration #  1     ecut=    35.00 Ry     beta=0.30
     Davidson diagonalization with overlap
     ethr =  1.00E-02,  avg # of iterations =  3.1

     Threshold (ethr) on eigenvalues was too large:
     Diagonalizing with lowered threshold

     Davidson diagonalization with overlap
     ethr =  6.68E-04,  avg # of iterations =  1.9

     total cpu time spent up to now is       42.9 secs

     total energy              =    -152.92986662 Ry
     Harris-Foulkes estimate   =    -152.97527617 Ry
     estimated scf accuracy    <       0.42172572 Ry

     iteration #  2     ecut=    35.00 Ry     beta=0.30
     Davidson diagonalization with overlap
     ethr =  6.59E-04,  avg # of iterations =  1.0

     total cpu time spent up to now is       55.9 secs

     total energy              =    -152.84049039 Ry
     Harris-Foulkes estimate   =    -152.93215593 Ry
     estimated scf accuracy    <       0.26104171 Ry

     iteration #  3     ecut=    35.00 Ry     beta=0.30
     Davidson diagonalization with overlap
     ethr =  4.08E-04,  avg # of iterations =  2.3

     total cpu time spent up to now is       70.5 secs

     total energy              =    -152.85897864 Ry
     Harris-Foulkes estimate   =    -152.85870963 Ry
     estimated scf accuracy    <       0.00291238 Ry

     iteration #  4     ecut=    35.00 Ry     beta=0.30
     Davidson diagonalization with overlap
     c_bands:  1 eigenvalues not converged
     c_bands:  1 eigenvalues not converged
     c_bands:  1 eigenvalues not converged
     ethr =  4.55E-06,  avg # of iterations = 13.2

     total cpu time spent up to now is      109.2 secs

     total energy              =    -152.86134680 Ry
     Harris-Foulkes estimate   =    -152.86120737 Ry
     estimated scf accuracy    <       0.00128500 Ry

     iteration #  5     ecut=    35.00 Ry     beta=0.30
     Davidson diagonalization with overlap
     ethr =  2.01E-06,  avg # of iterations =  2.1

     total cpu time spent up to now is      123.3 secs

     total energy              =    -152.86143198 Ry
     Harris-Foulkes estimate   =    -152.86138325 Ry
     estimated scf accuracy    <       0.00028432 Ry

     iteration #  6     ecut=    35.00 Ry     beta=0.30
     Davidson diagonalization with overlap
     ethr =  4.44E-07,  avg # of iterations =  2.1

     total cpu time spent up to now is      139.9 secs

     total energy              =    -152.86146323 Ry
     Harris-Foulkes estimate   =    -152.86146376 Ry
     estimated scf accuracy    <       0.00001036 Ry

     iteration #  7     ecut=    35.00 Ry     beta=0.30
     Davidson diagonalization with overlap
     ethr =  1.62E-08,  avg # of iterations =  3.1

     total cpu time spent up to now is      157.7 secs

     total energy              =    -152.86146407 Ry
     Harris-Foulkes estimate   =    -152.86146516 Ry
     estimated scf accuracy    <       0.00000666 Ry

     iteration #  8     ecut=    35.00 Ry     beta=0.30
     Davidson diagonalization with overlap
     ethr =  1.04E-08,  avg # of iterations =  2.1

     total cpu time spent up to now is      174.7 secs

     total energy              =    -152.86146535 Ry
     Harris-Foulkes estimate   =    -152.86146541 Ry
     estimated scf accuracy    <       0.00000071 Ry

     iteration #  9     ecut=    35.00 Ry     beta=0.30
     Davidson diagonalization with overlap
     ethr =  1.12E-09,  avg # of iterations =  1.1

     total cpu time spent up to now is      187.8 secs

     total energy              =    -152.86146520 Ry
     Harris-Foulkes estimate   =    -152.86146538 Ry
     estimated scf accuracy    <       0.00000046 Ry

     iteration # 10     ecut=    35.00 Ry     beta=0.30
     Davidson diagonalization with overlap
     ethr =  7.20E-10,  avg # of iterations =  2.1

     total cpu time spent up to now is      205.0 secs

     total energy              =    -152.86146532 Ry
     Harris-Foulkes estimate   =    -152.86146532 Ry
     estimated scf accuracy    <       0.00000006 Ry

     iteration # 11     ecut=    35.00 Ry     beta=0.30
     Davidson diagonalization with overlap
     ethr =  9.70E-11,  avg # of iterations =  1.5

     total cpu time spent up to now is      218.7 secs

     total energy              =    -152.86146530 Ry
     Harris-Foulkes estimate   =    -152.86146532 Ry
     estimated scf accuracy    <       0.00000006 Ry

     iteration # 12     ecut=    35.00 Ry     beta=0.30
     Davidson diagonalization with overlap
     ethr =  9.29E-11,  avg # of iterations =  2.1

     total cpu time spent up to now is      235.4 secs

     total energy              =    -152.86146531 Ry
     Harris-Foulkes estimate   =    -152.86146531 Ry
     estimated scf accuracy    <          1.2E-09 Ry

     iteration # 13     ecut=    35.00 Ry     beta=0.30
     Davidson diagonalization with overlap
     ethr =  1.91E-12,  avg # of iterations =  3.1

     total cpu time spent up to now is      256.8 secs

     End of self-consistent calculation

          k = 0.0000 0.0000 0.0000 (  7631 PWs)   bands (ev):

    -5.8373  -3.5886  -3.5089  -3.4836  -3.3088  -1.8870  -1.7998  -1.7643
    -1.6693  -1.5474  -1.4405  -0.9658  -0.8439  -0.7083  -0.6507   3.2293
     3.2549   3.2919   3.3448   3.3930   3.4619   4.7292   4.7684   4.8482
     4.9297   4.9551   4.9959   5.1656   5.2995   5.8742   6.1552   6.3171
     6.4830   6.6093   6.7012   6.7659   6.9712   7.0399

     occupation numbers 
     1.0000   1.0000   1.0000   1.0000   1.0000   1.0000   1.0000   1.0000
     1.0000   1.0000   1.0000   1.0000   1.0000   1.0000   1.0000   1.0000
     1.0000   1.0000   1.0000   1.0000   1.0000   1.0000   1.0000   1.0000
     1.0000   1.0000   1.0000   1.0000   1.0000   0.9998   0.9379   0.6611
     0.2313   0.0537   0.0123   0.0035   0.0000   0.0000

          k = 0.1768 0.1768-0.1768 (  7564 PWs)   bands (ev):

    -5.6320  -4.1236  -3.5125  -3.4169  -3.2740  -2.6052  -2.5200  -2.4217
    -0.9068  -0.7688  -0.6912  -0.6044  -0.4028  -0.2877   0.1470   2.5574
     2.6426   2.7135   3.3745   3.4628   3.5321   3.7843   3.8924   3.9664
     4.3901   4.6307   4.7249   4.8677   5.0650   5.1945   5.8681   5.9983
     6.6721   6.8322   7.1278   7.5703   7.7831   7.8943

     occupation numbers 
     1.0000   1.0000   1.0000   1.0000   1.0000   1.0000   1.0000   1.0000
     1.0000   1.0000   1.0000   1.0000   1.0000   1.0000   1.0000   1.0000
     1.0000   1.0000   1.0000   1.0000   1.0000   1.0000   1.0000   1.0000
     1.0000   1.0000   1.0000   1.0000   1.0000   1.0000   0.9998   0.9957
     0.0204   0.0008   0.0000   0.0000   0.0000   0.0000

          k =-0.3536-0.3536 0.3536 (  7570 PWs)   bands (ev):

    -5.0563  -5.0055  -3.3415  -3.1832  -3.1003  -3.0446  -3.0286  -2.8608
    -0.4217  -0.4081  -0.2712  -0.1852   0.0205   0.1569   2.0724   2.1023
     2.3193   2.4513   2.4608   2.5430   2.6593   2.7738   3.8205   3.8589
     4.1090   4.1402   4.1578   4.2546   5.3450   5.3743   5.5210   5.5565
     7.0333   7.2570   7.5829   7.6138   7.7346   7.9004

     occupation numbers 
     1.0000   1.0000   1.0000   1.0000   1.0000   1.0000   1.0000   1.0000
     1.0000   1.0000   1.0000   1.0000   1.0000   1.0000   1.0000   1.0000
     1.0000   1.0000   1.0000   1.0000   1.0000   1.0000   1.0000   1.0000
     1.0000   1.0000   1.0000   1.0000   1.0000   1.0000   1.0000   1.0000
     0.0000   0.0000   0.0000   0.0000   0.0000   0.0000

          k = 0.3536 0.0000 0.0000 (  7563 PWs)   bands (ev):

    -5.5663  -3.7661  -3.7381  -3.6232  -3.4872  -3.3472  -1.7377  -1.6633
    -1.5586  -1.3441  -0.4268  -0.3401  -0.1729  -0.0835   0.5224   2.5448
     2.6729   2.7085   2.8365   3.4006   3.4999   3.6167   3.7458   3.8368
     3.8969   4.7293   4.8197   4.9013   4.9830   5.1486   5.4108   5.5258
     6.5973   7.3165   7.6556   7.8396   7.9657   8.0201

     occupation numbers 
     1.0000   1.0000   1.0000   1.0000   1.0000   1.0000   1.0000   1.0000
     1.0000   1.0000   1.0000   1.0000   1.0000   1.0000   1.0000   1.0000
     1.0000   1.0000   1.0000   1.0000   1.0000   1.0000   1.0000   1.0000
     1.0000   1.0000   1.0000   1.0000   1.0000   1.0000   1.0000   1.0000
     0.0635   0.0000   0.0000   0.0000   0.0000   0.0000

          k =-0.1768-0.5303 0.5303 (  7554 PWs)   bands (ev):

    -5.0973  -4.5910  -4.0333  -3.6622  -3.5133  -2.9047  -2.4171  -2.2055
    -0.8574  -0.7426  -0.3756   0.2732   0.3752   1.2934   1.4543   1.9388
     1.9994   2.0748   2.6416   2.7711   2.9658   3.2193   3.3352   3.4294
     3.8987   3.9714   4.1954   4.3094   4.4770   4.8808   5.1151   5.4293
     7.3232   7.6652   8.0916   8.2655   8.4124   8.6255

     occupation numbers 
     1.0000   1.0000   1.0000   1.0000   1.0000   1.0000   1.0000   1.0000
     1.0000   1.0000   1.0000   1.0000   1.0000   1.0000   1.0000   1.0000
     1.0000   1.0000   1.0000   1.0000   1.0000   1.0000   1.0000   1.0000
     1.0000   1.0000   1.0000   1.0000   1.0000   1.0000   1.0000   1.0000
     0.0000   0.0000   0.0000   0.0000   0.0000   0.0000

          k = 0.0000-0.3536 0.3536 (  7592 PWs)   bands (ev):

    -5.3009  -4.3524  -4.1849  -3.3242  -3.1782  -2.9931  -2.7669  -2.0482
    -1.1152  -0.8101  -0.5102   0.2004   0.2703   0.7767   0.9450   1.7606
     2.5382   2.6034   2.8027   2.8997   3.2882   3.4525   3.5032   3.7249
     4.0364   4.1515   4.2430   4.4333   4.5659   4.6339   4.7054   5.9274
     7.0602   7.8777   7.9598   8.0627   8.2659   8.4148

     occupation numbers 
     1.0000   1.0000   1.0000   1.0000   1.0000   1.0000   1.0000   1.0000
     1.0000   1.0000   1.0000   1.0000   1.0000   1.0000   1.0000   1.0000
     1.0000   1.0000   1.0000   1.0000   1.0000   1.0000   1.0000   1.0000
     1.0000   1.0000   1.0000   1.0000   1.0000   1.0000   1.0000   0.9991
     0.0000   0.0000   0.0000   0.0000   0.0000   0.0000

          k =-0.7071 0.0000 0.0000 (  7528 PWs)   bands (ev):

    -4.8532  -4.6668  -3.9074  -3.7942  -3.7471  -3.5993  -1.6439  -1.5307
    -1.4847  -1.2337   0.4773   0.6302   0.6872   0.8191   1.9379   2.0269
     2.1115   2.2977   2.3603   2.5259   2.5626   2.6006   2.7454   2.7737
     4.1126   4.2204   4.3749   4.4366   4.7893   4.8810   4.9523   5.1285
     7.0601   7.1473   8.2841   8.3033   8.4060   8.4434

     occupation numbers 
     1.0000   1.0000   1.0000   1.0000   1.0000   1.0000   1.0000   1.0000
     1.0000   1.0000   1.0000   1.0000   1.0000   1.0000   1.0000   1.0000
     1.0000   1.0000   1.0000   1.0000   1.0000   1.0000   1.0000   1.0000
     1.0000   1.0000   1.0000   1.0000   1.0000   1.0000   1.0000   1.0000
     0.0000   0.0000   0.0000   0.0000   0.0000   0.0000

          k =-0.7071 0.3536 0.0000 (  7564 PWs)   bands (ev):

    -4.6537  -4.5593  -4.4428  -4.3374  -2.8491  -2.7420  -2.5968  -2.5023
    -0.5630  -0.5271  -0.3774  -0.1713   1.6170   1.6906   1.8034   1.8343
     1.9072   1.9537   2.0407   2.0900   3.2469   3.3504   3.3872   3.4549
     3.5887   3.6169   3.6813   3.8234   4.6160   4.7441   4.7915   5.0566
     8.2404   8.3517   8.4759   8.5768   8.7473   8.7773

     occupation numbers 
     1.0000   1.0000   1.0000   1.0000   1.0000   1.0000   1.0000   1.0000
     1.0000   1.0000   1.0000   1.0000   1.0000   1.0000   1.0000   1.0000
     1.0000   1.0000   1.0000   1.0000   1.0000   1.0000   1.0000   1.0000
     1.0000   1.0000   1.0000   1.0000   1.0000   1.0000   1.0000   1.0000
     0.0000   0.0000   0.0000   0.0000   0.0000   0.0000

          k =-0.1768-0.1768-0.1768 (  7564 PWs)   bands (ev):

    -5.6314  -4.1129  -3.5178  -3.4237  -3.3088  -2.5910  -2.4990  -2.3995
    -0.9527  -0.8353  -0.6976  -0.5507  -0.3711  -0.2366   0.1284   2.5176
     2.6278   2.6864   3.4278   3.4934   3.5390   3.7353   3.9086   3.9513
     4.4156   4.5760   4.7031   4.7739   5.0647   5.2506   5.8894   6.1138
     6.8096   7.0256   7.0447   7.6035   7.7555   7.8758

     occupation numbers 
     1.0000   1.0000   1.0000   1.0000   1.0000   1.0000   1.0000   1.0000
     1.0000   1.0000   1.0000   1.0000   1.0000   1.0000   1.0000   1.0000
     1.0000   1.0000   1.0000   1.0000   1.0000   1.0000   1.0000   1.0000
     1.0000   1.0000   1.0000   1.0000   1.0000   1.0000   0.9996   0.9659
     0.0014   0.0000   0.0000   0.0000   0.0000   0.0000

          k =-0.1768 0.1768 0.1768 (  7564 PWs)   bands (ev):

    -5.6350  -4.1663  -3.4606  -3.3823  -3.2630  -2.6352  -2.5035  -2.3766
    -1.0093  -0.8396  -0.6908  -0.6327  -0.4985  -0.2866   0.2795   2.6402
     2.7265   2.8127   3.3476   3.4345   3.4803   3.8855   3.9855   4.0633
     4.4254   4.5834   4.6590   4.7810   4.9244   5.2622   5.6928   6.0196
     6.7163   6.8268   6.8664   7.5291   7.7954   7.9642

     occupation numbers 
     1.0000   1.0000   1.0000   1.0000   1.0000   1.0000   1.0000   1.0000
     1.0000   1.0000   1.0000   1.0000   1.0000   1.0000   1.0000   1.0000
     1.0000   1.0000   1.0000   1.0000   1.0000   1.0000   1.0000   1.0000
     1.0000   1.0000   1.0000   1.0000   1.0000   1.0000   1.0000   0.9934
     0.0094   0.0009   0.0003   0.0000   0.0000   0.0000

          k = 0.1768-0.1768 0.1768 (  7564 PWs)   bands (ev):

    -5.6363  -4.1487  -3.5064  -3.4014  -3.2345  -2.6212  -2.4676  -2.3910
    -0.9998  -0.8310  -0.7555  -0.5675  -0.4557  -0.3766   0.2752   2.6164
     2.7101   2.7976   3.3642   3.4620   3.5428   3.8053   4.0325   4.0936
     4.4992   4.5627   4.6733   4.7964   4.9495   5.1169   5.7003   5.9481
     6.7293   6.8681   7.1249   7.5712   7.7345   7.8884

     occupation numbers 
     1.0000   1.0000   1.0000   1.0000   1.0000   1.0000   1.0000   1.0000
     1.0000   1.0000   1.0000   1.0000   1.0000   1.0000   1.0000   1.0000
     1.0000   1.0000   1.0000   1.0000   1.0000   1.0000   1.0000   1.0000
     1.0000   1.0000   1.0000   1.0000   1.0000   1.0000   1.0000   0.9985
     0.0073   0.0003   0.0000   0.0000   0.0000   0.0000

          k = 0.3536 0.3536 0.3536 (  7570 PWs)   bands (ev):

    -5.0708  -4.9820  -3.4382  -3.2359  -3.0627  -2.9881  -2.9677  -2.8577
    -0.5237  -0.4500  -0.2448  -0.1935   0.1580   0.1964   2.0395   2.1608
     2.2819   2.3214   2.4718   2.5960   2.6429   2.7103   3.7881   3.9648
     3.9882   4.0711   4.2077   4.3110   5.1466   5.3767   5.6209   5.8683
     7.2671   7.3929   7.5067   7.5346   7.6935   7.7738

     occupation numbers 
     1.0000   1.0000   1.0000   1.0000   1.0000   1.0000   1.0000   1.0000
     1.0000   1.0000   1.0000   1.0000   1.0000   1.0000   1.0000   1.0000
     1.0000   1.0000   1.0000   1.0000   1.0000   1.0000   1.0000   1.0000
     1.0000   1.0000   1.0000   1.0000   1.0000   1.0000   1.0000   0.9998
     0.0000   0.0000   0.0000   0.0000   0.0000   0.0000

          k = 0.3536-0.3536-0.3536 (  7570 PWs)   bands (ev):

    -5.0915  -4.9945  -3.2756  -3.1904  -3.0684  -3.0342  -2.9990  -2.8612
    -0.6386  -0.4160  -0.3194  -0.2920  -0.0903   0.1977   2.1909   2.2621
     2.5103   2.5596   2.6374   2.6446   2.7232   2.8163   3.8041   3.8741
     3.9610   4.0004   4.1246   4.1852   5.0958   5.3819   5.4850   5.6328
     7.0245   7.1873   7.4277   7.5074   7.7254   7.8305

     occupation numbers 
     1.0000   1.0000   1.0000   1.0000   1.0000   1.0000   1.0000   1.0000
     1.0000   1.0000   1.0000   1.0000   1.0000   1.0000   1.0000   1.0000
     1.0000   1.0000   1.0000   1.0000   1.0000   1.0000   1.0000   1.0000
     1.0000   1.0000   1.0000   1.0000   1.0000   1.0000   1.0000   1.0000
     0.0000   0.0000   0.0000   0.0000   0.0000   0.0000

          k =-0.3536 0.3536-0.3536 (  7570 PWs)   bands (ev):

    -5.1348  -4.9414  -3.3412  -3.2057  -3.1270  -3.0217  -2.8929  -2.8314
    -0.6198  -0.4412  -0.3331  -0.1458  -0.0690  -0.0130   2.0798   2.2529
     2.3987   2.6051   2.6222   2.6864   2.8725   2.9004   3.7818   3.9012
     3.9223   4.0686   4.1860   4.1984   5.0548   5.2756   5.5251   5.6053
     7.0843   7.3198   7.4314   7.5133   7.6698   7.7624

     occupation numbers 
     1.0000   1.0000   1.0000   1.0000   1.0000   1.0000   1.0000   1.0000
     1.0000   1.0000   1.0000   1.0000   1.0000   1.0000   1.0000   1.0000
     1.0000   1.0000   1.0000   1.0000   1.0000   1.0000   1.0000   1.0000
     1.0000   1.0000   1.0000   1.0000   1.0000   1.0000   1.0000   1.0000
     0.0000   0.0000   0.0000   0.0000   0.0000   0.0000

          k = 0.0000 0.3536 0.0000 (  7563 PWs)   bands (ev):

    -5.5644  -3.7743  -3.7077  -3.6219  -3.5201  -3.3595  -1.7028  -1.6025
    -1.5504  -1.4303  -0.4073  -0.3270  -0.2007  -0.0791   0.5292   2.5655
     2.6598   2.7071   2.7798   3.5095   3.5634   3.6043   3.6629   3.7378
     3.8935   4.7083   4.8694   4.9270   5.0020   5.0799   5.4111   5.5099
     6.7155   7.3472   7.6953   7.7855   7.9014   8.0205

     occupation numbers 
     1.0000   1.0000   1.0000   1.0000   1.0000   1.0000   1.0000   1.0000
     1.0000   1.0000   1.0000   1.0000   1.0000   1.0000   1.0000   1.0000
     1.0000   1.0000   1.0000   1.0000   1.0000   1.0000   1.0000   1.0000
     1.0000   1.0000   1.0000   1.0000   1.0000   1.0000   1.0000   1.0000
     0.0095   0.0000   0.0000   0.0000   0.0000   0.0000

          k = 0.0000 0.0000 0.3536 (  7563 PWs)   bands (ev):

    -5.5648  -3.8128  -3.7001  -3.6003  -3.4876  -3.3673  -1.7292  -1.6351
    -1.5423  -1.4274  -0.4439  -0.2749  -0.1607  -0.0587   0.4873   2.5971
     2.6576   2.6894   2.7879   3.4608   3.5335   3.6558   3.7058   3.7623
     3.8985   4.6463   4.7707   4.8763   5.0212   5.1478   5.4040   5.5393
     6.7337   7.3499   7.7028   7.8427   7.8883   8.0356

     occupation numbers 
     1.0000   1.0000   1.0000   1.0000   1.0000   1.0000   1.0000   1.0000
     1.0000   1.0000   1.0000   1.0000   1.0000   1.0000   1.0000   1.0000
     1.0000   1.0000   1.0000   1.0000   1.0000   1.0000   1.0000   1.0000
     1.0000   1.0000   1.0000   1.0000   1.0000   1.0000   1.0000   1.0000
     0.0067   0.0000   0.0000   0.0000   0.0000   0.0000

          k = 0.1768 0.5303 0.5303 (  7554 PWs)   bands (ev):

    -5.0985  -4.5701  -4.0715  -3.6809  -3.4837  -2.8948  -2.3705  -2.2615
    -0.8603  -0.6694  -0.4406   0.1767   0.5001   1.3231   1.4620   1.8771
     1.9971   2.0376   2.6821   2.7997   2.9247   3.2023   3.3190   3.4529
     3.8579   3.9394   4.2755   4.3346   4.4098   4.8736   5.0450   5.5930
     7.3192   7.7507   8.0662   8.3226   8.5317   8.6316

     occupation numbers 
     1.0000   1.0000   1.0000   1.0000   1.0000   1.0000   1.0000   1.0000
     1.0000   1.0000   1.0000   1.0000   1.0000   1.0000   1.0000   1.0000
     1.0000   1.0000   1.0000   1.0000   1.0000   1.0000   1.0000   1.0000
     1.0000   1.0000   1.0000   1.0000   1.0000   1.0000   1.0000   1.0000
     0.0000   0.0000   0.0000   0.0000   0.0000   0.0000

          k = 0.1768-0.5303-0.5303 (  7554 PWs)   bands (ev):

    -5.1104  -4.5873  -4.0340  -3.6758  -3.4873  -2.8359  -2.3810  -2.2635
    -0.8781  -0.7216  -0.5531   0.1466   0.4868   1.1519   1.5722   2.0031
     2.1263   2.1690   2.6430   2.7949   3.0496   3.2479   3.3791   3.5469
     3.7854   3.9798   4.1728   4.2803   4.3175   4.7915   4.9983   5.5379
     7.2806   7.7082   8.0687   8.2087   8.3024   8.6086

     occupation numbers 
     1.0000   1.0000   1.0000   1.0000   1.0000   1.0000   1.0000   1.0000
     1.0000   1.0000   1.0000   1.0000   1.0000   1.0000   1.0000   1.0000
     1.0000   1.0000   1.0000   1.0000   1.0000   1.0000   1.0000   1.0000
     1.0000   1.0000   1.0000   1.0000   1.0000   1.0000   1.0000   1.0000
     0.0000   0.0000   0.0000   0.0000   0.0000   0.0000

          k =-0.1768 0.5303-0.5303 (  7554 PWs)   bands (ev):

    -5.1173  -4.5696  -4.0451  -3.6604  -3.5130  -2.8405  -2.4006  -2.2094
    -0.8921  -0.7163  -0.5530   0.2199   0.3571   1.1984   1.5182   2.0002
     2.0985   2.2411   2.6771   2.7709   3.0490   3.2176   3.3042   3.5859
     3.7933   3.9968   4.1750   4.3454   4.4266   4.8066   4.9317   5.4836
     7.2703   7.7004   7.9714   8.2603   8.3592   8.6212

     occupation numbers 
     1.0000   1.0000   1.0000   1.0000   1.0000   1.0000   1.0000   1.0000
     1.0000   1.0000   1.0000   1.0000   1.0000   1.0000   1.0000   1.0000
     1.0000   1.0000   1.0000   1.0000   1.0000   1.0000   1.0000   1.0000
     1.0000   1.0000   1.0000   1.0000   1.0000   1.0000   1.0000   1.0000
     0.0000   0.0000   0.0000   0.0000   0.0000   0.0000

          k =-0.5303-0.1768-0.5303 (  7554 PWs)   bands (ev):

    -5.0909  -4.5851  -4.0434  -3.6678  -3.5498  -2.8868  -2.3366  -2.2591
    -0.8408  -0.7149  -0.4453   0.2576   0.4582   1.2251   1.5482   1.9380
     1.9898   2.0927   2.6379   2.7082   2.9257   3.1345   3.3077   3.3795
     3.8121   4.0321   4.3238   4.3697   4.4598   4.8979   5.1074   5.4903
     7.3743   7.7626   8.0687   8.3192   8.4015   8.6292

     occupation numbers 
     1.0000   1.0000   1.0000   1.0000   1.0000   1.0000   1.0000   1.0000
     1.0000   1.0000   1.0000   1.0000   1.0000   1.0000   1.0000   1.0000
     1.0000   1.0000   1.0000   1.0000   1.0000   1.0000   1.0000   1.0000
     1.0000   1.0000   1.0000   1.0000   1.0000   1.0000   1.0000   1.0000
     0.0000   0.0000   0.0000   0.0000   0.0000   0.0000

          k = 0.5303 0.1768-0.5303 (  7554 PWs)   bands (ev):

    -5.0925  -4.5861  -4.0638  -3.5967  -3.5618  -2.9329  -2.3508  -2.2420
    -0.8526  -0.7278  -0.3377   0.2128   0.3549   1.3415   1.4578   1.8863
     2.0160   2.1326   2.6435   2.7564   3.0037   3.1339   3.2692   3.4546
     3.8355   3.9402   4.3080   4.3546   4.4326   4.8909   5.0964   5.4712
     7.3028   7.6537   8.1458   8.3054   8.5232   8.6788

     occupation numbers 
     1.0000   1.0000   1.0000   1.0000   1.0000   1.0000   1.0000   1.0000
     1.0000   1.0000   1.0000   1.0000   1.0000   1.0000   1.0000   1.0000
     1.0000   1.0000   1.0000   1.0000   1.0000   1.0000   1.0000   1.0000
     1.0000   1.0000   1.0000   1.0000   1.0000   1.0000   1.0000   1.0000
     0.0000   0.0000   0.0000   0.0000   0.0000   0.0000

          k =-0.5303 0.1768 0.5303 (  7554 PWs)   bands (ev):

    -5.1036  -4.5936  -4.0462  -3.6020  -3.5543  -2.8742  -2.3547  -2.2382
    -0.8887  -0.7619  -0.4625   0.2078   0.3205   1.2541   1.5604   1.9931
     2.0888   2.1779   2.7318   2.8189   3.0832   3.1666   3.2051   3.5618
     3.7884   3.8801   4.2059   4.3333   4.4067   4.8622   4.9842   5.4943
     7.2811   7.6464   8.1315   8.2873   8.3672   8.5339

     occupation numbers 
     1.0000   1.0000   1.0000   1.0000   1.0000   1.0000   1.0000   1.0000
     1.0000   1.0000   1.0000   1.0000   1.0000   1.0000   1.0000   1.0000
     1.0000   1.0000   1.0000   1.0000   1.0000   1.0000   1.0000   1.0000
     1.0000   1.0000   1.0000   1.0000   1.0000   1.0000   1.0000   1.0000
     0.0000   0.0000   0.0000   0.0000   0.0000   0.0000

          k = 0.5303-0.1768 0.5303 (  7554 PWs)   bands (ev):

    -5.1123  -4.5717  -4.0352  -3.6603  -3.5595  -2.8141  -2.3545  -2.2436
    -0.8884  -0.7249  -0.5643   0.2632   0.3692   1.1699   1.5479   1.9480
     2.0818   2.1490   2.7954   2.8826   3.0510   3.1572   3.2266   3.6098
     3.7852   3.9763   4.2325   4.2982   4.3761   4.8263   4.9757   5.3998
     7.5093   7.7799   8.0230   8.1951   8.3722   8.5767

     occupation numbers 
     1.0000   1.0000   1.0000   1.0000   1.0000   1.0000   1.0000   1.0000
     1.0000   1.0000   1.0000   1.0000   1.0000   1.0000   1.0000   1.0000
     1.0000   1.0000   1.0000   1.0000   1.0000   1.0000   1.0000   1.0000
     1.0000   1.0000   1.0000   1.0000   1.0000   1.0000   1.0000   1.0000
     0.0000   0.0000   0.0000   0.0000   0.0000   0.0000

          k = 0.5303 0.5303-0.1768 (  7554 PWs)   bands (ev):

    -5.0975  -4.5743  -4.0506  -3.6598  -3.5638  -2.8080  -2.3802  -2.3015
    -0.8115  -0.7164  -0.5209   0.3241   0.4974   1.1904   1.4700   1.9241
     1.9676   2.1700   2.6693   2.7884   2.9541   3.1696   3.3026   3.4510
     3.7773   4.0442   4.1811   4.2820   4.4288   4.9298   5.0162   5.5354
     7.5028   7.8012   8.1025   8.2516   8.4106   8.5733

     occupation numbers 
     1.0000   1.0000   1.0000   1.0000   1.0000   1.0000   1.0000   1.0000
     1.0000   1.0000   1.0000   1.0000   1.0000   1.0000   1.0000   1.0000
     1.0000   1.0000   1.0000   1.0000   1.0000   1.0000   1.0000   1.0000
     1.0000   1.0000   1.0000   1.0000   1.0000   1.0000   1.0000   1.0000
     0.0000   0.0000   0.0000   0.0000   0.0000   0.0000

          k =-0.5303 0.5303 0.1768 (  7554 PWs)   bands (ev):

    -5.1011  -4.6121  -4.0168  -3.6465  -3.4852  -2.9347  -2.3548  -2.2172
    -0.9287  -0.7829  -0.3195   0.1005   0.3095   1.2830   1.6097   2.0162
     2.0804   2.1784   2.6951   2.8302   3.0167   3.1321   3.2143   3.5832
     3.7995   3.9130   4.1916   4.3418   4.4606   4.8245   5.1310   5.2937
     7.3129   7.5542   8.0844   8.2977   8.4061   8.5672

     occupation numbers 
     1.0000   1.0000   1.0000   1.0000   1.0000   1.0000   1.0000   1.0000
     1.0000   1.0000   1.0000   1.0000   1.0000   1.0000   1.0000   1.0000
     1.0000   1.0000   1.0000   1.0000   1.0000   1.0000   1.0000   1.0000
     1.0000   1.0000   1.0000   1.0000   1.0000   1.0000   1.0000   1.0000
     0.0000   0.0000   0.0000   0.0000   0.0000   0.0000

          k = 0.5303-0.5303 0.1768 (  7554 PWs)   bands (ev):

    -5.1105  -4.5851  -4.0404  -3.6438  -3.4919  -2.9462  -2.3221  -2.2036
    -0.9299  -0.7984  -0.3579   0.1306   0.3183   1.2592   1.5726   1.9900
     2.0870   2.2193   2.6858   2.7747   3.1180   3.1581   3.2085   3.5428
     3.8461   3.8589   4.2538   4.3526   4.4766   4.8506   5.0156   5.3587
     7.2101   7.6732   8.0880   8.2752   8.4197   8.5952

     occupation numbers 
     1.0000   1.0000   1.0000   1.0000   1.0000   1.0000   1.0000   1.0000
     1.0000   1.0000   1.0000   1.0000   1.0000   1.0000   1.0000   1.0000
     1.0000   1.0000   1.0000   1.0000   1.0000   1.0000   1.0000   1.0000
     1.0000   1.0000   1.0000   1.0000   1.0000   1.0000   1.0000   1.0000
     0.0000   0.0000   0.0000   0.0000   0.0000   0.0000

          k =-0.5303-0.5303-0.1768 (  7554 PWs)   bands (ev):

    -5.0964  -4.5668  -4.0648  -3.6565  -3.5684  -2.8330  -2.3531  -2.2771
    -0.8069  -0.7575  -0.5421   0.3923   0.5103   1.2491   1.4103   1.8977
     1.9534   2.0973   2.7327   2.8436   2.9393   3.1911   3.2691   3.3875
     3.8020   3.9472   4.1412   4.3276   4.4649   4.9368   5.0376   5.6266
     7.4850   7.8693   8.0797   8.2896   8.4526   8.5594

     occupation numbers 
     1.0000   1.0000   1.0000   1.0000   1.0000   1.0000   1.0000   1.0000
     1.0000   1.0000   1.0000   1.0000   1.0000   1.0000   1.0000   1.0000
     1.0000   1.0000   1.0000   1.0000   1.0000   1.0000   1.0000   1.0000
     1.0000   1.0000   1.0000   1.0000   1.0000   1.0000   1.0000   1.0000
     0.0000   0.0000   0.0000   0.0000   0.0000   0.0000

          k = 0.0000 0.3536 0.3536 (  7592 PWs)   bands (ev):

    -5.2964  -4.3668  -4.1810  -3.3407  -3.1235  -2.9264  -2.8871  -2.0416
    -1.0942  -0.7645  -0.5799   0.1084   0.4136   0.7734   0.9732   1.7477
     2.5509   2.6161   2.7924   2.8252   3.3139   3.4009   3.5052   3.7356
     3.9818   4.1437   4.2535   4.4025   4.4806   4.5909   4.8813   6.0127
     7.0954   7.7679   8.0033   8.1684   8.2804   8.3987

     occupation numbers 
     1.0000   1.0000   1.0000   1.0000   1.0000   1.0000   1.0000   1.0000
     1.0000   1.0000   1.0000   1.0000   1.0000   1.0000   1.0000   1.0000
     1.0000   1.0000   1.0000   1.0000   1.0000   1.0000   1.0000   1.0000
     1.0000   1.0000   1.0000   1.0000   1.0000   1.0000   1.0000   0.9942
     0.0000   0.0000   0.0000   0.0000   0.0000   0.0000

          k =-0.3536 0.0000-0.3536 (  7592 PWs)   bands (ev):

    -5.3012  -4.2853  -4.2497  -3.3829  -3.1906  -2.8985  -2.7882  -2.0393
    -1.1059  -0.7955  -0.5872   0.2007   0.3367   0.7788   0.9469   1.7800
     2.4262   2.5843   2.8253   2.9193   3.3287   3.3930   3.4969   3.7819
     3.9625   4.1070   4.2855   4.4174   4.5944   4.6492   4.7726   5.8762
     7.2599   7.8859   7.9753   8.1056   8.2416   8.3984

     occupation numbers 
     1.0000   1.0000   1.0000   1.0000   1.0000   1.0000   1.0000   1.0000
     1.0000   1.0000   1.0000   1.0000   1.0000   1.0000   1.0000   1.0000
     1.0000   1.0000   1.0000   1.0000   1.0000   1.0000   1.0000   1.0000
     1.0000   1.0000   1.0000   1.0000   1.0000   1.0000   1.0000   0.9997
     0.0000   0.0000   0.0000   0.0000   0.0000   0.0000

          k = 0.3536 0.0000-0.3536 (  7592 PWs)   bands (ev):

    -5.2992  -4.3041  -4.2562  -3.2318  -3.2095  -2.9503  -2.8551  -2.0753
    -1.1093  -0.7049  -0.5598   0.1619   0.2143   0.8375   0.9699   1.7796
     2.5967   2.6323   2.7986   2.8258   3.3012   3.3837   3.4733   3.8235
     3.9664   4.0362   4.2828   4.4226   4.5253   4.6913   4.7549   5.9490
     7.0212   7.7327   7.8599   8.2277   8.3515   8.5283

     occupation numbers 
     1.0000   1.0000   1.0000   1.0000   1.0000   1.0000   1.0000   1.0000
     1.0000   1.0000   1.0000   1.0000   1.0000   1.0000   1.0000   1.0000
     1.0000   1.0000   1.0000   1.0000   1.0000   1.0000   1.0000   1.0000
     1.0000   1.0000   1.0000   1.0000   1.0000   1.0000   1.0000   0.9985
     0.0000   0.0000   0.0000   0.0000   0.0000   0.0000

          k = 0.3536 0.3536 0.0000 (  7592 PWs)   bands (ev):

    -5.2914  -4.3217  -4.2101  -3.3470  -3.2140  -2.9543  -2.8737  -1.9364
    -1.1828  -0.6343  -0.5815   0.2430   0.4265   0.7897   0.8795   1.7010
     2.4263   2.5023   2.7848   2.8625   3.2598   3.3350   3.3723   3.8321
     4.0611   4.1098   4.2934   4.3761   4.4781   4.7019   4.9252   6.0628
     7.2620   7.8742   7.9707   8.2544   8.3152   8.4403

     occupation numbers 
     1.0000   1.0000   1.0000   1.0000   1.0000   1.0000   1.0000   1.0000
     1.0000   1.0000   1.0000   1.0000   1.0000   1.0000   1.0000   1.0000
     1.0000   1.0000   1.0000   1.0000   1.0000   1.0000   1.0000   1.0000
     1.0000   1.0000   1.0000   1.0000   1.0000   1.0000   1.0000   0.9853
     0.0000   0.0000   0.0000   0.0000   0.0000   0.0000

          k =-0.3536 0.3536 0.0000 (  7592 PWs)   bands (ev):

    -5.3085  -4.3365  -4.2168  -3.3061  -3.1526  -2.9101  -2.7837  -2.1258
    -1.0072  -0.8000  -0.7039   0.0291   0.2548   0.8949   0.9581   1.8461
     2.6108   2.7093   2.8183   2.9104   3.3731   3.4526   3.5831   3.7551
     3.9634   4.0340   4.3194   4.4077   4.5140   4.5966   4.7193   5.7085
     7.0485   7.7553   7.8766   8.0984   8.2961   8.4154

     occupation numbers 
     1.0000   1.0000   1.0000   1.0000   1.0000   1.0000   1.0000   1.0000
     1.0000   1.0000   1.0000   1.0000   1.0000   1.0000   1.0000   1.0000
     1.0000   1.0000   1.0000   1.0000   1.0000   1.0000   1.0000   1.0000
     1.0000   1.0000   1.0000   1.0000   1.0000   1.0000   1.0000   1.0000
     0.0000   0.0000   0.0000   0.0000   0.0000   0.0000

          k = 0.0000-0.7071 0.0000 (  7528 PWs)   bands (ev):

    -4.7793  -4.7384  -3.9156  -3.8038  -3.7474  -3.6038  -1.6035  -1.5236
    -1.4178  -1.3211   0.5948   0.6255   0.6614   0.7372   2.0367   2.0990
     2.1922   2.2940   2.3101   2.4047   2.4693   2.5248   2.7274   2.7520
     4.2110   4.2929   4.2982   4.3602   4.8688   4.9326   4.9772   5.0370
     7.1202   7.2797   8.1934   8.2996   8.3881   8.4388

     occupation numbers 
     1.0000   1.0000   1.0000   1.0000   1.0000   1.0000   1.0000   1.0000
     1.0000   1.0000   1.0000   1.0000   1.0000   1.0000   1.0000   1.0000
     1.0000   1.0000   1.0000   1.0000   1.0000   1.0000   1.0000   1.0000
     1.0000   1.0000   1.0000   1.0000   1.0000   1.0000   1.0000   1.0000
     0.0000   0.0000   0.0000   0.0000   0.0000   0.0000

          k = 0.0000 0.0000-0.7071 (  7528 PWs)   bands (ev):

    -4.8126  -4.7069  -3.9005  -3.8316  -3.7125  -3.6152  -1.6056  -1.5327
    -1.4122  -1.3500   0.4443   0.6659   0.6974   0.8755   2.0669   2.1103
     2.2424   2.2770   2.3231   2.4101   2.4490   2.4765   2.7132   2.7456
     4.1574   4.1864   4.2935   4.4514   4.7637   4.8987   4.9494   5.1981
     7.1498   7.2489   8.1764   8.2559   8.3577   8.6240

     occupation numbers 
     1.0000   1.0000   1.0000   1.0000   1.0000   1.0000   1.0000   1.0000
     1.0000   1.0000   1.0000   1.0000   1.0000   1.0000   1.0000   1.0000
     1.0000   1.0000   1.0000   1.0000   1.0000   1.0000   1.0000   1.0000
     1.0000   1.0000   1.0000   1.0000   1.0000   1.0000   1.0000   1.0000
     0.0000   0.0000   0.0000   0.0000   0.0000   0.0000

          k = 0.3536-0.7071 0.0000 (  7564 PWs)   bands (ev):

    -4.6190  -4.5480  -4.4812  -4.3510  -2.8949  -2.7061  -2.6294  -2.4489
    -0.5957  -0.4392  -0.3887  -0.2076   1.5756   1.7044   1.7597   1.8002
     1.9385   1.9666   2.0344   2.1997   3.1812   3.2782   3.3769   3.4944
     3.5705   3.6112   3.6751   3.8352   4.6262   4.7876   4.8488   5.0174
     8.1929   8.3293   8.5045   8.6083   8.6591   8.7281

     occupation numbers 
     1.0000   1.0000   1.0000   1.0000   1.0000   1.0000   1.0000   1.0000
     1.0000   1.0000   1.0000   1.0000   1.0000   1.0000   1.0000   1.0000
     1.0000   1.0000   1.0000   1.0000   1.0000   1.0000   1.0000   1.0000
     1.0000   1.0000   1.0000   1.0000   1.0000   1.0000   1.0000   1.0000
     0.0000   0.0000   0.0000   0.0000   0.0000   0.0000

          k = 0.7071 0.0000 0.3536 (  7564 PWs)   bands (ev):

    -4.6562  -4.5129  -4.4688  -4.3632  -2.8154  -2.7206  -2.6337  -2.5215
    -0.4773  -0.4363  -0.3954  -0.3240   1.6091   1.6836   1.7600   1.8367
     1.8945   1.9892   2.0355   2.1162   3.2226   3.3122   3.4193   3.4929
     3.5302   3.6483   3.7130   3.8159   4.7329   4.7593   4.8388   4.8978
     8.2889   8.4424   8.4721   8.5314   8.6558   8.7554

     occupation numbers 
     1.0000   1.0000   1.0000   1.0000   1.0000   1.0000   1.0000   1.0000
     1.0000   1.0000   1.0000   1.0000   1.0000   1.0000   1.0000   1.0000
     1.0000   1.0000   1.0000   1.0000   1.0000   1.0000   1.0000   1.0000
     1.0000   1.0000   1.0000   1.0000   1.0000   1.0000   1.0000   1.0000
     0.0000   0.0000   0.0000   0.0000   0.0000   0.0000

     the Fermi energy is     6.3770 ev

!    total energy              =    -152.86146531 Ry
     Harris-Foulkes estimate   =    -152.86146531 Ry
     estimated scf accuracy    <          1.7E-10 Ry

     The total energy is the sum of the following terms:

     one-electron contribution =      41.53333975 Ry
     hartree contribution      =       8.41965736 Ry
     xc contribution           =     -68.06579021 Ry
     ewald contribution        =    -134.74805819 Ry
     smearing contrib. (-TS)   =      -0.00061402 Ry

     convergence has been achieved in  13 iterations

     Forces acting on atoms (Ry/au):

     atom    1 type  1   force =  -0.41313973E-01  0.15266720E-01 -0.24336070E-01
     atom    2 type  1   force =  -0.59391224E-01  0.39420355E-01 -0.50573921E-02
     atom    3 type  1   force =   0.18152090E-02 -0.29210776E-01 -0.20261621E-01
     atom    4 type  1   force =   0.15140786E-01 -0.11865093E-01  0.36068163E-01
     atom    5 type  1   force =   0.33674978E-01 -0.60380579E-01  0.11433917E-02
     atom    6 type  1   force =   0.46718950E-01 -0.18005021E-01  0.48050380E-01
     atom    7 type  1   force =   0.23154038E-01  0.35146476E-01 -0.61830584E-01
     atom    8 type  1   force =  -0.11685484E-01  0.23500798E-01  0.49719446E-02
     atom    9 type  1   force =  -0.83379889E-02 -0.35014242E-01 -0.21796660E-01
     atom   10 type  1   force =   0.23405531E-01  0.13460764E-01 -0.12632692E-01
     atom   11 type  1   force =  -0.22870676E-01 -0.29615047E-02 -0.90764199E-02
     atom   12 type  1   force =  -0.38349224E-03  0.37819457E-01 -0.39908510E-02
     atom   13 type  1   force =   0.31446596E-01  0.12288401E-01 -0.67232778E-02
     atom   14 type  1   force =  -0.34336168E-01 -0.88007801E-02  0.51707154E-01
     atom   15 type  1   force =   0.52772831E-02  0.14358141E-01 -0.42657409E-02
     atom   16 type  1   force =  -0.23143640E-02 -0.25023115E-01  0.28030275E-01
     The non-local contrib.  to forces
     atom    1 type  1   force =  -0.51177301E-01  0.45086351E-01 -0.26474848E-01
     atom    2 type  1   force =  -0.56914289E-01  0.45337092E-01 -0.15552125E-01
     atom    3 type  1   force =  -0.47061955E-03 -0.20131900E-01 -0.24639774E-01
     atom    4 type  1   force =   0.21805675E-01 -0.20788021E-01  0.30067605E-01
     atom    5 type  1   force =   0.26241396E-01 -0.84307527E-01  0.11128821E-01
     atom    6 type  1   force =   0.49189278E-01 -0.29204973E-01  0.59620262E-01
     atom    7 type  1   force =   0.33203092E-01  0.32775113E-01 -0.40878513E-01
     atom    8 type  1   force =  -0.55424348E-02  0.11910767E-01 -0.19215306E-01
     atom    9 type  1   force =  -0.11671920E-01 -0.32728511E-01 -0.27549117E-01
     atom   10 type  1   force =   0.23074111E-01  0.19264335E-01 -0.17363395E-01
     atom   11 type  1   force =  -0.30678328E-01 -0.99505306E-03 -0.35813606E-02
     atom   12 type  1   force =   0.27959436E-02  0.37603875E-01 -0.46248641E-03
     atom   13 type  1   force =   0.40458354E-01  0.12257877E-01  0.11501321E-01
     atom   14 type  1   force =  -0.48128055E-01 -0.15125121E-01  0.42695723E-01
     atom   15 type  1   force =   0.25025831E-01  0.16221740E-01 -0.11583960E-02
     atom   16 type  1   force =  -0.14491771E-01 -0.18661619E-01  0.23259544E-01
     The ionic contribution  to forces
     atom    1 type  1   force =  -0.17870940E+00  0.33403198E+00 -0.48654225E-01
     atom    2 type  1   force =  -0.13771379E+00  0.26862675E+00 -0.64847075E-01
     atom    3 type  1   force =   0.16182446E+00  0.44776791E-01 -0.13926502E+00
     atom    4 type  1   force =   0.15193695E+00  0.51925372E-01  0.11796075E+00
     atom    5 type  1   force =   0.14834108E+00 -0.43358578E+00 -0.79030425E-01
     atom    6 type  1   force =   0.20735779E-01 -0.27330217E+00  0.32955077E+00
     atom    7 type  1   force =  -0.49475876E-01  0.23652444E-02  0.30052338E-01
     atom    8 type  1   force =   0.10090500E+00 -0.17444548E+00 -0.18524646E+00
     atom    9 type  1   force =  -0.19304129E+00 -0.32566469E-01 -0.14883271E+00
     atom   10 type  1   force =  -0.72927691E-01  0.18781468E+00 -0.12953748E+00
     atom   11 type  1   force =  -0.10383818E+00  0.59503348E-01 -0.56299553E-01
     atom   12 type  1   force =   0.14643840E-01  0.57558245E-01 -0.86809689E-01
     atom   13 type  1   force =   0.40859356E-01  0.77687204E-01  0.18982982E+00
     atom   14 type  1   force =  -0.53808697E-01 -0.12648357E+00  0.47313349E-01
     atom   15 type  1   force =   0.25520359E+00 -0.78246637E-02 -0.84201845E-02
     atom   16 type  1   force =  -0.10493514E+00 -0.36081481E-01  0.23223579E+00
     The local contribution  to forces
     atom    1 type  1   force =   0.18405952E+00 -0.35858652E+00  0.48600100E-01
     atom    2 type  1   force =   0.13072280E+00 -0.26947665E+00  0.74035204E-01
     atom    3 type  1   force =  -0.15860361E+00 -0.55237402E-01  0.14123463E+00
     atom    4 type  1   force =  -0.15594519E+00 -0.44666366E-01 -0.10890262E+00
     atom    5 type  1   force =  -0.13844064E+00  0.44893175E+00  0.69299478E-01
     atom    6 type  1   force =  -0.20178260E-01  0.28090965E+00 -0.33490957E+00
     atom    7 type  1   force =   0.41251943E-01  0.25929762E-02 -0.53834930E-01
     atom    8 type  1   force =  -0.10705935E+00  0.18615001E+00  0.20696285E+00
     atom    9 type  1   force =   0.19499772E+00  0.27372001E-01  0.15190491E+00
     atom   10 type  1   force =   0.74918398E-01 -0.19142249E+00  0.13254403E+00
     atom   11 type  1   force =   0.10860938E+00 -0.61537514E-01  0.50395830E-01
     atom   12 type  1   force =  -0.17258347E-01 -0.54379997E-01  0.83314833E-01
     atom   13 type  1   force =  -0.46976030E-01 -0.76154978E-01 -0.20659708E+00
     atom   14 type  1   force =   0.63452861E-01  0.13137519E+00 -0.35378321E-01
     atom   15 type  1   force =  -0.27121254E+00  0.72590138E-02  0.48320783E-02
     atom   16 type  1   force =   0.11511868E+00  0.28245262E-01 -0.22473259E+00
     The core correction contribution to forces
     atom    1 type  1   force =   0.45123073E-02 -0.52652885E-02  0.21926170E-02
     atom    2 type  1   force =   0.45128981E-02 -0.50645644E-02  0.13068096E-02
     atom    3 type  1   force =  -0.93276030E-03  0.13820210E-02  0.24097156E-02
     atom    4 type  1   force =  -0.26579871E-02  0.16645782E-02 -0.30565915E-02
     atom    5 type  1   force =  -0.24661509E-02  0.85799559E-02 -0.25470427E-03
     atom    6 type  1   force =  -0.30283647E-02  0.35917971E-02 -0.62090720E-02
     atom    7 type  1   force =  -0.18264001E-02 -0.25863479E-02  0.28288017E-02
     atom    8 type  1   force =   0.11935549E-04 -0.11371546E-03  0.24708533E-02
     atom    9 type  1   force =   0.13779952E-02  0.29091427E-02  0.26807628E-02
     atom   10 type  1   force =  -0.16585629E-02 -0.21951723E-02  0.17223424E-02
     atom   11 type  1   force =   0.30357983E-02  0.66068119E-04  0.40886375E-03
     atom   12 type  1   force =  -0.56455787E-03 -0.29625829E-02 -0.34248182E-04
     atom   13 type  1   force =  -0.28961845E-02 -0.15009173E-02 -0.14578461E-02
     atom   14 type  1   force =   0.41476926E-02  0.14322292E-02 -0.29232547E-02
     atom   15 type  1   force =  -0.37391055E-02 -0.12958861E-02  0.48127116E-03
     atom   16 type  1   force =   0.19940217E-02  0.14731422E-02 -0.27326973E-02
     The Hubbard contrib.    to forces
     atom    1 type  1   force =   0.00000000E+00  0.00000000E+00  0.00000000E+00
     atom    2 type  1   force =   0.00000000E+00  0.00000000E+00  0.00000000E+00
     atom    3 type  1   force =   0.00000000E+00  0.00000000E+00  0.00000000E+00
     atom    4 type  1   force =   0.00000000E+00  0.00000000E+00  0.00000000E+00
     atom    5 type  1   force =   0.00000000E+00  0.00000000E+00  0.00000000E+00
     atom    6 type  1   force =   0.00000000E+00  0.00000000E+00  0.00000000E+00
     atom    7 type  1   force =   0.00000000E+00  0.00000000E+00  0.00000000E+00
     atom    8 type  1   force =   0.00000000E+00  0.00000000E+00  0.00000000E+00
     atom    9 type  1   force =   0.00000000E+00  0.00000000E+00  0.00000000E+00
     atom   10 type  1   force =   0.00000000E+00  0.00000000E+00  0.00000000E+00
     atom   11 type  1   force =   0.00000000E+00  0.00000000E+00  0.00000000E+00
     atom   12 type  1   force =   0.00000000E+00  0.00000000E+00  0.00000000E+00
     atom   13 type  1   force =   0.00000000E+00  0.00000000E+00  0.00000000E+00
     atom   14 type  1   force =   0.00000000E+00  0.00000000E+00  0.00000000E+00
     atom   15 type  1   force =   0.00000000E+00  0.00000000E+00  0.00000000E+00
     atom   16 type  1   force =   0.00000000E+00  0.00000000E+00  0.00000000E+00
     The SCF correction term to forces
     atom    1 type  1   force =   0.81587090E-06  0.39453487E-06  0.31256228E-06
     atom    2 type  1   force =   0.10775919E-05 -0.20732026E-05 -0.17868420E-06
     atom    3 type  1   force =  -0.23402503E-05 -0.88481045E-07 -0.11443263E-05
     atom    4 type  1   force =   0.12532205E-05 -0.45889837E-06 -0.95780541E-06
     atom    5 type  1   force =  -0.79280287E-06  0.12160534E-05  0.24891428E-06
     atom    6 type  1   force =   0.43917565E-06  0.87247401E-06 -0.19808656E-05
     atom    7 type  1   force =   0.11986260E-05 -0.31227174E-06  0.17457899E-05
     atom    8 type  1   force =  -0.71385147E-06 -0.58666543E-06  0.37538443E-07
     atom    9 type  1   force =  -0.57761494E-06 -0.20783806E-06 -0.47980995E-06
     atom   10 type  1   force =  -0.80422210E-06 -0.38781028E-06  0.18330948E-05
     atom   11 type  1   force =   0.57546031E-06  0.18445990E-05 -0.17384608E-06
     atom   12 type  1   force =  -0.45040799E-06  0.11472337E-06  0.76618876E-06
     atom   13 type  1   force =   0.10205136E-05 -0.58643390E-06  0.53054957E-06
     atom   14 type  1   force =  -0.50158251E-07  0.69698175E-06 -0.31659753E-06
     atom   15 type  1   force =  -0.57508791E-06 -0.18653434E-05 -0.48345139E-06
     atom   16 type  1   force =  -0.24180776E-06  0.17784430E-05  0.25366357E-06

     Total force =     0.194900     Total SCF correction =     0.000007


     entering subroutine stress ...

          total   stress  (Ry/bohr**3)                   (kbar)     P=   -9.63
  -0.0001037435   0.0000655354   0.0000210980        -15.26      9.64      3.10
   0.0000655354  -0.0000360448  -0.0000166883          9.64     -5.30     -2.45
   0.0000210980  -0.0000166883  -0.0000567036          3.10     -2.45     -8.34

     kinetic stress (kbar)   2175.25    -13.99      0.83
                              -13.99   2178.11     -2.74
                                0.83     -2.74   2178.32

     local   stress (kbar)   -244.13   -139.67      9.58
                             -139.67   -280.74    -21.63
                                9.58    -21.63   -272.86

     nonloc. stress (kbar)   1933.33     12.56     -0.96
                               12.56   1935.42     -0.42
                               -0.96     -0.42   1933.22

     hartree stress (kbar)    185.92     19.18     -1.82
                               19.18    193.30      5.38
                               -1.82      5.38    193.49

     exc-cor stress (kbar)    996.41      0.18     -0.01
                                0.18    996.44      0.02
                               -0.01      0.02    996.44

     corecor stress (kbar)  -1987.00     -1.51      0.12
                               -1.51  -1987.26      0.03
                                0.12      0.03  -1986.99

     ewald   stress (kbar)  -3075.04    132.90     -4.64
                              132.90  -3040.57     16.91
                               -4.64     16.91  -3049.96

     hubbard stress (kbar)      0.00      0.00      0.00
                                0.00      0.00      0.00
                                0.00      0.00      0.00

     london  stress (kbar)      0.00      0.00      0.00
                                0.00      0.00      0.00
                                0.00      0.00      0.00

     XDM     stress (kbar)      0.00      0.00      0.00
                                0.00      0.00      0.00
                                0.00      0.00      0.00

     dft-nl  stress (kbar)      0.00      0.00      0.00
                                0.00      0.00      0.00
                                0.00      0.00      0.00



     Writing output data file Si_diamond.scf.in.super.222.replace5596.save

     init_run     :      8.08s CPU      7.81s WALL (       1 calls)
     electrons    :    261.26s CPU    248.77s WALL (       1 calls)
     forces       :      3.73s CPU      2.95s WALL (       1 calls)
     stress       :      4.73s CPU      4.66s WALL (       1 calls)

     Called by init_run:
     wfcinit      :      7.62s CPU      7.33s WALL (       1 calls)
     potinit      :      0.07s CPU      0.08s WALL (       1 calls)

     Called by electrons:
     c_bands      :    225.06s CPU    214.09s WALL (      14 calls)
     sum_band     :     32.90s CPU     31.30s WALL (      14 calls)
     v_of_rho     :      0.56s CPU      0.59s WALL (      14 calls)
     v_h          :      0.03s CPU      0.03s WALL (      14 calls)
     v_xc         :      0.61s CPU      0.64s WALL (      16 calls)
     newd         :      2.46s CPU      2.48s WALL (      14 calls)
     mix_rho      :      0.42s CPU      0.43s WALL (      14 calls)

     Called by c_bands:
     init_us_2    :      2.74s CPU      2.81s WALL (    1116 calls)
     cegterg      :    215.67s CPU    204.32s WALL (     504 calls)

     Called by sum_band:
     sum_band:bec :      0.47s CPU      0.44s WALL (     504 calls)
     addusdens    :      3.02s CPU      3.05s WALL (      14 calls)

     Called by *egterg:
     h_psi        :    136.58s CPU    134.66s WALL (    2005 calls)
     s_psi        :     20.11s CPU     14.13s WALL (    2005 calls)
     g_psi        :      0.23s CPU      0.24s WALL (    1465 calls)
     cdiaghg      :     21.69s CPU     21.88s WALL (    1933 calls)
     cegterg:over :     19.12s CPU     17.68s WALL (    1465 calls)
     cegterg:upda :      7.14s CPU      5.46s WALL (    1465 calls)
     cegterg:last :      4.49s CPU      3.10s WALL (     538 calls)

     Called by h_psi:
     h_psi:vloc   :     84.35s CPU     94.78s WALL (    2005 calls)
     h_psi:vnl    :     52.13s CPU     39.72s WALL (    2005 calls)
     add_vuspsi   :     22.46s CPU     15.74s WALL (    2005 calls)

     General routines
     calbec       :     41.79s CPU     33.85s WALL (    2581 calls)
     fft          :      0.76s CPU      0.80s WALL (     249 calls)
     ffts         :      0.31s CPU      0.31s WALL (     238 calls)
     fftw         :     96.43s CPU    106.59s WALL (  120426 calls)
     interpolate  :      0.11s CPU      0.13s WALL (      28 calls)

     Parallel routines
     fft_scatter  :     52.29s CPU     58.22s WALL (  120913 calls)

     PWSCF        :  4m38.91s CPU     4m25.71s WALL


   This run was terminated on:  10:34:46  14Mar2018            

=------------------------------------------------------------------------------=
   JOB DONE.
=------------------------------------------------------------------------------=
