
     Program PWSCF v.5.1 starts on 14Mar2018 at 11:13:21 

     This program is part of the open-source Quantum ESPRESSO suite
     for quantum simulation of materials; please cite
         "P. Giannozzi et al., J. Phys.:Condens. Matter 21 395502 (2009);
          URL http://www.quantum-espresso.org", 
     in publications or presentations arising from this work. More details at
     http://www.quantum-espresso.org/quote

     Parallel version (MPI), running on    16 processors
     R & G space division:  proc/nbgrp/npool/nimage =      16
     Waiting for input...
     Reading input from standard input
Warning: card &IONS ignored
Warning: card   ION_DYNAMICS='BFGS', ignored
Warning: card / ignored
Warning: card &CELL ignored
Warning: card  CELL_DYNAMICS = 'BFGS' ignored
Warning: card / ignored

     Current dimensions of program PWSCF are:
     Max number of different atomic species (ntypx) = 10
     Max number of k-points (npk) =  40000
     Max angular momentum in pseudopotentials (lmaxx) =  3
 kfg - two_fermi_energies  F

     Subspace diagonalization in iterative solution of the eigenvalue problem:
     a serial algorithm will be used


     Parallelization info
     --------------------
     sticks:   dense  smooth     PW     G-vecs:    dense   smooth      PW
     Min         181     128     35                 6459     3770     554
     Max         182     129     38                 6463     3791     555
     Sum        2905    2053    571               103379    60495    8873



     bravais-lattice index     =            0
     lattice parameter (alat)  =    14.515605984  a.u.
     unit-cell volume          =    2162.6713 (a.u.)^3
     number of atoms/cell      =           16
     number of atomic types    =            1
     number of electrons       =        64.00
     number of Kohn-Sham states=           38
     kinetic-energy cutoff     =      35.0000  Ry
     charge density cutoff     =     200.0000  Ry
     convergence threshold     =      1.0E-09
     mixing beta               =       0.3000
     number of iterations used =            8  local-TF  mixing
     Exchange-correlation      = SLA  PW   PSX  PSC ( 1  4 10  8 0)
     A smooth kinetic-energy cutoff is imposed at      34.5000 Ry
     height of the smooth step-function =             800.0000 Ry
     width of the smooth step-function  =               1.0000 Ry


     celldm(1)=  14.515606  celldm(2)=   0.000000  celldm(3)=   0.000000
     celldm(4)=   0.000000  celldm(5)=   0.000000  celldm(6)=   0.000000

     crystal axes: (cart. coord. in units of alat)
               a(1) = (  -0.000000000000   0.707106781187   0.707106781187 )  
               a(2) = (   0.707106781187  -0.000000000000   0.707106781187 )  
               a(3) = (   0.707106781187   0.707106781187   0.000000000000 )  

     reciprocal axes: (cart. coord. in units 2 pi/alat)
               b(1) = ( -0.707107  0.707107  0.707107 )  
               b(2) = (  0.707107 -0.707107  0.707107 )  
               b(3) = (  0.707107  0.707107 -0.707107 )  


     PseudoPot. # 1 for Si read from file:
     /users/kfg/psuedo/gbrv_1.5/si.pbesol.UPF
     MD5 check sum: ef58ba74faed4df802eb8a9742fc00a8
     Pseudo is Ultrasoft + core correction, Zval =  4.0
     Generated by new atomic code, or converted to UPF format
     Using radial grid of  899 points,  6 beta functions with: 
                l(1) =   0
                l(2) =   0
                l(3) =   1
                l(4) =   1
                l(5) =   2
                l(6) =   2
     Q(r) pseudized with  8 coefficients,  rinner =    0.900   0.900   0.900
                                                       0.900   0.900

     atomic species   valence    mass     pseudopotential
        Si             4.00    28.08550     Si( 1.00)

     No symmetry found


                                    s                        frac. trans.

      isym =  1     identity                                     

 cryst.   s( 1) = (     1          0          0      )
                  (     0          1          0      )
                  (     0          0          1      )

 cart.    s( 1) = (  1.0000000  0.0000000  0.0000000 )
                  (  0.0000000  1.0000000  0.0000000 )
                  (  0.0000000  0.0000000  1.0000000 )


     point group C_1 (1)    
     there are  1 classes
     the character table:

       E    
A      1.00

     the symmetry operations in each class:
     E        1

   Cartesian axes

     site n.     atom                  positions (alat units)
         1           Si  tau(   1) = (   -0.01779089969    0.00838326797    0.00522663259  )
         2           Si  tau(   2) = (    0.15200388447    0.12090314078    0.23100706195  )
         3           Si  tau(   3) = (    0.33750702637    0.29804018027    0.00373334718  )
         4           Si  tau(   4) = (    0.49116529879    0.52331825938    0.16570389668  )
         5           Si  tau(   5) = (    0.37311077785   -0.04895042830    0.37695564047  )
         6           Si  tau(   6) = (    0.51401363228    0.18955109702    0.52211085691  )
         7           Si  tau(   7) = (    0.68582199130    0.36046489415    0.34909707333  )
         8           Si  tau(   8) = (    0.89530524502    0.51292219427    0.55790836230  )
         9           Si  tau(   9) = (    0.04581905490    0.39520881993    0.30408106195  )
        10           Si  tau(  10) = (    0.19046755068    0.53187180900    0.53536172580  )
        11           Si  tau(  11) = (    0.35646609046    0.71606244252    0.35499412053  )
        12           Si  tau(  12) = (    0.56148980410    0.94298008012    0.50557479633  )
        13           Si  tau(  13) = (    0.34599454235    0.33881996331    0.72452424317  )
        14           Si  tau(  14) = (    0.54062866822    0.55409549311    0.84459702844  )
        15           Si  tau(  15) = (    0.71701416350    0.73477601880    0.68154843322  )
        16           Si  tau(  16) = (    0.88205098126    0.89262057954    0.90864353100  )

   Crystallographic axes

     site n.     atom                  positions (cryst. coord.)
         1           Si  tau(   1) = (    0.02220371879   -0.01481214410   -0.01034798753  )
         2           Si  tau(   2) = (    0.14135511325    0.18533820677    0.02962774818  )
         3           Si  tau(   3) = (   -0.02526739940    0.03054714961    0.44675986447  )
         4           Si  tau(   4) = (    0.13990592548    0.09443477254    0.60017785437  )
         5           Si  tau(   5) = (   -0.03189445136    0.56499023053   -0.03733190823  )
         6           Si  tau(   6) = (    0.13975846853    0.59861778637    0.12830726364  )
         7           Si  tau(   7) = (    0.01678669814    0.47691111755    0.49298764393  )
         8           Si  tau(   8) = (    0.12411513806    0.66488643446    0.60126638551  )
         9           Si  tau(   9) = (    0.46207365306   -0.03203809119    0.09683602005  )
        10           Si  tau(  10) = (    0.61996717289    0.13714864052    0.13221315284  )
        11           Si  tau(  11) = (    0.50529176894   -0.00325426912    0.50737344878  )
        12           Si  tau(  12) = (    0.62724972801    0.08774100575    0.70632549034  )
        13           Si  tau(  13) = (    0.50724281199    0.51738919897   -0.02807902467  )
        14           Si  tau(  14) = (    0.60674276939    0.58769780298    0.17686659182  )
        15           Si  tau(  15) = (    0.49448704717    0.46936799051    0.54464316393  )
        16           Si  tau(  16) = (    0.64998183707    0.63503416783    0.61237429257  )

     number of k points=    36  gaussian smearing, width (Ry)=  0.0150
                       cart. coord. in units 2pi/alat
        k(    1) = (   0.0000000   0.0000000   0.0000000), wk =   0.0312500
        k(    2) = (   0.1767767   0.1767767  -0.1767767), wk =   0.0625000
        k(    3) = (  -0.3535534  -0.3535534   0.3535534), wk =   0.0312500
        k(    4) = (   0.3535534   0.0000000   0.0000000), wk =   0.0625000
        k(    5) = (  -0.1767767  -0.5303301   0.5303301), wk =   0.0625000
        k(    6) = (   0.0000000  -0.3535534   0.3535534), wk =   0.0625000
        k(    7) = (  -0.7071068   0.0000000   0.0000000), wk =   0.0312500
        k(    8) = (  -0.7071068   0.3535534   0.0000000), wk =   0.0625000
        k(    9) = (  -0.1767767  -0.1767767  -0.1767767), wk =   0.0625000
        k(   10) = (  -0.1767767   0.1767767   0.1767767), wk =   0.0625000
        k(   11) = (   0.1767767  -0.1767767   0.1767767), wk =   0.0625000
        k(   12) = (   0.3535534   0.3535534   0.3535534), wk =   0.0312500
        k(   13) = (   0.3535534  -0.3535534  -0.3535534), wk =   0.0312500
        k(   14) = (  -0.3535534   0.3535534  -0.3535534), wk =   0.0312500
        k(   15) = (   0.0000000   0.3535534   0.0000000), wk =   0.0625000
        k(   16) = (   0.0000000   0.0000000   0.3535534), wk =   0.0625000
        k(   17) = (   0.1767767   0.5303301   0.5303301), wk =   0.0625000
        k(   18) = (   0.1767767  -0.5303301  -0.5303301), wk =   0.0625000
        k(   19) = (  -0.1767767   0.5303301  -0.5303301), wk =   0.0625000
        k(   20) = (  -0.5303301  -0.1767767  -0.5303301), wk =   0.0625000
        k(   21) = (   0.5303301   0.1767767  -0.5303301), wk =   0.0625000
        k(   22) = (  -0.5303301   0.1767767   0.5303301), wk =   0.0625000
        k(   23) = (   0.5303301  -0.1767767   0.5303301), wk =   0.0625000
        k(   24) = (   0.5303301   0.5303301  -0.1767767), wk =   0.0625000
        k(   25) = (  -0.5303301   0.5303301   0.1767767), wk =   0.0625000
        k(   26) = (   0.5303301  -0.5303301   0.1767767), wk =   0.0625000
        k(   27) = (  -0.5303301  -0.5303301  -0.1767767), wk =   0.0625000
        k(   28) = (   0.0000000   0.3535534   0.3535534), wk =   0.0625000
        k(   29) = (  -0.3535534   0.0000000  -0.3535534), wk =   0.0625000
        k(   30) = (   0.3535534   0.0000000  -0.3535534), wk =   0.0625000
        k(   31) = (   0.3535534   0.3535534   0.0000000), wk =   0.0625000
        k(   32) = (  -0.3535534   0.3535534   0.0000000), wk =   0.0625000
        k(   33) = (   0.0000000  -0.7071068   0.0000000), wk =   0.0312500
        k(   34) = (   0.0000000   0.0000000  -0.7071068), wk =   0.0312500
        k(   35) = (   0.3535534  -0.7071068   0.0000000), wk =   0.0625000
        k(   36) = (   0.7071068   0.0000000   0.3535534), wk =   0.0625000

                       cryst. coord.
        k(    1) = (   0.0000000   0.0000000   0.0000000), wk =   0.0312500
        k(    2) = (   0.0000000   0.0000000   0.2500000), wk =   0.0625000
        k(    3) = (   0.0000000   0.0000000  -0.5000000), wk =   0.0312500
        k(    4) = (  -0.0000000   0.2500000   0.2500000), wk =   0.0625000
        k(    5) = (   0.0000000   0.2500000  -0.5000000), wk =   0.0625000
        k(    6) = (   0.0000000   0.2500000  -0.2500000), wk =   0.0625000
        k(    7) = (   0.0000000  -0.5000000  -0.5000000), wk =   0.0312500
        k(    8) = (   0.2500000  -0.5000000  -0.2500000), wk =   0.0625000
        k(    9) = (  -0.2500000  -0.2500000  -0.2500000), wk =   0.0625000
        k(   10) = (   0.2500000   0.0000000   0.0000000), wk =   0.0625000
        k(   11) = (   0.0000000   0.2500000   0.0000000), wk =   0.0625000
        k(   12) = (   0.5000000   0.5000000   0.5000000), wk =   0.0312500
        k(   13) = (  -0.5000000   0.0000000  -0.0000000), wk =   0.0312500
        k(   14) = (   0.0000000  -0.5000000  -0.0000000), wk =   0.0312500
        k(   15) = (   0.2500000  -0.0000000   0.2500000), wk =   0.0625000
        k(   16) = (   0.2500000   0.2500000   0.0000000), wk =   0.0625000
        k(   17) = (   0.7500000   0.5000000   0.5000000), wk =   0.0625000
        k(   18) = (  -0.7500000  -0.2500000  -0.2500000), wk =   0.0625000
        k(   19) = (   0.0000000  -0.5000000   0.2500000), wk =   0.0625000
        k(   20) = (  -0.5000000  -0.7500000  -0.5000000), wk =   0.0625000
        k(   21) = (  -0.2500000   0.0000000   0.5000000), wk =   0.0625000
        k(   22) = (   0.5000000   0.0000000  -0.2500000), wk =   0.0625000
        k(   23) = (   0.2500000   0.7500000   0.2500000), wk =   0.0625000
        k(   24) = (   0.2500000   0.2500000   0.7500000), wk =   0.0625000
        k(   25) = (   0.5000000  -0.2500000   0.0000000), wk =   0.0625000
        k(   26) = (  -0.2500000   0.5000000   0.0000000), wk =   0.0625000
        k(   27) = (  -0.5000000  -0.5000000  -0.7500000), wk =   0.0625000
        k(   28) = (   0.5000000   0.2500000   0.2500000), wk =   0.0625000
        k(   29) = (  -0.2500000  -0.5000000  -0.2500000), wk =   0.0625000
        k(   30) = (  -0.2500000   0.0000000   0.2500000), wk =   0.0625000
        k(   31) = (   0.2500000   0.2500000   0.5000000), wk =   0.0625000
        k(   32) = (   0.2500000  -0.2500000   0.0000000), wk =   0.0625000
        k(   33) = (  -0.5000000   0.0000000  -0.5000000), wk =   0.0312500
        k(   34) = (  -0.5000000  -0.5000000  -0.0000000), wk =   0.0312500
        k(   35) = (  -0.5000000   0.2500000  -0.2500000), wk =   0.0625000
        k(   36) = (   0.2500000   0.7500000   0.5000000), wk =   0.0625000

     Dense  grid:   103379 G-vectors     FFT dimensions: (  72,  72,  72)

     Smooth grid:    60495 G-vectors     FFT dimensions: (  60,  60,  60)

     Largest allocated arrays     est. size (Mb)     dimensions
        Kohn-Sham Wavefunctions         0.28 Mb     (     486,   38)
        NL pseudopotentials             2.14 Mb     (     486,  288)
        Each V/rho on FFT grid          0.40 Mb     (   25920)
        Each G-vector array             0.05 Mb     (    6463)
        G-vector shells                 0.01 Mb     (     700)
     Largest temporary arrays     est. size (Mb)     dimensions
        Auxiliary wavefunctions         1.13 Mb     (     486,  152)
        Each subspace H/S matrix        0.35 Mb     (     152,  152)
        Each <psi_i|beta_j> matrix      0.17 Mb     (     288,   38)
        Arrays for rho mixing           3.16 Mb     (   25920,    8)

     Initial potential from superposition of free atoms

     starting charge   63.98963, renormalised to   64.00000
     Starting wfc are   64 randomized atomic wfcs

     total cpu time spent up to now is        8.1 secs

     Self-consistent Calculation

     iteration #  1     ecut=    35.00 Ry     beta=0.30
     Davidson diagonalization with overlap
     ethr =  1.00E-02,  avg # of iterations =  3.0

     Threshold (ethr) on eigenvalues was too large:
     Diagonalizing with lowered threshold

     Davidson diagonalization with overlap
     ethr =  6.38E-04,  avg # of iterations =  1.7

     total cpu time spent up to now is       42.5 secs

     total energy              =    -152.83242112 Ry
     Harris-Foulkes estimate   =    -152.87699013 Ry
     estimated scf accuracy    <       0.40362931 Ry

     iteration #  2     ecut=    35.00 Ry     beta=0.30
     Davidson diagonalization with overlap
     ethr =  6.31E-04,  avg # of iterations =  1.0

     total cpu time spent up to now is       55.6 secs

     total energy              =    -152.74576727 Ry
     Harris-Foulkes estimate   =    -152.83510725 Ry
     estimated scf accuracy    <       0.24849539 Ry

     iteration #  3     ecut=    35.00 Ry     beta=0.30
     Davidson diagonalization with overlap
     ethr =  3.88E-04,  avg # of iterations =  2.5

     total cpu time spent up to now is       70.3 secs

     total energy              =    -152.76561222 Ry
     Harris-Foulkes estimate   =    -152.76552063 Ry
     estimated scf accuracy    <       0.00276356 Ry

     iteration #  4     ecut=    35.00 Ry     beta=0.30
     Davidson diagonalization with overlap
     c_bands:  1 eigenvalues not converged
     ethr =  4.32E-06,  avg # of iterations = 12.4

     total cpu time spent up to now is      107.7 secs

     total energy              =    -152.76812475 Ry
     Harris-Foulkes estimate   =    -152.76807392 Ry
     estimated scf accuracy    <       0.00111824 Ry

     iteration #  5     ecut=    35.00 Ry     beta=0.30
     Davidson diagonalization with overlap
     ethr =  1.75E-06,  avg # of iterations =  1.4

     total cpu time spent up to now is      121.1 secs

     total energy              =    -152.76819318 Ry
     Harris-Foulkes estimate   =    -152.76815574 Ry
     estimated scf accuracy    <       0.00034404 Ry

     iteration #  6     ecut=    35.00 Ry     beta=0.30
     Davidson diagonalization with overlap
     ethr =  5.38E-07,  avg # of iterations =  2.0

     total cpu time spent up to now is      135.7 secs

     total energy              =    -152.76822214 Ry
     Harris-Foulkes estimate   =    -152.76822221 Ry
     estimated scf accuracy    <       0.00000816 Ry

     iteration #  7     ecut=    35.00 Ry     beta=0.30
     Davidson diagonalization with overlap
     ethr =  1.27E-08,  avg # of iterations =  3.2

     total cpu time spent up to now is      158.3 secs

     total energy              =    -152.76822500 Ry
     Harris-Foulkes estimate   =    -152.76822625 Ry
     estimated scf accuracy    <       0.00000687 Ry

     iteration #  8     ecut=    35.00 Ry     beta=0.30
     Davidson diagonalization with overlap
     ethr =  1.07E-08,  avg # of iterations =  1.8

     total cpu time spent up to now is      172.4 secs

     total energy              =    -152.76822542 Ry
     Harris-Foulkes estimate   =    -152.76822552 Ry
     estimated scf accuracy    <       0.00000131 Ry

     iteration #  9     ecut=    35.00 Ry     beta=0.30
     Davidson diagonalization with overlap
     ethr =  2.05E-09,  avg # of iterations =  2.4

     total cpu time spent up to now is      190.9 secs

     total energy              =    -152.76822544 Ry
     Harris-Foulkes estimate   =    -152.76822596 Ry
     estimated scf accuracy    <       0.00000173 Ry

     iteration # 10     ecut=    35.00 Ry     beta=0.30
     Davidson diagonalization with overlap
     ethr =  2.05E-09,  avg # of iterations =  2.0

     total cpu time spent up to now is      207.4 secs

     total energy              =    -152.76822551 Ry
     Harris-Foulkes estimate   =    -152.76822559 Ry
     estimated scf accuracy    <       0.00000017 Ry

     iteration # 11     ecut=    35.00 Ry     beta=0.30
     Davidson diagonalization with overlap
     ethr =  2.66E-10,  avg # of iterations =  3.1

     total cpu time spent up to now is      228.3 secs

     total energy              =    -152.76822556 Ry
     Harris-Foulkes estimate   =    -152.76822564 Ry
     estimated scf accuracy    <       0.00000034 Ry

     iteration # 12     ecut=    35.00 Ry     beta=0.30
     Davidson diagonalization with overlap
     ethr =  2.66E-10,  avg # of iterations =  2.0

     total cpu time spent up to now is      245.1 secs

     total energy              =    -152.76822557 Ry
     Harris-Foulkes estimate   =    -152.76822558 Ry
     estimated scf accuracy    <       0.00000004 Ry

     iteration # 13     ecut=    35.00 Ry     beta=0.30
     Davidson diagonalization with overlap
     ethr =  6.30E-11,  avg # of iterations =  2.1

     total cpu time spent up to now is      262.1 secs

     End of self-consistent calculation

          k = 0.0000 0.0000 0.0000 (  7631 PWs)   bands (ev):

    -5.8135  -3.6169  -3.4213  -3.3622  -3.2739  -1.8485  -1.8309  -1.7666
    -1.6257  -1.4317  -1.3807  -0.8884  -0.8377  -0.6415  -0.5113   3.2588
     3.3208   3.3920   3.4266   3.4806   3.5273   4.6090   4.7902   4.9468
     5.0606   5.1252   5.1875   5.2872   5.4008   5.8137   6.0668   6.2365
     6.3850   6.4937   6.6450   6.6792   7.0331   7.2996

     occupation numbers 
     1.0000   1.0000   1.0000   1.0000   1.0000   1.0000   1.0000   1.0000
     1.0000   1.0000   1.0000   1.0000   1.0000   1.0000   1.0000   1.0000
     1.0000   1.0000   1.0000   1.0000   1.0000   1.0000   1.0000   1.0000
     1.0000   1.0000   1.0000   1.0000   1.0000   0.9997   0.9511   0.6844
     0.2914   0.0964   0.0094   0.0048   0.0000   0.0000

          k = 0.1768 0.1768-0.1768 (  7564 PWs)   bands (ev):

    -5.6064  -4.0651  -3.5235  -3.3576  -3.2703  -2.5491  -2.4535  -2.2751
    -0.8509  -0.8022  -0.6598  -0.5174  -0.4176  -0.1516   0.2978   2.5425
     2.6498   2.7242   3.3513   3.5095   3.6160   3.8064   3.9054   4.0049
     4.6077   4.7852   4.8281   4.9676   5.1448   5.3217   5.9167   6.3007
     6.5866   6.7569   6.8220   7.4409   7.7005   7.8090

     occupation numbers 
     1.0000   1.0000   1.0000   1.0000   1.0000   1.0000   1.0000   1.0000
     1.0000   1.0000   1.0000   1.0000   1.0000   1.0000   1.0000   1.0000
     1.0000   1.0000   1.0000   1.0000   1.0000   1.0000   1.0000   1.0000
     1.0000   1.0000   1.0000   1.0000   1.0000   1.0000   0.9965   0.5139
     0.0258   0.0009   0.0002   0.0000   0.0000   0.0000

          k =-0.3536-0.3536 0.3536 (  7570 PWs)   bands (ev):

    -5.0408  -4.9524  -3.3766  -3.2588  -3.1465  -2.9956  -2.8116  -2.6349
    -0.3848  -0.3814  -0.2706  -0.0867   0.0872   0.3945   1.9410   2.0880
     2.2307   2.3211   2.4929   2.6607   2.7720   2.9786   3.8181   3.9037
     4.0758   4.2052   4.3482   4.4794   5.2737   5.4176   5.6346   6.0914
     6.9352   7.1524   7.3373   7.5822   7.6809   7.7418

     occupation numbers 
     1.0000   1.0000   1.0000   1.0000   1.0000   1.0000   1.0000   1.0000
     1.0000   1.0000   1.0000   1.0000   1.0000   1.0000   1.0000   1.0000
     1.0000   1.0000   1.0000   1.0000   1.0000   1.0000   1.0000   1.0000
     1.0000   1.0000   1.0000   1.0000   1.0000   1.0000   1.0000   0.9312
     0.0000   0.0000   0.0000   0.0000   0.0000   0.0000

          k = 0.3536 0.0000 0.0000 (  7563 PWs)   bands (ev):

    -5.5423  -3.7650  -3.6665  -3.5721  -3.4800  -3.2585  -1.6840  -1.5487
    -1.4757  -1.3491  -0.3717  -0.3052  -0.1952   0.0392   0.6548   2.5398
     2.6584   2.7591   2.8348   3.5369   3.5586   3.6747   3.7206   3.8463
     4.0354   4.7922   4.8854   4.9433   5.1661   5.2273   5.3982   5.7408
     6.8595   7.0930   7.4726   7.7396   7.7996   7.9337

     occupation numbers 
     1.0000   1.0000   1.0000   1.0000   1.0000   1.0000   1.0000   1.0000
     1.0000   1.0000   1.0000   1.0000   1.0000   1.0000   1.0000   1.0000
     1.0000   1.0000   1.0000   1.0000   1.0000   1.0000   1.0000   1.0000
     1.0000   1.0000   1.0000   1.0000   1.0000   1.0000   1.0000   1.0000
     0.0001   0.0000   0.0000   0.0000   0.0000   0.0000

          k =-0.1768-0.5303 0.5303 (  7554 PWs)   bands (ev):

    -5.0717  -4.5471  -4.0084  -3.6643  -3.4796  -2.7974  -2.3331  -2.1348
    -0.7589  -0.6340  -0.4170   0.3099   0.6038   1.2466   1.5413   1.8304
     1.9420   2.0932   2.7546   2.9416   3.0790   3.1825   3.3606   3.4640
     3.9048   3.9338   4.2533   4.4315   4.5952   5.0000   5.0671   5.8096
     7.3637   7.6700   8.1062   8.2204   8.3319   8.4470

     occupation numbers 
     1.0000   1.0000   1.0000   1.0000   1.0000   1.0000   1.0000   1.0000
     1.0000   1.0000   1.0000   1.0000   1.0000   1.0000   1.0000   1.0000
     1.0000   1.0000   1.0000   1.0000   1.0000   1.0000   1.0000   1.0000
     1.0000   1.0000   1.0000   1.0000   1.0000   1.0000   1.0000   0.9997
     0.0000   0.0000   0.0000   0.0000   0.0000   0.0000

          k = 0.0000-0.3536 0.3536 (  7592 PWs)   bands (ev):

    -5.2723  -4.3114  -4.1352  -3.3801  -3.1836  -2.8715  -2.6929  -1.9066
    -1.0687  -0.7261  -0.4607   0.2551   0.4621   0.8591   0.9604   1.7122
     2.4456   2.5799   2.8566   3.0149   3.2489   3.3670   3.4897   3.8838
     4.0337   4.1493   4.3263   4.4745   4.6321   4.8793   4.9903   6.2155
     7.1181   7.6293   7.7697   8.1253   8.2072   8.3894

     occupation numbers 
     1.0000   1.0000   1.0000   1.0000   1.0000   1.0000   1.0000   1.0000
     1.0000   1.0000   1.0000   1.0000   1.0000   1.0000   1.0000   1.0000
     1.0000   1.0000   1.0000   1.0000   1.0000   1.0000   1.0000   1.0000
     1.0000   1.0000   1.0000   1.0000   1.0000   1.0000   1.0000   0.7341
     0.0000   0.0000   0.0000   0.0000   0.0000   0.0000

          k =-0.7071 0.0000 0.0000 (  7528 PWs)   bands (ev):

    -4.8290  -4.6480  -3.8414  -3.7862  -3.7031  -3.5325  -1.5899  -1.4287
    -1.3506  -1.2202   0.6169   0.6991   0.7477   0.8756   1.8047   2.0790
     2.2058   2.2599   2.3118   2.4508   2.5175   2.6587   2.8806   2.9654
     4.1822   4.3173   4.4278   4.4869   4.8703   4.9903   5.1312   5.2995
     7.0774   7.2010   8.0484   8.1228   8.3790   8.5281

     occupation numbers 
     1.0000   1.0000   1.0000   1.0000   1.0000   1.0000   1.0000   1.0000
     1.0000   1.0000   1.0000   1.0000   1.0000   1.0000   1.0000   1.0000
     1.0000   1.0000   1.0000   1.0000   1.0000   1.0000   1.0000   1.0000
     1.0000   1.0000   1.0000   1.0000   1.0000   1.0000   1.0000   1.0000
     0.0000   0.0000   0.0000   0.0000   0.0000   0.0000

          k =-0.7071 0.3536 0.0000 (  7564 PWs)   bands (ev):

    -4.6426  -4.5759  -4.3778  -4.2609  -2.8720  -2.6242  -2.5479  -2.4078
    -0.4733  -0.4075  -0.2746  -0.1615   1.5030   1.6372   1.7818   1.9182
     1.9376   2.0673   2.1567   2.2450   3.1397   3.2671   3.3981   3.4925
     3.6378   3.7519   3.8236   3.9236   4.7327   4.9060   4.9871   5.1294
     8.0565   8.2435   8.4356   8.5686   8.6525   8.6913

     occupation numbers 
     1.0000   1.0000   1.0000   1.0000   1.0000   1.0000   1.0000   1.0000
     1.0000   1.0000   1.0000   1.0000   1.0000   1.0000   1.0000   1.0000
     1.0000   1.0000   1.0000   1.0000   1.0000   1.0000   1.0000   1.0000
     1.0000   1.0000   1.0000   1.0000   1.0000   1.0000   1.0000   1.0000
     0.0000   0.0000   0.0000   0.0000   0.0000   0.0000

          k =-0.1768-0.1768-0.1768 (  7564 PWs)   bands (ev):

    -5.6134  -4.1652  -3.3758  -3.3245  -3.1989  -2.5610  -2.4356  -2.2982
    -1.0115  -0.8526  -0.7313  -0.6494  -0.4446  -0.1379   0.4048   2.6417
     2.8015   2.9391   3.4097   3.5089   3.5973   3.9280   4.1547   4.2107
     4.4857   4.6068   4.6399   4.9937   5.0551   5.3039   5.7352   6.0402
     6.2578   6.6425   7.2706   7.3892   7.6232   7.8608

     occupation numbers 
     1.0000   1.0000   1.0000   1.0000   1.0000   1.0000   1.0000   1.0000
     1.0000   1.0000   1.0000   1.0000   1.0000   1.0000   1.0000   1.0000
     1.0000   1.0000   1.0000   1.0000   1.0000   1.0000   1.0000   1.0000
     1.0000   1.0000   1.0000   1.0000   1.0000   1.0000   1.0000   0.9671
     0.6301   0.0098   0.0000   0.0000   0.0000   0.0000

          k =-0.1768 0.1768 0.1768 (  7564 PWs)   bands (ev):

    -5.6095  -4.0863  -3.5043  -3.3223  -3.2360  -2.6075  -2.4087  -2.3277
    -1.0208  -0.7308  -0.6485  -0.4871  -0.3320  -0.1016   0.1909   2.5075
     2.6287   2.7357   3.5290   3.6100   3.6419   3.8149   3.8683   4.0308
     4.4598   4.6576   4.8334   4.9413   5.1464   5.4600   5.7157   6.1714
     6.7997   6.9229   7.1715   7.3747   7.6475   7.7838

     occupation numbers 
     1.0000   1.0000   1.0000   1.0000   1.0000   1.0000   1.0000   1.0000
     1.0000   1.0000   1.0000   1.0000   1.0000   1.0000   1.0000   1.0000
     1.0000   1.0000   1.0000   1.0000   1.0000   1.0000   1.0000   1.0000
     1.0000   1.0000   1.0000   1.0000   1.0000   1.0000   1.0000   0.8241
     0.0003   0.0000   0.0000   0.0000   0.0000   0.0000

          k = 0.1768-0.1768 0.1768 (  7564 PWs)   bands (ev):

    -5.6114  -4.0865  -3.5323  -3.3265  -3.1812  -2.6156  -2.4393  -2.2595
    -1.0733  -0.8106  -0.6765  -0.4538  -0.2709  -0.1486   0.2053   2.5335
     2.7411   2.7916   3.4287   3.4953   3.6047   3.8189   4.0721   4.0953
     4.4275   4.7626   4.8390   4.9085   5.0700   5.3152   6.0124   6.1112
     6.3717   6.8322   7.0823   7.4405   7.5792   7.6755

     occupation numbers 
     1.0000   1.0000   1.0000   1.0000   1.0000   1.0000   1.0000   1.0000
     1.0000   1.0000   1.0000   1.0000   1.0000   1.0000   1.0000   1.0000
     1.0000   1.0000   1.0000   1.0000   1.0000   1.0000   1.0000   1.0000
     1.0000   1.0000   1.0000   1.0000   1.0000   1.0000   0.9790   0.9112
     0.3239   0.0001   0.0000   0.0000   0.0000   0.0000

          k = 0.3536 0.3536 0.3536 (  7570 PWs)   bands (ev):

    -5.0994  -4.9520  -3.2626  -3.1392  -3.0254  -3.0154  -2.8233  -2.7116
    -0.6312  -0.5162  -0.3912  -0.2640  -0.0161   0.2684   2.1730   2.3536
     2.4393   2.6401   2.8204   2.8718   2.9691   3.0804   3.8761   3.9261
     3.9573   4.0790   4.1657   4.2608   5.0710   5.5176   5.6123   5.7091
     6.4969   7.1324   7.2530   7.4151   7.5744   7.7569

     occupation numbers 
     1.0000   1.0000   1.0000   1.0000   1.0000   1.0000   1.0000   1.0000
     1.0000   1.0000   1.0000   1.0000   1.0000   1.0000   1.0000   1.0000
     1.0000   1.0000   1.0000   1.0000   1.0000   1.0000   1.0000   1.0000
     1.0000   1.0000   1.0000   1.0000   1.0000   1.0000   1.0000   1.0000
     0.0926   0.0000   0.0000   0.0000   0.0000   0.0000

          k = 0.3536-0.3536-0.3536 (  7570 PWs)   bands (ev):

    -5.0984  -4.9029  -3.3118  -3.1900  -3.1428  -3.0454  -2.8083  -2.7121
    -0.5402  -0.3616  -0.1661  -0.1284   0.0744   0.3954   2.0556   2.0854
     2.2571   2.3840   2.4825   2.5769   2.8142   2.8999   3.9732   4.0738
     4.1314   4.1860   4.2514   4.2824   5.1903   5.5258   5.7515   5.9401
     7.0156   7.2475   7.3271   7.5056   7.6234   7.7285

     occupation numbers 
     1.0000   1.0000   1.0000   1.0000   1.0000   1.0000   1.0000   1.0000
     1.0000   1.0000   1.0000   1.0000   1.0000   1.0000   1.0000   1.0000
     1.0000   1.0000   1.0000   1.0000   1.0000   1.0000   1.0000   1.0000
     1.0000   1.0000   1.0000   1.0000   1.0000   1.0000   0.9999   0.9944
     0.0000   0.0000   0.0000   0.0000   0.0000   0.0000

          k =-0.3536 0.3536-0.3536 (  7570 PWs)   bands (ev):

    -5.1270  -4.8739  -3.3713  -3.2049  -3.1347  -2.9222  -2.7761  -2.7465
    -0.6234  -0.4767  -0.1747  -0.0482   0.0741   0.2934   2.0330   2.1547
     2.4031   2.5076   2.6128   2.7053   2.7401   2.8610   3.7596   3.9554
     4.0913   4.1717   4.3828   4.5475   4.9853   5.5474   5.7112   5.8846
     6.8204   7.0472   7.3370   7.4479   7.5556   7.7860

     occupation numbers 
     1.0000   1.0000   1.0000   1.0000   1.0000   1.0000   1.0000   1.0000
     1.0000   1.0000   1.0000   1.0000   1.0000   1.0000   1.0000   1.0000
     1.0000   1.0000   1.0000   1.0000   1.0000   1.0000   1.0000   1.0000
     1.0000   1.0000   1.0000   1.0000   1.0000   1.0000   1.0000   0.9982
     0.0002   0.0000   0.0000   0.0000   0.0000   0.0000

          k = 0.0000 0.3536 0.0000 (  7563 PWs)   bands (ev):

    -5.5415  -3.8023  -3.7078  -3.5510  -3.3894  -3.2785  -1.6853  -1.5963
    -1.4266  -1.3329  -0.4747  -0.2472  -0.1737   0.0239   0.6251   2.4942
     2.6776   2.7702   2.8868   3.4770   3.5519   3.7058   3.8118   3.8797
     3.9931   4.6837   4.8858   5.0068   5.2232   5.2969   5.6609   5.7279
     6.3017   7.1107   7.4731   7.6483   7.7818   7.9464

     occupation numbers 
     1.0000   1.0000   1.0000   1.0000   1.0000   1.0000   1.0000   1.0000
     1.0000   1.0000   1.0000   1.0000   1.0000   1.0000   1.0000   1.0000
     1.0000   1.0000   1.0000   1.0000   1.0000   1.0000   1.0000   1.0000
     1.0000   1.0000   1.0000   1.0000   1.0000   1.0000   1.0000   1.0000
     0.5111   0.0000   0.0000   0.0000   0.0000   0.0000

          k = 0.0000 0.0000 0.3536 (  7563 PWs)   bands (ev):

    -5.5414  -3.7724  -3.6802  -3.5879  -3.4659  -3.2196  -1.7273  -1.5738
    -1.4886  -1.3125  -0.3712  -0.2594  -0.1470   0.0112   0.6221   2.5420
     2.6590   2.7442   2.8418   3.4874   3.5862   3.6208   3.7725   3.8504
     3.9964   4.7374   4.8734   5.0241   5.2348   5.2875   5.4814   5.6788
     6.6508   7.1012   7.4665   7.7538   7.7832   7.9731

     occupation numbers 
     1.0000   1.0000   1.0000   1.0000   1.0000   1.0000   1.0000   1.0000
     1.0000   1.0000   1.0000   1.0000   1.0000   1.0000   1.0000   1.0000
     1.0000   1.0000   1.0000   1.0000   1.0000   1.0000   1.0000   1.0000
     1.0000   1.0000   1.0000   1.0000   1.0000   1.0000   1.0000   1.0000
     0.0084   0.0000   0.0000   0.0000   0.0000   0.0000

          k = 0.1768 0.5303 0.5303 (  7554 PWs)   bands (ev):

    -5.0921  -4.5806  -3.9959  -3.5464  -3.4642  -2.8338  -2.2473  -2.1729
    -0.8060  -0.7559  -0.4944   0.2429   0.3418   1.3058   1.6423   2.0771
     2.1398   2.3136   2.6315   2.8331   3.0986   3.1731   3.3936   3.6925
     3.9411   4.0702   4.3336   4.4061   4.4862   4.8939   5.0549   5.3964
     7.3128   7.6899   7.7925   8.0601   8.1668   8.4104

     occupation numbers 
     1.0000   1.0000   1.0000   1.0000   1.0000   1.0000   1.0000   1.0000
     1.0000   1.0000   1.0000   1.0000   1.0000   1.0000   1.0000   1.0000
     1.0000   1.0000   1.0000   1.0000   1.0000   1.0000   1.0000   1.0000
     1.0000   1.0000   1.0000   1.0000   1.0000   1.0000   1.0000   1.0000
     0.0000   0.0000   0.0000   0.0000   0.0000   0.0000

          k = 0.1768-0.5303-0.5303 (  7554 PWs)   bands (ev):

    -5.0830  -4.5425  -4.0373  -3.5534  -3.4769  -2.9152  -2.2579  -2.1654
    -0.7796  -0.7450  -0.2123   0.2819   0.4111   1.4007   1.5312   1.8833
     2.0359   2.1550   2.5180   2.7568   3.1098   3.2512   3.2892   3.4458
     4.0129   4.0677   4.3755   4.5029   4.5606   4.9319   5.3366   5.4561
     7.2007   7.6931   7.9364   8.2089   8.3181   8.4937

     occupation numbers 
     1.0000   1.0000   1.0000   1.0000   1.0000   1.0000   1.0000   1.0000
     1.0000   1.0000   1.0000   1.0000   1.0000   1.0000   1.0000   1.0000
     1.0000   1.0000   1.0000   1.0000   1.0000   1.0000   1.0000   1.0000
     1.0000   1.0000   1.0000   1.0000   1.0000   1.0000   1.0000   1.0000
     0.0000   0.0000   0.0000   0.0000   0.0000   0.0000

          k =-0.1768 0.5303-0.5303 (  7554 PWs)   bands (ev):

    -5.0963  -4.5156  -4.0064  -3.6726  -3.4812  -2.7311  -2.3390  -2.1518
    -0.8443  -0.7024  -0.3886   0.3136   0.5302   1.2994   1.4977   1.9135
     2.0395   2.2051   2.7552   2.8718   3.1208   3.1479   3.3504   3.5814
     3.7538   4.0381   4.2547   4.3622   4.5340   5.0173   5.1754   5.7257
     7.4072   7.6956   7.8505   8.1404   8.2828   8.3435

     occupation numbers 
     1.0000   1.0000   1.0000   1.0000   1.0000   1.0000   1.0000   1.0000
     1.0000   1.0000   1.0000   1.0000   1.0000   1.0000   1.0000   1.0000
     1.0000   1.0000   1.0000   1.0000   1.0000   1.0000   1.0000   1.0000
     1.0000   1.0000   1.0000   1.0000   1.0000   1.0000   1.0000   1.0000
     0.0000   0.0000   0.0000   0.0000   0.0000   0.0000

          k =-0.5303-0.1768-0.5303 (  7554 PWs)   bands (ev):

    -5.0869  -4.5962  -3.9809  -3.6120  -3.3876  -2.8662  -2.2301  -2.1369
    -0.8500  -0.8060  -0.3992   0.1279   0.3931   1.2856   1.6103   1.9842
     2.2257   2.3333   2.6445   2.9804   3.1518   3.2454   3.3194   3.6287
     3.8786   3.9821   4.2325   4.4046   4.5801   4.9487   5.1700   5.6243
     6.7219   7.4943   7.7431   8.0298   8.4163   8.5727

     occupation numbers 
     1.0000   1.0000   1.0000   1.0000   1.0000   1.0000   1.0000   1.0000
     1.0000   1.0000   1.0000   1.0000   1.0000   1.0000   1.0000   1.0000
     1.0000   1.0000   1.0000   1.0000   1.0000   1.0000   1.0000   1.0000
     1.0000   1.0000   1.0000   1.0000   1.0000   1.0000   1.0000   1.0000
     0.0020   0.0000   0.0000   0.0000   0.0000   0.0000

          k = 0.5303 0.1768-0.5303 (  7554 PWs)   bands (ev):

    -5.0701  -4.5428  -4.0468  -3.6340  -3.4803  -2.7953  -2.2729  -2.1717
    -0.7509  -0.6000  -0.5175   0.3603   0.5660   1.1585   1.5050   1.9296
     2.0079   2.2074   2.6382   2.7761   3.0529   3.2931   3.4274   3.4797
     3.8637   4.0838   4.2531   4.3675   4.6122   4.9773   5.0808   5.8548
     7.2253   7.6191   7.9790   8.2059   8.3246   8.5199

     occupation numbers 
     1.0000   1.0000   1.0000   1.0000   1.0000   1.0000   1.0000   1.0000
     1.0000   1.0000   1.0000   1.0000   1.0000   1.0000   1.0000   1.0000
     1.0000   1.0000   1.0000   1.0000   1.0000   1.0000   1.0000   1.0000
     1.0000   1.0000   1.0000   1.0000   1.0000   1.0000   1.0000   0.9991
     0.0000   0.0000   0.0000   0.0000   0.0000   0.0000

          k =-0.5303 0.1768 0.5303 (  7554 PWs)   bands (ev):

    -5.0847  -4.5291  -4.0391  -3.6307  -3.4855  -2.7296  -2.3365  -2.1850
    -0.8046  -0.6614  -0.3862   0.3315   0.5124   1.3057   1.4269   1.8700
     1.9848   2.1888   2.8093   2.8818   3.0478   3.2412   3.3791   3.4686
     3.8808   4.0616   4.1929   4.3823   4.5371   5.0017   5.2197   5.8048
     7.2834   7.6486   7.9086   8.1223   8.2999   8.4376

     occupation numbers 
     1.0000   1.0000   1.0000   1.0000   1.0000   1.0000   1.0000   1.0000
     1.0000   1.0000   1.0000   1.0000   1.0000   1.0000   1.0000   1.0000
     1.0000   1.0000   1.0000   1.0000   1.0000   1.0000   1.0000   1.0000
     1.0000   1.0000   1.0000   1.0000   1.0000   1.0000   1.0000   0.9997
     0.0000   0.0000   0.0000   0.0000   0.0000   0.0000

          k = 0.5303-0.1768 0.5303 (  7554 PWs)   bands (ev):

    -5.0884  -4.5397  -4.0354  -3.6374  -3.3872  -2.8907  -2.2866  -2.1137
    -0.8793  -0.6893  -0.2424   0.1624   0.4350   1.3268   1.5299   1.9733
     2.0610   2.2149   2.6405   2.7927   3.0774   3.2437   3.3368   3.5729
     3.8683   4.0183   4.3145   4.5830   4.6622   4.7746   5.2944   5.6970
     6.8959   7.2548   7.9732   8.1684   8.3974   8.5213

     occupation numbers 
     1.0000   1.0000   1.0000   1.0000   1.0000   1.0000   1.0000   1.0000
     1.0000   1.0000   1.0000   1.0000   1.0000   1.0000   1.0000   1.0000
     1.0000   1.0000   1.0000   1.0000   1.0000   1.0000   1.0000   1.0000
     1.0000   1.0000   1.0000   1.0000   1.0000   1.0000   1.0000   1.0000
     0.0000   0.0000   0.0000   0.0000   0.0000   0.0000

          k = 0.5303 0.5303-0.1768 (  7554 PWs)   bands (ev):

    -5.0663  -4.5532  -4.0587  -3.6110  -3.3945  -2.9448  -2.2915  -2.1269
    -0.7574  -0.6727  -0.2377   0.2570   0.4035   1.3765   1.5542   1.8650
     2.0180   2.1834   2.5662   2.7228   3.1112   3.1743   3.2902   3.5172
     3.9020   3.9861   4.4022   4.4610   4.6513   4.9756   5.3112   5.5290
     7.1861   7.4965   8.0936   8.2311   8.4255   8.4980

     occupation numbers 
     1.0000   1.0000   1.0000   1.0000   1.0000   1.0000   1.0000   1.0000
     1.0000   1.0000   1.0000   1.0000   1.0000   1.0000   1.0000   1.0000
     1.0000   1.0000   1.0000   1.0000   1.0000   1.0000   1.0000   1.0000
     1.0000   1.0000   1.0000   1.0000   1.0000   1.0000   1.0000   1.0000
     0.0000   0.0000   0.0000   0.0000   0.0000   0.0000

          k =-0.5303 0.5303 0.1768 (  7554 PWs)   bands (ev):

    -5.0812  -4.5509  -3.9788  -3.6476  -3.5025  -2.7771  -2.3580  -2.1304
    -0.8480  -0.5755  -0.4488   0.3264   0.5983   1.3164   1.5105   1.8398
     2.0296   2.1470   2.6771   2.8160   3.0571   3.1538   3.3167   3.4519
     3.8694   4.1597   4.2580   4.4505   4.5385   5.0296   5.2764   5.7287
     7.2038   7.6412   7.8119   8.2262   8.3734   8.5061

     occupation numbers 
     1.0000   1.0000   1.0000   1.0000   1.0000   1.0000   1.0000   1.0000
     1.0000   1.0000   1.0000   1.0000   1.0000   1.0000   1.0000   1.0000
     1.0000   1.0000   1.0000   1.0000   1.0000   1.0000   1.0000   1.0000
     1.0000   1.0000   1.0000   1.0000   1.0000   1.0000   1.0000   1.0000
     0.0000   0.0000   0.0000   0.0000   0.0000   0.0000

          k = 0.5303-0.5303 0.1768 (  7554 PWs)   bands (ev):

    -5.0914  -4.5328  -3.9924  -3.6495  -3.4998  -2.7584  -2.3362  -2.1280
    -0.8800  -0.5928  -0.5117   0.3388   0.6024   1.2833   1.5059   1.8595
     2.0796   2.1943   2.7002   2.8504   3.0780   3.1408   3.3772   3.5200
     3.8333   4.0713   4.2391   4.3871   4.6828   5.0029   5.1311   5.6690
     7.3583   7.6356   7.8519   8.0408   8.3426   8.4322

     occupation numbers 
     1.0000   1.0000   1.0000   1.0000   1.0000   1.0000   1.0000   1.0000
     1.0000   1.0000   1.0000   1.0000   1.0000   1.0000   1.0000   1.0000
     1.0000   1.0000   1.0000   1.0000   1.0000   1.0000   1.0000   1.0000
     1.0000   1.0000   1.0000   1.0000   1.0000   1.0000   1.0000   1.0000
     0.0000   0.0000   0.0000   0.0000   0.0000   0.0000

          k =-0.5303-0.5303-0.1768 (  7554 PWs)   bands (ev):

    -5.0925  -4.5692  -4.0166  -3.6055  -3.4019  -2.7887  -2.2696  -2.1942
    -0.8996  -0.7723  -0.3154   0.2248   0.3260   1.2557   1.6397   2.0345
     2.1683   2.2139   2.8007   2.9617   3.1298   3.2072   3.2902   3.7176
     3.8649   3.9084   4.2151   4.3749   4.5334   4.9444   5.1243   5.5755
     7.0943   7.6077   7.8188   8.1059   8.3047   8.4743

     occupation numbers 
     1.0000   1.0000   1.0000   1.0000   1.0000   1.0000   1.0000   1.0000
     1.0000   1.0000   1.0000   1.0000   1.0000   1.0000   1.0000   1.0000
     1.0000   1.0000   1.0000   1.0000   1.0000   1.0000   1.0000   1.0000
     1.0000   1.0000   1.0000   1.0000   1.0000   1.0000   1.0000   1.0000
     0.0000   0.0000   0.0000   0.0000   0.0000   0.0000

          k = 0.0000 0.3536 0.3536 (  7592 PWs)   bands (ev):

    -5.2825  -4.3404  -4.1570  -3.2105  -3.1507  -2.8197  -2.7330  -2.0832
    -0.9696  -0.7653  -0.6090   0.1995   0.3379   0.8463   1.0825   1.8190
     2.4949   2.6578   2.8451   2.9574   3.4855   3.5283   3.6218   3.8118
     3.9932   4.1379   4.2777   4.5071   4.7460   4.8185   4.9316   5.6578
     7.4309   7.5871   7.8073   7.8847   8.0127   8.2288

     occupation numbers 
     1.0000   1.0000   1.0000   1.0000   1.0000   1.0000   1.0000   1.0000
     1.0000   1.0000   1.0000   1.0000   1.0000   1.0000   1.0000   1.0000
     1.0000   1.0000   1.0000   1.0000   1.0000   1.0000   1.0000   1.0000
     1.0000   1.0000   1.0000   1.0000   1.0000   1.0000   1.0000   1.0000
     0.0000   0.0000   0.0000   0.0000   0.0000   0.0000

          k =-0.3536 0.0000-0.3536 (  7592 PWs)   bands (ev):

    -5.2879  -4.3117  -4.1796  -3.3018  -3.0675  -2.7932  -2.7169  -2.0596
    -1.1268  -0.7250  -0.5679   0.0989   0.3854   0.8829   1.0499   1.8466
     2.5210   2.8112   2.9078   2.9640   3.3572   3.4557   3.6445   3.7288
     4.0747   4.2436   4.3483   4.5228   4.6321   4.7382   4.8585   6.0580
     6.5521   7.6337   7.7468   7.9721   8.1032   8.3417

     occupation numbers 
     1.0000   1.0000   1.0000   1.0000   1.0000   1.0000   1.0000   1.0000
     1.0000   1.0000   1.0000   1.0000   1.0000   1.0000   1.0000   1.0000
     1.0000   1.0000   1.0000   1.0000   1.0000   1.0000   1.0000   1.0000
     1.0000   1.0000   1.0000   1.0000   1.0000   1.0000   1.0000   0.9570
     0.0439   0.0000   0.0000   0.0000   0.0000   0.0000

          k = 0.3536 0.0000-0.3536 (  7592 PWs)   bands (ev):

    -5.2688  -4.2604  -4.2035  -3.3349  -3.1844  -2.9034  -2.7429  -1.8506
    -1.1102  -0.6509  -0.4902   0.3652   0.4356   0.8343   0.9909   1.6560
     2.4161   2.5790   2.7471   2.8977   3.2419   3.3803   3.5259   3.8801
     4.0943   4.2800   4.3343   4.4768   4.6470   4.8495   4.9281   6.2642
     7.0786   7.7229   7.9273   8.0635   8.2567   8.3357

     occupation numbers 
     1.0000   1.0000   1.0000   1.0000   1.0000   1.0000   1.0000   1.0000
     1.0000   1.0000   1.0000   1.0000   1.0000   1.0000   1.0000   1.0000
     1.0000   1.0000   1.0000   1.0000   1.0000   1.0000   1.0000   1.0000
     1.0000   1.0000   1.0000   1.0000   1.0000   1.0000   1.0000   0.6133
     0.0000   0.0000   0.0000   0.0000   0.0000   0.0000

          k = 0.3536 0.3536 0.0000 (  7592 PWs)   bands (ev):

    -5.2764  -4.3272  -4.1742  -3.2826  -3.0834  -2.8569  -2.7579  -1.9989
    -0.9295  -0.7248  -0.6455   0.1669   0.2281   0.9665   1.0644   1.8202
     2.5217   2.6587   2.8214   2.9577   3.3684   3.4911   3.6183   3.8499
     4.0708   4.1906   4.3610   4.4622   4.5615   4.8044   4.8734   5.9687
     6.8890   7.5335   7.8565   8.0885   8.2197   8.3650

     occupation numbers 
     1.0000   1.0000   1.0000   1.0000   1.0000   1.0000   1.0000   1.0000
     1.0000   1.0000   1.0000   1.0000   1.0000   1.0000   1.0000   1.0000
     1.0000   1.0000   1.0000   1.0000   1.0000   1.0000   1.0000   1.0000
     1.0000   1.0000   1.0000   1.0000   1.0000   1.0000   1.0000   0.9902
     0.0000   0.0000   0.0000   0.0000   0.0000   0.0000

          k =-0.3536 0.3536 0.0000 (  7592 PWs)   bands (ev):

    -5.2802  -4.2985  -4.1411  -3.3023  -3.2650  -2.8044  -2.7230  -1.9409
    -1.0568  -0.8428  -0.3862   0.2521   0.5709   0.7866   0.9271   1.7363
     2.4135   2.6302   2.8387   2.9367   3.2900   3.4369   3.5410   3.8646
     4.0382   4.1646   4.3219   4.4172   4.6017   4.9161   5.1054   6.0927
     7.1445   7.5798   7.9013   7.9764   8.1503   8.2486

     occupation numbers 
     1.0000   1.0000   1.0000   1.0000   1.0000   1.0000   1.0000   1.0000
     1.0000   1.0000   1.0000   1.0000   1.0000   1.0000   1.0000   1.0000
     1.0000   1.0000   1.0000   1.0000   1.0000   1.0000   1.0000   1.0000
     1.0000   1.0000   1.0000   1.0000   1.0000   1.0000   1.0000   0.9301
     0.0000   0.0000   0.0000   0.0000   0.0000   0.0000

          k = 0.0000-0.7071 0.0000 (  7528 PWs)   bands (ev):

    -4.7777  -4.7088  -3.9388  -3.7368  -3.6637  -3.4986  -1.5795  -1.4171
    -1.3602  -1.2012   0.4684   0.6179   0.7632   0.8415   1.9343   2.1221
     2.1487   2.2853   2.3992   2.4884   2.5769   2.6352   2.8279   3.0010
     4.1508   4.2216   4.3703   4.5040   5.0384   5.1424   5.1907   5.3368
     6.6945   7.0333   7.8092   8.1171   8.3510   8.5507

     occupation numbers 
     1.0000   1.0000   1.0000   1.0000   1.0000   1.0000   1.0000   1.0000
     1.0000   1.0000   1.0000   1.0000   1.0000   1.0000   1.0000   1.0000
     1.0000   1.0000   1.0000   1.0000   1.0000   1.0000   1.0000   1.0000
     1.0000   1.0000   1.0000   1.0000   1.0000   1.0000   1.0000   1.0000
     0.0035   0.0000   0.0000   0.0000   0.0000   0.0000

          k = 0.0000 0.0000-0.7071 (  7528 PWs)   bands (ev):

    -4.8019  -4.6776  -3.8703  -3.8145  -3.6264  -3.5441  -1.6200  -1.4278
    -1.3731  -1.1743   0.5827   0.6821   0.7417   0.9565   1.9472   2.1153
     2.1654   2.2334   2.3584   2.3854   2.4577   2.5746   2.8565   2.9236
     4.1190   4.3655   4.4483   4.4960   4.8705   5.0998   5.1698   5.3409
     7.0181   7.1183   8.0286   8.1585   8.2920   8.3925

     occupation numbers 
     1.0000   1.0000   1.0000   1.0000   1.0000   1.0000   1.0000   1.0000
     1.0000   1.0000   1.0000   1.0000   1.0000   1.0000   1.0000   1.0000
     1.0000   1.0000   1.0000   1.0000   1.0000   1.0000   1.0000   1.0000
     1.0000   1.0000   1.0000   1.0000   1.0000   1.0000   1.0000   1.0000
     0.0000   0.0000   0.0000   0.0000   0.0000   0.0000

          k = 0.3536-0.7071 0.0000 (  7564 PWs)   bands (ev):

    -4.6311  -4.5539  -4.4452  -4.2340  -2.8849  -2.6448  -2.4906  -2.3894
    -0.6099  -0.4130  -0.2246  -0.1040   1.4400   1.5946   1.7406   1.8703
     1.9506   2.0659   2.1966   2.3763   3.2953   3.3588   3.3790   3.4948
     3.5707   3.6378   3.8453   3.9186   4.6271   4.8293   5.1116   5.2277
     7.9244   8.1726   8.3337   8.4421   8.5303   8.6622

     occupation numbers 
     1.0000   1.0000   1.0000   1.0000   1.0000   1.0000   1.0000   1.0000
     1.0000   1.0000   1.0000   1.0000   1.0000   1.0000   1.0000   1.0000
     1.0000   1.0000   1.0000   1.0000   1.0000   1.0000   1.0000   1.0000
     1.0000   1.0000   1.0000   1.0000   1.0000   1.0000   1.0000   1.0000
     0.0000   0.0000   0.0000   0.0000   0.0000   0.0000

          k = 0.7071 0.0000 0.3536 (  7564 PWs)   bands (ev):

    -4.6442  -4.5713  -4.3678  -4.2838  -2.8411  -2.6920  -2.4883  -2.3874
    -0.5034  -0.4421  -0.3620  -0.0655   1.4768   1.6268   1.7988   1.8374
     1.8894   2.0413   2.2643   2.3252   3.2285   3.2971   3.4200   3.5087
     3.5700   3.7669   3.8180   3.9382   4.7208   4.7749   4.9169   5.2971
     7.9695   8.2909   8.3958   8.4567   8.6255   8.6905

     occupation numbers 
     1.0000   1.0000   1.0000   1.0000   1.0000   1.0000   1.0000   1.0000
     1.0000   1.0000   1.0000   1.0000   1.0000   1.0000   1.0000   1.0000
     1.0000   1.0000   1.0000   1.0000   1.0000   1.0000   1.0000   1.0000
     1.0000   1.0000   1.0000   1.0000   1.0000   1.0000   1.0000   1.0000
     0.0000   0.0000   0.0000   0.0000   0.0000   0.0000

     the Fermi energy is     6.3058 ev

!    total energy              =    -152.76822557 Ry
     Harris-Foulkes estimate   =    -152.76822557 Ry
     estimated scf accuracy    <          6.1E-10 Ry

     The total energy is the sum of the following terms:

     one-electron contribution =      42.53336867 Ry
     hartree contribution      =       7.93870918 Ry
     xc contribution           =     -67.86117495 Ry
     ewald contribution        =    -135.37651491 Ry
     smearing contrib. (-TS)   =      -0.00261357 Ry

     convergence has been achieved in  13 iterations

     Forces acting on atoms (Ry/au):

     atom    1 type  1   force =  -0.49063430E-02 -0.42622913E-01 -0.23743927E-01
     atom    2 type  1   force =   0.39423104E-01  0.21636065E-01 -0.46906425E-01
     atom    3 type  1   force =   0.15025403E-02  0.10867508E-01  0.38483152E-01
     atom    4 type  1   force =   0.34983991E-01 -0.75958888E-02 -0.19063457E-01
     atom    5 type  1   force =   0.65186981E-02  0.52472683E-01 -0.24817835E-01
     atom    6 type  1   force =   0.11729744E-01 -0.51535254E-01  0.27844062E-01
     atom    7 type  1   force =   0.21372337E-01  0.47398095E-01  0.13184441E-01
     atom    8 type  1   force =  -0.55973562E-01 -0.23871673E-01 -0.21215813E-01
     atom    9 type  1   force =  -0.32268342E-01 -0.13736408E-01  0.31417801E-01
     atom   10 type  1   force =  -0.23363831E-01  0.31411477E-01  0.29519009E-01
     atom   11 type  1   force =   0.40188025E-01  0.14433460E-01  0.44512211E-01
     atom   12 type  1   force =  -0.20672329E-01 -0.54196863E-01 -0.16774102E-01
     atom   13 type  1   force =   0.21213782E-01  0.52676812E-01 -0.38110113E-01
     atom   14 type  1   force =  -0.12627683E-01 -0.34757193E-01  0.26171155E-01
     atom   15 type  1   force =   0.20036220E-01  0.24734167E-01  0.59291472E-02
     atom   16 type  1   force =  -0.47156351E-01 -0.27314074E-01 -0.26429306E-01
     The non-local contrib.  to forces
     atom    1 type  1   force =   0.12091639E-01 -0.31437215E-01 -0.25423862E-01
     atom    2 type  1   force =   0.49330772E-01  0.26284837E-01 -0.17447095E-01
     atom    3 type  1   force =  -0.10255357E-01 -0.11646168E-01  0.42087511E-01
     atom    4 type  1   force =   0.25080551E-01 -0.20537543E-01 -0.18014184E-01
     atom    5 type  1   force =   0.23419218E-01  0.36290399E-01 -0.42948875E-01
     atom    6 type  1   force =  -0.89091587E-02 -0.47564071E-01  0.16193043E-01
     atom    7 type  1   force =   0.32258828E-01  0.42167056E-01  0.13645612E-01
     atom    8 type  1   force =  -0.64899209E-01 -0.82270559E-02 -0.16261629E-01
     atom    9 type  1   force =  -0.29901319E-01 -0.86569011E-02 -0.43113667E-02
     atom   10 type  1   force =  -0.31044205E-01  0.10628520E-01  0.38046458E-01
     atom   11 type  1   force =   0.51523430E-01  0.37163751E-01  0.52038796E-01
     atom   12 type  1   force =  -0.92038354E-02 -0.55204474E-01 -0.17338489E-01
     atom   13 type  1   force =   0.23725796E-01  0.52571399E-01 -0.19564923E-01
     atom   14 type  1   force =  -0.20191992E-01 -0.31170171E-01  0.32324518E-01
     atom   15 type  1   force =   0.15741656E-01  0.16366841E-01 -0.60303999E-02
     atom   16 type  1   force =  -0.49032810E-01 -0.92554957E-02 -0.28797252E-01
     The ionic contribution  to forces
     atom    1 type  1   force =   0.97395663E-01 -0.71057651E-01 -0.21315474E+00
     atom    2 type  1   force =   0.81027495E-01 -0.31603760E+00  0.97747297E-01
     atom    3 type  1   force =  -0.94790777E-01 -0.69389138E+00  0.18907426E+00
     atom    4 type  1   force =   0.83564544E-01 -0.97701374E-01 -0.18990628E+00
     atom    5 type  1   force =   0.29040349E+00 -0.13412401E+00 -0.11473452E+00
     atom    6 type  1   force =   0.40472429E-01 -0.14641159E-01 -0.11362693E+00
     atom    7 type  1   force =   0.50141268E-01  0.32740925E+00 -0.23177769E-01
     atom    8 type  1   force =  -0.28001742E+00 -0.19362946E+00  0.49030653E-01
     atom    9 type  1   force =   0.32977764E-01  0.23016998E+00 -0.24878536E+00
     atom   10 type  1   force =  -0.85889082E-01  0.17386091E+00  0.42010655E+00
     atom   11 type  1   force =   0.35031498E+00  0.17124083E+00  0.42384288E+00
     atom   12 type  1   force =  -0.29349582E-01  0.15112475E+00 -0.12559108E+00
     atom   13 type  1   force =   0.54493140E-02  0.11188753E+00  0.10437579E+00
     atom   14 type  1   force =  -0.20681951E+00  0.13673950E+00 -0.20076885E+00
     atom   15 type  1   force =  -0.73510679E-01  0.23677580E+00 -0.20050749E+00
     atom   16 type  1   force =  -0.26136990E+00 -0.18125927E-01  0.14607558E+00
     The local contribution  to forces
     atom    1 type  1   force =  -0.11360400E+00  0.57445001E-01  0.21177965E+00
     atom    2 type  1   force =  -0.86642643E-01  0.31205243E+00 -0.12702338E+00
     atom    3 type  1   force =   0.10487067E+00  0.71224121E+00 -0.18808671E+00
     atom    4 type  1   force =  -0.72309552E-01  0.10856965E+00  0.18614945E+00
     atom    5 type  1   force =  -0.30400774E+00  0.15207054E+00  0.12953197E+00
     atom    6 type  1   force =  -0.21025779E-01  0.70328008E-02  0.12592404E+00
     atom    7 type  1   force =  -0.58138863E-01 -0.31698141E+00  0.23667520E-01
     atom    8 type  1   force =   0.28280719E+00  0.17656646E+00 -0.54445626E-01
     atom    9 type  1   force =  -0.37073807E-01 -0.23433061E+00  0.28227659E+00
     atom   10 type  1   force =   0.90919294E-01 -0.15213705E+00 -0.42409294E+00
     atom   11 type  1   force =  -0.35599871E+00 -0.19031341E+00 -0.42570765E+00
     atom   12 type  1   force =   0.17512333E-01 -0.15297165E+00  0.12344640E+00
     atom   13 type  1   force =  -0.61182352E-02 -0.10787308E+00 -0.12362182E+00
     atom   14 type  1   force =   0.21218859E+00 -0.14235176E+00  0.19607997E+00
     atom   15 type  1   force =   0.79528959E-01 -0.22577719E+00  0.21098830E+00
     atom   16 type  1   force =   0.25826370E+00 -0.13141135E-02 -0.14527089E+00
     The core correction contribution to forces
     atom    1 type  1   force =  -0.79265256E-03  0.24278450E-02  0.30553789E-02
     atom    2 type  1   force =  -0.42936026E-02 -0.65719958E-03 -0.18503995E-03
     atom    3 type  1   force =   0.16768834E-02  0.41671118E-02 -0.45910240E-02
     atom    4 type  1   force =  -0.13573559E-02  0.20745852E-02  0.27053982E-02
     atom    5 type  1   force =  -0.32956511E-02 -0.17641743E-02  0.33382177E-02
     atom    6 type  1   force =   0.11931280E-02  0.36336412E-02 -0.64558210E-03
     atom    7 type  1   force =  -0.28908975E-02 -0.51965533E-02 -0.95032022E-03
     atom    8 type  1   force =   0.61391135E-02  0.14172820E-02  0.46731905E-03
     atom    9 type  1   force =   0.17325050E-02 -0.91793029E-03  0.22346184E-02
     atom   10 type  1   force =   0.26476948E-02 -0.93811088E-03 -0.45482884E-02
     atom   11 type  1   force =  -0.56517067E-02 -0.36592053E-02 -0.56647805E-02
     atom   12 type  1   force =   0.36579128E-03  0.28551324E-02  0.27099677E-02
     atom   13 type  1   force =  -0.18415280E-02 -0.39129099E-02  0.70015982E-03
     atom   14 type  1   force =   0.22016932E-02  0.20262898E-02 -0.14620469E-02
     atom   15 type  1   force =  -0.17218537E-02 -0.26330161E-02  0.14788239E-02
     atom   16 type  1   force =   0.49841129E-02  0.13742228E-02  0.15651749E-02
     The Hubbard contrib.    to forces
     atom    1 type  1   force =   0.00000000E+00  0.00000000E+00  0.00000000E+00
     atom    2 type  1   force =   0.00000000E+00  0.00000000E+00  0.00000000E+00
     atom    3 type  1   force =   0.00000000E+00  0.00000000E+00  0.00000000E+00
     atom    4 type  1   force =   0.00000000E+00  0.00000000E+00  0.00000000E+00
     atom    5 type  1   force =   0.00000000E+00  0.00000000E+00  0.00000000E+00
     atom    6 type  1   force =   0.00000000E+00  0.00000000E+00  0.00000000E+00
     atom    7 type  1   force =   0.00000000E+00  0.00000000E+00  0.00000000E+00
     atom    8 type  1   force =   0.00000000E+00  0.00000000E+00  0.00000000E+00
     atom    9 type  1   force =   0.00000000E+00  0.00000000E+00  0.00000000E+00
     atom   10 type  1   force =   0.00000000E+00  0.00000000E+00  0.00000000E+00
     atom   11 type  1   force =   0.00000000E+00  0.00000000E+00  0.00000000E+00
     atom   12 type  1   force =   0.00000000E+00  0.00000000E+00  0.00000000E+00
     atom   13 type  1   force =   0.00000000E+00  0.00000000E+00  0.00000000E+00
     atom   14 type  1   force =   0.00000000E+00  0.00000000E+00  0.00000000E+00
     atom   15 type  1   force =   0.00000000E+00  0.00000000E+00  0.00000000E+00
     atom   16 type  1   force =   0.00000000E+00  0.00000000E+00  0.00000000E+00
     The SCF correction term to forces
     atom    1 type  1   force =   0.29611205E-05 -0.81574728E-06 -0.29200498E-06
     atom    2 type  1   force =   0.10387525E-05 -0.63275467E-05  0.18620287E-05
     atom    3 type  1   force =   0.10751664E-05 -0.31916068E-05 -0.82305858E-06
     atom    4 type  1   force =   0.57593549E-05 -0.11262834E-05  0.22352731E-05
     atom    5 type  1   force =  -0.66423148E-06  0.62885608E-08 -0.45610475E-05
     atom    6 type  1   force =  -0.91956527E-06  0.36100424E-05 -0.43327780E-06
     atom    7 type  1   force =   0.19557776E-05 -0.17003958E-06 -0.53200645E-06
     atom    8 type  1   force =  -0.32873877E-05  0.11715048E-05 -0.64597392E-05
     atom    9 type  1   force =  -0.35296446E-05 -0.86850643E-06  0.33884941E-05
     atom   10 type  1   force =   0.24221663E-05 -0.27152579E-05  0.72918926E-05
     atom   11 type  1   force =  -0.12070414E-07  0.15656657E-05  0.30370635E-05
     atom   12 type  1   force =   0.29190417E-05 -0.54343559E-06 -0.83979543E-06
     atom   13 type  1   force =  -0.16102201E-05  0.39514283E-05  0.74503635E-06
     atom   14 type  1   force =  -0.65013792E-05 -0.96866722E-06 -0.23576506E-05
     atom   15 type  1   force =  -0.19076063E-05  0.18071076E-05 -0.17754665E-07
     atom   16 type  1   force =  -0.15031318E-05  0.73153876E-05 -0.18566295E-05

     Total force =     0.217720     Total SCF correction =     0.000021


     entering subroutine stress ...

          total   stress  (Ry/bohr**3)                   (kbar)     P=  -24.54
  -0.0001709505  -0.0000419993  -0.0000829897        -25.15     -6.18    -12.21
  -0.0000419993  -0.0001778324  -0.0000371158         -6.18    -26.16     -5.46
  -0.0000829897  -0.0000371158  -0.0001516848        -12.21     -5.46    -22.31

     kinetic stress (kbar)   2159.77      4.21     11.00
                                4.21   2157.72     11.63
                               11.00     11.63   2159.06

     local   stress (kbar)   -202.06     58.81    154.42
                               58.81   -250.85    141.98
                              154.42    141.98   -250.82

     nonloc. stress (kbar)   1920.25     -7.95    -10.66
                               -7.95   1931.45    -12.59
                              -10.66    -12.59   1927.10

     hartree stress (kbar)    177.35     -4.70    -23.91
                               -4.70    179.34    -20.29
                              -23.91    -20.29    183.30

     exc-cor stress (kbar)    999.92     -0.07     -0.19
                               -0.07    999.99     -0.20
                               -0.19     -0.20    999.99

     corecor stress (kbar)  -1984.87      0.96      1.31
                                0.96  -1986.25      1.53
                                1.31      1.53  -1985.71

     ewald   stress (kbar)  -3095.52    -57.44   -144.19
                              -57.44  -3057.57   -127.52
                             -144.19   -127.52  -3055.23

     hubbard stress (kbar)      0.00      0.00      0.00
                                0.00      0.00      0.00
                                0.00      0.00      0.00

     london  stress (kbar)      0.00      0.00      0.00
                                0.00      0.00      0.00
                                0.00      0.00      0.00

     XDM     stress (kbar)      0.00      0.00      0.00
                                0.00      0.00      0.00
                                0.00      0.00      0.00

     dft-nl  stress (kbar)      0.00      0.00      0.00
                                0.00      0.00      0.00
                                0.00      0.00      0.00



     Writing output data file Si_diamond.scf.in.super.222.replace5957.save

     init_run     :      8.06s CPU      7.70s WALL (       1 calls)
     electrons    :    266.94s CPU    253.99s WALL (       1 calls)
     forces       :      3.60s CPU      2.90s WALL (       1 calls)
     stress       :      4.76s CPU      4.68s WALL (       1 calls)

     Called by init_run:
     wfcinit      :      7.60s CPU      7.21s WALL (       1 calls)
     potinit      :      0.06s CPU      0.08s WALL (       1 calls)

     Called by electrons:
     c_bands      :    230.59s CPU    219.27s WALL (      14 calls)
     sum_band     :     33.08s CPU     31.35s WALL (      14 calls)
     v_of_rho     :      0.55s CPU      0.60s WALL (      14 calls)
     v_h          :      0.03s CPU      0.03s WALL (      14 calls)
     v_xc         :      0.59s CPU      0.65s WALL (      16 calls)
     newd         :      2.44s CPU      2.47s WALL (      14 calls)
     mix_rho      :      0.41s CPU      0.43s WALL (      14 calls)

     Called by c_bands:
     init_us_2    :      2.72s CPU      2.90s WALL (    1116 calls)
     cegterg      :    221.14s CPU    209.48s WALL (     504 calls)

     Called by sum_band:
     sum_band:bec :      0.40s CPU      0.45s WALL (     504 calls)
     addusdens    :      2.97s CPU      3.00s WALL (      14 calls)

     Called by *egterg:
     h_psi        :    139.64s CPU    137.96s WALL (    1993 calls)
     s_psi        :     20.41s CPU     14.31s WALL (    1993 calls)
     g_psi        :      0.25s CPU      0.25s WALL (    1453 calls)
     cdiaghg      :     22.08s CPU     22.32s WALL (    1921 calls)
     cegterg:over :     20.27s CPU     18.60s WALL (    1453 calls)
     cegterg:upda :      7.54s CPU      5.58s WALL (    1453 calls)
     cegterg:last :      4.47s CPU      3.17s WALL (     537 calls)

     Called by h_psi:
     h_psi:vloc   :     86.24s CPU     97.20s WALL (    1993 calls)
     h_psi:vnl    :     53.29s CPU     40.60s WALL (    1993 calls)
     add_vuspsi   :     22.84s CPU     16.06s WALL (    1993 calls)

     General routines
     calbec       :     42.58s CPU     34.26s WALL (    2569 calls)
     fft          :      0.70s CPU      0.73s WALL (     249 calls)
     ffts         :      0.30s CPU      0.31s WALL (     236 calls)
     fftw         :     98.13s CPU    108.91s WALL (  123152 calls)
     interpolate  :      0.12s CPU      0.13s WALL (      28 calls)

     Parallel routines
     fft_scatter  :     53.49s CPU     59.43s WALL (  123637 calls)

     PWSCF        :  4m44.57s CPU     4m30.99s WALL


   This run was terminated on:  11:17:52  14Mar2018            

=------------------------------------------------------------------------------=
   JOB DONE.
=------------------------------------------------------------------------------=
