
     Program PWSCF v.5.1 starts on 27Sep2017 at 11:42:52 

     This program is part of the open-source Quantum ESPRESSO suite
     for quantum simulation of materials; please cite
         "P. Giannozzi et al., J. Phys.:Condens. Matter 21 395502 (2009);
          URL http://www.quantum-espresso.org", 
     in publications or presentations arising from this work. More details at
     http://www.quantum-espresso.org/quote

     Parallel version (MPI), running on     8 processors
     R & G space division:  proc/nbgrp/npool/nimage =       8
     Reading input from /tmp/Si_diamond.scf.in.super.222.largdist.01.4709/Si_diamond.scf.in.super.222.largdist.01.t
Warning: card &IONS ignored
Warning: card   ION_DYNAMICS='BFGS', ignored
Warning: card / ignored
Warning: card &CELL ignored
Warning: card  CELL_DYNAMICS = 'BFGS' ignored
Warning: card / ignored
     Message from routine read_cards :
     DEPRECATED: no units specified in CELL_PARAMETERS card

     Current dimensions of program PWSCF are:
     Max number of different atomic species (ntypx) = 10
     Max number of k-points (npk) =  40000
     Max angular momentum in pseudopotentials (lmaxx) =  3
 kfg - two_fermi_energies  F

     Subspace diagonalization in iterative solution of the eigenvalue problem:
     a serial algorithm will be used


     Parallelization info
     --------------------
     sticks:   dense  smooth     PW     G-vecs:    dense   smooth      PW
     Min         362     255     72                12866     7528    1152
     Max         363     256     73                12870     7548    1154
     Sum        2901    2043    583               102947    60283    9229



     bravais-lattice index     =            0
     lattice parameter (alat)  =    14.545885260  a.u.
     unit-cell volume          =    2153.6813 (a.u.)^3
     number of atoms/cell      =           16
     number of atomic types    =            1
     number of electrons       =        64.00
     number of Kohn-Sham states=           38
     kinetic-energy cutoff     =      35.0000  Ry
     charge density cutoff     =     200.0000  Ry
     convergence threshold     =      1.0E-09
     mixing beta               =       0.3000
     number of iterations used =            8  local-TF  mixing
     Exchange-correlation      = SLA  PW   PSX  PSC ( 1  4 10  8 0)
     A smooth kinetic-energy cutoff is imposed at      34.5000 Ry
     height of the smooth step-function =             800.0000 Ry
     width of the smooth step-function  =               1.0000 Ry


     celldm(1)=  14.545885  celldm(2)=   0.000000  celldm(3)=   0.000000
     celldm(4)=   0.000000  celldm(5)=   0.000000  celldm(6)=   0.000000

     crystal axes: (cart. coord. in units of alat)
               a(1) = (   0.002658171927   0.704729261652   0.709471353822 )  
               a(2) = (   0.707242930538   0.000087163715   0.701134526655 )  
               a(3) = (   0.699104798710   0.706174730018  -0.002743592541 )  

     reciprocal axes: (cart. coord. in units 2 pi/alat)
               b(1) = ( -0.707543  0.703232  0.713620 )  
               b(2) = (  0.718719 -0.708798  0.701368 )  
               b(3) = (  0.706006  0.714375 -0.712246 )  


     PseudoPot. # 1 for Si read from file:
     /users/kfg/psuedo/gbrv_1.5/si.pbesol.UPF
     MD5 check sum: ef58ba74faed4df802eb8a9742fc00a8
     Pseudo is Ultrasoft + core correction, Zval =  4.0
     Generated by new atomic code, or converted to UPF format
     Using radial grid of  899 points,  6 beta functions with: 
                l(1) =   0
                l(2) =   0
                l(3) =   1
                l(4) =   1
                l(5) =   2
                l(6) =   2
     Q(r) pseudized with  8 coefficients,  rinner =    0.900   0.900   0.900
                                                       0.900   0.900

     atomic species   valence    mass     pseudopotential
        Si             4.00    28.08550     Si( 1.00)

     No symmetry found


                                    s                        frac. trans.

      isym =  1     identity                                     

 cryst.   s( 1) = (     1          0          0      )
                  (     0          1          0      )
                  (     0          0          1      )

 cart.    s( 1) = (  1.0000000 -0.0000000  0.0000000 )
                  (  0.0000000  1.0000000  0.0000000 )
                  ( -0.0000000 -0.0000000  1.0000000 )


     point group C_1 (1)    
     there are  1 classes
     the character table:

       E    
A      1.00

     the symmetry operations in each class:
     E        1

   Cartesian axes

     site n.     atom                  positions (alat units)
         1           Si  tau(   1) = (   -0.00116940727   -0.01745454267    0.01149393500  )
         2           Si  tau(   2) = (    0.14950017356    0.17479751937    0.20179752083  )
         3           Si  tau(   3) = (    0.34735774653    0.35325549754   -0.00331378741  )
         4           Si  tau(   4) = (    0.51097017580    0.50431700078    0.20051070493  )
         5           Si  tau(   5) = (    0.37514925989    0.00313510668    0.34921773238  )
         6           Si  tau(   6) = (    0.54947009219    0.20353724144    0.53131664723  )
         7           Si  tau(   7) = (    0.69127657687    0.37203170910    0.33708176918  )
         8           Si  tau(   8) = (    0.86986627226    0.50615537835    0.53281159142  )
         9           Si  tau(   9) = (   -0.00592694258    0.37744992262    0.35680066576  )
        10           Si  tau(  10) = (    0.17136284624    0.54195163195    0.53902135176  )
        11           Si  tau(  11) = (    0.34514946917    0.71010436434    0.37845222394  )
        12           Si  tau(  12) = (    0.53743899632    0.89542378655    0.54538673501  )
        13           Si  tau(  13) = (    0.35161974212    0.33660513558    0.70660052512  )
        14           Si  tau(  14) = (    0.55014261990    0.55561565634    0.86986495103  )
        15           Si  tau(  15) = (    0.68568092408    0.71717566955    0.70402388417  )
        16           Si  tau(  16) = (    0.89971380688    0.88169265661    0.86028430620  )

   Crystallographic axes

     site n.     atom                  positions (cryst. coord.)
         1           Si  tau(   1) = (   -0.00324488492    0.01959274817   -0.02148120635  )
         2           Si  tau(   2) = (    0.16115207573    0.12508666627    0.08668963984  )
         3           Si  tau(   3) = (    0.00028520401   -0.00305855975    0.49995384643  )
         4           Si  tau(   4) = (    0.13620681891    0.15041654389    0.57820669820  )
         5           Si  tau(   5) = (   -0.01402083173    0.51233464157    0.01836845689  )
         6           Si  tau(   6) = (    0.13351822898    0.62329590563    0.15490317775  )
         7           Si  tau(   7) = (    0.01306488487    0.46955621578    0.51373060909  )
         8           Si  tau(   8) = (    0.12070170176    0.64012392395    0.59622292290  )
         9           Si  tau(   9) = (    0.52424834307   -0.02154713456    0.01132673356  )
        10           Si  tau(  10) = (    0.64452731732    0.11707953541    0.12422444854  )
        11           Si  tau(  11) = (    0.52523087727    0.01017885799    0.48140763797  )
        12           Si  tau(  12) = (    0.63862805484    0.13410933218    0.63065442672  )
        13           Si  tau(  13) = (    0.49216944624    0.50971736166   -0.01456509741  )
        14           Si  tau(  14) = (    0.62222986736    0.61167359296    0.16576456310  )
        15           Si  tau(  15) = (    0.52159738455    0.47825847712    0.49498945262  )
        16           Si  tau(  16) = (    0.59736403084    0.62507457107    0.65232900700  )

     number of k points=    36  gaussian smearing, width (Ry)=  0.0150
                       cart. coord. in units 2pi/alat
        k(    1) = (   0.0000000   0.0000000   0.0000000), wk =   0.0312500
        k(    2) = (   0.1765015   0.1785938  -0.1780614), wk =   0.0625000
        k(    3) = (  -0.3530030  -0.3571876   0.3561228), wk =   0.0312500
        k(    4) = (   0.1796796  -0.1771995   0.1753419), wk =   0.0625000
        k(    5) = (   0.3561811   0.0013943  -0.0027195), wk =   0.0625000
        k(    6) = (  -0.1733233  -0.5343872   0.5314647), wk =   0.0625000
        k(    7) = (   0.0031782  -0.3557934   0.3534033), wk =   0.0625000
        k(    8) = (  -0.3593593   0.3543991  -0.3506839), wk =   0.0312500
        k(    9) = (  -0.1828578   0.5329929  -0.5287453), wk =   0.0625000
        k(   10) = (  -0.7123623  -0.0027886   0.0054389), wk =   0.0312500
        k(   11) = (  -0.1768857   0.1758079   0.1784049), wk =   0.0625000
        k(   12) = (  -0.0003842   0.3544018   0.0003435), wk =   0.0625000
        k(   13) = (  -0.5298887  -0.1813797   0.5345277), wk =   0.0625000
        k(   14) = (  -0.3533872  -0.0027859   0.3564663), wk =   0.0625000
        k(   15) = (   0.0027939  -0.0013916   0.3537469), wk =   0.0625000
        k(   16) = (   0.1792954   0.1772022   0.1756855), wk =   0.0625000
        k(   17) = (  -0.3502090  -0.3585792   0.7098697), wk =   0.0625000
        k(   18) = (  -0.1737076  -0.1799854   0.5318083), wk =   0.0625000
        k(   19) = (  -0.5362450   0.5302070  -0.1722789), wk =   0.0625000
        k(   20) = (  -0.3597435   0.7088008  -0.3503403), wk =   0.0625000
        k(   21) = (  -0.8892480   0.1730194   0.1838438), wk =   0.0625000
        k(   22) = (  -0.7127465   0.3516132   0.0057825), wk =   0.0625000
        k(   23) = (  -0.3565654   0.3530075   0.0030630), wk =   0.0625000
        k(   24) = (  -0.1800639   0.5316013  -0.1749984), wk =   0.0625000
        k(   25) = (  -0.7095683  -0.0041801   0.3591858), wk =   0.0625000
        k(   26) = (  -0.5330669   0.1744137   0.1811244), wk =   0.0625000
        k(   27) = (   0.3537715  -0.3516159  -0.3568099), wk =   0.0312500
        k(   28) = (   0.5302729  -0.1730221  -0.5348713), wk =   0.0625000
        k(   29) = (   0.0007685  -0.7088035  -0.0006871), wk =   0.0312500
        k(   30) = (   0.5334511  -0.5288154  -0.1814679), wk =   0.0625000
        k(   31) = (   0.7099526  -0.3502216  -0.3595293), wk =   0.0625000
        k(   32) = (   0.1804481  -0.8860031   0.1746549), wk =   0.0625000
        k(   33) = (   0.3569496  -0.7074093  -0.0034065), wk =   0.0625000
        k(   34) = (  -0.0055878   0.0027832  -0.7074937), wk =   0.0312500
        k(   35) = (   0.1709136   0.1813770  -0.8855551), wk =   0.0625000
        k(   36) = (  -0.3585908  -0.3544045  -0.3513709), wk =   0.0312500

                       cryst. coord.
        k(    1) = (   0.0000000   0.0000000   0.0000000), wk =   0.0312500
        k(    2) = (   0.0000000   0.0000000   0.2500000), wk =   0.0625000
        k(    3) = (   0.0000000   0.0000000  -0.5000000), wk =   0.0312500
        k(    4) = (   0.0000000   0.2500000   0.0000000), wk =   0.0625000
        k(    5) = (   0.0000000   0.2500000   0.2500000), wk =   0.0625000
        k(    6) = (   0.0000000   0.2500000  -0.5000000), wk =   0.0625000
        k(    7) = (   0.0000000   0.2500000  -0.2500000), wk =   0.0625000
        k(    8) = (  -0.0000000  -0.5000000  -0.0000000), wk =   0.0312500
        k(    9) = (   0.0000000  -0.5000000   0.2500000), wk =   0.0625000
        k(   10) = (  -0.0000000  -0.5000000  -0.5000000), wk =   0.0312500
        k(   11) = (   0.2500000   0.0000000   0.0000000), wk =   0.0625000
        k(   12) = (   0.2500000   0.0000000   0.2500000), wk =   0.0625000
        k(   13) = (   0.2500000   0.0000000  -0.5000000), wk =   0.0625000
        k(   14) = (   0.2500000  -0.0000000  -0.2500000), wk =   0.0625000
        k(   15) = (   0.2500000   0.2500000  -0.0000000), wk =   0.0625000
        k(   16) = (   0.2500000   0.2500000   0.2500000), wk =   0.0625000
        k(   17) = (   0.2500000   0.2500000  -0.5000000), wk =   0.0625000
        k(   18) = (   0.2500000   0.2500000  -0.2500000), wk =   0.0625000
        k(   19) = (   0.2500000  -0.5000000  -0.0000000), wk =   0.0625000
        k(   20) = (   0.2500000  -0.5000000   0.2500000), wk =   0.0625000
        k(   21) = (   0.2500000  -0.5000000  -0.5000000), wk =   0.0625000
        k(   22) = (   0.2500000  -0.5000000  -0.2500000), wk =   0.0625000
        k(   23) = (   0.2500000  -0.2500000  -0.0000000), wk =   0.0625000
        k(   24) = (   0.2500000  -0.2500000   0.2500000), wk =   0.0625000
        k(   25) = (   0.2500000  -0.2500000  -0.5000000), wk =   0.0625000
        k(   26) = (   0.2500000  -0.2500000  -0.2500000), wk =   0.0625000
        k(   27) = (  -0.5000000   0.0000000  -0.0000000), wk =   0.0312500
        k(   28) = (  -0.5000000  -0.0000000   0.2500000), wk =   0.0625000
        k(   29) = (  -0.5000000  -0.0000000  -0.5000000), wk =   0.0312500
        k(   30) = (  -0.5000000   0.2500000   0.0000000), wk =   0.0625000
        k(   31) = (  -0.5000000   0.2500000   0.2500000), wk =   0.0625000
        k(   32) = (  -0.5000000   0.2500000  -0.5000000), wk =   0.0625000
        k(   33) = (  -0.5000000   0.2500000  -0.2500000), wk =   0.0625000
        k(   34) = (  -0.5000000  -0.5000000   0.0000000), wk =   0.0312500
        k(   35) = (  -0.5000000  -0.5000000   0.2500000), wk =   0.0625000
        k(   36) = (  -0.5000000  -0.5000000  -0.5000000), wk =   0.0312500

     Dense  grid:   102947 G-vectors     FFT dimensions: (  72,  72,  72)

     Smooth grid:    60283 G-vectors     FFT dimensions: (  60,  60,  60)

     Largest allocated arrays     est. size (Mb)     dimensions
        Kohn-Sham Wavefunctions         0.55 Mb     (     954,   38)
        NL pseudopotentials             4.19 Mb     (     954,  288)
        Each V/rho on FFT grid          0.71 Mb     (   46656)
        Each G-vector array             0.10 Mb     (   12867)
        G-vector shells                 0.10 Mb     (   12815)
     Largest temporary arrays     est. size (Mb)     dimensions
        Auxiliary wavefunctions         2.21 Mb     (     954,  152)
        Each subspace H/S matrix        0.35 Mb     (     152,  152)
        Each <psi_i|beta_j> matrix      0.17 Mb     (     288,   38)
        Arrays for rho mixing           5.70 Mb     (   46656,    8)

     Initial potential from superposition of free atoms

     starting charge   63.98963, renormalised to   64.00000
     Starting wfc are   64 randomized atomic wfcs

     total cpu time spent up to now is       30.4 secs

     per-process dynamical memory:    44.2 Mb

     Self-consistent Calculation

     iteration #  1     ecut=    35.00 Ry     beta=0.30
     Davidson diagonalization with overlap
     ethr =  1.00E-02,  avg # of iterations =  3.0

     Threshold (ethr) on eigenvalues was too large:
     Diagonalizing with lowered threshold

     Davidson diagonalization with overlap
     ethr =  7.49E-04,  avg # of iterations =  1.6

     total cpu time spent up to now is      114.7 secs

     total energy              =    -152.72308924 Ry
     Harris-Foulkes estimate   =    -152.77691387 Ry
     estimated scf accuracy    <       0.47234801 Ry

     iteration #  2     ecut=    35.00 Ry     beta=0.30
     Davidson diagonalization with overlap
     ethr =  7.38E-04,  avg # of iterations =  1.0

     total cpu time spent up to now is      139.6 secs

     total energy              =    -152.61564661 Ry
     Harris-Foulkes estimate   =    -152.72581873 Ry
     estimated scf accuracy    <       0.29254090 Ry

     iteration #  3     ecut=    35.00 Ry     beta=0.30
     Davidson diagonalization with overlap
     ethr =  4.57E-04,  avg # of iterations =  2.5

     total cpu time spent up to now is      172.3 secs

     total energy              =    -152.64137174 Ry
     Harris-Foulkes estimate   =    -152.64155668 Ry
     estimated scf accuracy    <       0.00440382 Ry

     iteration #  4     ecut=    35.00 Ry     beta=0.30
     Davidson diagonalization with overlap
     ethr =  6.88E-06,  avg # of iterations =  8.7

     total cpu time spent up to now is      251.7 secs

     total energy              =    -152.64369910 Ry
     Harris-Foulkes estimate   =    -152.64367027 Ry
     estimated scf accuracy    <       0.00242411 Ry

     iteration #  5     ecut=    35.00 Ry     beta=0.30
     Davidson diagonalization with overlap
     ethr =  3.79E-06,  avg # of iterations =  1.0

     total cpu time spent up to now is      280.0 secs

     total energy              =    -152.64375803 Ry
     Harris-Foulkes estimate   =    -152.64374333 Ry
     estimated scf accuracy    <       0.00116774 Ry

     iteration #  6     ecut=    35.00 Ry     beta=0.30
     Davidson diagonalization with overlap
     ethr =  1.82E-06,  avg # of iterations =  2.7

     total cpu time spent up to now is      317.4 secs

     total energy              =    -152.64393600 Ry
     Harris-Foulkes estimate   =    -152.64394662 Ry
     estimated scf accuracy    <       0.00016117 Ry

     iteration #  7     ecut=    35.00 Ry     beta=0.30
     Davidson diagonalization with overlap
     ethr =  2.52E-07,  avg # of iterations =  1.1

     total cpu time spent up to now is      343.1 secs

     total energy              =    -152.64389599 Ry
     Harris-Foulkes estimate   =    -152.64394020 Ry
     estimated scf accuracy    <       0.00012589 Ry

     iteration #  8     ecut=    35.00 Ry     beta=0.30
     Davidson diagonalization with overlap
     ethr =  1.97E-07,  avg # of iterations =  2.0

     total cpu time spent up to now is      378.6 secs

     total energy              =    -152.64391577 Ry
     Harris-Foulkes estimate   =    -152.64391529 Ry
     estimated scf accuracy    <       0.00000216 Ry

     iteration #  9     ecut=    35.00 Ry     beta=0.30
     Davidson diagonalization with overlap
     ethr =  3.38E-09,  avg # of iterations =  3.4

     total cpu time spent up to now is      431.6 secs

     total energy              =    -152.64391406 Ry
     Harris-Foulkes estimate   =    -152.64391911 Ry
     estimated scf accuracy    <       0.00001419 Ry

     iteration # 10     ecut=    35.00 Ry     beta=0.30
     Davidson diagonalization with overlap
     ethr =  3.38E-09,  avg # of iterations =  2.9

     total cpu time spent up to now is      470.4 secs

     total energy              =    -152.64391592 Ry
     Harris-Foulkes estimate   =    -152.64391599 Ry
     estimated scf accuracy    <       0.00000020 Ry

     iteration # 11     ecut=    35.00 Ry     beta=0.30
     Davidson diagonalization with overlap
     ethr =  3.19E-10,  avg # of iterations =  3.0

     total cpu time spent up to now is      505.1 secs

     total energy              =    -152.64391596 Ry
     Harris-Foulkes estimate   =    -152.64391604 Ry
     estimated scf accuracy    <       0.00000033 Ry

     iteration # 12     ecut=    35.00 Ry     beta=0.30
     Davidson diagonalization with overlap
     ethr =  3.19E-10,  avg # of iterations =  2.0

     total cpu time spent up to now is      531.6 secs

     total energy              =    -152.64391597 Ry
     Harris-Foulkes estimate   =    -152.64391598 Ry
     estimated scf accuracy    <       0.00000003 Ry

     iteration # 13     ecut=    35.00 Ry     beta=0.30
     Davidson diagonalization with overlap
     ethr =  5.04E-11,  avg # of iterations =  2.3

     total cpu time spent up to now is      559.6 secs

     End of self-consistent calculation

          k = 0.0000 0.0000 0.0000 (  7571 PWs)   bands (ev):

    -5.9913  -4.0898  -3.7130  -3.6117  -3.2655  -2.3945  -1.9446  -1.8306
    -1.7729  -1.5603  -1.4154  -0.9566  -0.6997  -0.5950  -0.2619   3.0398
     3.0651   3.1641   3.2573   3.3248   3.3724   4.3223   4.4607   4.8067
     4.8897   4.9965   5.1102   5.2504   5.3365   6.1591   6.3102   6.4099
     6.4775   6.6551   6.7160   6.8099   6.8963   7.0241

     occupation numbers 
     1.0000   1.0000   1.0000   1.0000   1.0000   1.0000   1.0000   1.0000
     1.0000   1.0000   1.0000   1.0000   1.0000   1.0000   1.0000   1.0000
     1.0000   1.0000   1.0000   1.0000   1.0000   1.0000   1.0000   1.0000
     1.0000   1.0000   1.0000   1.0000   1.0000   0.9733   0.8119   0.5771
     0.3919   0.0662   0.0270   0.0050   0.0007   0.0000

          k = 0.1765 0.1786-0.1781 (  7538 PWs)   bands (ev):

    -5.7968  -4.2995  -4.0063  -3.5505  -3.4015  -2.7474  -2.4885  -2.3196
    -1.1809  -1.0084  -0.7937  -0.6390  -0.2376  -0.1080   0.3994   2.3538
     2.5036   2.7113   3.1532   3.3631   3.4102   3.5663   3.8658   4.1122
     4.4438   4.6318   4.7099   4.9427   5.1105   5.1514   6.0086   6.2593
     6.5913   6.8774   6.9160   7.4728   7.7088   7.7803

     occupation numbers 
     1.0000   1.0000   1.0000   1.0000   1.0000   1.0000   1.0000   1.0000
     1.0000   1.0000   1.0000   1.0000   1.0000   1.0000   1.0000   1.0000
     1.0000   1.0000   1.0000   1.0000   1.0000   1.0000   1.0000   1.0000
     1.0000   1.0000   1.0000   1.0000   1.0000   1.0000   0.9985   0.8921
     0.1439   0.0012   0.0005   0.0000   0.0000   0.0000

          k =-0.3530-0.3572 0.3561 (  7538 PWs)   bands (ev):

    -5.3756  -4.9894  -3.9612  -3.4878  -3.4274  -2.9377  -2.8328  -2.6015
    -0.8474  -0.6011  -0.2997  -0.2638   0.2048   0.4747   1.7049   1.7942
     2.0994   2.2458   2.3108   2.8540   3.1220   3.2966   3.4963   3.8366
     3.9388   4.0516   4.2072   4.3263   4.8686   5.2860   5.7502   6.0604
     6.9950   7.2417   7.3462   7.5866   7.6069   7.9086

     occupation numbers 
     1.0000   1.0000   1.0000   1.0000   1.0000   1.0000   1.0000   1.0000
     1.0000   1.0000   1.0000   1.0000   1.0000   1.0000   1.0000   1.0000
     1.0000   1.0000   1.0000   1.0000   1.0000   1.0000   1.0000   1.0000
     1.0000   1.0000   1.0000   1.0000   1.0000   1.0000   1.0000   0.9956
     0.0001   0.0000   0.0000   0.0000   0.0000   0.0000

          k = 0.1797-0.1772 0.1753 (  7538 PWs)   bands (ev):

    -5.7939  -4.3130  -4.0054  -3.6296  -3.2379  -2.7879  -2.5876  -2.3031
    -1.1818  -0.9820  -0.6995  -0.5968  -0.3022   0.0125   0.2433   2.3718
     2.4513   2.6412   3.1971   3.3414   3.4675   3.6034   3.8050   4.0445
     4.3422   4.4955   4.7617   4.9866   5.0987   5.3340   6.0917   6.2808
     6.7308   6.8970   7.0385   7.5206   7.5753   7.8050

     occupation numbers 
     1.0000   1.0000   1.0000   1.0000   1.0000   1.0000   1.0000   1.0000
     1.0000   1.0000   1.0000   1.0000   1.0000   1.0000   1.0000   1.0000
     1.0000   1.0000   1.0000   1.0000   1.0000   1.0000   1.0000   1.0000
     1.0000   1.0000   1.0000   1.0000   1.0000   1.0000   0.9918   0.8619
     0.0212   0.0007   0.0000   0.0000   0.0000   0.0000

          k = 0.3562 0.0014-0.0027 (  7546 PWs)   bands (ev):

    -5.7345  -4.2156  -3.9527  -3.8197  -3.5494  -3.2093  -1.9830  -1.8127
    -1.6444  -1.3674  -0.5539  -0.3816  -0.0679   0.1691   0.6321   2.4672
     2.5216   2.6913   2.7436   3.2080   3.3633   3.4608   3.6811   3.8765
     4.0518   4.4296   4.6174   4.9327   4.9610   5.3015   5.6591   5.8999
     6.5020   7.2582   7.5206   7.6781   7.7534   7.8548

     occupation numbers 
     1.0000   1.0000   1.0000   1.0000   1.0000   1.0000   1.0000   1.0000
     1.0000   1.0000   1.0000   1.0000   1.0000   1.0000   1.0000   1.0000
     1.0000   1.0000   1.0000   1.0000   1.0000   1.0000   1.0000   1.0000
     1.0000   1.0000   1.0000   1.0000   1.0000   1.0000   1.0000   0.9999
     0.3285   0.0000   0.0000   0.0000   0.0000   0.0000

          k =-0.1733-0.5344 0.5315 (  7525 PWs)   bands (ev):

    -5.3329  -4.6875  -4.2417  -4.0687  -3.4734  -3.0151  -2.5336  -2.0972
    -1.0049  -0.8632  -0.6019   0.2015   0.6980   1.1521   1.4175   1.7136
     1.9447   2.4657   2.5328   2.7814   2.9412   3.1112   3.2757   3.3712
     3.6812   3.9195   4.0814   4.2926   4.6934   4.9346   5.1430   5.6832
     7.2899   7.7259   7.9172   8.0562   8.3330   8.4894

     occupation numbers 
     1.0000   1.0000   1.0000   1.0000   1.0000   1.0000   1.0000   1.0000
     1.0000   1.0000   1.0000   1.0000   1.0000   1.0000   1.0000   1.0000
     1.0000   1.0000   1.0000   1.0000   1.0000   1.0000   1.0000   1.0000
     1.0000   1.0000   1.0000   1.0000   1.0000   1.0000   1.0000   1.0000
     0.0000   0.0000   0.0000   0.0000   0.0000   0.0000

          k = 0.0032-0.3558 0.3534 (  7528 PWs)   bands (ev):

    -5.4790  -4.5919  -4.2177  -3.9399  -3.2228  -3.0988  -2.7086  -1.9534
    -1.2679  -0.8220  -0.5146   0.0063   0.4871   0.8297   0.9987   1.6026
     2.1070   2.5089   2.6738   2.8710   3.0652   3.2923   3.5200   3.7203
     4.0670   4.2148   4.2908   4.3589   4.5947   4.8037   5.0237   6.1667
     7.1386   7.6679   7.9252   8.0048   8.2443   8.4740

     occupation numbers 
     1.0000   1.0000   1.0000   1.0000   1.0000   1.0000   1.0000   1.0000
     1.0000   1.0000   1.0000   1.0000   1.0000   1.0000   1.0000   1.0000
     1.0000   1.0000   1.0000   1.0000   1.0000   1.0000   1.0000   1.0000
     1.0000   1.0000   1.0000   1.0000   1.0000   1.0000   1.0000   0.9699
     0.0000   0.0000   0.0000   0.0000   0.0000   0.0000

          k =-0.3594 0.3544-0.3507 (  7528 PWs)   bands (ev):

    -5.3329  -5.0544  -3.9395  -3.5624  -3.2157  -3.0602  -2.8452  -2.6663
    -0.7924  -0.5535  -0.2335  -0.0207   0.1338   0.2654   1.6178   1.9450
     2.0154   2.2368   2.4421   2.6896   2.7877   3.0929   3.7118   3.9491
     4.0027   4.0434   4.0977   4.1931   5.1855   5.4812   5.8113   5.9735
     7.1300   7.2891   7.3723   7.4982   7.7178   7.8460

     occupation numbers 
     1.0000   1.0000   1.0000   1.0000   1.0000   1.0000   1.0000   1.0000
     1.0000   1.0000   1.0000   1.0000   1.0000   1.0000   1.0000   1.0000
     1.0000   1.0000   1.0000   1.0000   1.0000   1.0000   1.0000   1.0000
     1.0000   1.0000   1.0000   1.0000   1.0000   1.0000   1.0000   0.9994
     0.0000   0.0000   0.0000   0.0000   0.0000   0.0000

          k =-0.1829 0.5330-0.5287 (  7529 PWs)   bands (ev):

    -5.3192  -4.7210  -4.2193  -4.0876  -3.4836  -2.8722  -2.6080  -2.2153
    -1.0357  -0.8912  -0.2684   0.1925   0.6475   1.0264   1.3810   1.7746
     1.9746   2.0511   2.7031   2.7703   2.9508   3.1798   3.3238   3.4499
     3.7538   3.8845   3.9932   4.3137   4.5073   4.8941   5.4043   5.6928
     7.2778   7.7680   7.8785   8.1130   8.3387   8.4782

     occupation numbers 
     1.0000   1.0000   1.0000   1.0000   1.0000   1.0000   1.0000   1.0000
     1.0000   1.0000   1.0000   1.0000   1.0000   1.0000   1.0000   1.0000
     1.0000   1.0000   1.0000   1.0000   1.0000   1.0000   1.0000   1.0000
     1.0000   1.0000   1.0000   1.0000   1.0000   1.0000   1.0000   1.0000
     0.0000   0.0000   0.0000   0.0000   0.0000   0.0000

          k =-0.7124-0.0028 0.0054 (  7532 PWs)   bands (ev):

    -5.1739  -4.7047  -4.2837  -3.9880  -3.8706  -3.4344  -1.8766  -1.7063
    -1.4657  -1.2891   0.3641   0.5454   0.5809   1.0140   1.9638   2.0885
     2.1560   2.1809   2.2769   2.4005   2.5335   2.6047   2.8385   2.9156
     3.6900   4.1130   4.3091   4.3427   4.6398   5.0407   5.1337   5.5109
     6.8531   7.1013   7.8202   8.3284   8.4310   8.4500

     occupation numbers 
     1.0000   1.0000   1.0000   1.0000   1.0000   1.0000   1.0000   1.0000
     1.0000   1.0000   1.0000   1.0000   1.0000   1.0000   1.0000   1.0000
     1.0000   1.0000   1.0000   1.0000   1.0000   1.0000   1.0000   1.0000
     1.0000   1.0000   1.0000   1.0000   1.0000   1.0000   1.0000   1.0000
     0.0020   0.0000   0.0000   0.0000   0.0000   0.0000

          k =-0.1769 0.1758 0.1784 (  7536 PWs)   bands (ev):

    -5.8015  -4.4544  -3.7049  -3.5843  -3.3123  -2.8503  -2.5450  -2.3906
    -1.3203  -1.0623  -0.7510  -0.4703  -0.2504  -0.0854   0.3573   2.5330
     2.5906   2.6993   3.1790   3.3034   3.4303   3.7604   3.8559   3.9930
     4.2604   4.4358   4.6030   4.9061   4.9958   5.3825   6.0842   6.3810
     6.6492   6.7871   6.8651   7.4674   7.7045   7.7316

     occupation numbers 
     1.0000   1.0000   1.0000   1.0000   1.0000   1.0000   1.0000   1.0000
     1.0000   1.0000   1.0000   1.0000   1.0000   1.0000   1.0000   1.0000
     1.0000   1.0000   1.0000   1.0000   1.0000   1.0000   1.0000   1.0000
     1.0000   1.0000   1.0000   1.0000   1.0000   1.0000   0.9929   0.6535
     0.0716   0.0078   0.0015   0.0000   0.0000   0.0000

          k =-0.0004 0.3544 0.0003 (  7540 PWs)   bands (ev):

    -5.7326  -4.2580  -3.9319  -3.7593  -3.6134  -3.1861  -2.0553  -1.7138
    -1.5495  -1.4512  -0.5060  -0.3352  -0.1455   0.0278   0.7153   2.4239
     2.5945   2.6545   2.7068   3.1376   3.4052   3.5460   3.6362   3.8005
     3.9785   4.4390   4.7402   4.9310   5.0981   5.3096   5.6265   5.7670
     6.5842   7.2388   7.6046   7.7423   7.8200   7.9156

     occupation numbers 
     1.0000   1.0000   1.0000   1.0000   1.0000   1.0000   1.0000   1.0000
     1.0000   1.0000   1.0000   1.0000   1.0000   1.0000   1.0000   1.0000
     1.0000   1.0000   1.0000   1.0000   1.0000   1.0000   1.0000   1.0000
     1.0000   1.0000   1.0000   1.0000   1.0000   1.0000   1.0000   1.0000
     0.1555   0.0000   0.0000   0.0000   0.0000   0.0000

          k =-0.5299-0.1814 0.5345 (  7533 PWs)   bands (ev):

    -5.3173  -4.7333  -4.3107  -3.7944  -3.7331  -2.8908  -2.4504  -2.2447
    -1.0493  -0.8379  -0.4523   0.3189   0.4360   1.1966   1.4683   1.7559
     1.8541   2.0163   2.5971   2.8609   3.0074   3.1548   3.3774   3.6257
     3.6883   3.8720   4.2341   4.3513   4.5324   4.6514   5.0922   5.8075
     7.1262   7.8842   8.0405   8.1408   8.3802   8.5936

     occupation numbers 
     1.0000   1.0000   1.0000   1.0000   1.0000   1.0000   1.0000   1.0000
     1.0000   1.0000   1.0000   1.0000   1.0000   1.0000   1.0000   1.0000
     1.0000   1.0000   1.0000   1.0000   1.0000   1.0000   1.0000   1.0000
     1.0000   1.0000   1.0000   1.0000   1.0000   1.0000   1.0000   1.0000
     0.0000   0.0000   0.0000   0.0000   0.0000   0.0000

          k =-0.3534-0.0028 0.3565 (  7528 PWs)   bands (ev):

    -5.4935  -4.6341  -4.2629  -3.5614  -3.4851  -3.0308  -2.7188  -2.0240
    -1.2893  -0.9775  -0.5492   0.1529   0.4060   0.7634   1.0797   1.7521
     2.3219   2.4233   2.8746   3.0129   3.1710   3.2107   3.4534   3.5050
     3.8632   4.1358   4.2160   4.3736   4.5609   4.9068   5.0834   6.1442
     7.0395   7.6500   7.7927   8.0810   8.2056   8.3518

     occupation numbers 
     1.0000   1.0000   1.0000   1.0000   1.0000   1.0000   1.0000   1.0000
     1.0000   1.0000   1.0000   1.0000   1.0000   1.0000   1.0000   1.0000
     1.0000   1.0000   1.0000   1.0000   1.0000   1.0000   1.0000   1.0000
     1.0000   1.0000   1.0000   1.0000   1.0000   1.0000   1.0000   0.9791
     0.0000   0.0000   0.0000   0.0000   0.0000   0.0000

          k = 0.0028-0.0014 0.3537 (  7542 PWs)   bands (ev):

    -5.7293  -4.2544  -3.9859  -3.7802  -3.4215  -3.3500  -2.0118  -1.6809
    -1.5787  -1.4151  -0.5920  -0.1678  -0.1042  -0.0011   0.5484   2.4052
     2.5010   2.6039   2.7113   3.1442   3.4060   3.5369   3.7559   3.8415
     3.9114   4.3780   4.8856   4.9992   5.1596   5.4573   5.5053   5.8526
     6.5532   7.2134   7.5373   7.6535   7.8178   7.9637

     occupation numbers 
     1.0000   1.0000   1.0000   1.0000   1.0000   1.0000   1.0000   1.0000
     1.0000   1.0000   1.0000   1.0000   1.0000   1.0000   1.0000   1.0000
     1.0000   1.0000   1.0000   1.0000   1.0000   1.0000   1.0000   1.0000
     1.0000   1.0000   1.0000   1.0000   1.0000   1.0000   1.0000   1.0000
     0.2122   0.0000   0.0000   0.0000   0.0000   0.0000

          k = 0.1793 0.1772 0.1757 (  7542 PWs)   bands (ev):

    -5.7968  -4.4542  -3.7770  -3.5656  -3.2863  -2.8477  -2.5539  -2.3363
    -1.2589  -0.9751  -0.7124  -0.5956  -0.4629  -0.0750   0.3972   2.5112
     2.6809   2.7651   3.1891   3.3306   3.4447   3.6236   3.9271   4.0107
     4.2559   4.4412   4.5730   5.0587   5.1636   5.2311   5.9415   6.2212
     6.6812   6.7645   6.9729   7.4448   7.7294   7.8348

     occupation numbers 
     1.0000   1.0000   1.0000   1.0000   1.0000   1.0000   1.0000   1.0000
     1.0000   1.0000   1.0000   1.0000   1.0000   1.0000   1.0000   1.0000
     1.0000   1.0000   1.0000   1.0000   1.0000   1.0000   1.0000   1.0000
     1.0000   1.0000   1.0000   1.0000   1.0000   1.0000   0.9997   0.9334
     0.0459   0.0118   0.0001   0.0000   0.0000   0.0000

          k =-0.3502-0.3586 0.7099 (  7537 PWs)   bands (ev):

    -5.4867  -4.5655  -4.3823  -3.6901  -3.2841  -3.0416  -2.6728  -2.1261
    -1.1470  -0.9063  -0.6660   0.0049   0.3485   0.8711   1.0279   1.7660
     2.3416   2.5745   2.7284   2.8485   3.1670   3.2892   3.5790   3.6787
     3.9682   4.1065   4.1417   4.4558   4.6758   4.7176   5.0803   5.9482
     7.0119   7.6722   7.8391   8.0213   8.1002   8.4816

     occupation numbers 
     1.0000   1.0000   1.0000   1.0000   1.0000   1.0000   1.0000   1.0000
     1.0000   1.0000   1.0000   1.0000   1.0000   1.0000   1.0000   1.0000
     1.0000   1.0000   1.0000   1.0000   1.0000   1.0000   1.0000   1.0000
     1.0000   1.0000   1.0000   1.0000   1.0000   1.0000   1.0000   0.9997
     0.0000   0.0000   0.0000   0.0000   0.0000   0.0000

          k =-0.1737-0.1800 0.5318 (  7529 PWs)   bands (ev):

    -5.3119  -4.7132  -4.3524  -3.9173  -3.5077  -3.1197  -2.2916  -2.2033
    -1.0378  -0.8654  -0.4227   0.1444   0.5200   1.2918   1.3589   1.7140
     1.9132   2.2697   2.4459   2.6987   2.8027   3.1021   3.3527   3.5309
     3.7136   4.0059   4.3229   4.5187   4.6203   4.9139   5.0965   5.6383
     7.1872   7.7009   7.9441   8.1216   8.3986   8.4815

     occupation numbers 
     1.0000   1.0000   1.0000   1.0000   1.0000   1.0000   1.0000   1.0000
     1.0000   1.0000   1.0000   1.0000   1.0000   1.0000   1.0000   1.0000
     1.0000   1.0000   1.0000   1.0000   1.0000   1.0000   1.0000   1.0000
     1.0000   1.0000   1.0000   1.0000   1.0000   1.0000   1.0000   1.0000
     0.0000   0.0000   0.0000   0.0000   0.0000   0.0000

          k =-0.5362 0.5302-0.1723 (  7528 PWs)   bands (ev):

    -5.2935  -4.7618  -4.3475  -3.8577  -3.5509  -3.0857  -2.3583  -2.2081
    -1.0399  -0.7961  -0.4140   0.3553   0.4181   1.1672   1.3382   1.7533
     1.8731   2.1223   2.4546   2.6775   2.9724   3.0698   3.3279   3.5196
     3.7329   4.0944   4.2153   4.3733   4.4680   5.0571   5.2632   5.7675
     7.2049   7.6616   7.9618   8.2939   8.3369   8.5630

     occupation numbers 
     1.0000   1.0000   1.0000   1.0000   1.0000   1.0000   1.0000   1.0000
     1.0000   1.0000   1.0000   1.0000   1.0000   1.0000   1.0000   1.0000
     1.0000   1.0000   1.0000   1.0000   1.0000   1.0000   1.0000   1.0000
     1.0000   1.0000   1.0000   1.0000   1.0000   1.0000   1.0000   1.0000
     0.0000   0.0000   0.0000   0.0000   0.0000   0.0000

          k =-0.3597 0.7088-0.3503 (  7532 PWs)   bands (ev):

    -5.4767  -4.6017  -4.3941  -3.6401  -3.2184  -3.0133  -2.7044  -2.3596
    -1.0218  -0.8190  -0.5546   0.1348   0.2249   0.6523   1.0626   1.7115
     2.2993   2.5669   2.7340   2.8589   3.2052   3.3334   3.6037   3.7431
     3.8024   3.9837   4.3127   4.4193   4.5729   4.8519   5.0331   6.0616
     7.1481   7.7526   7.7878   7.8909   8.2409   8.3183

     occupation numbers 
     1.0000   1.0000   1.0000   1.0000   1.0000   1.0000   1.0000   1.0000
     1.0000   1.0000   1.0000   1.0000   1.0000   1.0000   1.0000   1.0000
     1.0000   1.0000   1.0000   1.0000   1.0000   1.0000   1.0000   1.0000
     1.0000   1.0000   1.0000   1.0000   1.0000   1.0000   1.0000   0.9954
     0.0000   0.0000   0.0000   0.0000   0.0000   0.0000

          k =-0.8892 0.1730 0.1838 (  7521 PWs)   bands (ev):

    -5.3093  -4.8415  -4.1920  -3.7395  -3.6548  -3.0765  -2.4023  -2.2538
    -1.1045  -0.8615  -0.3712   0.1573   0.2793   1.2296   1.5489   1.9135
     2.0976   2.3265   2.4504   2.7861   3.0164   3.1997   3.3322   3.5448
     3.6616   3.8554   4.1347   4.2372   4.4337   4.9437   5.0809   5.7329
     7.0958   7.3864   7.8266   8.2034   8.3393   8.6012

     occupation numbers 
     1.0000   1.0000   1.0000   1.0000   1.0000   1.0000   1.0000   1.0000
     1.0000   1.0000   1.0000   1.0000   1.0000   1.0000   1.0000   1.0000
     1.0000   1.0000   1.0000   1.0000   1.0000   1.0000   1.0000   1.0000
     1.0000   1.0000   1.0000   1.0000   1.0000   1.0000   1.0000   1.0000
     0.0000   0.0000   0.0000   0.0000   0.0000   0.0000

          k =-0.7127 0.3516 0.0058 (  7529 PWs)   bands (ev):

    -5.0263  -4.7515  -4.5529  -4.3407  -3.2407  -2.9561  -2.4972  -2.3281
    -0.9304  -0.7281  -0.1589  -0.0724   1.3097   1.5369   1.6632   1.7666
     1.8117   1.9944   2.1006   2.4874   3.0015   3.1249   3.3039   3.4139
     3.4909   3.6565   3.7433   4.0994   4.4948   4.6861   5.0890   5.4053
     7.9038   8.0614   8.2044   8.4098   8.6149   8.8344

     occupation numbers 
     1.0000   1.0000   1.0000   1.0000   1.0000   1.0000   1.0000   1.0000
     1.0000   1.0000   1.0000   1.0000   1.0000   1.0000   1.0000   1.0000
     1.0000   1.0000   1.0000   1.0000   1.0000   1.0000   1.0000   1.0000
     1.0000   1.0000   1.0000   1.0000   1.0000   1.0000   1.0000   1.0000
     0.0000   0.0000   0.0000   0.0000   0.0000   0.0000

          k =-0.3566 0.3530 0.0031 (  7538 PWs)   bands (ev):

    -5.4913  -4.5417  -4.4154  -3.6223  -3.2663  -3.0703  -2.7761  -2.0723
    -1.2945  -0.9245  -0.4870   0.1315   0.4504   0.8167   0.9566   1.7718
     2.2971   2.5329   2.6752   2.9361   3.0835   3.2038   3.4350   3.6125
     3.9219   4.0469   4.1685   4.3911   4.7383   4.9047   5.1068   6.2836
     7.0751   7.6043   7.8377   8.0029   8.2429   8.4177

     occupation numbers 
     1.0000   1.0000   1.0000   1.0000   1.0000   1.0000   1.0000   1.0000
     1.0000   1.0000   1.0000   1.0000   1.0000   1.0000   1.0000   1.0000
     1.0000   1.0000   1.0000   1.0000   1.0000   1.0000   1.0000   1.0000
     1.0000   1.0000   1.0000   1.0000   1.0000   1.0000   1.0000   0.8575
     0.0000   0.0000   0.0000   0.0000   0.0000   0.0000

          k =-0.1801 0.5316-0.1750 (  7532 PWs)   bands (ev):

    -5.3049  -4.7322  -4.3795  -3.8934  -3.4207  -3.0448  -2.6079  -2.1413
    -0.9719  -0.7945  -0.3633   0.1877   0.3597   1.2627   1.4567   1.7508
     1.8881   2.3510   2.4698   2.6979   2.8414   3.0652   3.1288   3.4534
     3.8188   4.0980   4.2124   4.2800   4.6745   5.0355   5.1823   5.5755
     7.2247   7.7004   8.0090   8.2733   8.3656   8.5230

     occupation numbers 
     1.0000   1.0000   1.0000   1.0000   1.0000   1.0000   1.0000   1.0000
     1.0000   1.0000   1.0000   1.0000   1.0000   1.0000   1.0000   1.0000
     1.0000   1.0000   1.0000   1.0000   1.0000   1.0000   1.0000   1.0000
     1.0000   1.0000   1.0000   1.0000   1.0000   1.0000   1.0000   1.0000
     0.0000   0.0000   0.0000   0.0000   0.0000   0.0000

          k =-0.7096-0.0042 0.3592 (  7518 PWs)   bands (ev):

    -5.0053  -4.8415  -4.5010  -4.3053  -3.1665  -2.8923  -2.7349  -2.3179
    -0.8383  -0.5937  -0.3605  -0.1271   1.3287   1.6374   1.7111   1.8001
     1.8996   2.0469   2.1520   2.3740   2.9323   3.0761   3.2816   3.4216
     3.5198   3.6758   3.8132   3.8842   4.5280   4.7336   5.0454   5.2757
     7.9683   8.1061   8.2724   8.4808   8.6459   8.8205

     occupation numbers 
     1.0000   1.0000   1.0000   1.0000   1.0000   1.0000   1.0000   1.0000
     1.0000   1.0000   1.0000   1.0000   1.0000   1.0000   1.0000   1.0000
     1.0000   1.0000   1.0000   1.0000   1.0000   1.0000   1.0000   1.0000
     1.0000   1.0000   1.0000   1.0000   1.0000   1.0000   1.0000   1.0000
     0.0000   0.0000   0.0000   0.0000   0.0000   0.0000

          k =-0.5331 0.1744 0.1811 (  7523 PWs)   bands (ev):

    -5.3348  -4.7963  -4.2008  -3.7646  -3.6320  -3.0401  -2.4613  -2.2792
    -1.1090  -0.8698  -0.3421   0.0785   0.4302   1.3477   1.5445   1.9728
     2.1000   2.2084   2.6450   2.7452   2.8154   2.9537   3.2556   3.4447
     3.5818   4.0084   4.2852   4.3558   4.5043   4.6567   5.2316   5.8705
     7.0161   7.4977   7.8691   8.2023   8.3027   8.5202

     occupation numbers 
     1.0000   1.0000   1.0000   1.0000   1.0000   1.0000   1.0000   1.0000
     1.0000   1.0000   1.0000   1.0000   1.0000   1.0000   1.0000   1.0000
     1.0000   1.0000   1.0000   1.0000   1.0000   1.0000   1.0000   1.0000
     1.0000   1.0000   1.0000   1.0000   1.0000   1.0000   1.0000   1.0000
     0.0000   0.0000   0.0000   0.0000   0.0000   0.0000

          k = 0.3538-0.3516-0.3568 (  7536 PWs)   bands (ev):

    -5.3720  -5.0888  -3.6374  -3.4759  -3.2813  -3.1521  -2.8612  -2.7609
    -1.0140  -0.6778  -0.4312  -0.0426   0.2102   0.4033   2.0429   2.1642
     2.2767   2.4304   2.4953   2.5780   2.8566   3.0068   3.4324   3.6912
     3.7192   3.9518   4.2288   4.4758   4.7629   5.5709   5.7259   6.2275
     6.9370   7.1596   7.2550   7.3991   7.5407   7.8235

     occupation numbers 
     1.0000   1.0000   1.0000   1.0000   1.0000   1.0000   1.0000   1.0000
     1.0000   1.0000   1.0000   1.0000   1.0000   1.0000   1.0000   1.0000
     1.0000   1.0000   1.0000   1.0000   1.0000   1.0000   1.0000   1.0000
     1.0000   1.0000   1.0000   1.0000   1.0000   1.0000   1.0000   0.9276
     0.0003   0.0000   0.0000   0.0000   0.0000   0.0000

          k = 0.5303-0.1730-0.5349 (  7540 PWs)   bands (ev):

    -5.3195  -4.8435  -4.0957  -3.8036  -3.7513  -2.9208  -2.4557  -2.2702
    -1.1346  -0.8889  -0.4613   0.2764   0.4634   1.2391   1.5182   1.9112
     2.0193   2.1443   2.5685   2.7685   3.0198   3.1405   3.3424   3.4776
     3.6338   3.7783   4.0554   4.1621   4.4374   5.1159   5.3343   5.6696
     7.2018   7.5623   8.0501   8.0900   8.3488   8.5323

     occupation numbers 
     1.0000   1.0000   1.0000   1.0000   1.0000   1.0000   1.0000   1.0000
     1.0000   1.0000   1.0000   1.0000   1.0000   1.0000   1.0000   1.0000
     1.0000   1.0000   1.0000   1.0000   1.0000   1.0000   1.0000   1.0000
     1.0000   1.0000   1.0000   1.0000   1.0000   1.0000   1.0000   1.0000
     0.0000   0.0000   0.0000   0.0000   0.0000   0.0000

          k = 0.0008-0.7088-0.0007 (  7526 PWs)   bands (ev):

    -5.0771  -4.9019  -4.1647  -4.0149  -3.8742  -3.4029  -1.9604  -1.6136
    -1.3995  -1.3459   0.4749   0.6241   0.6308   0.7683   1.7905   1.9814
     2.1329   2.1818   2.3033   2.3132   2.4975   2.6783   2.7858   3.0670
     3.8291   4.0779   4.3229   4.5719   4.7185   4.8977   5.0329   5.4603
     6.8685   7.2537   8.1833   8.3170   8.3735   8.5222

     occupation numbers 
     1.0000   1.0000   1.0000   1.0000   1.0000   1.0000   1.0000   1.0000
     1.0000   1.0000   1.0000   1.0000   1.0000   1.0000   1.0000   1.0000
     1.0000   1.0000   1.0000   1.0000   1.0000   1.0000   1.0000   1.0000
     1.0000   1.0000   1.0000   1.0000   1.0000   1.0000   1.0000   1.0000
     0.0014   0.0000   0.0000   0.0000   0.0000   0.0000

          k = 0.5335-0.5288-0.1815 (  7534 PWs)   bands (ev):

    -5.3179  -4.8121  -4.2183  -3.8480  -3.5698  -3.0312  -2.4172  -2.2188
    -1.0920  -0.9826  -0.3680   0.2776   0.5049   1.0857   1.4739   1.8861
     2.0425   2.2042   2.5398   2.7552   2.9622   3.0922   3.1810   3.4804
     3.6082   3.9365   4.0690   4.3825   4.7368   4.8832   5.1818   5.9189
     7.1386   7.8010   7.8795   8.0647   8.1671   8.4631

     occupation numbers 
     1.0000   1.0000   1.0000   1.0000   1.0000   1.0000   1.0000   1.0000
     1.0000   1.0000   1.0000   1.0000   1.0000   1.0000   1.0000   1.0000
     1.0000   1.0000   1.0000   1.0000   1.0000   1.0000   1.0000   1.0000
     1.0000   1.0000   1.0000   1.0000   1.0000   1.0000   1.0000   0.9998
     0.0000   0.0000   0.0000   0.0000   0.0000   0.0000

          k = 0.7100-0.3502-0.3595 (  7540 PWs)   bands (ev):

    -5.4906  -4.7226  -4.2080  -3.5037  -3.2918  -3.0246  -2.8939  -2.2061
    -1.0758  -0.9761  -0.6225   0.0473   0.3467   0.7491   1.0730   1.8138
     2.5430   2.5815   2.8316   2.8892   3.2385   3.2928   3.4575   3.5588
     3.8911   3.9936   4.2149   4.4256   4.5254   4.8024   4.9858   6.1359
     6.8862   7.6074   7.7427   7.8996   8.1154   8.4162

     occupation numbers 
     1.0000   1.0000   1.0000   1.0000   1.0000   1.0000   1.0000   1.0000
     1.0000   1.0000   1.0000   1.0000   1.0000   1.0000   1.0000   1.0000
     1.0000   1.0000   1.0000   1.0000   1.0000   1.0000   1.0000   1.0000
     1.0000   1.0000   1.0000   1.0000   1.0000   1.0000   1.0000   0.9818
     0.0009   0.0000   0.0000   0.0000   0.0000   0.0000

          k = 0.1804-0.8860 0.1747 (  7525 PWs)   bands (ev):

    -5.3020  -4.8378  -4.2349  -3.8968  -3.4078  -3.0206  -2.6048  -2.1856
    -0.9908  -0.8809  -0.4348   0.1786   0.2911   1.1182   1.5644   1.9637
     2.0245   2.3926   2.5601   2.7541   2.9419   3.0896   3.1993   3.4739
     3.7817   3.9540   4.0745   4.3685   4.4859   4.9745   5.0967   5.6177
     7.2370   7.7139   7.9037   8.0656   8.2575   8.5009

     occupation numbers 
     1.0000   1.0000   1.0000   1.0000   1.0000   1.0000   1.0000   1.0000
     1.0000   1.0000   1.0000   1.0000   1.0000   1.0000   1.0000   1.0000
     1.0000   1.0000   1.0000   1.0000   1.0000   1.0000   1.0000   1.0000
     1.0000   1.0000   1.0000   1.0000   1.0000   1.0000   1.0000   1.0000
     0.0000   0.0000   0.0000   0.0000   0.0000   0.0000

          k = 0.3569-0.7074-0.0034 (  7516 PWs)   bands (ev):

    -4.9156  -4.8819  -4.5869  -4.3186  -3.1283  -2.9629  -2.5861  -2.3273
    -0.8309  -0.7085  -0.2521  -0.0733   1.3355   1.4487   1.6037   1.7453
     1.8506   1.9946   2.1649   2.4108   3.0604   3.1300   3.2143   3.3510
     3.5178   3.6744   3.9577   4.0401   4.5295   4.8034   5.0699   5.2123
     7.9572   8.1270   8.3680   8.5561   8.6403   8.8633

     occupation numbers 
     1.0000   1.0000   1.0000   1.0000   1.0000   1.0000   1.0000   1.0000
     1.0000   1.0000   1.0000   1.0000   1.0000   1.0000   1.0000   1.0000
     1.0000   1.0000   1.0000   1.0000   1.0000   1.0000   1.0000   1.0000
     1.0000   1.0000   1.0000   1.0000   1.0000   1.0000   1.0000   1.0000
     0.0000   0.0000   0.0000   0.0000   0.0000   0.0000

          k =-0.0056 0.0028-0.7075 (  7518 PWs)   bands (ev):

    -5.0444  -4.8961  -4.3284  -3.9781  -3.7210  -3.5238  -1.8121  -1.5339
    -1.5188  -1.3001   0.3294   0.5785   0.7160   0.8071   1.8899   2.0006
     2.1089   2.1459   2.2254   2.2654   2.3193   2.4565   2.7985   3.0547
     4.1289   4.2390   4.3279   4.4372   4.8311   5.0516   5.2597   5.3576
     6.9564   7.1023   8.2069   8.2893   8.3720   8.4571

     occupation numbers 
     1.0000   1.0000   1.0000   1.0000   1.0000   1.0000   1.0000   1.0000
     1.0000   1.0000   1.0000   1.0000   1.0000   1.0000   1.0000   1.0000
     1.0000   1.0000   1.0000   1.0000   1.0000   1.0000   1.0000   1.0000
     1.0000   1.0000   1.0000   1.0000   1.0000   1.0000   1.0000   1.0000
     0.0002   0.0000   0.0000   0.0000   0.0000   0.0000

          k = 0.1709 0.1814-0.8856 (  7529 PWs)   bands (ev):

    -5.2909  -4.8560  -4.1963  -3.9031  -3.5423  -2.9706  -2.4300  -2.2723
    -1.1085  -0.7861  -0.3086   0.0490   0.3804   1.0146   1.5206   1.9295
     2.0260   2.2148   2.6104   2.8076   2.8951   3.2015   3.2420   3.5769
     3.6835   3.8849   4.0964   4.3883   4.5780   4.9439   5.3547   5.5124
     7.2213   7.5788   7.8933   8.0665   8.2395   8.5524

     occupation numbers 
     1.0000   1.0000   1.0000   1.0000   1.0000   1.0000   1.0000   1.0000
     1.0000   1.0000   1.0000   1.0000   1.0000   1.0000   1.0000   1.0000
     1.0000   1.0000   1.0000   1.0000   1.0000   1.0000   1.0000   1.0000
     1.0000   1.0000   1.0000   1.0000   1.0000   1.0000   1.0000   1.0000
     0.0000   0.0000   0.0000   0.0000   0.0000   0.0000

          k =-0.3586-0.3544-0.3514 (  7534 PWs)   bands (ev):

    -5.2830  -5.1874  -3.6793  -3.4823  -3.3292  -3.0385  -2.9539  -2.6500
    -0.9156  -0.4774  -0.3001  -0.2152  -0.0807   0.1171   2.0062   2.1336
     2.3926   2.5648   2.5833   2.7399   2.8767   3.1389   3.5161   3.6794
     3.8427   3.8559   4.0573   4.2500   5.2466   5.3748   5.6267   5.9446
     7.1441   7.2085   7.2638   7.3688   7.5196   7.6618

     occupation numbers 
     1.0000   1.0000   1.0000   1.0000   1.0000   1.0000   1.0000   1.0000
     1.0000   1.0000   1.0000   1.0000   1.0000   1.0000   1.0000   1.0000
     1.0000   1.0000   1.0000   1.0000   1.0000   1.0000   1.0000   1.0000
     1.0000   1.0000   1.0000   1.0000   1.0000   1.0000   1.0000   0.9997
     0.0000   0.0000   0.0000   0.0000   0.0000   0.0000

     the Fermi energy is     6.4379 ev

!    total energy              =    -152.64391598 Ry
     Harris-Foulkes estimate   =    -152.64391598 Ry
     estimated scf accuracy    <          9.9E-10 Ry

     The total energy is the sum of the following terms:

     one-electron contribution =      40.31528951 Ry
     hartree contribution      =       9.05250639 Ry
     xc contribution           =     -68.28884698 Ry
     ewald contribution        =    -133.72049983 Ry
     smearing contrib. (-TS)   =      -0.00236506 Ry

     convergence has been achieved in  13 iterations

     Forces acting on atoms (Ry/au):

     atom    1 type  1   force =  -0.60724111E-01  0.61963662E-01  0.44918621E-01
     atom    2 type  1   force =   0.75877252E-01 -0.21479204E-01 -0.42120325E-01
     atom    3 type  1   force =  -0.38326670E-01 -0.47257457E-01  0.73375672E-01
     atom    4 type  1   force =  -0.12773773E+00  0.16372203E+00 -0.12236895E+00
     atom    5 type  1   force =  -0.60102675E-01  0.25780517E-01  0.51906934E-01
     atom    6 type  1   force =  -0.17096400E-01 -0.10200997E+00  0.46911664E-02
     atom    7 type  1   force =   0.18291253E+00 -0.13517430E+00  0.62048015E-01
     atom    8 type  1   force =   0.11222049E-01  0.10860469E+00 -0.31577650E-01
     atom    9 type  1   force =   0.46909912E-02 -0.15701934E-01  0.14612213E-01
     atom   10 type  1   force =   0.22126743E-01 -0.69649475E-01  0.15261639E-01
     atom   11 type  1   force =   0.42450669E-01  0.31753555E-01 -0.54656276E-01
     atom   12 type  1   force =  -0.56027885E-01  0.34807578E-01 -0.84254381E-01
     atom   13 type  1   force =   0.83153970E-01  0.15226183E+00 -0.71330945E-01
     atom   14 type  1   force =  -0.12862590E+00 -0.12711271E+00  0.74328379E-01
     atom   15 type  1   force =   0.18050215E+00  0.17259361E-01 -0.63476560E-01
     atom   16 type  1   force =  -0.11429498E+00 -0.77768167E-01  0.12864245E+00
     The non-local contrib.  to forces
     atom    1 type  1   force =  -0.84654133E-01  0.46930709E-01  0.39673306E-01
     atom    2 type  1   force =   0.53598975E-01 -0.23255777E-02 -0.31996168E-01
     atom    3 type  1   force =  -0.23573809E-01 -0.21160143E-01  0.64981924E-01
     atom    4 type  1   force =  -0.14722905E+00  0.16724233E+00 -0.11569084E+00
     atom    5 type  1   force =  -0.65416778E-01  0.10076616E-01  0.55420795E-01
     atom    6 type  1   force =   0.49788258E-02 -0.93278928E-01  0.24711999E-01
     atom    7 type  1   force =   0.20625804E+00 -0.13979350E+00  0.31945964E-01
     atom    8 type  1   force =  -0.38212292E-02  0.10174188E+00 -0.11568662E-01
     atom    9 type  1   force =  -0.31143497E-01 -0.18179817E-01  0.21920911E-01
     atom   10 type  1   force =   0.38760882E-01 -0.80760930E-01  0.14741944E-01
     atom   11 type  1   force =   0.47584189E-01  0.49544536E-01 -0.65118502E-01
     atom   12 type  1   force =  -0.31473319E-01  0.29632837E-01 -0.10507597E+00
     atom   13 type  1   force =   0.74948746E-01  0.17231042E+00 -0.50576381E-01
     atom   14 type  1   force =  -0.11200995E+00 -0.15991868E+00  0.45181292E-01
     atom   15 type  1   force =   0.18333986E+00  0.26216856E-01 -0.79987162E-01
     atom   16 type  1   force =  -0.11288548E+00 -0.84686445E-01  0.14690549E+00
     The ionic contribution  to forces
     atom    1 type  1   force =  -0.34118283E+00  0.13811177E+00  0.19109879E+00
     atom    2 type  1   force =   0.54895074E-01 -0.15458386E+00  0.42966932E-01
     atom    3 type  1   force =  -0.25711181E+00 -0.22936098E-01  0.97860103E-01
     atom    4 type  1   force =  -0.53123200E+00  0.56639528E+00 -0.31896713E+00
     atom    5 type  1   force =  -0.31537792E+00 -0.73560953E-01  0.35739088E+00
     atom    6 type  1   force =   0.83827980E-01 -0.40000346E+00  0.20523077E+00
     atom    7 type  1   force =   0.73446403E+00 -0.29418613E+00 -0.10277544E+00
     atom    8 type  1   force =   0.23162127E+00  0.37961695E+00 -0.86547075E-01
     atom    9 type  1   force =  -0.12870831E+00 -0.71489108E-01 -0.38048819E-01
     atom   10 type  1   force =   0.10330727E+00 -0.12677804E+00  0.97666082E-01
     atom   11 type  1   force =   0.97199425E-01  0.32522707E+00 -0.22767106E+00
     atom   12 type  1   force =  -0.52429182E-01  0.17257872E+00 -0.45541894E+00
     atom   13 type  1   force =   0.17072941E+00  0.28874290E+00  0.12288912E-01
     atom   14 type  1   force =  -0.42399905E+00 -0.47224102E+00  0.11687009E+00
     atom   15 type  1   force =   0.59070016E+00  0.23795022E-01 -0.29069691E+00
     atom   16 type  1   force =  -0.16703518E-01 -0.27868904E+00  0.39875281E+00
     The local contribution  to forces
     atom    1 type  1   force =   0.35682036E+00 -0.11947739E+00 -0.18199759E+00
     atom    2 type  1   force =  -0.28090126E-01  0.13508420E+00 -0.55570798E-01
     atom    3 type  1   force =   0.24000806E+00 -0.55667330E-02 -0.83502923E-01
     atom    4 type  1   force =   0.53668584E+00 -0.55500632E+00  0.30227697E+00
     atom    5 type  1   force =   0.31492658E+00  0.89981876E-01 -0.35529655E+00
     atom    6 type  1   force =  -0.10449569E+00  0.38316897E+00 -0.22284472E+00
     atom    7 type  1   force =  -0.73881527E+00  0.28644844E+00  0.13423910E+00
     atom    8 type  1   force =  -0.21703103E+00 -0.36337607E+00  0.65573807E-01
     atom    9 type  1   force =   0.16138983E+00  0.72971857E-01  0.32696865E-01
     atom   10 type  1   force =  -0.11623590E+00  0.13042025E+00 -0.95658616E-01
     atom   11 type  1   force =  -0.97884595E-01 -0.33803145E+00  0.23258789E+00
     atom   12 type  1   force =   0.25662720E-01 -0.16428925E+00  0.46648754E+00
     atom   13 type  1   force =  -0.15579391E+00 -0.29306988E+00 -0.37481775E-01
     atom   14 type  1   force =   0.39725817E+00  0.49043979E+00 -0.84534785E-01
     atom   15 type  1   force =  -0.57708927E+00 -0.30363755E-01  0.29974900E+00
     atom   16 type  1   force =   0.51920894E-02  0.27755823E+00 -0.40365494E+00
     The core correction contribution to forces
     atom    1 type  1   force =   0.82900230E-02 -0.35913416E-02 -0.38523846E-02
     atom    2 type  1   force =  -0.45348049E-02  0.34471433E-03  0.24810751E-02
     atom    3 type  1   force =   0.23439609E-02  0.24077704E-02 -0.59644914E-02
     atom    4 type  1   force =   0.14039289E-01 -0.14904058E-01  0.10011527E-01
     atom    5 type  1   force =   0.57622122E-02 -0.71785274E-03 -0.56058061E-02
     atom    6 type  1   force =  -0.14073250E-02  0.81016822E-02 -0.23973087E-02
     atom    7 type  1   force =  -0.18991459E-01  0.12357902E-01 -0.13563078E-02
     atom    8 type  1   force =   0.45309403E-03 -0.93782622E-02  0.96365404E-03
     atom    9 type  1   force =   0.31502963E-02  0.98848004E-03 -0.19647206E-02
     atom   10 type  1   force =  -0.37065177E-02  0.74685137E-02 -0.14842767E-02
     atom   11 type  1   force =  -0.44458404E-02 -0.49824939E-02  0.55423960E-02
     atom   12 type  1   force =   0.22131435E-02 -0.31128719E-02  0.97443613E-02
     atom   13 type  1   force =  -0.67198851E-02 -0.15721818E-01  0.44404299E-02
     atom   14 type  1   force =   0.10121735E-01  0.14597306E-01 -0.31863568E-02
     atom   15 type  1   force =  -0.16446107E-01 -0.23948602E-02  0.74566868E-02
     atom   16 type  1   force =   0.10108838E-01  0.80507485E-02 -0.13359361E-01
     The Hubbard contrib.    to forces
     atom    1 type  1   force =   0.00000000E+00  0.00000000E+00  0.00000000E+00
     atom    2 type  1   force =   0.00000000E+00  0.00000000E+00  0.00000000E+00
     atom    3 type  1   force =   0.00000000E+00  0.00000000E+00  0.00000000E+00
     atom    4 type  1   force =   0.00000000E+00  0.00000000E+00  0.00000000E+00
     atom    5 type  1   force =   0.00000000E+00  0.00000000E+00  0.00000000E+00
     atom    6 type  1   force =   0.00000000E+00  0.00000000E+00  0.00000000E+00
     atom    7 type  1   force =   0.00000000E+00  0.00000000E+00  0.00000000E+00
     atom    8 type  1   force =   0.00000000E+00  0.00000000E+00  0.00000000E+00
     atom    9 type  1   force =   0.00000000E+00  0.00000000E+00  0.00000000E+00
     atom   10 type  1   force =   0.00000000E+00  0.00000000E+00  0.00000000E+00
     atom   11 type  1   force =   0.00000000E+00  0.00000000E+00  0.00000000E+00
     atom   12 type  1   force =   0.00000000E+00  0.00000000E+00  0.00000000E+00
     atom   13 type  1   force =   0.00000000E+00  0.00000000E+00  0.00000000E+00
     atom   14 type  1   force =   0.00000000E+00  0.00000000E+00  0.00000000E+00
     atom   15 type  1   force =   0.00000000E+00  0.00000000E+00  0.00000000E+00
     atom   16 type  1   force =   0.00000000E+00  0.00000000E+00  0.00000000E+00
     The SCF correction term to forces
     atom    1 type  1   force =   0.25478604E-05 -0.10141512E-04 -0.33363988E-05
     atom    2 type  1   force =   0.82102383E-05  0.12659421E-05 -0.12030625E-05
     atom    3 type  1   force =   0.70020669E-05 -0.23075666E-05  0.12225051E-05
     atom    4 type  1   force =  -0.17312749E-05 -0.52561681E-05  0.68444348E-06
     atom    5 type  1   force =   0.33124536E-05  0.77609773E-06 -0.22261150E-05
     atom    6 type  1   force =  -0.11797796E-06  0.17076038E-05 -0.94132583E-05
     atom    7 type  1   force =  -0.27367709E-05 -0.10608834E-05 -0.51350297E-05
     atom    8 type  1   force =   0.20677264E-07  0.14072321E-06  0.78986364E-06
     atom    9 type  1   force =   0.27500119E-05  0.66002439E-05  0.81410210E-05
     atom   10 type  1   force =   0.10809420E-05  0.68128890E-06 -0.33303862E-05
     atom   11 type  1   force =  -0.24331617E-05 -0.41583622E-05  0.31642864E-05
     atom   12 type  1   force =  -0.11706055E-05 -0.19074072E-05  0.87840679E-05
     atom   13 type  1   force =  -0.10314687E-04  0.14388048E-06 -0.19677900E-05
     atom   14 type  1   force =   0.32748606E-05  0.98315138E-05 -0.16986763E-05
     atom   15 type  1   force =  -0.24121308E-05  0.60440267E-05  0.19877573E-05
     atom   16 type  1   force =  -0.68379760E-05 -0.17138205E-05 -0.13800635E-05

     Total force =     0.583260     Total SCF correction =     0.000031


     entering subroutine stress ...

          total   stress  (Ry/bohr**3)                   (kbar)     P=   33.79
   0.0002741312  -0.0000558398  -0.0000534324         40.33     -8.21     -7.86
  -0.0000558398   0.0001683597  -0.0002790435         -8.21     24.77    -41.05
  -0.0000534324  -0.0002790435   0.0002465785         -7.86    -41.05     36.27

     kinetic stress (kbar)   2216.13      6.45     -1.27
                                6.45   2210.60      5.75
                               -1.27      5.75   2209.17

     local   stress (kbar)   -280.80     68.17     20.62
                               68.17   -273.80    159.82
                               20.62    159.82   -370.76

     nonloc. stress (kbar)   1969.97     -9.34     -2.99
                               -9.34   1963.93    -21.73
                               -2.99    -21.73   1974.48

     hartree stress (kbar)    197.75     -6.54     -1.67
                               -6.54    202.82    -18.73
                               -1.67    -18.73    217.76

     exc-cor stress (kbar)    997.87     -0.09     -0.04
                               -0.09    997.85     -0.23
                               -0.04     -0.23    997.97

     corecor stress (kbar)  -1998.68      1.10      0.38
                                1.10  -1997.99      2.46
                                0.38      2.46  -1999.26

     ewald   stress (kbar)  -3061.91    -67.96    -22.89
                              -67.96  -3078.64   -168.40
                              -22.89   -168.40  -2993.09

     hubbard stress (kbar)      0.00      0.00      0.00
                                0.00      0.00      0.00
                                0.00      0.00      0.00

     london  stress (kbar)      0.00      0.00      0.00
                                0.00      0.00      0.00
                                0.00      0.00      0.00

     XDM     stress (kbar)      0.00      0.00      0.00
                                0.00      0.00      0.00
                                0.00      0.00      0.00

     dft-nl  stress (kbar)      0.00      0.00      0.00
                                0.00      0.00      0.00
                                0.00      0.00      0.00



     Writing output data file Si_diamond.scf.in.super.222.largdist.011.save

     init_run     :     28.45s CPU     30.05s WALL (       1 calls)
     electrons    :    524.95s CPU    529.32s WALL (       1 calls)
     forces       :      7.52s CPU      6.21s WALL (       1 calls)
     stress       :     24.25s CPU     23.90s WALL (       1 calls)

     Called by init_run:
     wfcinit      :     25.15s CPU     26.30s WALL (       1 calls)
     potinit      :      0.62s CPU      0.78s WALL (       1 calls)

     Called by electrons:
     c_bands      :    441.72s CPU    447.05s WALL (      14 calls)
     sum_band     :     72.04s CPU     71.01s WALL (      14 calls)
     v_of_rho     :      1.37s CPU      1.44s WALL (      14 calls)
     v_h          :      0.08s CPU      0.09s WALL (      14 calls)
     v_xc         :      1.46s CPU      1.52s WALL (      16 calls)
     newd         :      9.62s CPU      9.82s WALL (      14 calls)
     mix_rho      :      1.24s CPU      1.24s WALL (      14 calls)

     Called by c_bands:
     init_us_2    :      5.91s CPU      6.15s WALL (    1116 calls)
     cegterg      :    417.64s CPU    421.94s WALL (     504 calls)

     Called by sum_band:
     sum_band:bec :      0.44s CPU      0.48s WALL (     504 calls)
     addusdens    :      9.64s CPU      9.69s WALL (      14 calls)

     Called by *egterg:
     h_psi        :    294.45s CPU    291.74s WALL (    1880 calls)
     s_psi        :     28.83s CPU     24.23s WALL (    1880 calls)
     g_psi        :      0.70s CPU      0.78s WALL (    1340 calls)
     cdiaghg      :     23.63s CPU     27.37s WALL (    1808 calls)
     cegterg:over :     42.79s CPU     46.65s WALL (    1340 calls)
     cegterg:upda :     11.65s CPU     12.74s WALL (    1340 calls)
     cegterg:last :      4.77s CPU      4.50s WALL (     527 calls)

     Called by h_psi:
     h_psi:vloc   :    214.24s CPU    218.69s WALL (    1880 calls)
     h_psi:vnl    :     79.63s CPU     72.46s WALL (    1880 calls)
     add_vuspsi   :     29.35s CPU     25.00s WALL (    1880 calls)

     General routines
     calbec       :     73.92s CPU     68.50s WALL (    2456 calls)
     fft          :      1.83s CPU      1.89s WALL (     249 calls)
     ffts         :      0.68s CPU      0.68s WALL (     254 calls)
     fftw         :    222.99s CPU    227.51s WALL (  124838 calls)
     interpolate  :      0.28s CPU      0.28s WALL (      28 calls)

     Parallel routines
     fft_scatter  :    119.46s CPU    122.04s WALL (  125341 calls)

     PWSCF        :  9m46.70s CPU     9m51.54s WALL


   This run was terminated on:  11:52:44  27Sep2017            

=------------------------------------------------------------------------------=
   JOB DONE.
=------------------------------------------------------------------------------=
