
     Program PWSCF v.5.1 starts on 27Sep2017 at 11:44:38 

     This program is part of the open-source Quantum ESPRESSO suite
     for quantum simulation of materials; please cite
         "P. Giannozzi et al., J. Phys.:Condens. Matter 21 395502 (2009);
          URL http://www.quantum-espresso.org", 
     in publications or presentations arising from this work. More details at
     http://www.quantum-espresso.org/quote

     Parallel version (MPI), running on     8 processors
     R & G space division:  proc/nbgrp/npool/nimage =       8
     Reading input from /tmp/Si_diamond.scf.in.super.222.largdist.02.30833/Si_diamond.scf.in.super.222.largdist.02.t
Warning: card &IONS ignored
Warning: card   ION_DYNAMICS='BFGS', ignored
Warning: card / ignored
Warning: card &CELL ignored
Warning: card  CELL_DYNAMICS = 'BFGS' ignored
Warning: card / ignored
     Message from routine read_cards :
     DEPRECATED: no units specified in CELL_PARAMETERS card

     Current dimensions of program PWSCF are:
     Max number of different atomic species (ntypx) = 10
     Max number of k-points (npk) =  40000
     Max angular momentum in pseudopotentials (lmaxx) =  3
 kfg - two_fermi_energies  F

     Subspace diagonalization in iterative solution of the eigenvalue problem:
     a serial algorithm will be used


     Parallelization info
     --------------------
     sticks:   dense  smooth     PW     G-vecs:    dense   smooth      PW
     Min         360     251     72                12791     7475    1148
     Max         361     252     73                12793     7498    1149
     Sum        2881    2015    583               102331    59895    9191



     bravais-lattice index     =            0
     lattice parameter (alat)  =    14.417878259  a.u.
     unit-cell volume          =    2141.4455 (a.u.)^3
     number of atoms/cell      =           16
     number of atomic types    =            1
     number of electrons       =        64.00
     number of Kohn-Sham states=           38
     kinetic-energy cutoff     =      35.0000  Ry
     charge density cutoff     =     200.0000  Ry
     convergence threshold     =      1.0E-09
     mixing beta               =       0.3000
     number of iterations used =            8  local-TF  mixing
     Exchange-correlation      = SLA  PW   PSX  PSC ( 1  4 10  8 0)
     A smooth kinetic-energy cutoff is imposed at      34.5000 Ry
     height of the smooth step-function =             800.0000 Ry
     width of the smooth step-function  =               1.0000 Ry


     celldm(1)=  14.417878  celldm(2)=   0.000000  celldm(3)=   0.000000
     celldm(4)=   0.000000  celldm(5)=   0.000000  celldm(6)=   0.000000

     crystal axes: (cart. coord. in units of alat)
               a(1) = (   0.000806003729   0.706956869842   0.707256201486 )  
               a(2) = (   0.712543537378   0.001445951151   0.706277854822 )  
               a(3) = (   0.706610079232   0.717240547353  -0.002703967250 )  

     reciprocal axes: (cart. coord. in units 2 pi/alat)
               b(1) = ( -0.708991  0.701174  0.713845 )  
               b(2) = (  0.712643 -0.699448  0.698340 )  
               b(3) = (  0.697389  0.704522 -0.705018 )  


     PseudoPot. # 1 for Si read from file:
     /users/kfg/psuedo/gbrv_1.5/si.pbesol.UPF
     MD5 check sum: ef58ba74faed4df802eb8a9742fc00a8
     Pseudo is Ultrasoft + core correction, Zval =  4.0
     Generated by new atomic code, or converted to UPF format
     Using radial grid of  899 points,  6 beta functions with: 
                l(1) =   0
                l(2) =   0
                l(3) =   1
                l(4) =   1
                l(5) =   2
                l(6) =   2
     Q(r) pseudized with  8 coefficients,  rinner =    0.900   0.900   0.900
                                                       0.900   0.900

     atomic species   valence    mass     pseudopotential
        Si             4.00    28.08550     Si( 1.00)

     No symmetry found


                                    s                        frac. trans.

      isym =  1     identity                                     

 cryst.   s( 1) = (     1          0          0      )
                  (     0          1          0      )
                  (     0          0          1      )

 cart.    s( 1) = (  1.0000000  0.0000000  0.0000000 )
                  (  0.0000000  1.0000000  0.0000000 )
                  ( -0.0000000 -0.0000000  1.0000000 )


     point group C_1 (1)    
     there are  1 classes
     the character table:

       E    
A      1.00

     the symmetry operations in each class:
     E        1

   Cartesian axes

     site n.     atom                  positions (alat units)
         1           Si  tau(   1) = (    0.00020063904   -0.02322358458    0.01706638885  )
         2           Si  tau(   2) = (    0.15154376046    0.15144937934    0.16745165672  )
         3           Si  tau(   3) = (    0.34529103692    0.37080919916    0.00932217193  )
         4           Si  tau(   4) = (    0.54366496395    0.51530707079    0.17910931182  )
         5           Si  tau(   5) = (    0.36674957865    0.02498826814    0.36850990440  )
         6           Si  tau(   6) = (    0.50991535519    0.19762711899    0.50231456616  )
         7           Si  tau(   7) = (    0.71987185690    0.37275823178    0.32463398248  )
         8           Si  tau(   8) = (    0.90307764506    0.54202749698    0.55506767706  )
         9           Si  tau(   9) = (    0.02560963079    0.37114580561    0.36427372380  )
        10           Si  tau(  10) = (    0.17540327955    0.55315794538    0.52065241102  )
        11           Si  tau(  11) = (    0.37112304212    0.72831948969    0.35957188381  )
        12           Si  tau(  12) = (    0.52431205822    0.87580775883    0.50620868621  )
        13           Si  tau(  13) = (    0.32985338272    0.36621945230    0.71899847803  )
        14           Si  tau(  14) = (    0.53994312909    0.51389293999    0.90373830134  )
        15           Si  tau(  15) = (    0.73429939449    0.70109407010    0.72912860077  )
        16           Si  tau(  16) = (    0.88977421399    0.87269553707    0.85790525140  )

   Crystallographic axes

     site n.     atom                  positions (cryst. coord.)
         1           Si  tau(   1) = (   -0.00424326453    0.02830481908   -0.02825371074  )
         2           Si  tau(   2) = (    0.11828379529    0.11900382807    0.09432785722  )
         3           Si  tau(   3) = (    0.02184811299   -0.00678245629    0.49547300972  )
         4           Si  tau(   4) = (    0.10372269112    0.15208775180    0.61591566722  )
         5           Si  tau(   5) = (    0.02055802186    0.50122879372    0.01356571521  )
         6           Si  tau(   6) = (    0.13562048995    0.57594412997    0.14070104545  )
         7           Si  tau(   7) = (   -0.01727587644    0.47899161304    0.53577413359  )
         8           Si  tau(   8) = (    0.13601410236    0.65207795867    0.62033375231  )
         9           Si  tau(   9) = (    0.50211595527    0.01304018700    0.02252051443  )
        10           Si  tau(  10) = (    0.63516599253    0.10168704622    0.14496663546  )
        11           Si  tau(  11) = (    0.50423456005    0.00616001191    0.51842927418  )
        12           Si  tau(  12) = (    0.60371586760    0.11457106641    0.62578867898  )
        13           Si  tau(  13) = (    0.53617423084    0.48102163385   -0.01886136731  )
        14           Si  tau(  14) = (    0.62264296085    0.65646191874    0.10144715015  )
        15           Si  tau(  15) = (    0.49146234353    0.54209416872    0.49197936408  )
        16           Si  tau(  16) = (    0.59348119970    0.62279579571    0.63051286656  )

     number of k points=    36  gaussian smearing, width (Ry)=  0.0150
                       cart. coord. in units 2pi/alat
        k(    1) = (   0.0000000   0.0000000   0.0000000), wk =   0.0312500
        k(    2) = (   0.1743473   0.1761304  -0.1762546), wk =   0.0625000
        k(    3) = (  -0.3486945  -0.3522608   0.3525091), wk =   0.0312500
        k(    4) = (   0.1781608  -0.1748620   0.1745850), wk =   0.0625000
        k(    5) = (   0.3525081   0.0012684  -0.0016696), wk =   0.0625000
        k(    6) = (  -0.1705337  -0.5271229   0.5270941), wk =   0.0625000
        k(    7) = (   0.0038135  -0.3509925   0.3508396), wk =   0.0625000
        k(    8) = (  -0.3563216   0.3497241  -0.3491700), wk =   0.0312500
        k(    9) = (  -0.1819743   0.5258545  -0.5254246), wk =   0.0625000
        k(   10) = (  -0.7050161  -0.0025368   0.0033391), wk =   0.0312500
        k(   11) = (  -0.1772478   0.1752935   0.1784614), wk =   0.0625000
        k(   12) = (  -0.0029005   0.3514239   0.0022068), wk =   0.0625000
        k(   13) = (  -0.5259423  -0.1769673   0.5309705), wk =   0.0625000
        k(   14) = (  -0.3515951  -0.0008369   0.3547159), wk =   0.0625000
        k(   15) = (   0.0009130   0.0004315   0.3530463), wk =   0.0625000
        k(   16) = (   0.1752603   0.1765619   0.1767918), wk =   0.0625000
        k(   17) = (  -0.3477815  -0.3518293   0.7055555), wk =   0.0625000
        k(   18) = (  -0.1734343  -0.1756989   0.5293009), wk =   0.0625000
        k(   19) = (  -0.5335694   0.5250176  -0.1707086), wk =   0.0625000
        k(   20) = (  -0.3592221   0.7011480  -0.3469632), wk =   0.0625000
        k(   21) = (  -0.8822639   0.1727568   0.1818005), wk =   0.0625000
        k(   22) = (  -0.7079167   0.3488872   0.0055459), wk =   0.0625000
        k(   23) = (  -0.3554086   0.3501556   0.0038764), wk =   0.0625000
        k(   24) = (  -0.1810613   0.5262860  -0.1723782), wk =   0.0625000
        k(   25) = (  -0.7041031  -0.0021053   0.3563855), wk =   0.0625000
        k(   26) = (  -0.5297559   0.1740252   0.1801309), wk =   0.0625000
        k(   27) = (   0.3544956  -0.3505871  -0.3569227), wk =   0.0312500
        k(   28) = (   0.5288428  -0.1744566  -0.5331773), wk =   0.0625000
        k(   29) = (   0.0058010  -0.7028479  -0.0044136), wk =   0.0312500
        k(   30) = (   0.5326564  -0.5254491  -0.1823377), wk =   0.0625000
        k(   31) = (   0.7070036  -0.3493187  -0.3585923), wk =   0.0625000
        k(   32) = (   0.1839618  -0.8777099   0.1701714), wk =   0.0625000
        k(   33) = (   0.3583091  -0.7015795  -0.0060831), wk =   0.0625000
        k(   34) = (  -0.0018260  -0.0008630  -0.7060927), wk =   0.0312500
        k(   35) = (   0.1725212   0.1752674  -0.8823473), wk =   0.0625000
        k(   36) = (  -0.3505206  -0.3531238  -0.3535836), wk =   0.0312500

                       cryst. coord.
        k(    1) = (   0.0000000   0.0000000   0.0000000), wk =   0.0312500
        k(    2) = (   0.0000000   0.0000000   0.2500000), wk =   0.0625000
        k(    3) = (  -0.0000000  -0.0000000  -0.5000000), wk =   0.0312500
        k(    4) = (   0.0000000   0.2500000  -0.0000000), wk =   0.0625000
        k(    5) = (   0.0000000   0.2500000   0.2500000), wk =   0.0625000
        k(    6) = (   0.0000000   0.2500000  -0.5000000), wk =   0.0625000
        k(    7) = (   0.0000000   0.2500000  -0.2500000), wk =   0.0625000
        k(    8) = (   0.0000000  -0.5000000   0.0000000), wk =   0.0312500
        k(    9) = (   0.0000000  -0.5000000   0.2500000), wk =   0.0625000
        k(   10) = (  -0.0000000  -0.5000000  -0.5000000), wk =   0.0312500
        k(   11) = (   0.2500000   0.0000000   0.0000000), wk =   0.0625000
        k(   12) = (   0.2500000   0.0000000   0.2500000), wk =   0.0625000
        k(   13) = (   0.2500000   0.0000000  -0.5000000), wk =   0.0625000
        k(   14) = (   0.2500000   0.0000000  -0.2500000), wk =   0.0625000
        k(   15) = (   0.2500000   0.2500000  -0.0000000), wk =   0.0625000
        k(   16) = (   0.2500000   0.2500000   0.2500000), wk =   0.0625000
        k(   17) = (   0.2500000   0.2500000  -0.5000000), wk =   0.0625000
        k(   18) = (   0.2500000   0.2500000  -0.2500000), wk =   0.0625000
        k(   19) = (   0.2500000  -0.5000000   0.0000000), wk =   0.0625000
        k(   20) = (   0.2500000  -0.5000000   0.2500000), wk =   0.0625000
        k(   21) = (   0.2500000  -0.5000000  -0.5000000), wk =   0.0625000
        k(   22) = (   0.2500000  -0.5000000  -0.2500000), wk =   0.0625000
        k(   23) = (   0.2500000  -0.2500000  -0.0000000), wk =   0.0625000
        k(   24) = (   0.2500000  -0.2500000   0.2500000), wk =   0.0625000
        k(   25) = (   0.2500000  -0.2500000  -0.5000000), wk =   0.0625000
        k(   26) = (   0.2500000  -0.2500000  -0.2500000), wk =   0.0625000
        k(   27) = (  -0.5000000  -0.0000000  -0.0000000), wk =   0.0312500
        k(   28) = (  -0.5000000  -0.0000000   0.2500000), wk =   0.0625000
        k(   29) = (  -0.5000000  -0.0000000  -0.5000000), wk =   0.0312500
        k(   30) = (  -0.5000000   0.2500000  -0.0000000), wk =   0.0625000
        k(   31) = (  -0.5000000   0.2500000   0.2500000), wk =   0.0625000
        k(   32) = (  -0.5000000   0.2500000  -0.5000000), wk =   0.0625000
        k(   33) = (  -0.5000000   0.2500000  -0.2500000), wk =   0.0625000
        k(   34) = (  -0.5000000  -0.5000000   0.0000000), wk =   0.0312500
        k(   35) = (  -0.5000000  -0.5000000   0.2500000), wk =   0.0625000
        k(   36) = (  -0.5000000  -0.5000000  -0.5000000), wk =   0.0312500

     Dense  grid:   102331 G-vectors     FFT dimensions: (  72,  72,  72)

     Smooth grid:    59895 G-vectors     FFT dimensions: (  60,  60,  60)

     Largest allocated arrays     est. size (Mb)     dimensions
        Kohn-Sham Wavefunctions         0.55 Mb     (     953,   38)
        NL pseudopotentials             4.19 Mb     (     953,  288)
        Each V/rho on FFT grid          0.71 Mb     (   46656)
        Each G-vector array             0.10 Mb     (   12792)
        G-vector shells                 0.10 Mb     (   12650)
     Largest temporary arrays     est. size (Mb)     dimensions
        Auxiliary wavefunctions         2.21 Mb     (     953,  152)
        Each subspace H/S matrix        0.35 Mb     (     152,  152)
        Each <psi_i|beta_j> matrix      0.17 Mb     (     288,   38)
        Arrays for rho mixing           5.70 Mb     (   46656,    8)

     Initial potential from superposition of free atoms

     starting charge   63.98963, renormalised to   64.00000
     Starting wfc are   64 randomized atomic wfcs

     total cpu time spent up to now is       16.5 secs

     per-process dynamical memory:    36.6 Mb

     Self-consistent Calculation

     iteration #  1     ecut=    35.00 Ry     beta=0.30
     Davidson diagonalization with overlap
     ethr =  1.00E-02,  avg # of iterations =  3.1

     Threshold (ethr) on eigenvalues was too large:
     Diagonalizing with lowered threshold

     Davidson diagonalization with overlap
     ethr =  8.10E-04,  avg # of iterations =  1.4

     total cpu time spent up to now is       83.3 secs

     total energy              =    -152.53678021 Ry
     Harris-Foulkes estimate   =    -152.59943777 Ry
     estimated scf accuracy    <       0.51360492 Ry

     iteration #  2     ecut=    35.00 Ry     beta=0.30
     Davidson diagonalization with overlap
     ethr =  8.03E-04,  avg # of iterations =  1.0

     total cpu time spent up to now is      112.9 secs

     total energy              =    -152.41035828 Ry
     Harris-Foulkes estimate   =    -152.54011800 Ry
     estimated scf accuracy    <       0.31783517 Ry

     iteration #  3     ecut=    35.00 Ry     beta=0.30
     Davidson diagonalization with overlap
     ethr =  4.97E-04,  avg # of iterations =  2.3

     total cpu time spent up to now is      148.5 secs

     total energy              =    -152.44598167 Ry
     Harris-Foulkes estimate   =    -152.44700884 Ry
     estimated scf accuracy    <       0.00680928 Ry

     iteration #  4     ecut=    35.00 Ry     beta=0.30
     Davidson diagonalization with overlap
     ethr =  1.06E-05,  avg # of iterations =  9.2

     total cpu time spent up to now is      219.3 secs

     total energy              =    -152.44753210 Ry
     Harris-Foulkes estimate   =    -152.44763974 Ry
     estimated scf accuracy    <       0.00333053 Ry

     iteration #  5     ecut=    35.00 Ry     beta=0.30
     Davidson diagonalization with overlap
     ethr =  5.20E-06,  avg # of iterations =  1.0

     total cpu time spent up to now is      244.7 secs

     total energy              =    -152.44750253 Ry
     Harris-Foulkes estimate   =    -152.44766810 Ry
     estimated scf accuracy    <       0.00114600 Ry

     iteration #  6     ecut=    35.00 Ry     beta=0.30
     Davidson diagonalization with overlap
     ethr =  1.79E-06,  avg # of iterations =  2.4

     total cpu time spent up to now is      283.6 secs

     total energy              =    -152.44774003 Ry
     Harris-Foulkes estimate   =    -152.44774951 Ry
     estimated scf accuracy    <       0.00019374 Ry

     iteration #  7     ecut=    35.00 Ry     beta=0.30
     Davidson diagonalization with overlap
     ethr =  3.03E-07,  avg # of iterations =  1.2

     total cpu time spent up to now is      314.1 secs

     total energy              =    -152.44769086 Ry
     Harris-Foulkes estimate   =    -152.44774448 Ry
     estimated scf accuracy    <       0.00015850 Ry

     iteration #  8     ecut=    35.00 Ry     beta=0.30
     Davidson diagonalization with overlap
     ethr =  2.48E-07,  avg # of iterations =  2.0

     total cpu time spent up to now is      347.9 secs

     total energy              =    -152.44770807 Ry
     Harris-Foulkes estimate   =    -152.44771050 Ry
     estimated scf accuracy    <       0.00000585 Ry

     iteration #  9     ecut=    35.00 Ry     beta=0.30
     Davidson diagonalization with overlap
     ethr =  9.14E-09,  avg # of iterations =  3.1

     total cpu time spent up to now is      388.9 secs

     total energy              =    -152.44771072 Ry
     Harris-Foulkes estimate   =    -152.44771207 Ry
     estimated scf accuracy    <       0.00000629 Ry

     iteration # 10     ecut=    35.00 Ry     beta=0.30
     Davidson diagonalization with overlap
     ethr =  9.14E-09,  avg # of iterations =  1.1

     total cpu time spent up to now is      410.5 secs

     total energy              =    -152.44771044 Ry
     Harris-Foulkes estimate   =    -152.44771102 Ry
     estimated scf accuracy    <       0.00000154 Ry

     iteration # 11     ecut=    35.00 Ry     beta=0.30
     Davidson diagonalization with overlap
     ethr =  2.40E-09,  avg # of iterations =  2.2

     total cpu time spent up to now is      438.0 secs

     total energy              =    -152.44771076 Ry
     Harris-Foulkes estimate   =    -152.44771077 Ry
     estimated scf accuracy    <       0.00000008 Ry

     iteration # 12     ecut=    35.00 Ry     beta=0.30
     Davidson diagonalization with overlap
     ethr =  1.21E-10,  avg # of iterations =  2.6

     total cpu time spent up to now is      464.1 secs

     total energy              =    -152.44771076 Ry
     Harris-Foulkes estimate   =    -152.44771077 Ry
     estimated scf accuracy    <       0.00000004 Ry

     iteration # 13     ecut=    35.00 Ry     beta=0.30
     Davidson diagonalization with overlap
     ethr =  6.11E-11,  avg # of iterations =  2.3

     total cpu time spent up to now is      493.1 secs

     total energy              =    -152.44771077 Ry
     Harris-Foulkes estimate   =    -152.44771077 Ry
     estimated scf accuracy    <          7.2E-09 Ry

     iteration # 14     ecut=    35.00 Ry     beta=0.30
     Davidson diagonalization with overlap
     ethr =  1.13E-11,  avg # of iterations =  2.1

     total cpu time spent up to now is      515.7 secs

     total energy              =    -152.44771077 Ry
     Harris-Foulkes estimate   =    -152.44771077 Ry
     estimated scf accuracy    <          3.1E-09 Ry

     iteration # 15     ecut=    35.00 Ry     beta=0.30
     Davidson diagonalization with overlap
     ethr =  4.79E-12,  avg # of iterations =  2.0

     total cpu time spent up to now is      542.6 secs

     End of self-consistent calculation

          k = 0.0000 0.0000 0.0000 (  7511 PWs)   bands (ev):

    -6.0510  -4.0169  -3.8733  -3.7457  -3.3782  -2.7377  -2.3040  -2.0761
    -1.6691  -1.3622  -1.1325  -0.7801  -0.5322  -0.5034  -0.3132   2.8909
     3.0656   3.1873   3.2914   3.3896   3.4801   4.2706   4.3629   4.5524
     4.8299   4.9151   5.1548   5.5858   5.6954   5.9252   5.9997   6.3615
     6.5363   6.7566   6.8422   6.9788   7.0909   7.2171

     occupation numbers 
     1.0000   1.0000   1.0000   1.0000   1.0000   1.0000   1.0000   1.0000
     1.0000   1.0000   1.0000   1.0000   1.0000   1.0000   1.0000   1.0000
     1.0000   1.0000   1.0000   1.0000   1.0000   1.0000   1.0000   1.0000
     1.0000   1.0000   1.0000   1.0000   1.0000   0.9997   0.9984   0.6682
     0.2187   0.0107   0.0019   0.0001   0.0000   0.0000

          k = 0.1743 0.1761-0.1763 (  7500 PWs)   bands (ev):

    -5.8585  -4.4508  -3.9449  -3.7373  -3.2777  -3.1257  -2.6928  -2.0041
    -1.5457  -1.2113  -0.6971  -0.3868  -0.2796   0.1509   0.3639   2.2809
     2.6398   2.9192   3.2380   3.3292   3.4564   3.5934   3.7882   4.0999
     4.3446   4.5232   4.7206   4.9812   5.1459   5.5923   5.9505   6.1781
     6.5085   6.8214   7.1005   7.4271   7.5328   7.6681

     occupation numbers 
     1.0000   1.0000   1.0000   1.0000   1.0000   1.0000   1.0000   1.0000
     1.0000   1.0000   1.0000   1.0000   1.0000   1.0000   1.0000   1.0000
     1.0000   1.0000   1.0000   1.0000   1.0000   1.0000   1.0000   1.0000
     1.0000   1.0000   1.0000   1.0000   1.0000   1.0000   0.9995   0.9560
     0.2798   0.0030   0.0000   0.0000   0.0000   0.0000

          k =-0.3487-0.3523 0.3525 (  7490 PWs)   bands (ev):

    -5.4118  -5.1448  -3.9278  -3.6920  -3.3939  -3.1860  -2.8348  -2.3779
    -1.2809  -0.9463  -0.2608   0.0252   0.0766   0.5853   1.8230   1.9819
     2.1365   2.4756   2.5987   2.7241   3.0079   3.3242   3.7307   3.7507
     3.9177   4.0182   4.1005   4.3292   5.1569   5.2181   5.9334   6.2624
     6.6503   7.1166   7.2290   7.5577   7.6005   7.8343

     occupation numbers 
     1.0000   1.0000   1.0000   1.0000   1.0000   1.0000   1.0000   1.0000
     1.0000   1.0000   1.0000   1.0000   1.0000   1.0000   1.0000   1.0000
     1.0000   1.0000   1.0000   1.0000   1.0000   1.0000   1.0000   1.0000
     1.0000   1.0000   1.0000   1.0000   1.0000   1.0000   0.9997   0.8691
     0.0586   0.0000   0.0000   0.0000   0.0000   0.0000

          k = 0.1782-0.1749 0.1746 (  7501 PWs)   bands (ev):

    -5.8619  -4.5060  -3.8123  -3.7110  -3.3081  -3.0192  -2.6410  -2.5656
    -1.3969  -0.9177  -0.6110  -0.4758  -0.2195  -0.1161   0.4690   2.4952
     2.5274   2.8389   3.1477   3.4082   3.5289   3.7346   3.8097   3.9496
     4.3486   4.5222   4.7604   4.8926   4.9971   5.5163   5.7610   6.4786
     6.5754   6.5869   7.0637   7.4669   7.6388   7.8437

     occupation numbers 
     1.0000   1.0000   1.0000   1.0000   1.0000   1.0000   1.0000   1.0000
     1.0000   1.0000   1.0000   1.0000   1.0000   1.0000   1.0000   1.0000
     1.0000   1.0000   1.0000   1.0000   1.0000   1.0000   1.0000   1.0000
     1.0000   1.0000   1.0000   1.0000   1.0000   1.0000   1.0000   0.3533
     0.1475   0.1299   0.0000   0.0000   0.0000   0.0000

          k = 0.3525 0.0013-0.0017 (  7495 PWs)   bands (ev):

    -5.7953  -4.2334  -4.0446  -3.9056  -3.6093  -3.4366  -2.1975  -2.0252
    -1.5693  -0.9967  -0.7491  -0.1994   0.0217   0.1214   0.7155   2.3506
     2.4973   2.7078   2.7770   3.1992   3.4306   3.4935   3.6438   3.8088
     3.9796   4.4292   4.6754   5.1011   5.2483   5.4719   5.6176   5.8534
     6.4297   7.1480   7.4682   7.7203   7.8337   8.1367

     occupation numbers 
     1.0000   1.0000   1.0000   1.0000   1.0000   1.0000   1.0000   1.0000
     1.0000   1.0000   1.0000   1.0000   1.0000   1.0000   1.0000   1.0000
     1.0000   1.0000   1.0000   1.0000   1.0000   1.0000   1.0000   1.0000
     1.0000   1.0000   1.0000   1.0000   1.0000   1.0000   1.0000   1.0000
     0.4851   0.0000   0.0000   0.0000   0.0000   0.0000

          k =-0.1705-0.5271 0.5271 (  7486 PWs)   bands (ev):

    -5.3758  -4.8650  -4.3475  -3.9233  -3.6067  -3.1624  -2.6483  -2.0055
    -1.5095  -0.5644  -0.3654   0.0581   0.4294   1.2847   1.5223   1.8162
     2.0634   2.2662   2.5454   2.8205   2.9291   3.0835   3.3256   3.4923
     3.7895   3.9580   4.2428   4.4266   4.8250   4.8989   5.3758   5.5628
     7.0280   7.4407   7.5130   8.2650   8.3787   8.4265

     occupation numbers 
     1.0000   1.0000   1.0000   1.0000   1.0000   1.0000   1.0000   1.0000
     1.0000   1.0000   1.0000   1.0000   1.0000   1.0000   1.0000   1.0000
     1.0000   1.0000   1.0000   1.0000   1.0000   1.0000   1.0000   1.0000
     1.0000   1.0000   1.0000   1.0000   1.0000   1.0000   1.0000   1.0000
     0.0000   0.0000   0.0000   0.0000   0.0000   0.0000

          k = 0.0038-0.3510 0.3508 (  7504 PWs)   bands (ev):

    -5.5529  -4.7431  -4.3740  -3.6814  -3.3201  -3.1442  -2.7243  -2.3735
    -1.4262  -0.8478  -0.3365  -0.0792   0.2928   0.9032   1.0854   1.7302
     2.4491   2.5735   2.8829   2.9641   3.2201   3.3854   3.5741   3.7851
     3.8469   4.0456   4.1708   4.5273   4.6055   4.8554   5.2152   5.9587
     6.8616   7.5088   7.6223   7.8439   8.1443   8.3487

     occupation numbers 
     1.0000   1.0000   1.0000   1.0000   1.0000   1.0000   1.0000   1.0000
     1.0000   1.0000   1.0000   1.0000   1.0000   1.0000   1.0000   1.0000
     1.0000   1.0000   1.0000   1.0000   1.0000   1.0000   1.0000   1.0000
     1.0000   1.0000   1.0000   1.0000   1.0000   1.0000   1.0000   0.9994
     0.0012   0.0000   0.0000   0.0000   0.0000   0.0000

          k =-0.3563 0.3497-0.3492 (  7488 PWs)   bands (ev):

    -5.4140  -5.1873  -3.7354  -3.5683  -3.3829  -3.0978  -2.9605  -2.9188
    -1.1180  -0.6022  -0.2136  -0.1249   0.1801   0.2484   1.9741   2.0390
     2.3282   2.3967   2.6215   2.8319   3.0314   3.2890   3.6014   3.6816
     3.8591   3.9365   4.2419   4.3733   4.7654   5.2450   5.9713   6.1107
     6.8982   6.9188   7.2403   7.4167   7.6602   7.9258

     occupation numbers 
     1.0000   1.0000   1.0000   1.0000   1.0000   1.0000   1.0000   1.0000
     1.0000   1.0000   1.0000   1.0000   1.0000   1.0000   1.0000   1.0000
     1.0000   1.0000   1.0000   1.0000   1.0000   1.0000   1.0000   1.0000
     1.0000   1.0000   1.0000   1.0000   1.0000   1.0000   0.9992   0.9851
     0.0005   0.0003   0.0000   0.0000   0.0000   0.0000

          k =-0.1820 0.5259-0.5254 (  7487 PWs)   bands (ev):

    -5.3855  -4.8908  -4.2828  -3.9033  -3.5688  -3.1971  -2.6495  -2.2508
    -1.3584  -0.5665  -0.2262  -0.0568   0.4790   1.2186   1.5945   1.9242
     2.0363   2.1764   2.6129   2.7974   2.9740   3.0667   3.2693   3.6547
     3.7996   3.9662   4.0650   4.4521   4.6426   4.7808   5.4941   5.5486
     7.0192   7.5492   7.8704   7.9569   8.2876   8.4908

     occupation numbers 
     1.0000   1.0000   1.0000   1.0000   1.0000   1.0000   1.0000   1.0000
     1.0000   1.0000   1.0000   1.0000   1.0000   1.0000   1.0000   1.0000
     1.0000   1.0000   1.0000   1.0000   1.0000   1.0000   1.0000   1.0000
     1.0000   1.0000   1.0000   1.0000   1.0000   1.0000   1.0000   1.0000
     0.0000   0.0000   0.0000   0.0000   0.0000   0.0000

          k =-0.7050-0.0025 0.0033 (  7476 PWs)   bands (ev):

    -5.1814  -4.9170  -4.1848  -4.0614  -4.0161  -3.5436  -2.0918  -1.9487
    -1.4713  -0.8671   0.1853   0.6230   0.8014   0.9184   1.8421   1.9736
     2.0558   2.1999   2.2292   2.4863   2.5490   2.6040   2.7590   2.9992
     4.0156   4.1053   4.4411   4.6894   4.7978   5.0070   5.1170   5.4232
     6.8750   7.0277   7.9631   8.1595   8.4018   8.5460

     occupation numbers 
     1.0000   1.0000   1.0000   1.0000   1.0000   1.0000   1.0000   1.0000
     1.0000   1.0000   1.0000   1.0000   1.0000   1.0000   1.0000   1.0000
     1.0000   1.0000   1.0000   1.0000   1.0000   1.0000   1.0000   1.0000
     1.0000   1.0000   1.0000   1.0000   1.0000   1.0000   1.0000   1.0000
     0.0009   0.0000   0.0000   0.0000   0.0000   0.0000

          k =-0.1772 0.1753 0.1785 (  7483 PWs)   bands (ev):

    -5.8550  -4.4677  -3.9529  -3.7148  -3.2009  -3.0882  -2.8175  -2.0275
    -1.5785  -1.1864  -0.7161  -0.4617  -0.2027   0.0660   0.4993   2.4166
     2.6655   3.0121   3.2090   3.3355   3.3735   3.6649   3.8246   4.1669
     4.3926   4.4875   4.6948   4.7784   5.0547   5.6170   5.8259   6.1847
     6.4339   6.7440   7.0175   7.4143   7.5411   7.6557

     occupation numbers 
     1.0000   1.0000   1.0000   1.0000   1.0000   1.0000   1.0000   1.0000
     1.0000   1.0000   1.0000   1.0000   1.0000   1.0000   1.0000   1.0000
     1.0000   1.0000   1.0000   1.0000   1.0000   1.0000   1.0000   1.0000
     1.0000   1.0000   1.0000   1.0000   1.0000   1.0000   1.0000   0.9515
     0.4735   0.0134   0.0000   0.0000   0.0000   0.0000

          k =-0.0029 0.3514 0.0022 (  7495 PWs)   bands (ev):

    -5.7922  -4.3351  -3.9987  -3.9297  -3.6023  -3.1700  -2.5461  -2.0095
    -1.4001  -1.0276  -0.7495  -0.1737  -0.0167   0.1902   0.6288   2.2779
     2.3995   2.7770   2.9180   3.1571   3.3993   3.5197   3.6562   3.8007
     4.0296   4.4600   4.6966   4.9463   5.2881   5.5845   5.7957   5.8974
     6.3589   7.1379   7.4119   7.5421   7.7682   7.9820

     occupation numbers 
     1.0000   1.0000   1.0000   1.0000   1.0000   1.0000   1.0000   1.0000
     1.0000   1.0000   1.0000   1.0000   1.0000   1.0000   1.0000   1.0000
     1.0000   1.0000   1.0000   1.0000   1.0000   1.0000   1.0000   1.0000
     1.0000   1.0000   1.0000   1.0000   1.0000   1.0000   1.0000   0.9999
     0.6749   0.0000   0.0000   0.0000   0.0000   0.0000

          k =-0.5259-0.1770 0.5310 (  7490 PWs)   bands (ev):

    -5.3770  -4.8423  -4.3842  -4.0624  -3.3549  -3.0642  -2.8191  -2.1428
    -1.2458  -0.7558  -0.3440  -0.1038   0.6450   1.2575   1.4917   1.8182
     2.0587   2.3503   2.4176   2.7350   2.8918   3.2069   3.3923   3.5424
     3.7251   3.9771   4.1572   4.5024   4.8690   4.9957   5.3137   5.7184
     6.8846   7.3002   7.6257   8.0237   8.2391   8.4651

     occupation numbers 
     1.0000   1.0000   1.0000   1.0000   1.0000   1.0000   1.0000   1.0000
     1.0000   1.0000   1.0000   1.0000   1.0000   1.0000   1.0000   1.0000
     1.0000   1.0000   1.0000   1.0000   1.0000   1.0000   1.0000   1.0000
     1.0000   1.0000   1.0000   1.0000   1.0000   1.0000   1.0000   1.0000
     0.0007   0.0000   0.0000   0.0000   0.0000   0.0000

          k =-0.3516-0.0008 0.3547 (  7490 PWs)   bands (ev):

    -5.5429  -4.7100  -4.3861  -3.8710  -3.3391  -2.9056  -2.6745  -2.4631
    -1.2056  -0.9026  -0.6874  -0.2425   0.5586   0.9034   1.1465   1.7427
     2.4807   2.6123   2.8492   2.9890   3.1974   3.3725   3.5816   3.8009
     4.0116   4.1165   4.2815   4.3148   4.5618   4.7953   5.3629   5.9306
     6.5847   7.1991   7.6403   7.8595   8.1055   8.3885

     occupation numbers 
     1.0000   1.0000   1.0000   1.0000   1.0000   1.0000   1.0000   1.0000
     1.0000   1.0000   1.0000   1.0000   1.0000   1.0000   1.0000   1.0000
     1.0000   1.0000   1.0000   1.0000   1.0000   1.0000   1.0000   1.0000
     1.0000   1.0000   1.0000   1.0000   1.0000   1.0000   1.0000   0.9997
     0.1332   0.0000   0.0000   0.0000   0.0000   0.0000

          k = 0.0009 0.0004 0.3530 (  7505 PWs)   bands (ev):

    -5.7943  -4.2750  -4.0513  -3.8226  -3.6337  -3.4105  -2.3620  -1.9414
    -1.4570  -1.1111  -0.7296  -0.2212  -0.0389   0.2485   0.6960   2.4130
     2.5275   2.6274   2.8763   3.1284   3.4372   3.5918   3.6193   3.8039
     3.9417   4.5057   4.5772   5.0629   5.1598   5.3849   5.6342   5.8619
     6.4599   7.0623   7.4755   7.7585   7.8991   8.0277

     occupation numbers 
     1.0000   1.0000   1.0000   1.0000   1.0000   1.0000   1.0000   1.0000
     1.0000   1.0000   1.0000   1.0000   1.0000   1.0000   1.0000   1.0000
     1.0000   1.0000   1.0000   1.0000   1.0000   1.0000   1.0000   1.0000
     1.0000   1.0000   1.0000   1.0000   1.0000   1.0000   1.0000   1.0000
     0.4024   0.0000   0.0000   0.0000   0.0000   0.0000

          k = 0.1753 0.1766 0.1768 (  7497 PWs)   bands (ev):

    -5.8589  -4.3249  -3.8778  -3.7873  -3.5182  -3.0772  -2.7528  -2.5150
    -0.9510  -0.6959  -0.5959  -0.3978  -0.2132  -0.0714   0.2832   2.1984
     2.3953   2.5862   3.1439   3.3231   3.4442   3.5852   3.6626   3.7627
     4.2285   4.6476   4.7851   4.9454   5.4544   5.5454   6.1588   6.3997
     6.7318   7.0378   7.2116   7.4882   7.7439   7.8801

     occupation numbers 
     1.0000   1.0000   1.0000   1.0000   1.0000   1.0000   1.0000   1.0000
     1.0000   1.0000   1.0000   1.0000   1.0000   1.0000   1.0000   1.0000
     1.0000   1.0000   1.0000   1.0000   1.0000   1.0000   1.0000   1.0000
     1.0000   1.0000   1.0000   1.0000   1.0000   1.0000   0.9671   0.5676
     0.0166   0.0000   0.0000   0.0000   0.0000   0.0000

          k =-0.3478-0.3518 0.7056 (  7499 PWs)   bands (ev):

    -5.5540  -4.6012  -4.3998  -3.8169  -3.3921  -3.2153  -2.9308  -2.1835
    -1.1739  -0.6926  -0.3792   0.1422   0.5081   0.7529   1.0849   1.6809
     2.1426   2.3041   2.6744   2.7876   3.0855   3.2109   3.4462   3.8041
     3.8528   4.1074   4.2265   4.6125   4.7103   5.0153   5.2537   6.3922
     7.2038   7.5975   7.8813   8.1583   8.2774   8.4030

     occupation numbers 
     1.0000   1.0000   1.0000   1.0000   1.0000   1.0000   1.0000   1.0000
     1.0000   1.0000   1.0000   1.0000   1.0000   1.0000   1.0000   1.0000
     1.0000   1.0000   1.0000   1.0000   1.0000   1.0000   1.0000   1.0000
     1.0000   1.0000   1.0000   1.0000   1.0000   1.0000   1.0000   0.5879
     0.0000   0.0000   0.0000   0.0000   0.0000   0.0000

          k =-0.1734-0.1757 0.5293 (  7485 PWs)   bands (ev):

    -5.3796  -4.8577  -4.2660  -4.0679  -3.6577  -2.8474  -2.6496  -2.3936
    -1.0612  -0.8793  -0.6106   0.3352   0.7299   1.0513   1.4667   1.7466
     1.9219   2.2556   2.7444   2.9508   3.0542   3.1768   3.3687   3.6190
     3.8054   3.9166   4.0792   4.1206   4.6186   4.6905   5.2346   6.0238
     7.1722   7.5737   7.9118   8.0478   8.3299   8.4513

     occupation numbers 
     1.0000   1.0000   1.0000   1.0000   1.0000   1.0000   1.0000   1.0000
     1.0000   1.0000   1.0000   1.0000   1.0000   1.0000   1.0000   1.0000
     1.0000   1.0000   1.0000   1.0000   1.0000   1.0000   1.0000   1.0000
     1.0000   1.0000   1.0000   1.0000   1.0000   1.0000   1.0000   0.9972
     0.0000   0.0000   0.0000   0.0000   0.0000   0.0000

          k =-0.5336 0.5250-0.1707 (  7482 PWs)   bands (ev):

    -5.3865  -4.8798  -4.3418  -3.7949  -3.5911  -3.2172  -2.7128  -2.2113
    -1.3481  -0.5162  -0.3531   0.0572   0.3444   1.3171   1.5670   1.9420
     2.0851   2.2479   2.6508   2.7261   2.9406   3.0928   3.3093   3.6092
     3.8154   3.9283   4.0869   4.4462   4.6671   4.7933   5.3627   5.4481
     6.9453   7.4605   7.7786   8.1002   8.3805   8.5066

     occupation numbers 
     1.0000   1.0000   1.0000   1.0000   1.0000   1.0000   1.0000   1.0000
     1.0000   1.0000   1.0000   1.0000   1.0000   1.0000   1.0000   1.0000
     1.0000   1.0000   1.0000   1.0000   1.0000   1.0000   1.0000   1.0000
     1.0000   1.0000   1.0000   1.0000   1.0000   1.0000   1.0000   1.0000
     0.0002   0.0000   0.0000   0.0000   0.0000   0.0000

          k =-0.3592 0.7011-0.3470 (  7493 PWs)   bands (ev):

    -5.5646  -4.6425  -4.3087  -3.6939  -3.5346  -3.2704  -2.9609  -1.9765
    -1.5085  -0.5849  -0.3948   0.3253   0.5692   0.6007   1.1312   1.7060
     2.2369   2.3893   2.5791   2.7458   3.0151   3.1835   3.5037   3.7171
     3.9139   4.1251   4.3319   4.5408   4.6726   4.8142   5.1893   6.5572
     7.2284   7.7399   7.8572   8.1010   8.3365   8.4993

     occupation numbers 
     1.0000   1.0000   1.0000   1.0000   1.0000   1.0000   1.0000   1.0000
     1.0000   1.0000   1.0000   1.0000   1.0000   1.0000   1.0000   1.0000
     1.0000   1.0000   1.0000   1.0000   1.0000   1.0000   1.0000   1.0000
     1.0000   1.0000   1.0000   1.0000   1.0000   1.0000   1.0000   0.1785
     0.0000   0.0000   0.0000   0.0000   0.0000   0.0000

          k =-0.8823 0.1728 0.1818 (  7486 PWs)   bands (ev):

    -5.4030  -4.7036  -4.3665  -3.9970  -3.7218  -3.1337  -2.6158  -2.4809
    -0.8295  -0.5575  -0.3350   0.4018   0.5781   1.1447   1.4849   1.7703
     1.8735   2.0126   2.2908   2.5746   2.8331   3.0248   3.2445   3.3574
     3.8724   4.0285   4.2438   4.5336   4.6683   5.0848   5.3804   5.8056
     7.2828   7.8606   7.9578   8.3638   8.5108   8.5863

     occupation numbers 
     1.0000   1.0000   1.0000   1.0000   1.0000   1.0000   1.0000   1.0000
     1.0000   1.0000   1.0000   1.0000   1.0000   1.0000   1.0000   1.0000
     1.0000   1.0000   1.0000   1.0000   1.0000   1.0000   1.0000   1.0000
     1.0000   1.0000   1.0000   1.0000   1.0000   1.0000   1.0000   1.0000
     0.0000   0.0000   0.0000   0.0000   0.0000   0.0000

          k =-0.7079 0.3489 0.0055 (  7485 PWs)   bands (ev):

    -5.0532  -4.9217  -4.5603  -4.4113  -3.1851  -2.9331  -2.8386  -2.5896
    -0.8384  -0.5093  -0.2951  -0.0441   1.2976   1.5279   1.5627   1.8604
     1.9154   2.0547   2.3576   2.4124   3.0063   3.1160   3.2294   3.3551
     3.4913   3.7128   3.9122   4.0489   4.5961   4.8390   5.0970   5.2402
     7.9357   8.0116   8.2157   8.2935   8.5581   8.8374

     occupation numbers 
     1.0000   1.0000   1.0000   1.0000   1.0000   1.0000   1.0000   1.0000
     1.0000   1.0000   1.0000   1.0000   1.0000   1.0000   1.0000   1.0000
     1.0000   1.0000   1.0000   1.0000   1.0000   1.0000   1.0000   1.0000
     1.0000   1.0000   1.0000   1.0000   1.0000   1.0000   1.0000   1.0000
     0.0000   0.0000   0.0000   0.0000   0.0000   0.0000

          k =-0.3554 0.3502 0.0039 (  7491 PWs)   bands (ev):

    -5.5473  -4.7326  -4.4265  -3.5278  -3.3314  -3.2516  -2.7407  -2.3518
    -1.4763  -0.8176  -0.4469  -0.0596   0.2944   0.9159   1.1704   1.8002
     2.5161   2.7098   2.8356   2.9528   3.2539   3.4284   3.5489   3.6738
     3.9827   4.1294   4.1957   4.3438   4.6544   4.7459   5.0460   5.7705
     6.8282   7.5001   7.7088   7.8066   8.0736   8.3671

     occupation numbers 
     1.0000   1.0000   1.0000   1.0000   1.0000   1.0000   1.0000   1.0000
     1.0000   1.0000   1.0000   1.0000   1.0000   1.0000   1.0000   1.0000
     1.0000   1.0000   1.0000   1.0000   1.0000   1.0000   1.0000   1.0000
     1.0000   1.0000   1.0000   1.0000   1.0000   1.0000   1.0000   1.0000
     0.0026   0.0000   0.0000   0.0000   0.0000   0.0000

          k =-0.1811 0.5263-0.1724 (  7485 PWs)   bands (ev):

    -5.3782  -4.9239  -4.1746  -3.8941  -3.8404  -2.8249  -2.7017  -2.3388
    -1.3861  -0.6360  -0.5182   0.3614   0.6216   0.9282   1.5803   1.8341
     1.9382   2.3274   2.6937   2.8322   3.0392   3.1472   3.3336   3.6462
     3.8344   3.9349   4.0670   4.2941   4.4810   4.6486   5.3175   6.1110
     7.2732   7.6156   7.8847   8.0234   8.1585   8.4847

     occupation numbers 
     1.0000   1.0000   1.0000   1.0000   1.0000   1.0000   1.0000   1.0000
     1.0000   1.0000   1.0000   1.0000   1.0000   1.0000   1.0000   1.0000
     1.0000   1.0000   1.0000   1.0000   1.0000   1.0000   1.0000   1.0000
     1.0000   1.0000   1.0000   1.0000   1.0000   1.0000   1.0000   0.9850
     0.0000   0.0000   0.0000   0.0000   0.0000   0.0000

          k =-0.7041-0.0021 0.3564 (  7486 PWs)   bands (ev):

    -5.0543  -4.9318  -4.5186  -4.4407  -3.3001  -2.9886  -2.7369  -2.3833
    -1.0557  -0.5740  -0.3044   0.1328   1.2903   1.4850   1.5367   1.8476
     1.9185   2.0993   2.1930   2.3652   2.9705   3.2038   3.2928   3.4377
     3.5963   3.7223   3.7974   4.0196   4.7712   4.8120   5.0393   5.4669
     7.7874   7.9256   8.1300   8.3718   8.5230   8.6367

     occupation numbers 
     1.0000   1.0000   1.0000   1.0000   1.0000   1.0000   1.0000   1.0000
     1.0000   1.0000   1.0000   1.0000   1.0000   1.0000   1.0000   1.0000
     1.0000   1.0000   1.0000   1.0000   1.0000   1.0000   1.0000   1.0000
     1.0000   1.0000   1.0000   1.0000   1.0000   1.0000   1.0000   1.0000
     0.0000   0.0000   0.0000   0.0000   0.0000   0.0000

          k =-0.5298 0.1740 0.1801 (  7484 PWs)   bands (ev):

    -5.3630  -4.8981  -4.2343  -4.0104  -3.7326  -2.8801  -2.6310  -2.3479
    -1.0762  -0.9184  -0.6347   0.3607   0.5697   1.0780   1.5894   1.9109
     1.9557   2.3198   2.8064   2.8656   2.9486   3.1609   3.4285   3.5636
     3.8325   3.9290   4.0880   4.3188   4.4373   4.6417   5.2240   5.8813
     7.1911   7.5303   7.7900   7.9897   8.2575   8.3960

     occupation numbers 
     1.0000   1.0000   1.0000   1.0000   1.0000   1.0000   1.0000   1.0000
     1.0000   1.0000   1.0000   1.0000   1.0000   1.0000   1.0000   1.0000
     1.0000   1.0000   1.0000   1.0000   1.0000   1.0000   1.0000   1.0000
     1.0000   1.0000   1.0000   1.0000   1.0000   1.0000   1.0000   0.9999
     0.0000   0.0000   0.0000   0.0000   0.0000   0.0000

          k = 0.3545-0.3506-0.3569 (  7490 PWs)   bands (ev):

    -5.3489  -5.2218  -3.9079  -3.6103  -3.3538  -3.3186  -2.7539  -2.4849
    -1.3929  -0.8041  -0.3367  -0.1418   0.2982   0.3485   2.0936   2.2047
     2.2986   2.5300   2.6839   2.7941   3.2318   3.2667   3.6481   3.7547
     3.7922   3.8600   3.9787   4.2811   4.8094   5.3271   5.9367   6.0224
     6.7251   6.9287   7.1819   7.3935   7.5316   7.7740

     occupation numbers 
     1.0000   1.0000   1.0000   1.0000   1.0000   1.0000   1.0000   1.0000
     1.0000   1.0000   1.0000   1.0000   1.0000   1.0000   1.0000   1.0000
     1.0000   1.0000   1.0000   1.0000   1.0000   1.0000   1.0000   1.0000
     1.0000   1.0000   1.0000   1.0000   1.0000   1.0000   0.9996   0.9973
     0.0186   0.0002   0.0000   0.0000   0.0000   0.0000

          k = 0.5288-0.1745-0.5332 (  7477 PWs)   bands (ev):

    -5.3586  -4.8903  -4.3202  -4.0961  -3.3584  -2.9913  -2.8595  -2.1921
    -1.2885  -0.6834  -0.4681  -0.0713   0.6236   1.1710   1.6804   1.9471
     2.1001   2.3089   2.5564   2.7699   2.9376   3.1421   3.3693   3.6076
     3.6969   3.9598   4.0399   4.3919   4.8180   4.9206   5.4781   5.5385
     6.9154   7.2225   7.6568   7.9162   8.2484   8.3478

     occupation numbers 
     1.0000   1.0000   1.0000   1.0000   1.0000   1.0000   1.0000   1.0000
     1.0000   1.0000   1.0000   1.0000   1.0000   1.0000   1.0000   1.0000
     1.0000   1.0000   1.0000   1.0000   1.0000   1.0000   1.0000   1.0000
     1.0000   1.0000   1.0000   1.0000   1.0000   1.0000   1.0000   1.0000
     0.0003   0.0000   0.0000   0.0000   0.0000   0.0000

          k = 0.0058-0.7028-0.0044 (  7474 PWs)   bands (ev):

    -5.1791  -4.8890  -4.3630  -4.0689  -4.0121  -3.1722  -2.4619  -1.9099
    -1.2685  -0.6824  -0.4728   0.8524   0.9109   1.0214   1.8453   1.9133
     2.0916   2.2331   2.2410   2.3625   2.4707   2.7581   2.7833   2.8556
     4.0577   4.0771   4.4659   4.6574   4.7449   4.9970   5.2436   5.7870
     6.8615   7.0324   7.7024   8.0322   8.3802   8.7794

     occupation numbers 
     1.0000   1.0000   1.0000   1.0000   1.0000   1.0000   1.0000   1.0000
     1.0000   1.0000   1.0000   1.0000   1.0000   1.0000   1.0000   1.0000
     1.0000   1.0000   1.0000   1.0000   1.0000   1.0000   1.0000   1.0000
     1.0000   1.0000   1.0000   1.0000   1.0000   1.0000   1.0000   1.0000
     0.0012   0.0000   0.0000   0.0000   0.0000   0.0000

          k = 0.5327-0.5254-0.1823 (  7475 PWs)   bands (ev):

    -5.3587  -4.8936  -4.3734  -3.8208  -3.6349  -3.1434  -2.7233  -2.0068
    -1.5350  -0.5853  -0.3617   0.0645   0.3144   1.2975   1.6787   1.9499
     2.0730   2.3011   2.6847   2.8643   3.0230   3.1010   3.2846   3.5093
     3.7895   3.9075   4.1119   4.4225   4.5661   4.8980   5.2891   5.4162
     6.9735   7.3432   7.6372   8.1580   8.3100   8.4658

     occupation numbers 
     1.0000   1.0000   1.0000   1.0000   1.0000   1.0000   1.0000   1.0000
     1.0000   1.0000   1.0000   1.0000   1.0000   1.0000   1.0000   1.0000
     1.0000   1.0000   1.0000   1.0000   1.0000   1.0000   1.0000   1.0000
     1.0000   1.0000   1.0000   1.0000   1.0000   1.0000   1.0000   1.0000
     0.0001   0.0000   0.0000   0.0000   0.0000   0.0000

          k = 0.7070-0.3493-0.3586 (  7484 PWs)   bands (ev):

    -5.5447  -4.6518  -4.3762  -3.7347  -3.4409  -3.1863  -2.9767  -2.1915
    -1.1763  -0.7040  -0.5232   0.2512   0.5546   0.6205   1.2290   1.7315
     2.1641   2.5124   2.5833   2.8057   3.1033   3.3029   3.4622   3.7123
     3.8830   4.0895   4.1484   4.4642   4.7462   4.9455   5.2360   6.3116
     7.1063   7.7159   7.8278   8.0032   8.1633   8.3236

     occupation numbers 
     1.0000   1.0000   1.0000   1.0000   1.0000   1.0000   1.0000   1.0000
     1.0000   1.0000   1.0000   1.0000   1.0000   1.0000   1.0000   1.0000
     1.0000   1.0000   1.0000   1.0000   1.0000   1.0000   1.0000   1.0000
     1.0000   1.0000   1.0000   1.0000   1.0000   1.0000   1.0000   0.7825
     0.0000   0.0000   0.0000   0.0000   0.0000   0.0000

          k = 0.1840-0.8777 0.1702 (  7487 PWs)   bands (ev):

    -5.3946  -4.7535  -4.3406  -3.9242  -3.8260  -2.9658  -2.7108  -2.4785
    -0.8781  -0.5778  -0.3921   0.4992   0.6340   1.1949   1.3793   1.7168
     1.8483   1.9608   2.2929   2.6402   2.7695   3.1938   3.2761   3.4186
     3.8948   3.9402   4.0173   4.5549   4.7415   5.1288   5.3959   6.0170
     7.3394   7.8681   8.0173   8.2194   8.4648   8.4909

     occupation numbers 
     1.0000   1.0000   1.0000   1.0000   1.0000   1.0000   1.0000   1.0000
     1.0000   1.0000   1.0000   1.0000   1.0000   1.0000   1.0000   1.0000
     1.0000   1.0000   1.0000   1.0000   1.0000   1.0000   1.0000   1.0000
     1.0000   1.0000   1.0000   1.0000   1.0000   1.0000   1.0000   0.9976
     0.0000   0.0000   0.0000   0.0000   0.0000   0.0000

          k = 0.3583-0.7016-0.0061 (  7485 PWs)   bands (ev):

    -5.0898  -4.8432  -4.6235  -4.3993  -3.2179  -3.0420  -2.7082  -2.4543
    -1.0925  -0.5317  -0.1701  -0.0049   1.2196   1.5082   1.6509   1.8127
     1.8973   2.0170   2.3401   2.4785   2.9988   3.1230   3.2507   3.4344
     3.5943   3.7097   3.8215   3.9811   4.5573   4.7991   5.2923   5.3429
     7.8123   7.9559   8.0640   8.1845   8.5773   8.8905

     occupation numbers 
     1.0000   1.0000   1.0000   1.0000   1.0000   1.0000   1.0000   1.0000
     1.0000   1.0000   1.0000   1.0000   1.0000   1.0000   1.0000   1.0000
     1.0000   1.0000   1.0000   1.0000   1.0000   1.0000   1.0000   1.0000
     1.0000   1.0000   1.0000   1.0000   1.0000   1.0000   1.0000   1.0000
     0.0000   0.0000   0.0000   0.0000   0.0000   0.0000

          k =-0.0018-0.0009-0.7061 (  7476 PWs)   bands (ev):

    -5.1864  -4.8848  -4.3906  -3.9447  -3.8183  -3.6491  -2.2803  -1.8303
    -1.3884  -0.9450   0.2483   0.4352   0.7041   1.2237   1.8250   1.9639
     2.0489   2.2458   2.3790   2.4352   2.5647   2.5886   2.7779   3.0355
     3.9615   4.1631   4.3537   4.4855   4.7261   4.9371   5.1345   5.4608
     6.8418   7.0310   7.8845   8.1168   8.4674   8.7475

     occupation numbers 
     1.0000   1.0000   1.0000   1.0000   1.0000   1.0000   1.0000   1.0000
     1.0000   1.0000   1.0000   1.0000   1.0000   1.0000   1.0000   1.0000
     1.0000   1.0000   1.0000   1.0000   1.0000   1.0000   1.0000   1.0000
     1.0000   1.0000   1.0000   1.0000   1.0000   1.0000   1.0000   1.0000
     0.0019   0.0000   0.0000   0.0000   0.0000   0.0000

          k = 0.1725 0.1753-0.8823 (  7485 PWs)   bands (ev):

    -5.4002  -4.7140  -4.3680  -4.0262  -3.6359  -3.1251  -2.7521  -2.4161
    -0.8389  -0.4698  -0.4221   0.2835   0.7363   1.2083   1.3791   1.7721
     1.9406   2.0427   2.3466   2.6204   2.8201   2.9886   3.1915   3.3283
     3.8036   4.0190   4.2485   4.4811   4.6136   5.1440   5.4272   5.8062
     7.3700   7.8737   8.0280   8.2016   8.5462   8.6284

     occupation numbers 
     1.0000   1.0000   1.0000   1.0000   1.0000   1.0000   1.0000   1.0000
     1.0000   1.0000   1.0000   1.0000   1.0000   1.0000   1.0000   1.0000
     1.0000   1.0000   1.0000   1.0000   1.0000   1.0000   1.0000   1.0000
     1.0000   1.0000   1.0000   1.0000   1.0000   1.0000   1.0000   1.0000
     0.0000   0.0000   0.0000   0.0000   0.0000   0.0000

          k =-0.3505-0.3531-0.3536 (  7490 PWs)   bands (ev):

    -5.4649  -4.9881  -3.7854  -3.7028  -3.4418  -3.3647  -3.0543  -2.8704
    -0.3888  -0.2088  -0.1834   0.0772   0.3795   0.4257   1.5713   1.7976
     1.9258   2.0165   2.2232   2.4124   2.4488   2.7416   3.6555   3.8489
     4.0768   4.1604   4.3401   4.5278   5.4390   5.5614   5.8434   6.0277
     7.1481   7.5863   7.6008   7.7060   7.8991   8.0292

     occupation numbers 
     1.0000   1.0000   1.0000   1.0000   1.0000   1.0000   1.0000   1.0000
     1.0000   1.0000   1.0000   1.0000   1.0000   1.0000   1.0000   1.0000
     1.0000   1.0000   1.0000   1.0000   1.0000   1.0000   1.0000   1.0000
     1.0000   1.0000   1.0000   1.0000   1.0000   1.0000   1.0000   0.9970
     0.0000   0.0000   0.0000   0.0000   0.0000   0.0000

     the Fermi energy is     6.4243 ev

!    total energy              =    -152.44771077 Ry
     Harris-Foulkes estimate   =    -152.44771077 Ry
     estimated scf accuracy    <          1.4E-10 Ry

     The total energy is the sum of the following terms:

     one-electron contribution =      39.77579599 Ry
     hartree contribution      =       9.40152546 Ry
     xc contribution           =     -68.42398239 Ry
     ewald contribution        =    -133.19756879 Ry
     smearing contrib. (-TS)   =      -0.00348104 Ry

     convergence has been achieved in  15 iterations

     Forces acting on atoms (Ry/au):

     atom    1 type  1   force =  -0.93641231E-01  0.14977693E-01 -0.12095098E+00
     atom    2 type  1   force =   0.11828678E+00  0.12582069E+00  0.88580248E-01
     atom    3 type  1   force =   0.37797913E-01 -0.14475508E+00  0.13192232E-01
     atom    4 type  1   force =  -0.13121009E+00  0.96760547E-01 -0.36227048E-01
     atom    5 type  1   force =  -0.13653769E+00 -0.18947522E+00 -0.13335440E+00
     atom    6 type  1   force =   0.15943679E+00  0.15134377E+00  0.16172052E+00
     atom    7 type  1   force =   0.11073255E+00 -0.11144447E+00  0.14677850E+00
     atom    8 type  1   force =  -0.31245855E-01  0.30164283E-01 -0.13807905E+00
     atom    9 type  1   force =  -0.69456221E-01 -0.13195499E+00 -0.45383182E-01
     atom   10 type  1   force =   0.66162406E-01  0.24040168E-01  0.58573130E-01
     atom   11 type  1   force =  -0.14174157E+00 -0.15686242E+00 -0.17614003E+00
     atom   12 type  1   force =   0.18900198E+00  0.18962927E+00  0.21367288E+00
     atom   13 type  1   force =   0.72910876E-01  0.15336533E-01 -0.57505074E-01
     atom   14 type  1   force =  -0.32196507E-01  0.62450978E-01 -0.22673282E-01
     atom   15 type  1   force =  -0.20802605E+00 -0.95341539E-01 -0.10079747E+00
     atom   16 type  1   force =   0.89725911E-01  0.11930979E+00  0.14859299E+00
     The non-local contrib.  to forces
     atom    1 type  1   force =  -0.10022846E+00  0.21993414E-01 -0.13387001E+00
     atom    2 type  1   force =   0.98796731E-01  0.14184194E+00  0.71717371E-01
     atom    3 type  1   force =   0.60443532E-01 -0.16217771E+00  0.46540917E-01
     atom    4 type  1   force =  -0.16607000E+00  0.11142249E+00 -0.37242309E-01
     atom    5 type  1   force =  -0.15640184E+00 -0.21463503E+00 -0.15064703E+00
     atom    6 type  1   force =   0.19671441E+00  0.16401732E+00  0.18610776E+00
     atom    7 type  1   force =   0.14972836E+00 -0.10200618E+00  0.17029271E+00
     atom    8 type  1   force =  -0.54821060E-01  0.11383663E-02 -0.19000393E+00
     atom    9 type  1   force =  -0.28303114E-01 -0.14383787E+00 -0.32382365E-02
     atom   10 type  1   force =   0.80496937E-01  0.37772490E-01  0.27281399E-01
     atom   11 type  1   force =  -0.16163321E+00 -0.18015869E+00 -0.18430794E+00
     atom   12 type  1   force =   0.19969226E+00  0.17873178E+00  0.21117150E+00
     atom   13 type  1   force =   0.70074292E-01  0.41240156E-01 -0.31269394E-01
     atom   14 type  1   force =  -0.59917199E-01  0.48393270E-01 -0.65510365E-01
     atom   15 type  1   force =  -0.24194834E+00 -0.64628182E-01 -0.92448593E-01
     atom   16 type  1   force =   0.10997235E+00  0.11249750E+00  0.17039604E+00
     The ionic contribution  to forces
     atom    1 type  1   force =  -0.44470383E+00  0.39854463E+00 -0.52451271E+00
     atom    2 type  1   force =   0.20863952E+00  0.27329196E+00 -0.42581988E-01
     atom    3 type  1   force =   0.72505017E-01 -0.69826094E+00 -0.98144208E-02
     atom    4 type  1   force =  -0.48282564E+00  0.11607260E+00  0.19811810E-01
     atom    5 type  1   force =  -0.24772755E+00 -0.47361641E+00 -0.46705186E+00
     atom    6 type  1   force =   0.76530814E+00  0.52535586E+00  0.61191305E+00
     atom    7 type  1   force =   0.58438188E+00 -0.28829530E+00  0.77362001E+00
     atom    8 type  1   force =  -0.22119281E+00 -0.23653679E+00 -0.66571772E+00
     atom    9 type  1   force =  -0.48652353E-01 -0.41787003E+00  0.14175074E-01
     atom   10 type  1   force =   0.28302774E+00  0.34654008E+00 -0.59708325E-02
     atom   11 type  1   force =  -0.23000233E+00 -0.20542525E+00 -0.24661510E+00
     atom   12 type  1   force =   0.45317409E+00  0.37330700E+00  0.68136852E+00
     atom   13 type  1   force =   0.44708975E+00  0.27651067E+00 -0.19590923E-01
     atom   14 type  1   force =  -0.34259501E+00  0.11170584E-01 -0.25384105E+00
     atom   15 type  1   force =  -0.10414687E+01 -0.20551215E+00 -0.30576585E+00
     atom   16 type  1   force =   0.24504214E+00  0.20472348E+00  0.44057398E+00
     The local contribution  to forces
     atom    1 type  1   force =   0.44092399E+00 -0.40381840E+00  0.52487321E+00
     atom    2 type  1   force =  -0.18056592E+00 -0.27709249E+00  0.65608534E-01
     atom    3 type  1   force =  -0.89823978E-01  0.70052455E+00 -0.18978149E-01
     atom    4 type  1   force =   0.50213573E+00 -0.12118984E+00 -0.21509951E-01
     atom    5 type  1   force =   0.25360185E+00  0.47978250E+00  0.47063309E+00
     atom    6 type  1   force =  -0.78432667E+00 -0.52268542E+00 -0.61912613E+00
     atom    7 type  1   force =  -0.60853101E+00  0.26988306E+00 -0.78169470E+00
     atom    8 type  1   force =   0.23988844E+00  0.26565589E+00  0.69979123E+00
     atom    9 type  1   force =   0.60823544E-02  0.41670737E+00 -0.56077404E-01
     atom   10 type  1   force =  -0.28970151E+00 -0.35566303E+00  0.39108036E-01
     atom   11 type  1   force =   0.23577339E+00  0.21292126E+00  0.23784888E+00
     atom   12 type  1   force =  -0.44553346E+00 -0.34640084E+00 -0.65961050E+00
     atom   13 type  1   force =  -0.43842645E+00 -0.29804712E+00 -0.92675563E-02
     atom   14 type  1   force =   0.36437482E+00  0.67399194E-02  0.29105960E+00
     atom   15 type  1   force =   0.10525409E+01  0.16893872E+00  0.28934197E+00
     atom   16 type  1   force =  -0.25535497E+00 -0.18882293E+00 -0.44734618E+00
     The core correction contribution to forces
     atom    1 type  1   force =   0.10368549E-01 -0.17402576E-02  0.12562065E-01
     atom    2 type  1   force =  -0.85837387E-02 -0.12222961E-01 -0.61644705E-02
     atom    3 type  1   force =  -0.53281139E-02  0.15157419E-01 -0.45576042E-02
     atom    4 type  1   force =   0.15552405E-01 -0.95439439E-02  0.27141344E-02
     atom    5 type  1   force =   0.13988130E-01  0.18993307E-01  0.13710877E-01
     atom    6 type  1   force =  -0.18259691E-01 -0.15346047E-01 -0.17175855E-01
     atom    7 type  1   force =  -0.14846217E-01  0.89759594E-02 -0.15440183E-01
     atom    8 type  1   force =   0.48800728E-02 -0.93147335E-04  0.17850240E-01
     atom    9 type  1   force =   0.14149562E-02  0.13042647E-01 -0.24479607E-03
     atom   10 type  1   force =  -0.76605097E-02 -0.46066869E-02 -0.18432509E-02
     atom   11 type  1   force =   0.14123402E-01  0.15802769E-01  0.16935600E-01
     atom   12 type  1   force =  -0.18332435E-01 -0.16009207E-01 -0.19257635E-01
     atom   13 type  1   force =  -0.58272848E-02 -0.43673863E-02  0.26246896E-02
     atom   14 type  1   force =   0.59400713E-02 -0.38524569E-02  0.56198376E-02
     atom   15 type  1   force =   0.22850509E-01  0.58597072E-02  0.80736735E-02
     atom   16 type  1   force =  -0.99340195E-02 -0.90873947E-02 -0.15030681E-01
     The Hubbard contrib.    to forces
     atom    1 type  1   force =   0.00000000E+00  0.00000000E+00  0.00000000E+00
     atom    2 type  1   force =   0.00000000E+00  0.00000000E+00  0.00000000E+00
     atom    3 type  1   force =   0.00000000E+00  0.00000000E+00  0.00000000E+00
     atom    4 type  1   force =   0.00000000E+00  0.00000000E+00  0.00000000E+00
     atom    5 type  1   force =   0.00000000E+00  0.00000000E+00  0.00000000E+00
     atom    6 type  1   force =   0.00000000E+00  0.00000000E+00  0.00000000E+00
     atom    7 type  1   force =   0.00000000E+00  0.00000000E+00  0.00000000E+00
     atom    8 type  1   force =   0.00000000E+00  0.00000000E+00  0.00000000E+00
     atom    9 type  1   force =   0.00000000E+00  0.00000000E+00  0.00000000E+00
     atom   10 type  1   force =   0.00000000E+00  0.00000000E+00  0.00000000E+00
     atom   11 type  1   force =   0.00000000E+00  0.00000000E+00  0.00000000E+00
     atom   12 type  1   force =   0.00000000E+00  0.00000000E+00  0.00000000E+00
     atom   13 type  1   force =   0.00000000E+00  0.00000000E+00  0.00000000E+00
     atom   14 type  1   force =   0.00000000E+00  0.00000000E+00  0.00000000E+00
     atom   15 type  1   force =   0.00000000E+00  0.00000000E+00  0.00000000E+00
     atom   16 type  1   force =   0.00000000E+00  0.00000000E+00  0.00000000E+00
     The SCF correction term to forces
     atom    1 type  1   force =  -0.14839012E-05 -0.16339120E-05 -0.35066615E-05
     atom    2 type  1   force =   0.16824157E-06  0.22935369E-05  0.83058817E-06
     atom    3 type  1   force =   0.14394238E-05  0.16498733E-05  0.15181730E-05
     atom    4 type  1   force =  -0.25930697E-05 -0.70658362E-06 -0.70328804E-06
     atom    5 type  1   force =   0.17021516E-05  0.46797580E-06  0.55445430E-06
     atom    6 type  1   force =   0.59730408E-06  0.21077867E-05  0.17141693E-05
     atom    7 type  1   force =  -0.47785853E-06 -0.19542777E-05  0.68037375E-06
     atom    8 type  1   force =  -0.51618834E-06  0.10896170E-07  0.11626642E-05
     atom    9 type  1   force =   0.19195132E-05  0.29639324E-05  0.22090183E-05
     atom   10 type  1   force =  -0.27174920E-06 -0.26229916E-05 -0.21920697E-05
     atom   11 type  1   force =  -0.28349688E-05 -0.24667710E-05 -0.14371695E-05
     atom   12 type  1   force =   0.15163829E-05  0.58534362E-06  0.10240881E-05
     atom   13 type  1   force =   0.55134482E-06  0.26855659E-06 -0.18610076E-05
     atom   14 type  1   force =   0.80137108E-06 -0.28395931E-06 -0.12673047E-05
     atom   15 type  1   force =  -0.44365810E-06  0.41806320E-06  0.13630362E-05
     atom   16 type  1   force =   0.39363497E-06 -0.80535126E-06 -0.14808773E-06

     Total force =     0.820160     Total SCF correction =     0.000011


     entering subroutine stress ...

          total   stress  (Ry/bohr**3)                   (kbar)     P=   66.40
   0.0004760623   0.0003827776   0.0005636476         70.03     56.31     82.92
   0.0003827776   0.0005108183   0.0003463046         56.31     75.14     50.94
   0.0005636476   0.0003463046   0.0003672943         82.92     50.94     54.03

     kinetic stress (kbar)   2240.77    -24.55     -9.82
                              -24.55   2237.25     -9.28
                               -9.82     -9.28   2243.60

     local   stress (kbar)   -311.98   -308.65   -258.36
                             -308.65   -432.62   -220.64
                             -258.36   -220.64   -249.86

     nonloc. stress (kbar)   2003.63     42.18     47.71
                               42.18   2011.19     31.27
                               47.71     31.27   1991.80

     hartree stress (kbar)    207.00     29.88     14.06
                               29.88    235.31     24.02
                               14.06     24.02    203.52

     exc-cor stress (kbar)   1002.26      0.45      0.45
                                0.45   1002.34      0.30
                                0.45      0.30   1002.15

     corecor stress (kbar)  -2012.59     -4.84     -5.45
                               -4.84  -2013.45     -3.56
                               -5.45     -3.56  -2011.21

     ewald   stress (kbar)  -3059.06    321.84    294.32
                              321.84  -2964.87    228.83
                              294.32    228.83  -3125.98

     hubbard stress (kbar)      0.00      0.00      0.00
                                0.00      0.00      0.00
                                0.00      0.00      0.00

     london  stress (kbar)      0.00      0.00      0.00
                                0.00      0.00      0.00
                                0.00      0.00      0.00

     XDM     stress (kbar)      0.00      0.00      0.00
                                0.00      0.00      0.00
                                0.00      0.00      0.00

     dft-nl  stress (kbar)      0.00      0.00      0.00
                                0.00      0.00      0.00
                                0.00      0.00      0.00



     Writing output data file Si_diamond.scf.in.super.222.largdist.022.save

     init_run     :     17.61s CPU     16.34s WALL (       1 calls)
     electrons    :    530.97s CPU    526.18s WALL (       1 calls)
     forces       :      9.15s CPU      7.21s WALL (       1 calls)
     stress       :     18.03s CPU     17.55s WALL (       1 calls)

     Called by init_run:
     wfcinit      :     15.28s CPU     13.99s WALL (       1 calls)
     potinit      :      0.52s CPU      0.52s WALL (       1 calls)

     Called by electrons:
     c_bands      :    440.88s CPU    437.24s WALL (      16 calls)
     sum_band     :     77.44s CPU     76.15s WALL (      16 calls)
     v_of_rho     :      1.52s CPU      1.55s WALL (      16 calls)
     v_h          :      0.08s CPU      0.10s WALL (      16 calls)
     v_xc         :      1.60s CPU      1.61s WALL (      18 calls)
     newd         :     10.34s CPU     10.43s WALL (      16 calls)
     mix_rho      :      1.34s CPU      1.36s WALL (      16 calls)

     Called by c_bands:
     init_us_2    :      5.90s CPU      6.11s WALL (    1260 calls)
     cegterg      :    414.41s CPU    409.69s WALL (     576 calls)

     Called by sum_band:
     sum_band:bec :      0.52s CPU      0.55s WALL (     576 calls)
     addusdens    :     10.89s CPU     11.07s WALL (      16 calls)

     Called by *egterg:
     h_psi        :    281.63s CPU    274.37s WALL (    2010 calls)
     s_psi        :     30.97s CPU     24.51s WALL (    2010 calls)
     g_psi        :      0.87s CPU      0.83s WALL (    1398 calls)
     cdiaghg      :     24.00s CPU     26.83s WALL (    1938 calls)
     cegterg:over :     39.93s CPU     42.28s WALL (    1398 calls)
     cegterg:upda :     12.28s CPU     12.23s WALL (    1398 calls)
     cegterg:last :      4.97s CPU      4.34s WALL (     576 calls)

     Called by h_psi:
     h_psi:vloc   :    198.63s CPU    202.18s WALL (    2010 calls)
     h_psi:vnl    :     82.45s CPU     71.62s WALL (    2010 calls)
     add_vuspsi   :     32.11s CPU     25.76s WALL (    2010 calls)

     General routines
     calbec       :     72.06s CPU     64.29s WALL (    2658 calls)
     fft          :      1.52s CPU      1.54s WALL (     281 calls)
     ffts         :      0.70s CPU      0.72s WALL (     296 calls)
     fftw         :    211.81s CPU    215.70s WALL (  134212 calls)
     interpolate  :      0.29s CPU      0.30s WALL (      32 calls)

     Parallel routines
     fft_scatter  :    103.38s CPU    105.44s WALL (  134789 calls)

     PWSCF        :  9m37.04s CPU     9m28.95s WALL


   This run was terminated on:  11:54: 7  27Sep2017            

=------------------------------------------------------------------------------=
   JOB DONE.
=------------------------------------------------------------------------------=
