
     Program PWSCF v.5.1 starts on 14Mar2018 at 10:38:54 

     This program is part of the open-source Quantum ESPRESSO suite
     for quantum simulation of materials; please cite
         "P. Giannozzi et al., J. Phys.:Condens. Matter 21 395502 (2009);
          URL http://www.quantum-espresso.org", 
     in publications or presentations arising from this work. More details at
     http://www.quantum-espresso.org/quote

     Parallel version (MPI), running on    16 processors
     R & G space division:  proc/nbgrp/npool/nimage =      16
     Waiting for input...
     Reading input from standard input
Warning: card &IONS ignored
Warning: card   ION_DYNAMICS='BFGS', ignored
Warning: card / ignored
Warning: card &CELL ignored
Warning: card  CELL_DYNAMICS = 'BFGS' ignored
Warning: card / ignored

     Current dimensions of program PWSCF are:
     Max number of different atomic species (ntypx) = 10
     Max number of k-points (npk) =  40000
     Max angular momentum in pseudopotentials (lmaxx) =  3
 kfg - two_fermi_energies  F

     Subspace diagonalization in iterative solution of the eigenvalue problem:
     a serial algorithm will be used


     Parallelization info
     --------------------
     sticks:   dense  smooth     PW     G-vecs:    dense   smooth      PW
     Min         181     128     35                 6459     3770     554
     Max         182     129     38                 6463     3791     555
     Sum        2905    2053    571               103379    60495    8873



     bravais-lattice index     =            0
     lattice parameter (alat)  =    14.515605984  a.u.
     unit-cell volume          =    2162.6713 (a.u.)^3
     number of atoms/cell      =           16
     number of atomic types    =            1
     number of electrons       =        64.00
     number of Kohn-Sham states=           38
     kinetic-energy cutoff     =      35.0000  Ry
     charge density cutoff     =     200.0000  Ry
     convergence threshold     =      1.0E-09
     mixing beta               =       0.3000
     number of iterations used =            8  local-TF  mixing
     Exchange-correlation      = SLA  PW   PSX  PSC ( 1  4 10  8 0)
     A smooth kinetic-energy cutoff is imposed at      34.5000 Ry
     height of the smooth step-function =             800.0000 Ry
     width of the smooth step-function  =               1.0000 Ry


     celldm(1)=  14.515606  celldm(2)=   0.000000  celldm(3)=   0.000000
     celldm(4)=   0.000000  celldm(5)=   0.000000  celldm(6)=   0.000000

     crystal axes: (cart. coord. in units of alat)
               a(1) = (  -0.000000000000   0.707106781187   0.707106781187 )  
               a(2) = (   0.707106781187  -0.000000000000   0.707106781187 )  
               a(3) = (   0.707106781187   0.707106781187   0.000000000000 )  

     reciprocal axes: (cart. coord. in units 2 pi/alat)
               b(1) = ( -0.707107  0.707107  0.707107 )  
               b(2) = (  0.707107 -0.707107  0.707107 )  
               b(3) = (  0.707107  0.707107 -0.707107 )  


     PseudoPot. # 1 for Si read from file:
     /users/kfg/psuedo/gbrv_1.5/si.pbesol.UPF
     MD5 check sum: ef58ba74faed4df802eb8a9742fc00a8
     Pseudo is Ultrasoft + core correction, Zval =  4.0
     Generated by new atomic code, or converted to UPF format
     Using radial grid of  899 points,  6 beta functions with: 
                l(1) =   0
                l(2) =   0
                l(3) =   1
                l(4) =   1
                l(5) =   2
                l(6) =   2
     Q(r) pseudized with  8 coefficients,  rinner =    0.900   0.900   0.900
                                                       0.900   0.900

     atomic species   valence    mass     pseudopotential
        Si             4.00    28.08550     Si( 1.00)

     No symmetry found


                                    s                        frac. trans.

      isym =  1     identity                                     

 cryst.   s( 1) = (     1          0          0      )
                  (     0          1          0      )
                  (     0          0          1      )

 cart.    s( 1) = (  1.0000000  0.0000000  0.0000000 )
                  (  0.0000000  1.0000000  0.0000000 )
                  (  0.0000000  0.0000000  1.0000000 )


     point group C_1 (1)    
     there are  1 classes
     the character table:

       E    
A      1.00

     the symmetry operations in each class:
     E        1

   Cartesian axes

     site n.     atom                  positions (alat units)
         1           Si  tau(   1) = (    0.00615282635   -0.00593776535    0.01647741042  )
         2           Si  tau(   2) = (    0.18254371507    0.18209787042    0.18318083487  )
         3           Si  tau(   3) = (    0.33293259650    0.35711974768   -0.00362286918  )
         4           Si  tau(   4) = (    0.51074751768    0.51315921257    0.18623340087  )
         5           Si  tau(   5) = (    0.35571388266   -0.02134235857    0.34828457379  )
         6           Si  tau(   6) = (    0.52681332429    0.16201488402    0.53973781595  )
         7           Si  tau(   7) = (    0.70140504030    0.35313703682    0.34368009969  )
         8           Si  tau(   8) = (    0.87252940649    0.54357299681    0.52093167079  )
         9           Si  tau(   9) = (    0.01675191904    0.36250534640    0.35377940624  )
        10           Si  tau(  10) = (    0.18198325111    0.54554415107    0.53469999181  )
        11           Si  tau(  11) = (    0.36976866862    0.71278698654    0.35658898354  )
        12           Si  tau(  12) = (    0.54126661916    0.90179351935    0.53003345150  )
        13           Si  tau(  13) = (    0.34372627772    0.35356825813    0.71280070031  )
        14           Si  tau(  14) = (    0.54391750238    0.51599236026    0.86788151066  )
        15           Si  tau(  15) = (    0.70061497269    0.71546835658    0.69595688212  )
        16           Si  tau(  16) = (    0.88420029182    0.87958720914    0.88442394849  )

   Crystallographic axes

     site n.     atom                  positions (cryst. coord.)
         1           Si  tau(   1) = (    0.00310194927    0.02020062802   -0.01149921756  )
         2           Si  tau(   2) = (    0.12921315074    0.12984367029    0.12831212728  )
         3           Si  tau(   3) = (    0.01454114325   -0.01966465398    0.49050244731  )
         4           Si  tau(   4) = (    0.13339222645    0.12998157483    0.59232449163  )
         5           Si  tau(   5) = (   -0.02034464116    0.51289340898   -0.00983801179  )
         6           Si  tau(   6) = (    0.12370081884    0.63960372060    0.10542282745  )
         7           Si  tau(   7) = (   -0.00324413788    0.48928119598    0.50265532473  )
         8           Si  tau(   8) = (    0.13574700895    0.60096162495    0.63298129528  )
         9           Si  tau(   9) = (    0.49464441030    0.00567522409    0.01801556701  )
        10           Si  tau(  10) = (    0.63516636784    0.12101361238    0.13634956947  )
        11           Si  tau(  11) = (    0.49469706703    0.00959590969    0.51333595641  )
        12           Si  tau(  12) = (    0.62972126374    0.11985923188    0.64560736179  )
        13           Si  tau(  13) = (    0.51098553991    0.49706687773   -0.01096451404  )
        14           Si  tau(  14) = (    0.59393884410    0.63343095881    0.13578454986  )
        15           Si  tau(  15) = (    0.50261875923    0.48161290229    0.50920629410  )
        16           Si  tau(  16) = (    0.62212022938    0.62864411346    0.62180393108  )

     number of k points=    36  gaussian smearing, width (Ry)=  0.0150
                       cart. coord. in units 2pi/alat
        k(    1) = (   0.0000000   0.0000000   0.0000000), wk =   0.0312500
        k(    2) = (   0.1767767   0.1767767  -0.1767767), wk =   0.0625000
        k(    3) = (  -0.3535534  -0.3535534   0.3535534), wk =   0.0312500
        k(    4) = (   0.3535534   0.0000000   0.0000000), wk =   0.0625000
        k(    5) = (  -0.1767767  -0.5303301   0.5303301), wk =   0.0625000
        k(    6) = (   0.0000000  -0.3535534   0.3535534), wk =   0.0625000
        k(    7) = (  -0.7071068   0.0000000   0.0000000), wk =   0.0312500
        k(    8) = (  -0.7071068   0.3535534   0.0000000), wk =   0.0625000
        k(    9) = (  -0.1767767  -0.1767767  -0.1767767), wk =   0.0625000
        k(   10) = (  -0.1767767   0.1767767   0.1767767), wk =   0.0625000
        k(   11) = (   0.1767767  -0.1767767   0.1767767), wk =   0.0625000
        k(   12) = (   0.3535534   0.3535534   0.3535534), wk =   0.0312500
        k(   13) = (   0.3535534  -0.3535534  -0.3535534), wk =   0.0312500
        k(   14) = (  -0.3535534   0.3535534  -0.3535534), wk =   0.0312500
        k(   15) = (   0.0000000   0.3535534   0.0000000), wk =   0.0625000
        k(   16) = (   0.0000000   0.0000000   0.3535534), wk =   0.0625000
        k(   17) = (   0.1767767   0.5303301   0.5303301), wk =   0.0625000
        k(   18) = (   0.1767767  -0.5303301  -0.5303301), wk =   0.0625000
        k(   19) = (  -0.1767767   0.5303301  -0.5303301), wk =   0.0625000
        k(   20) = (  -0.5303301  -0.1767767  -0.5303301), wk =   0.0625000
        k(   21) = (   0.5303301   0.1767767  -0.5303301), wk =   0.0625000
        k(   22) = (  -0.5303301   0.1767767   0.5303301), wk =   0.0625000
        k(   23) = (   0.5303301  -0.1767767   0.5303301), wk =   0.0625000
        k(   24) = (   0.5303301   0.5303301  -0.1767767), wk =   0.0625000
        k(   25) = (  -0.5303301   0.5303301   0.1767767), wk =   0.0625000
        k(   26) = (   0.5303301  -0.5303301   0.1767767), wk =   0.0625000
        k(   27) = (  -0.5303301  -0.5303301  -0.1767767), wk =   0.0625000
        k(   28) = (   0.0000000   0.3535534   0.3535534), wk =   0.0625000
        k(   29) = (  -0.3535534   0.0000000  -0.3535534), wk =   0.0625000
        k(   30) = (   0.3535534   0.0000000  -0.3535534), wk =   0.0625000
        k(   31) = (   0.3535534   0.3535534   0.0000000), wk =   0.0625000
        k(   32) = (  -0.3535534   0.3535534   0.0000000), wk =   0.0625000
        k(   33) = (   0.0000000  -0.7071068   0.0000000), wk =   0.0312500
        k(   34) = (   0.0000000   0.0000000  -0.7071068), wk =   0.0312500
        k(   35) = (   0.3535534  -0.7071068   0.0000000), wk =   0.0625000
        k(   36) = (   0.7071068   0.0000000   0.3535534), wk =   0.0625000

                       cryst. coord.
        k(    1) = (   0.0000000   0.0000000   0.0000000), wk =   0.0312500
        k(    2) = (   0.0000000   0.0000000   0.2500000), wk =   0.0625000
        k(    3) = (   0.0000000   0.0000000  -0.5000000), wk =   0.0312500
        k(    4) = (  -0.0000000   0.2500000   0.2500000), wk =   0.0625000
        k(    5) = (   0.0000000   0.2500000  -0.5000000), wk =   0.0625000
        k(    6) = (   0.0000000   0.2500000  -0.2500000), wk =   0.0625000
        k(    7) = (   0.0000000  -0.5000000  -0.5000000), wk =   0.0312500
        k(    8) = (   0.2500000  -0.5000000  -0.2500000), wk =   0.0625000
        k(    9) = (  -0.2500000  -0.2500000  -0.2500000), wk =   0.0625000
        k(   10) = (   0.2500000   0.0000000   0.0000000), wk =   0.0625000
        k(   11) = (   0.0000000   0.2500000   0.0000000), wk =   0.0625000
        k(   12) = (   0.5000000   0.5000000   0.5000000), wk =   0.0312500
        k(   13) = (  -0.5000000   0.0000000  -0.0000000), wk =   0.0312500
        k(   14) = (   0.0000000  -0.5000000  -0.0000000), wk =   0.0312500
        k(   15) = (   0.2500000  -0.0000000   0.2500000), wk =   0.0625000
        k(   16) = (   0.2500000   0.2500000   0.0000000), wk =   0.0625000
        k(   17) = (   0.7500000   0.5000000   0.5000000), wk =   0.0625000
        k(   18) = (  -0.7500000  -0.2500000  -0.2500000), wk =   0.0625000
        k(   19) = (   0.0000000  -0.5000000   0.2500000), wk =   0.0625000
        k(   20) = (  -0.5000000  -0.7500000  -0.5000000), wk =   0.0625000
        k(   21) = (  -0.2500000   0.0000000   0.5000000), wk =   0.0625000
        k(   22) = (   0.5000000   0.0000000  -0.2500000), wk =   0.0625000
        k(   23) = (   0.2500000   0.7500000   0.2500000), wk =   0.0625000
        k(   24) = (   0.2500000   0.2500000   0.7500000), wk =   0.0625000
        k(   25) = (   0.5000000  -0.2500000   0.0000000), wk =   0.0625000
        k(   26) = (  -0.2500000   0.5000000   0.0000000), wk =   0.0625000
        k(   27) = (  -0.5000000  -0.5000000  -0.7500000), wk =   0.0625000
        k(   28) = (   0.5000000   0.2500000   0.2500000), wk =   0.0625000
        k(   29) = (  -0.2500000  -0.5000000  -0.2500000), wk =   0.0625000
        k(   30) = (  -0.2500000   0.0000000   0.2500000), wk =   0.0625000
        k(   31) = (   0.2500000   0.2500000   0.5000000), wk =   0.0625000
        k(   32) = (   0.2500000  -0.2500000   0.0000000), wk =   0.0625000
        k(   33) = (  -0.5000000   0.0000000  -0.5000000), wk =   0.0312500
        k(   34) = (  -0.5000000  -0.5000000  -0.0000000), wk =   0.0312500
        k(   35) = (  -0.5000000   0.2500000  -0.2500000), wk =   0.0625000
        k(   36) = (   0.2500000   0.7500000   0.5000000), wk =   0.0625000

     Dense  grid:   103379 G-vectors     FFT dimensions: (  72,  72,  72)

     Smooth grid:    60495 G-vectors     FFT dimensions: (  60,  60,  60)

     Largest allocated arrays     est. size (Mb)     dimensions
        Kohn-Sham Wavefunctions         0.28 Mb     (     486,   38)
        NL pseudopotentials             2.14 Mb     (     486,  288)
        Each V/rho on FFT grid          0.40 Mb     (   25920)
        Each G-vector array             0.05 Mb     (    6463)
        G-vector shells                 0.01 Mb     (     700)
     Largest temporary arrays     est. size (Mb)     dimensions
        Auxiliary wavefunctions         1.13 Mb     (     486,  152)
        Each subspace H/S matrix        0.35 Mb     (     152,  152)
        Each <psi_i|beta_j> matrix      0.17 Mb     (     288,   38)
        Arrays for rho mixing           3.16 Mb     (   25920,    8)

     Initial potential from superposition of free atoms

     starting charge   63.98963, renormalised to   64.00000
     Starting wfc are   64 randomized atomic wfcs

     total cpu time spent up to now is        8.1 secs

     Self-consistent Calculation

     iteration #  1     ecut=    35.00 Ry     beta=0.30
     Davidson diagonalization with overlap
     ethr =  1.00E-02,  avg # of iterations =  3.3

     Threshold (ethr) on eigenvalues was too large:
     Diagonalizing with lowered threshold

     Davidson diagonalization with overlap
     ethr =  6.94E-04,  avg # of iterations =  2.0

     total cpu time spent up to now is       43.9 secs

     total energy              =    -152.97252029 Ry
     Harris-Foulkes estimate   =    -153.01954445 Ry
     estimated scf accuracy    <       0.43761850 Ry

     iteration #  2     ecut=    35.00 Ry     beta=0.30
     Davidson diagonalization with overlap
     ethr =  6.84E-04,  avg # of iterations =  1.0

     total cpu time spent up to now is       56.9 secs

     total energy              =    -152.87916680 Ry
     Harris-Foulkes estimate   =    -152.97468408 Ry
     estimated scf accuracy    <       0.27200500 Ry

     iteration #  3     ecut=    35.00 Ry     beta=0.30
     Davidson diagonalization with overlap
     ethr =  4.25E-04,  avg # of iterations =  2.3

     total cpu time spent up to now is       71.5 secs

     total energy              =    -152.89780316 Ry
     Harris-Foulkes estimate   =    -152.89741654 Ry
     estimated scf accuracy    <       0.00340241 Ry

     iteration #  4     ecut=    35.00 Ry     beta=0.30
     Davidson diagonalization with overlap
     ethr =  5.32E-06,  avg # of iterations = 10.4

     total cpu time spent up to now is      108.4 secs

     total energy              =    -152.90013037 Ry
     Harris-Foulkes estimate   =    -152.89994356 Ry
     estimated scf accuracy    <       0.00140050 Ry

     iteration #  5     ecut=    35.00 Ry     beta=0.30
     Davidson diagonalization with overlap
     ethr =  2.19E-06,  avg # of iterations =  2.8

     total cpu time spent up to now is      123.5 secs

     total energy              =    -152.90021134 Ry
     Harris-Foulkes estimate   =    -152.90018759 Ry
     estimated scf accuracy    <       0.00016315 Ry

     iteration #  6     ecut=    35.00 Ry     beta=0.30
     Davidson diagonalization with overlap
     ethr =  2.55E-07,  avg # of iterations =  2.3

     total cpu time spent up to now is      140.8 secs

     total energy              =    -152.90023477 Ry
     Harris-Foulkes estimate   =    -152.90023628 Ry
     estimated scf accuracy    <       0.00001366 Ry

     iteration #  7     ecut=    35.00 Ry     beta=0.30
     Davidson diagonalization with overlap
     ethr =  2.13E-08,  avg # of iterations =  3.0

     total cpu time spent up to now is      157.5 secs

     total energy              =    -152.90023612 Ry
     Harris-Foulkes estimate   =    -152.90023641 Ry
     estimated scf accuracy    <       0.00000578 Ry

     iteration #  8     ecut=    35.00 Ry     beta=0.30
     Davidson diagonalization with overlap
     ethr =  9.02E-09,  avg # of iterations =  1.8

     total cpu time spent up to now is      171.4 secs

     total energy              =    -152.90023630 Ry
     Harris-Foulkes estimate   =    -152.90023653 Ry
     estimated scf accuracy    <       0.00000117 Ry

     iteration #  9     ecut=    35.00 Ry     beta=0.30
     Davidson diagonalization with overlap
     ethr =  1.82E-09,  avg # of iterations =  2.3

     total cpu time spent up to now is      188.2 secs

     total energy              =    -152.90023642 Ry
     Harris-Foulkes estimate   =    -152.90023644 Ry
     estimated scf accuracy    <       0.00000023 Ry

     iteration # 10     ecut=    35.00 Ry     beta=0.30
     Davidson diagonalization with overlap
     ethr =  3.58E-10,  avg # of iterations =  2.3

     total cpu time spent up to now is      203.5 secs

     total energy              =    -152.90023641 Ry
     Harris-Foulkes estimate   =    -152.90023644 Ry
     estimated scf accuracy    <       0.00000007 Ry

     iteration # 11     ecut=    35.00 Ry     beta=0.30
     Davidson diagonalization with overlap
     ethr =  1.16E-10,  avg # of iterations =  2.4

     total cpu time spent up to now is      221.0 secs

     total energy              =    -152.90023643 Ry
     Harris-Foulkes estimate   =    -152.90023642 Ry
     estimated scf accuracy    <          3.7E-09 Ry

     iteration # 12     ecut=    35.00 Ry     beta=0.30
     Davidson diagonalization with overlap
     ethr =  5.74E-12,  avg # of iterations =  3.0

     total cpu time spent up to now is      241.3 secs

     End of self-consistent calculation

          k = 0.0000 0.0000 0.0000 (  7631 PWs)   bands (ev):

    -5.8722  -3.5857  -3.5663  -3.5534  -3.3738  -1.9629  -1.8061  -1.7187
    -1.6486  -1.5942  -1.4820  -0.9146  -0.8228  -0.7916  -0.7165   3.1952
     3.2306   3.2348   3.2609   3.3076   3.3493   4.7495   4.7724   4.8315
     4.9455   4.9880   5.0133   5.0998   5.1212   6.1016   6.1729   6.2672
     6.5064   6.6831   6.7011   6.7880   6.8186   6.9037

     occupation numbers 
     1.0000   1.0000   1.0000   1.0000   1.0000   1.0000   1.0000   1.0000
     1.0000   1.0000   1.0000   1.0000   1.0000   1.0000   1.0000   1.0000
     1.0000   1.0000   1.0000   1.0000   1.0000   1.0000   1.0000   1.0000
     1.0000   1.0000   1.0000   1.0000   1.0000   0.9666   0.9098   0.7535
     0.1655   0.0140   0.0101   0.0017   0.0009   0.0001

          k = 0.1768 0.1768-0.1768 (  7564 PWs)   bands (ev):

    -5.6698  -4.1809  -3.5104  -3.4570  -3.3574  -2.6106  -2.5395  -2.4008
    -0.8870  -0.7812  -0.7400  -0.6108  -0.5146  -0.4561   0.2325   2.5985
     2.6248   2.7046   3.3610   3.3990   3.4883   3.7415   3.8751   3.9231
     4.5110   4.5540   4.6458   4.7197   5.0369   5.1252   5.8748   5.9125
     6.8225   6.9059   6.9513   7.6612   7.8862   7.9360

     occupation numbers 
     1.0000   1.0000   1.0000   1.0000   1.0000   1.0000   1.0000   1.0000
     1.0000   1.0000   1.0000   1.0000   1.0000   1.0000   1.0000   1.0000
     1.0000   1.0000   1.0000   1.0000   1.0000   1.0000   1.0000   1.0000
     1.0000   1.0000   1.0000   1.0000   1.0000   1.0000   0.9997   0.9992
     0.0008   0.0001   0.0000   0.0000   0.0000   0.0000

          k =-0.3536-0.3536 0.3536 (  7570 PWs)   bands (ev):

    -5.1430  -5.0027  -3.3846  -3.2590  -3.1483  -3.1046  -3.0015  -2.7794
    -0.4658  -0.4034  -0.3387  -0.1798  -0.0959  -0.0249   2.0717   2.1002
     2.3502   2.4123   2.5239   2.5380   2.8093   3.0321   3.7042   3.8133
     3.9304   3.9921   4.0347   4.1289   5.1854   5.3715   5.5129   5.5867
     7.3563   7.3882   7.4329   7.5436   7.6845   7.7389

     occupation numbers 
     1.0000   1.0000   1.0000   1.0000   1.0000   1.0000   1.0000   1.0000
     1.0000   1.0000   1.0000   1.0000   1.0000   1.0000   1.0000   1.0000
     1.0000   1.0000   1.0000   1.0000   1.0000   1.0000   1.0000   1.0000
     1.0000   1.0000   1.0000   1.0000   1.0000   1.0000   1.0000   1.0000
     0.0000   0.0000   0.0000   0.0000   0.0000   0.0000

          k = 0.3536 0.0000 0.0000 (  7563 PWs)   bands (ev):

    -5.6023  -3.8547  -3.7635  -3.6437  -3.5854  -3.2735  -1.8452  -1.6939
    -1.5155  -1.3937  -0.4383  -0.3094  -0.1786  -0.0890   0.4413   2.5640
     2.6282   2.7060   2.7760   3.4371   3.4731   3.4996   3.6527   3.7678
     3.8497   4.6771   4.7849   4.8758   4.9393   4.9984   5.4406   5.5341
     6.6246   7.4252   7.7861   7.8705   8.0001   8.0646

     occupation numbers 
     1.0000   1.0000   1.0000   1.0000   1.0000   1.0000   1.0000   1.0000
     1.0000   1.0000   1.0000   1.0000   1.0000   1.0000   1.0000   1.0000
     1.0000   1.0000   1.0000   1.0000   1.0000   1.0000   1.0000   1.0000
     1.0000   1.0000   1.0000   1.0000   1.0000   1.0000   1.0000   1.0000
     0.0367   0.0000   0.0000   0.0000   0.0000   0.0000

          k =-0.1768-0.5303 0.5303 (  7554 PWs)   bands (ev):

    -5.1439  -4.6276  -4.1012  -3.6595  -3.5375  -2.8997  -2.4182  -2.2842
    -0.8375  -0.7450  -0.5408   0.1951   0.3984   1.2020   1.4592   1.8990
     2.0007   2.3078   2.6595   2.7574   2.9837   3.1248   3.1990   3.4302
     3.8060   3.8904   4.1745   4.2797   4.3331   4.8717   4.9586   5.4485
     7.3699   7.8149   8.1692   8.3099   8.4408   8.6715

     occupation numbers 
     1.0000   1.0000   1.0000   1.0000   1.0000   1.0000   1.0000   1.0000
     1.0000   1.0000   1.0000   1.0000   1.0000   1.0000   1.0000   1.0000
     1.0000   1.0000   1.0000   1.0000   1.0000   1.0000   1.0000   1.0000
     1.0000   1.0000   1.0000   1.0000   1.0000   1.0000   1.0000   1.0000
     0.0000   0.0000   0.0000   0.0000   0.0000   0.0000

          k = 0.0000-0.3536 0.3536 (  7592 PWs)   bands (ev):

    -5.3382  -4.3887  -4.2360  -3.3141  -3.2401  -3.0153  -2.8351  -2.0638
    -1.0935  -0.7108  -0.6397   0.0748   0.2987   0.7781   0.9277   1.7429
     2.5508   2.6036   2.7241   2.8164   3.2779   3.3681   3.5258   3.6823
     3.9560   4.0103   4.2474   4.3516   4.4814   4.6417   4.7123   5.9162
     7.1858   7.8644   8.0465   8.2215   8.3162   8.5568

     occupation numbers 
     1.0000   1.0000   1.0000   1.0000   1.0000   1.0000   1.0000   1.0000
     1.0000   1.0000   1.0000   1.0000   1.0000   1.0000   1.0000   1.0000
     1.0000   1.0000   1.0000   1.0000   1.0000   1.0000   1.0000   1.0000
     1.0000   1.0000   1.0000   1.0000   1.0000   1.0000   1.0000   0.9991
     0.0000   0.0000   0.0000   0.0000   0.0000   0.0000

          k =-0.7071 0.0000 0.0000 (  7528 PWs)   bands (ev):

    -4.8713  -4.7425  -3.9836  -3.8556  -3.7353  -3.5601  -1.7219  -1.6290
    -1.3916  -1.3118   0.4215   0.5550   0.7649   0.8667   2.0492   2.0993
     2.2153   2.2399   2.3049   2.3863   2.4025   2.4413   2.6435   2.8357
     4.0810   4.1658   4.2488   4.2804   4.7155   4.8083   5.0544   5.1023
     7.1108   7.1673   8.3232   8.3875   8.4676   8.5705

     occupation numbers 
     1.0000   1.0000   1.0000   1.0000   1.0000   1.0000   1.0000   1.0000
     1.0000   1.0000   1.0000   1.0000   1.0000   1.0000   1.0000   1.0000
     1.0000   1.0000   1.0000   1.0000   1.0000   1.0000   1.0000   1.0000
     1.0000   1.0000   1.0000   1.0000   1.0000   1.0000   1.0000   1.0000
     0.0000   0.0000   0.0000   0.0000   0.0000   0.0000

          k =-0.7071 0.3536 0.0000 (  7564 PWs)   bands (ev):

    -4.7027  -4.6161  -4.5152  -4.3020  -2.8493  -2.7457  -2.6769  -2.5496
    -0.5306  -0.4587  -0.3986  -0.3400   1.6266   1.6757   1.7414   1.8088
     1.8446   1.9140   1.9837   2.2483   3.2210   3.2448   3.3199   3.3639
     3.5489   3.6356   3.6554   3.7283   4.6218   4.6320   4.8470   4.9595
     8.3137   8.4211   8.4910   8.5191   8.8384   8.8730

     occupation numbers 
     1.0000   1.0000   1.0000   1.0000   1.0000   1.0000   1.0000   1.0000
     1.0000   1.0000   1.0000   1.0000   1.0000   1.0000   1.0000   1.0000
     1.0000   1.0000   1.0000   1.0000   1.0000   1.0000   1.0000   1.0000
     1.0000   1.0000   1.0000   1.0000   1.0000   1.0000   1.0000   1.0000
     0.0000   0.0000   0.0000   0.0000   0.0000   0.0000

          k =-0.1768-0.1768-0.1768 (  7564 PWs)   bands (ev):

    -5.6715  -4.1728  -3.5455  -3.4572  -3.3124  -2.6913  -2.5038  -2.3398
    -1.0263  -0.7682  -0.7395  -0.6485  -0.5295  -0.2910   0.2089   2.5747
     2.6654   2.7403   3.3638   3.4046   3.4483   3.7553   3.8425   3.9985
     4.4927   4.5626   4.6161   4.6987   5.0210   5.0804   5.8525   6.0240
     6.7546   6.8759   6.9764   7.6205   7.8453   7.9666

     occupation numbers 
     1.0000   1.0000   1.0000   1.0000   1.0000   1.0000   1.0000   1.0000
     1.0000   1.0000   1.0000   1.0000   1.0000   1.0000   1.0000   1.0000
     1.0000   1.0000   1.0000   1.0000   1.0000   1.0000   1.0000   1.0000
     1.0000   1.0000   1.0000   1.0000   1.0000   1.0000   0.9998   0.9911
     0.0036   0.0002   0.0000   0.0000   0.0000   0.0000

          k =-0.1768 0.1768 0.1768 (  7564 PWs)   bands (ev):

    -5.6705  -4.1719  -3.5394  -3.4558  -3.3218  -2.6832  -2.5171  -2.3683
    -0.9743  -0.7947  -0.7126  -0.6074  -0.5020  -0.3271   0.1740   2.5531
     2.6462   2.7227   3.3943   3.4139   3.4606   3.7222   3.8267   3.9678
     4.4558   4.5583   4.6005   4.7259   5.0636   5.1166   5.8927   5.9854
     6.8424   6.8753   6.9718   7.6678   7.8350   7.9513

     occupation numbers 
     1.0000   1.0000   1.0000   1.0000   1.0000   1.0000   1.0000   1.0000
     1.0000   1.0000   1.0000   1.0000   1.0000   1.0000   1.0000   1.0000
     1.0000   1.0000   1.0000   1.0000   1.0000   1.0000   1.0000   1.0000
     1.0000   1.0000   1.0000   1.0000   1.0000   1.0000   0.9995   0.9958
     0.0005   0.0002   0.0000   0.0000   0.0000   0.0000

          k = 0.1768-0.1768 0.1768 (  7564 PWs)   bands (ev):

    -5.6700  -4.1781  -3.5022  -3.4600  -3.3576  -2.6400  -2.5420  -2.3858
    -0.9442  -0.7634  -0.7345  -0.6009  -0.5031  -0.3801   0.1888   2.5757
     2.6422   2.6881   3.3935   3.4166   3.4881   3.7340   3.8439   3.9130
     4.4595   4.5684   4.5876   4.7412   5.0589   5.1260   5.9226   5.9510
     6.7620   6.9259   7.0111   7.6551   7.8342   7.9727

     occupation numbers 
     1.0000   1.0000   1.0000   1.0000   1.0000   1.0000   1.0000   1.0000
     1.0000   1.0000   1.0000   1.0000   1.0000   1.0000   1.0000   1.0000
     1.0000   1.0000   1.0000   1.0000   1.0000   1.0000   1.0000   1.0000
     1.0000   1.0000   1.0000   1.0000   1.0000   1.0000   0.9989   0.9980
     0.0030   0.0001   0.0000   0.0000   0.0000   0.0000

          k = 0.3536 0.3536 0.3536 (  7570 PWs)   bands (ev):

    -5.1830  -4.9555  -3.4017  -3.2581  -3.1750  -3.1181  -2.9574  -2.7450
    -0.6494  -0.3778  -0.3312  -0.2495  -0.1045   0.1489   2.1181   2.1650
     2.3914   2.4808   2.5498   2.6112   2.6537   2.9379   3.7205   3.7544
     3.9004   3.9295   4.1105   4.1664   5.1239   5.3154   5.4652   5.7664
     7.1946   7.3208   7.5477   7.5943   7.6369   7.7505

     occupation numbers 
     1.0000   1.0000   1.0000   1.0000   1.0000   1.0000   1.0000   1.0000
     1.0000   1.0000   1.0000   1.0000   1.0000   1.0000   1.0000   1.0000
     1.0000   1.0000   1.0000   1.0000   1.0000   1.0000   1.0000   1.0000
     1.0000   1.0000   1.0000   1.0000   1.0000   1.0000   1.0000   1.0000
     0.0000   0.0000   0.0000   0.0000   0.0000   0.0000

          k = 0.3536-0.3536-0.3536 (  7570 PWs)   bands (ev):

    -5.1692  -4.9689  -3.3791  -3.2897  -3.1761  -3.0372  -3.0040  -2.8085
    -0.5918  -0.3797  -0.2750  -0.2078  -0.0752   0.0856   2.0032   2.2254
     2.3452   2.4247   2.5199   2.5813   2.6635   2.9160   3.7815   3.8109
     3.8634   3.9952   4.0544   4.1275   5.2334   5.3090   5.5352   5.6688
     7.2936   7.4234   7.4921   7.5033   7.6704   7.7572

     occupation numbers 
     1.0000   1.0000   1.0000   1.0000   1.0000   1.0000   1.0000   1.0000
     1.0000   1.0000   1.0000   1.0000   1.0000   1.0000   1.0000   1.0000
     1.0000   1.0000   1.0000   1.0000   1.0000   1.0000   1.0000   1.0000
     1.0000   1.0000   1.0000   1.0000   1.0000   1.0000   1.0000   1.0000
     0.0000   0.0000   0.0000   0.0000   0.0000   0.0000

          k =-0.3536 0.3536-0.3536 (  7570 PWs)   bands (ev):

    -5.1528  -4.9902  -3.3112  -3.2761  -3.1788  -3.1502  -3.0108  -2.7674
    -0.5241  -0.3596  -0.3059  -0.2002  -0.1052   0.0419   2.0549   2.1244
     2.4349   2.4569   2.4700   2.5702   2.6962   2.8731   3.7850   3.8592
     3.8859   3.9179   4.0367   4.1588   5.2128   5.3893   5.5236   5.6220
     7.2130   7.5022   7.5411   7.5900   7.6366   7.6662

     occupation numbers 
     1.0000   1.0000   1.0000   1.0000   1.0000   1.0000   1.0000   1.0000
     1.0000   1.0000   1.0000   1.0000   1.0000   1.0000   1.0000   1.0000
     1.0000   1.0000   1.0000   1.0000   1.0000   1.0000   1.0000   1.0000
     1.0000   1.0000   1.0000   1.0000   1.0000   1.0000   1.0000   1.0000
     0.0000   0.0000   0.0000   0.0000   0.0000   0.0000

          k = 0.0000 0.3536 0.0000 (  7563 PWs)   bands (ev):

    -5.6025  -3.8046  -3.7374  -3.7023  -3.6002  -3.3067  -1.6974  -1.6419
    -1.5711  -1.5052  -0.3881  -0.2720  -0.2278  -0.1716   0.4822   2.5979
     2.6395   2.6868   2.7103   3.4731   3.4959   3.5462   3.6664   3.7455
     3.7738   4.6724   4.8095   4.8991   4.9562   5.0161   5.4042   5.5083
     6.6096   7.4446   7.8197   7.8944   7.9853   8.0768

     occupation numbers 
     1.0000   1.0000   1.0000   1.0000   1.0000   1.0000   1.0000   1.0000
     1.0000   1.0000   1.0000   1.0000   1.0000   1.0000   1.0000   1.0000
     1.0000   1.0000   1.0000   1.0000   1.0000   1.0000   1.0000   1.0000
     1.0000   1.0000   1.0000   1.0000   1.0000   1.0000   1.0000   1.0000
     0.0458   0.0000   0.0000   0.0000   0.0000   0.0000

          k = 0.0000 0.0000 0.3536 (  7563 PWs)   bands (ev):

    -5.6020  -3.7977  -3.7393  -3.7139  -3.5921  -3.3143  -1.6697  -1.6230
    -1.6036  -1.5021  -0.4132  -0.2683  -0.2419  -0.1616   0.5020   2.6157
     2.6433   2.6645   2.6935   3.4497   3.5010   3.5652   3.6859   3.7184
     3.7753   4.7448   4.8471   4.8879   4.9228   4.9791   5.3923   5.4804
     6.6542   7.4414   7.8382   7.8966   7.9685   8.0312

     occupation numbers 
     1.0000   1.0000   1.0000   1.0000   1.0000   1.0000   1.0000   1.0000
     1.0000   1.0000   1.0000   1.0000   1.0000   1.0000   1.0000   1.0000
     1.0000   1.0000   1.0000   1.0000   1.0000   1.0000   1.0000   1.0000
     1.0000   1.0000   1.0000   1.0000   1.0000   1.0000   1.0000   1.0000
     0.0230   0.0000   0.0000   0.0000   0.0000   0.0000

          k = 0.1768 0.5303 0.5303 (  7554 PWs)   bands (ev):

    -5.1538  -4.6090  -4.0854  -3.7433  -3.4771  -2.8894  -2.4496  -2.2441
    -0.9021  -0.7647  -0.4965   0.1120   0.4994   1.1846   1.5015   1.9656
     2.0220   2.1522   2.6411   2.8595   2.9842   3.1254   3.2324   3.4590
     3.7818   3.8549   4.0943   4.2925   4.3693   4.8132   4.9429   5.5353
     7.3003   7.8324   8.1452   8.2031   8.4727   8.7230

     occupation numbers 
     1.0000   1.0000   1.0000   1.0000   1.0000   1.0000   1.0000   1.0000
     1.0000   1.0000   1.0000   1.0000   1.0000   1.0000   1.0000   1.0000
     1.0000   1.0000   1.0000   1.0000   1.0000   1.0000   1.0000   1.0000
     1.0000   1.0000   1.0000   1.0000   1.0000   1.0000   1.0000   1.0000
     0.0000   0.0000   0.0000   0.0000   0.0000   0.0000

          k = 0.1768-0.5303-0.5303 (  7554 PWs)   bands (ev):

    -5.1488  -4.6177  -4.0812  -3.7409  -3.4708  -2.9085  -2.4524  -2.2560
    -0.8945  -0.7227  -0.4751   0.0993   0.4955   1.2144   1.4666   1.9344
     1.9915   2.2074   2.6638   2.7712   2.9577   3.1229   3.2407   3.4159
     3.8110   3.8595   4.1133   4.2907   4.3688   4.8651   4.9910   5.4915
     7.3366   7.7359   8.1874   8.3018   8.4834   8.7261

     occupation numbers 
     1.0000   1.0000   1.0000   1.0000   1.0000   1.0000   1.0000   1.0000
     1.0000   1.0000   1.0000   1.0000   1.0000   1.0000   1.0000   1.0000
     1.0000   1.0000   1.0000   1.0000   1.0000   1.0000   1.0000   1.0000
     1.0000   1.0000   1.0000   1.0000   1.0000   1.0000   1.0000   1.0000
     0.0000   0.0000   0.0000   0.0000   0.0000   0.0000

          k =-0.1768 0.5303-0.5303 (  7554 PWs)   bands (ev):

    -5.1464  -4.6198  -4.1016  -3.6643  -3.5465  -2.8750  -2.4232  -2.3057
    -0.8900  -0.7538  -0.4433   0.2074   0.3865   1.1925   1.4662   1.9617
     2.0066   2.1601   2.6645   2.8166   2.9525   3.1483   3.1867   3.4255
     3.8625   3.8836   4.1007   4.2733   4.3105   4.8240   5.0574   5.4779
     7.3456   7.8489   8.1526   8.2861   8.4535   8.7487

     occupation numbers 
     1.0000   1.0000   1.0000   1.0000   1.0000   1.0000   1.0000   1.0000
     1.0000   1.0000   1.0000   1.0000   1.0000   1.0000   1.0000   1.0000
     1.0000   1.0000   1.0000   1.0000   1.0000   1.0000   1.0000   1.0000
     1.0000   1.0000   1.0000   1.0000   1.0000   1.0000   1.0000   1.0000
     0.0000   0.0000   0.0000   0.0000   0.0000   0.0000

          k =-0.5303-0.1768-0.5303 (  7554 PWs)   bands (ev):

    -5.1539  -4.6059  -4.0930  -3.6761  -3.5627  -2.8934  -2.3935  -2.2646
    -0.8973  -0.7750  -0.4972   0.2061   0.3730   1.1952   1.5083   1.9502
     2.0244   2.1874   2.6778   2.8219   2.9510   3.1291   3.2039   3.4692
     3.8154   3.8718   4.1202   4.2947   4.3545   4.7964   4.9481   5.5193
     7.2950   7.8024   8.1033   8.3136   8.4852   8.7025

     occupation numbers 
     1.0000   1.0000   1.0000   1.0000   1.0000   1.0000   1.0000   1.0000
     1.0000   1.0000   1.0000   1.0000   1.0000   1.0000   1.0000   1.0000
     1.0000   1.0000   1.0000   1.0000   1.0000   1.0000   1.0000   1.0000
     1.0000   1.0000   1.0000   1.0000   1.0000   1.0000   1.0000   1.0000
     0.0000   0.0000   0.0000   0.0000   0.0000   0.0000

          k = 0.5303 0.1768-0.5303 (  7554 PWs)   bands (ev):

    -5.1438  -4.6270  -4.0912  -3.6653  -3.5499  -2.9238  -2.3719  -2.2870
    -0.8293  -0.7801  -0.5174   0.2741   0.3066   1.1739   1.4951   1.8904
     2.0469   2.2076   2.6559   2.7577   3.0516   3.1309   3.2016   3.4346
     3.7988   3.9153   4.1561   4.2841   4.3284   4.8476   4.9582   5.4561
     7.3516   7.8058   8.1487   8.3798   8.4169   8.7069

     occupation numbers 
     1.0000   1.0000   1.0000   1.0000   1.0000   1.0000   1.0000   1.0000
     1.0000   1.0000   1.0000   1.0000   1.0000   1.0000   1.0000   1.0000
     1.0000   1.0000   1.0000   1.0000   1.0000   1.0000   1.0000   1.0000
     1.0000   1.0000   1.0000   1.0000   1.0000   1.0000   1.0000   1.0000
     0.0000   0.0000   0.0000   0.0000   0.0000   0.0000

          k =-0.5303 0.1768 0.5303 (  7554 PWs)   bands (ev):

    -5.1499  -4.6081  -4.1038  -3.6677  -3.5522  -2.9100  -2.3742  -2.3032
    -0.8738  -0.7702  -0.4640   0.2656   0.3181   1.2358   1.4448   1.9396
     1.9910   2.1879   2.7153   2.7528   2.9860   3.1135   3.1975   3.4424
     3.7907   3.9188   4.1388   4.2393   4.3428   4.8498   5.0530   5.4445
     7.3464   7.8270   8.1456   8.3395   8.4410   8.7012

     occupation numbers 
     1.0000   1.0000   1.0000   1.0000   1.0000   1.0000   1.0000   1.0000
     1.0000   1.0000   1.0000   1.0000   1.0000   1.0000   1.0000   1.0000
     1.0000   1.0000   1.0000   1.0000   1.0000   1.0000   1.0000   1.0000
     1.0000   1.0000   1.0000   1.0000   1.0000   1.0000   1.0000   1.0000
     0.0000   0.0000   0.0000   0.0000   0.0000   0.0000

          k = 0.5303-0.1768 0.5303 (  7554 PWs)   bands (ev):

    -5.1446  -4.6290  -4.0736  -3.6700  -3.5614  -2.9253  -2.4080  -2.2538
    -0.8154  -0.8081  -0.4861   0.2104   0.3661   1.2288   1.4712   1.9124
     2.0045   2.1957   2.6307   2.8305   2.9727   3.1366   3.1828   3.4243
     3.8029   3.9385   4.1319   4.2376   4.3568   4.8898   4.9873   5.4581
     7.3278   7.7714   8.1811   8.3097   8.4958   8.7560

     occupation numbers 
     1.0000   1.0000   1.0000   1.0000   1.0000   1.0000   1.0000   1.0000
     1.0000   1.0000   1.0000   1.0000   1.0000   1.0000   1.0000   1.0000
     1.0000   1.0000   1.0000   1.0000   1.0000   1.0000   1.0000   1.0000
     1.0000   1.0000   1.0000   1.0000   1.0000   1.0000   1.0000   1.0000
     0.0000   0.0000   0.0000   0.0000   0.0000   0.0000

          k = 0.5303 0.5303-0.1768 (  7554 PWs)   bands (ev):

    -5.1418  -4.6300  -4.0899  -3.6470  -3.5761  -2.9145  -2.3777  -2.2829
    -0.8387  -0.7906  -0.4689   0.2243   0.3168   1.1938   1.5163   1.9407
     1.9775   2.1246   2.7070   2.7836   3.0280   3.1386   3.1958   3.4566
     3.8396   3.8690   4.1492   4.3048   4.3631   4.7868   4.9828   5.4290
     7.3467   7.8396   8.1542   8.3669   8.4226   8.7573

     occupation numbers 
     1.0000   1.0000   1.0000   1.0000   1.0000   1.0000   1.0000   1.0000
     1.0000   1.0000   1.0000   1.0000   1.0000   1.0000   1.0000   1.0000
     1.0000   1.0000   1.0000   1.0000   1.0000   1.0000   1.0000   1.0000
     1.0000   1.0000   1.0000   1.0000   1.0000   1.0000   1.0000   1.0000
     0.0000   0.0000   0.0000   0.0000   0.0000   0.0000

          k =-0.5303 0.5303 0.1768 (  7554 PWs)   bands (ev):

    -5.1484  -4.6101  -4.0982  -3.6710  -3.5663  -2.8913  -2.3791  -2.3056
    -0.8337  -0.7726  -0.5173   0.2558   0.3522   1.2297   1.4607   1.9266
     1.9965   2.1713   2.6808   2.7715   2.9839   3.1118   3.1972   3.4384
     3.8388   3.9106   4.1462   4.2471   4.3683   4.8386   4.9619   5.4883
     7.3716   7.8565   8.0985   8.3537   8.4354   8.7230

     occupation numbers 
     1.0000   1.0000   1.0000   1.0000   1.0000   1.0000   1.0000   1.0000
     1.0000   1.0000   1.0000   1.0000   1.0000   1.0000   1.0000   1.0000
     1.0000   1.0000   1.0000   1.0000   1.0000   1.0000   1.0000   1.0000
     1.0000   1.0000   1.0000   1.0000   1.0000   1.0000   1.0000   1.0000
     0.0000   0.0000   0.0000   0.0000   0.0000   0.0000

          k = 0.5303-0.5303 0.1768 (  7554 PWs)   bands (ev):

    -5.1441  -4.6242  -4.0840  -3.6685  -3.5677  -2.9082  -2.3859  -2.2867
    -0.8052  -0.7811  -0.5346   0.2539   0.3482   1.2209   1.4699   1.9106
     1.9901   2.2020   2.6329   2.8070   3.0327   3.1106   3.1723   3.4208
     3.8205   3.9233   4.1693   4.2554   4.3111   4.8964   4.9627   5.4574
     7.3807   7.8440   8.1245   8.3609   8.4118   8.7399

     occupation numbers 
     1.0000   1.0000   1.0000   1.0000   1.0000   1.0000   1.0000   1.0000
     1.0000   1.0000   1.0000   1.0000   1.0000   1.0000   1.0000   1.0000
     1.0000   1.0000   1.0000   1.0000   1.0000   1.0000   1.0000   1.0000
     1.0000   1.0000   1.0000   1.0000   1.0000   1.0000   1.0000   1.0000
     0.0000   0.0000   0.0000   0.0000   0.0000   0.0000

          k =-0.5303-0.5303-0.1768 (  7554 PWs)   bands (ev):

    -5.1522  -4.6066  -4.1026  -3.6490  -3.5761  -2.9130  -2.3771  -2.2676
    -0.8527  -0.7994  -0.5037   0.2300   0.3049   1.2563   1.4929   1.9500
     1.9993   2.2086   2.6914   2.7745   3.0055   3.1000   3.1881   3.4767
     3.7698   3.8728   4.2136   4.2322   4.3348   4.8544   5.0288   5.3967
     7.3574   7.7978   8.0724   8.3589   8.4397   8.7136

     occupation numbers 
     1.0000   1.0000   1.0000   1.0000   1.0000   1.0000   1.0000   1.0000
     1.0000   1.0000   1.0000   1.0000   1.0000   1.0000   1.0000   1.0000
     1.0000   1.0000   1.0000   1.0000   1.0000   1.0000   1.0000   1.0000
     1.0000   1.0000   1.0000   1.0000   1.0000   1.0000   1.0000   1.0000
     0.0000   0.0000   0.0000   0.0000   0.0000   0.0000

          k = 0.0000 0.3536 0.3536 (  7592 PWs)   bands (ev):

    -5.3439  -4.3599  -4.2473  -3.4094  -3.1630  -2.9891  -2.8335  -2.0834
    -1.0822  -0.7439  -0.6496  -0.0079   0.4230   0.7805   0.9044   1.7713
     2.5413   2.6428   2.7048   2.8553   3.2359   3.4088   3.5110   3.6571
     3.9406   4.0312   4.2365   4.3164   4.4630   4.6094   4.7722   5.9534
     7.1302   7.7861   8.0950   8.2191   8.2559   8.4959

     occupation numbers 
     1.0000   1.0000   1.0000   1.0000   1.0000   1.0000   1.0000   1.0000
     1.0000   1.0000   1.0000   1.0000   1.0000   1.0000   1.0000   1.0000
     1.0000   1.0000   1.0000   1.0000   1.0000   1.0000   1.0000   1.0000
     1.0000   1.0000   1.0000   1.0000   1.0000   1.0000   1.0000   0.9979
     0.0000   0.0000   0.0000   0.0000   0.0000   0.0000

          k =-0.3536 0.0000-0.3536 (  7592 PWs)   bands (ev):

    -5.3419  -4.3781  -4.2374  -3.3368  -3.2438  -3.0148  -2.7819  -2.0942
    -1.1050  -0.7488  -0.6359   0.1158   0.2891   0.7901   0.9163   1.7719
     2.5209   2.6573   2.7431   2.8215   3.2529   3.3754   3.5136   3.6827
     3.9414   3.9996   4.2257   4.3312   4.4753   4.6293   4.7646   5.9396
     7.1284   7.8783   7.9906   8.2088   8.3261   8.4487

     occupation numbers 
     1.0000   1.0000   1.0000   1.0000   1.0000   1.0000   1.0000   1.0000
     1.0000   1.0000   1.0000   1.0000   1.0000   1.0000   1.0000   1.0000
     1.0000   1.0000   1.0000   1.0000   1.0000   1.0000   1.0000   1.0000
     1.0000   1.0000   1.0000   1.0000   1.0000   1.0000   1.0000   0.9984
     0.0000   0.0000   0.0000   0.0000   0.0000   0.0000

          k = 0.3536 0.0000-0.3536 (  7592 PWs)   bands (ev):

    -5.3391  -4.3761  -4.2495  -3.3401  -3.2201  -2.9486  -2.8878  -2.0727
    -1.1111  -0.7134  -0.6259   0.1641   0.2171   0.7773   0.9247   1.7592
     2.5421   2.6377   2.7218   2.8111   3.2607   3.3318   3.5052   3.6934
     3.9484   4.0544   4.2330   4.3392   4.4783   4.6770   4.7165   5.9034
     7.1891   7.9003   7.9656   8.2370   8.3542   8.5673

     occupation numbers 
     1.0000   1.0000   1.0000   1.0000   1.0000   1.0000   1.0000   1.0000
     1.0000   1.0000   1.0000   1.0000   1.0000   1.0000   1.0000   1.0000
     1.0000   1.0000   1.0000   1.0000   1.0000   1.0000   1.0000   1.0000
     1.0000   1.0000   1.0000   1.0000   1.0000   1.0000   1.0000   0.9993
     0.0000   0.0000   0.0000   0.0000   0.0000   0.0000

          k = 0.3536 0.3536 0.0000 (  7592 PWs)   bands (ev):

    -5.3417  -4.3560  -4.2687  -3.3194  -3.2695  -2.9629  -2.8084  -2.1026
    -1.0803  -0.7105  -0.6884   0.1220   0.2186   0.8152   0.9253   1.7859
     2.5230   2.5830   2.8084   2.8489   3.2774   3.3625   3.5123   3.6851
     3.9271   3.9947   4.2140   4.3692   4.5127   4.6414   4.7255   5.8596
     7.1910   7.8818   7.9731   8.1967   8.2857   8.5512

     occupation numbers 
     1.0000   1.0000   1.0000   1.0000   1.0000   1.0000   1.0000   1.0000
     1.0000   1.0000   1.0000   1.0000   1.0000   1.0000   1.0000   1.0000
     1.0000   1.0000   1.0000   1.0000   1.0000   1.0000   1.0000   1.0000
     1.0000   1.0000   1.0000   1.0000   1.0000   1.0000   1.0000   0.9998
     0.0000   0.0000   0.0000   0.0000   0.0000   0.0000

          k =-0.3536 0.3536 0.0000 (  7592 PWs)   bands (ev):

    -5.3402  -4.3566  -4.2650  -3.3303  -3.2473  -2.9549  -2.8592  -2.0982
    -1.1121  -0.6723  -0.6442   0.1517   0.2560   0.7966   0.8874   1.7642
     2.5338   2.6021   2.7533   2.8103   3.2731   3.3369   3.4818   3.7243
     3.8764   3.9872   4.2424   4.3406   4.5331   4.6779   4.7329   5.9396
     7.2233   7.9244   7.9701   8.1820   8.3108   8.5656

     occupation numbers 
     1.0000   1.0000   1.0000   1.0000   1.0000   1.0000   1.0000   1.0000
     1.0000   1.0000   1.0000   1.0000   1.0000   1.0000   1.0000   1.0000
     1.0000   1.0000   1.0000   1.0000   1.0000   1.0000   1.0000   1.0000
     1.0000   1.0000   1.0000   1.0000   1.0000   1.0000   1.0000   0.9984
     0.0000   0.0000   0.0000   0.0000   0.0000   0.0000

          k = 0.0000-0.7071 0.0000 (  7528 PWs)   bands (ev):

    -4.8602  -4.7572  -3.8993  -3.8391  -3.8229  -3.5960  -1.5997  -1.5457
    -1.4750  -1.4048   0.5428   0.6325   0.6590   0.7242   2.0615   2.1165
     2.2074   2.2410   2.2752   2.3538   2.4204   2.4837   2.6548   2.8366
     4.1291   4.1717   4.2341   4.3125   4.6984   4.8639   5.0053   5.0512
     7.1123   7.1486   8.3730   8.3965   8.4645   8.5314

     occupation numbers 
     1.0000   1.0000   1.0000   1.0000   1.0000   1.0000   1.0000   1.0000
     1.0000   1.0000   1.0000   1.0000   1.0000   1.0000   1.0000   1.0000
     1.0000   1.0000   1.0000   1.0000   1.0000   1.0000   1.0000   1.0000
     1.0000   1.0000   1.0000   1.0000   1.0000   1.0000   1.0000   1.0000
     0.0000   0.0000   0.0000   0.0000   0.0000   0.0000

          k = 0.0000 0.0000-0.7071 (  7528 PWs)   bands (ev):

    -4.8357  -4.7800  -3.9166  -3.8424  -3.8189  -3.5833  -1.5739  -1.5317
    -1.5082  -1.4071   0.5746   0.6286   0.6658   0.7079   2.0469   2.0905
     2.1308   2.2284   2.2664   2.3288   2.4578   2.5410   2.6796   2.8622
     4.1493   4.2029   4.2299   4.2826   4.7192   4.9032   4.9448   5.0070
     7.1191   7.1984   8.3975   8.4114   8.4683   8.5106

     occupation numbers 
     1.0000   1.0000   1.0000   1.0000   1.0000   1.0000   1.0000   1.0000
     1.0000   1.0000   1.0000   1.0000   1.0000   1.0000   1.0000   1.0000
     1.0000   1.0000   1.0000   1.0000   1.0000   1.0000   1.0000   1.0000
     1.0000   1.0000   1.0000   1.0000   1.0000   1.0000   1.0000   1.0000
     0.0000   0.0000   0.0000   0.0000   0.0000   0.0000

          k = 0.3536-0.7071 0.0000 (  7564 PWs)   bands (ev):

    -4.6605  -4.6533  -4.5306  -4.2900  -2.8853  -2.7667  -2.6560  -2.5083
    -0.5385  -0.4551  -0.3980  -0.3369   1.6105   1.6555   1.7231   1.7729
     1.8584   1.9472   2.0228   2.2381   3.1974   3.2434   3.3399   3.4216
     3.4766   3.6153   3.7039   3.7359   4.6108   4.7094   4.7969   4.9287
     8.3439   8.4114   8.4648   8.5670   8.8056   8.8547

     occupation numbers 
     1.0000   1.0000   1.0000   1.0000   1.0000   1.0000   1.0000   1.0000
     1.0000   1.0000   1.0000   1.0000   1.0000   1.0000   1.0000   1.0000
     1.0000   1.0000   1.0000   1.0000   1.0000   1.0000   1.0000   1.0000
     1.0000   1.0000   1.0000   1.0000   1.0000   1.0000   1.0000   1.0000
     0.0000   0.0000   0.0000   0.0000   0.0000   0.0000

          k = 0.7071 0.0000 0.3536 (  7564 PWs)   bands (ev):

    -4.7039  -4.6205  -4.5225  -4.2834  -2.8606  -2.7864  -2.6429  -2.5310
    -0.6334  -0.4328  -0.4030  -0.2578   1.6423   1.6681   1.7320   1.8124
     1.8345   1.9246   1.9541   2.2546   3.2432   3.2969   3.3297   3.4075
     3.5367   3.5899   3.6239   3.7018   4.5030   4.6854   4.8573   5.0288
     8.3444   8.3730   8.4221   8.5377   8.7584   8.8814

     occupation numbers 
     1.0000   1.0000   1.0000   1.0000   1.0000   1.0000   1.0000   1.0000
     1.0000   1.0000   1.0000   1.0000   1.0000   1.0000   1.0000   1.0000
     1.0000   1.0000   1.0000   1.0000   1.0000   1.0000   1.0000   1.0000
     1.0000   1.0000   1.0000   1.0000   1.0000   1.0000   1.0000   1.0000
     0.0000   0.0000   0.0000   0.0000   0.0000   0.0000

     the Fermi energy is     6.3661 ev

!    total energy              =    -152.90023643 Ry
     Harris-Foulkes estimate   =    -152.90023643 Ry
     estimated scf accuracy    <          4.4E-10 Ry

     The total energy is the sum of the following terms:

     one-electron contribution =      40.90012254 Ry
     hartree contribution      =       8.73054277 Ry
     xc contribution           =     -68.18002068 Ry
     ewald contribution        =    -134.35037077 Ry
     smearing contrib. (-TS)   =      -0.00051029 Ry

     convergence has been achieved in  12 iterations

     Forces acting on atoms (Ry/au):

     atom    1 type  1   force =  -0.45541719E-01  0.50304774E-02  0.46977152E-02
     atom    2 type  1   force =   0.35106027E-02 -0.51880384E-01  0.74362075E-02
     atom    3 type  1   force =   0.26313622E-01  0.75533748E-02 -0.29532703E-01
     atom    4 type  1   force =   0.31997197E-01  0.34820368E-01 -0.45987030E-01
     atom    5 type  1   force =   0.43793882E-01  0.48955855E-01 -0.18062535E-01
     atom    6 type  1   force =   0.49979520E-02  0.17224422E-01 -0.17484730E-01
     atom    7 type  1   force =  -0.20903555E-03 -0.41143741E-01  0.56521730E-01
     atom    8 type  1   force =  -0.12458412E-01 -0.47566572E-01  0.99244622E-03
     atom    9 type  1   force =  -0.10914363E-01  0.12156581E-01  0.78817818E-02
     atom   10 type  1   force =   0.13143226E-01 -0.82594357E-02  0.67658449E-03
     atom   11 type  1   force =  -0.28304134E-01  0.17806734E-01  0.10816736E-01
     atom   12 type  1   force =  -0.40571146E-01  0.11936879E-01 -0.74032036E-02
     atom   13 type  1   force =   0.23711307E-01 -0.19643807E-01 -0.39758649E-01
     atom   14 type  1   force =  -0.20656674E-01  0.24266799E-01  0.24540958E-01
     atom   15 type  1   force =   0.18396512E-01 -0.43279540E-02  0.34945416E-01
     atom   16 type  1   force =  -0.72088187E-02 -0.69295966E-02  0.97192763E-02
     The non-local contrib.  to forces
     atom    1 type  1   force =  -0.36943987E-01 -0.12127779E-01  0.24944305E-01
     atom    2 type  1   force =   0.10041854E-01 -0.42654304E-01  0.14342381E-01
     atom    3 type  1   force =   0.28989789E-01  0.31059110E-02 -0.54714698E-01
     atom    4 type  1   force =   0.14612786E-01  0.37463924E-01 -0.55891895E-01
     atom    5 type  1   force =   0.40696039E-01  0.34169044E-01 -0.42239671E-01
     atom    6 type  1   force =   0.18328405E-02  0.19656449E-01 -0.20459856E-01
     atom    7 type  1   force =   0.15378141E-01 -0.35530051E-01  0.51995644E-01
     atom    8 type  1   force =  -0.13707018E-01 -0.55382772E-01  0.22199000E-01
     atom    9 type  1   force =  -0.18810784E-01  0.15888775E-01  0.15830592E-01
     atom   10 type  1   force =   0.10699485E-01 -0.12268695E-01 -0.15709901E-01
     atom   11 type  1   force =  -0.22960238E-01  0.34132773E-01  0.12091264E-01
     atom   12 type  1   force =  -0.47266659E-01  0.31037314E-01 -0.43308475E-02
     atom   13 type  1   force =   0.14884639E-01 -0.40168413E-02 -0.34728952E-01
     atom   14 type  1   force =   0.40590606E-02  0.33465521E-01  0.22691098E-01
     atom   15 type  1   force =   0.59251944E-02 -0.64854233E-02  0.43185400E-01
     atom   16 type  1   force =  -0.87858815E-02 -0.35515022E-01  0.18358526E-01
     The ionic contribution  to forces
     atom    1 type  1   force =  -0.17549842E+00 -0.23467427E-01  0.67071084E-01
     atom    2 type  1   force =   0.10177791E+00 -0.16839020E+00  0.42557603E-01
     atom    3 type  1   force =  -0.14921122E-01 -0.16234265E-01 -0.30131481E+00
     atom    4 type  1   force =  -0.22295042E-01  0.15378741E-01 -0.20688018E+00
     atom    5 type  1   force =   0.31566487E+00  0.35946055E-01 -0.12632006E+00
     atom    6 type  1   force =   0.64030188E-01 -0.58701030E-02 -0.63665964E-01
     atom    7 type  1   force =   0.22589906E-01 -0.26448137E+00  0.20452281E+00
     atom    8 type  1   force =  -0.31903862E-01 -0.14346215E+00  0.17583430E-01
     atom    9 type  1   force =  -0.30384332E-01  0.14291797E+00  0.86872360E-01
     atom   10 type  1   force =  -0.67933229E-02  0.14212723E+00 -0.42303985E-01
     atom   11 type  1   force =  -0.20855212E-01  0.19664653E+00  0.44830404E-01
     atom   12 type  1   force =  -0.18349303E+00  0.25245792E+00  0.20073852E-01
     atom   13 type  1   force =   0.13434458E-01 -0.64333797E-01 -0.13932570E+00
     atom   14 type  1   force =   0.60458253E-01  0.44650106E-01  0.27038977E-01
     atom   15 type  1   force =  -0.59323273E-01  0.38920450E-01  0.20320493E+00
     atom   16 type  1   force =  -0.32487976E-01 -0.18280568E+00  0.16605525E+00
     The local contribution  to forces
     atom    1 type  1   force =   0.16342698E+00  0.39236718E-01 -0.84235609E-01
     atom    2 type  1   force =  -0.10707320E+00  0.15519154E+00 -0.47751008E-01
     atom    3 type  1   force =   0.14144793E-01  0.20972754E-01  0.32084895E+00
     atom    4 type  1   force =   0.40429733E-01 -0.15159866E-01  0.21150600E+00
     atom    5 type  1   force =  -0.30835131E+00 -0.18623387E-01  0.14620142E+00
     atom    6 type  1   force =  -0.60709289E-01  0.51610501E-02  0.64903930E-01
     atom    7 type  1   force =  -0.36665388E-01  0.25544943E+00 -0.19520575E+00
     atom    8 type  1   force =   0.31525752E-01  0.14665187E+00 -0.36869485E-01
     atom    9 type  1   force =   0.37016910E-01 -0.14489930E+00 -0.93221575E-01
     atom   10 type  1   force =   0.10313965E-01 -0.13858503E+00  0.57118070E-01
     atom   11 type  1   force =   0.14081490E-01 -0.20951949E+00 -0.44887717E-01
     atom   12 type  1   force =   0.18597988E+00 -0.26789880E+00 -0.23437518E-01
     atom   13 type  1   force =  -0.38515257E-02  0.48366392E-01  0.13101749E+00
     atom   14 type  1   force =  -0.84309709E-01 -0.51316518E-01 -0.23586679E-01
     atom   15 type  1   force =   0.72011305E-01 -0.37070216E-01 -0.20743880E+00
     atom   16 type  1   force =   0.33292185E-01  0.20756420E+00 -0.17277401E+00
     The core correction contribution to forces
     atom    1 type  1   force =   0.34776724E-02  0.13884497E-02 -0.30804676E-02
     atom    2 type  1   force =  -0.12363639E-02  0.39739956E-02 -0.17125157E-02
     atom    3 type  1   force =  -0.19013057E-02 -0.29214747E-03  0.56481825E-02
     atom    4 type  1   force =  -0.75225865E-03 -0.28629184E-02  0.52777878E-02
     atom    5 type  1   force =  -0.42184981E-02 -0.25355905E-02  0.42938265E-02
     atom    6 type  1   force =  -0.15696158E-03 -0.17212716E-02  0.17377191E-02
     atom    7 type  1   force =  -0.15087941E-02  0.34182230E-02 -0.47918216E-02
     atom    8 type  1   force =   0.16257555E-02  0.46267459E-02 -0.19181612E-02
     atom    9 type  1   force =   0.12657359E-02 -0.17514437E-02 -0.15991386E-02
     atom   10 type  1   force =  -0.10764812E-02  0.46501144E-03  0.15718126E-02
     atom   11 type  1   force =   0.14273754E-02 -0.34527213E-02 -0.12162456E-02
     atom   12 type  1   force =   0.42099010E-02 -0.36587859E-02  0.29228847E-03
     atom   13 type  1   force =  -0.75956898E-03  0.34160844E-03  0.32782383E-02
     atom   14 type  1   force =  -0.86183265E-03 -0.25320532E-02 -0.16031664E-02
     atom   15 type  1   force =  -0.21521308E-03  0.30803319E-03 -0.40050011E-02
     atom   16 type  1   force =   0.77168667E-03  0.38259695E-02 -0.19222408E-02
     The Hubbard contrib.    to forces
     atom    1 type  1   force =   0.00000000E+00  0.00000000E+00  0.00000000E+00
     atom    2 type  1   force =   0.00000000E+00  0.00000000E+00  0.00000000E+00
     atom    3 type  1   force =   0.00000000E+00  0.00000000E+00  0.00000000E+00
     atom    4 type  1   force =   0.00000000E+00  0.00000000E+00  0.00000000E+00
     atom    5 type  1   force =   0.00000000E+00  0.00000000E+00  0.00000000E+00
     atom    6 type  1   force =   0.00000000E+00  0.00000000E+00  0.00000000E+00
     atom    7 type  1   force =   0.00000000E+00  0.00000000E+00  0.00000000E+00
     atom    8 type  1   force =   0.00000000E+00  0.00000000E+00  0.00000000E+00
     atom    9 type  1   force =   0.00000000E+00  0.00000000E+00  0.00000000E+00
     atom   10 type  1   force =   0.00000000E+00  0.00000000E+00  0.00000000E+00
     atom   11 type  1   force =   0.00000000E+00  0.00000000E+00  0.00000000E+00
     atom   12 type  1   force =   0.00000000E+00  0.00000000E+00  0.00000000E+00
     atom   13 type  1   force =   0.00000000E+00  0.00000000E+00  0.00000000E+00
     atom   14 type  1   force =   0.00000000E+00  0.00000000E+00  0.00000000E+00
     atom   15 type  1   force =   0.00000000E+00  0.00000000E+00  0.00000000E+00
     atom   16 type  1   force =   0.00000000E+00  0.00000000E+00  0.00000000E+00
     The SCF correction term to forces
     atom    1 type  1   force =  -0.39879176E-05  0.55036474E-06 -0.15240041E-05
     atom    2 type  1   force =   0.37881016E-06 -0.13808961E-05 -0.17942601E-06
     atom    3 type  1   force =   0.14446675E-05  0.11571919E-05 -0.25844277E-06
     atom    4 type  1   force =   0.19561404E-05  0.52258330E-06  0.13299577E-05
     atom    5 type  1   force =   0.27556796E-05 -0.23232415E-06  0.20233565E-05
     atom    6 type  1   force =   0.11526151E-05 -0.16677898E-05 -0.48572876E-06
     atom    7 type  1   force =  -0.29232936E-05  0.67992687E-07  0.92081033E-06
     atom    8 type  1   force =   0.93845153E-06 -0.22794774E-06 -0.22649504E-05
     atom    9 type  1   force =  -0.19147863E-05  0.61869403E-06 -0.38376594E-06
     atom   10 type  1   force =  -0.44302823E-06  0.20856031E-05  0.66164026E-06
     atom   11 type  1   force =   0.24295304E-05 -0.33187234E-06 -0.89682883E-06
     atom   12 type  1   force =  -0.12632282E-05 -0.72909163E-06 -0.90590962E-06
     atom   13 type  1   force =   0.32829457E-05 -0.11352471E-05  0.34802695E-06
     atom   14 type  1   force =  -0.24685466E-05 -0.22224478E-06  0.80141690E-06
     atom   15 type  1   force =  -0.15234981E-05 -0.76252237E-06 -0.10395682E-05
     atom   16 type  1   force =   0.11442221E-05  0.98022356E-06  0.18235299E-05

     Total force =     0.181649     Total SCF correction =     0.000010


     entering subroutine stress ...

          total   stress  (Ry/bohr**3)                   (kbar)     P=    0.45
   0.0000034801  -0.0000195698  -0.0000196456          0.51     -2.88     -2.89
  -0.0000195698  -0.0000008957  -0.0000151923         -2.88     -0.13     -2.23
  -0.0000196456  -0.0000151923   0.0000065495         -2.89     -2.23      0.96

     kinetic stress (kbar)   2187.71      1.93     -0.11
                                1.93   2187.46      0.25
                               -0.11      0.25   2187.83

     local   stress (kbar)   -289.98     19.98      5.80
                               19.98   -282.76      2.99
                                5.80      2.99   -283.43

     nonloc. stress (kbar)   1939.96     -2.85     -1.00
                               -2.85   1939.97     -0.93
                               -1.00     -0.93   1939.71

     hartree stress (kbar)    199.21     -1.32     -0.71
                               -1.32    197.06      0.18
                               -0.71      0.18    197.58

     exc-cor stress (kbar)    994.52     -0.03     -0.01
                               -0.03    994.51     -0.01
                               -0.01     -0.01    994.51

     corecor stress (kbar)  -1988.01      0.34      0.11
                                0.34  -1988.01      0.10
                                0.11      0.10  -1987.98

     ewald   stress (kbar)  -3042.89    -20.92     -6.97
                              -20.92  -3048.36     -4.82
                               -6.97     -4.82  -3047.27

     hubbard stress (kbar)      0.00      0.00      0.00
                                0.00      0.00      0.00
                                0.00      0.00      0.00

     london  stress (kbar)      0.00      0.00      0.00
                                0.00      0.00      0.00
                                0.00      0.00      0.00

     XDM     stress (kbar)      0.00      0.00      0.00
                                0.00      0.00      0.00
                                0.00      0.00      0.00

     dft-nl  stress (kbar)      0.00      0.00      0.00
                                0.00      0.00      0.00
                                0.00      0.00      0.00



     Writing output data file Si_diamond.scf.in.super.222.replace7321.save

     init_run     :      8.16s CPU      7.85s WALL (       1 calls)
     electrons    :    245.28s CPU    233.24s WALL (       1 calls)
     forces       :      3.73s CPU      3.03s WALL (       1 calls)
     stress       :      4.79s CPU      4.75s WALL (       1 calls)

     Called by init_run:
     wfcinit      :      7.63s CPU      7.29s WALL (       1 calls)
     potinit      :      0.08s CPU      0.11s WALL (       1 calls)

     Called by electrons:
     c_bands      :    211.20s CPU    200.70s WALL (      13 calls)
     sum_band     :     31.05s CPU     29.40s WALL (      13 calls)
     v_of_rho     :      0.53s CPU      0.59s WALL (      13 calls)
     v_h          :      0.02s CPU      0.04s WALL (      13 calls)
     v_xc         :      0.59s CPU      0.63s WALL (      15 calls)
     newd         :      2.31s CPU      2.32s WALL (      13 calls)
     mix_rho      :      0.38s CPU      0.41s WALL (      13 calls)

     Called by c_bands:
     init_us_2    :      2.53s CPU      2.67s WALL (    1044 calls)
     cegterg      :    202.18s CPU    191.30s WALL (     468 calls)

     Called by sum_band:
     sum_band:bec :      0.41s CPU      0.41s WALL (     468 calls)
     addusdens    :      2.85s CPU      2.86s WALL (      13 calls)

     Called by *egterg:
     h_psi        :    127.75s CPU    125.67s WALL (    1899 calls)
     s_psi        :     18.47s CPU     13.02s WALL (    1899 calls)
     g_psi        :      0.27s CPU      0.22s WALL (    1395 calls)
     cdiaghg      :     21.21s CPU     21.49s WALL (    1827 calls)
     cegterg:over :     17.94s CPU     16.56s WALL (    1395 calls)
     cegterg:upda :      6.70s CPU      4.96s WALL (    1395 calls)
     cegterg:last :      4.12s CPU      2.84s WALL (     501 calls)

     Called by h_psi:
     h_psi:vloc   :     78.44s CPU     88.21s WALL (    1899 calls)
     h_psi:vnl    :     49.18s CPU     37.31s WALL (    1899 calls)
     add_vuspsi   :     21.13s CPU     14.77s WALL (    1899 calls)

     General routines
     calbec       :     39.61s CPU     31.83s WALL (    2439 calls)
     fft          :      0.77s CPU      0.81s WALL (     233 calls)
     ffts         :      0.28s CPU      0.30s WALL (     221 calls)
     fftw         :     89.28s CPU     98.75s WALL (  111340 calls)
     interpolate  :      0.11s CPU      0.12s WALL (      26 calls)

     Parallel routines
     fft_scatter  :     48.69s CPU     54.12s WALL (  111794 calls)

     PWSCF        :  4m23.14s CPU     4m10.39s WALL


   This run was terminated on:  10:43: 4  14Mar2018            

=------------------------------------------------------------------------------=
   JOB DONE.
=------------------------------------------------------------------------------=
