
     Program PWSCF v.5.1 starts on 14Mar2018 at 10:56: 0 

     This program is part of the open-source Quantum ESPRESSO suite
     for quantum simulation of materials; please cite
         "P. Giannozzi et al., J. Phys.:Condens. Matter 21 395502 (2009);
          URL http://www.quantum-espresso.org", 
     in publications or presentations arising from this work. More details at
     http://www.quantum-espresso.org/quote

     Parallel version (MPI), running on    16 processors
     R & G space division:  proc/nbgrp/npool/nimage =      16
     Waiting for input...
     Reading input from standard input
Warning: card &IONS ignored
Warning: card   ION_DYNAMICS='BFGS', ignored
Warning: card / ignored
Warning: card &CELL ignored
Warning: card  CELL_DYNAMICS = 'BFGS' ignored
Warning: card / ignored

     Current dimensions of program PWSCF are:
     Max number of different atomic species (ntypx) = 10
     Max number of k-points (npk) =  40000
     Max angular momentum in pseudopotentials (lmaxx) =  3
 kfg - two_fermi_energies  F

     Subspace diagonalization in iterative solution of the eigenvalue problem:
     a serial algorithm will be used


     Parallelization info
     --------------------
     sticks:   dense  smooth     PW     G-vecs:    dense   smooth      PW
     Min         181     128     35                 6459     3770     554
     Max         182     129     38                 6463     3791     555
     Sum        2905    2053    571               103379    60495    8873



     bravais-lattice index     =            0
     lattice parameter (alat)  =    14.515605984  a.u.
     unit-cell volume          =    2162.6713 (a.u.)^3
     number of atoms/cell      =           16
     number of atomic types    =            1
     number of electrons       =        64.00
     number of Kohn-Sham states=           38
     kinetic-energy cutoff     =      35.0000  Ry
     charge density cutoff     =     200.0000  Ry
     convergence threshold     =      1.0E-09
     mixing beta               =       0.3000
     number of iterations used =            8  local-TF  mixing
     Exchange-correlation      = SLA  PW   PSX  PSC ( 1  4 10  8 0)
     A smooth kinetic-energy cutoff is imposed at      34.5000 Ry
     height of the smooth step-function =             800.0000 Ry
     width of the smooth step-function  =               1.0000 Ry


     celldm(1)=  14.515606  celldm(2)=   0.000000  celldm(3)=   0.000000
     celldm(4)=   0.000000  celldm(5)=   0.000000  celldm(6)=   0.000000

     crystal axes: (cart. coord. in units of alat)
               a(1) = (  -0.000000000000   0.707106781187   0.707106781187 )  
               a(2) = (   0.707106781187  -0.000000000000   0.707106781187 )  
               a(3) = (   0.707106781187   0.707106781187   0.000000000000 )  

     reciprocal axes: (cart. coord. in units 2 pi/alat)
               b(1) = ( -0.707107  0.707107  0.707107 )  
               b(2) = (  0.707107 -0.707107  0.707107 )  
               b(3) = (  0.707107  0.707107 -0.707107 )  


     PseudoPot. # 1 for Si read from file:
     /users/kfg/psuedo/gbrv_1.5/si.pbesol.UPF
     MD5 check sum: ef58ba74faed4df802eb8a9742fc00a8
     Pseudo is Ultrasoft + core correction, Zval =  4.0
     Generated by new atomic code, or converted to UPF format
     Using radial grid of  899 points,  6 beta functions with: 
                l(1) =   0
                l(2) =   0
                l(3) =   1
                l(4) =   1
                l(5) =   2
                l(6) =   2
     Q(r) pseudized with  8 coefficients,  rinner =    0.900   0.900   0.900
                                                       0.900   0.900

     atomic species   valence    mass     pseudopotential
        Si             4.00    28.08550     Si( 1.00)

     No symmetry found


                                    s                        frac. trans.

      isym =  1     identity                                     

 cryst.   s( 1) = (     1          0          0      )
                  (     0          1          0      )
                  (     0          0          1      )

 cart.    s( 1) = (  1.0000000  0.0000000  0.0000000 )
                  (  0.0000000  1.0000000  0.0000000 )
                  (  0.0000000  0.0000000  1.0000000 )


     point group C_1 (1)    
     there are  1 classes
     the character table:

       E    
A      1.00

     the symmetry operations in each class:
     E        1

   Cartesian axes

     site n.     atom                  positions (alat units)
         1           Si  tau(   1) = (    0.00687573969   -0.03238634494   -0.00081137073  )
         2           Si  tau(   2) = (    0.16114610413    0.16262731640    0.18897062670  )
         3           Si  tau(   3) = (    0.33113936857    0.35592194721    0.01792126918  )
         4           Si  tau(   4) = (    0.53264636609    0.52464834293    0.18863899769  )
         5           Si  tau(   5) = (    0.35668313398   -0.01936918603    0.34310910007  )
         6           Si  tau(   6) = (    0.54488754542    0.15931720489    0.53028450847  )
         7           Si  tau(   7) = (    0.71320719528    0.35143817917    0.36454609254  )
         8           Si  tau(   8) = (    0.89898006922    0.56418045757    0.54132729424  )
         9           Si  tau(   9) = (   -0.00882189955    0.35523787699    0.34401214333  )
        10           Si  tau(  10) = (    0.18437648985    0.53701706500    0.50662403984  )
        11           Si  tau(  11) = (    0.35863980751    0.74126181483    0.34319535497  )
        12           Si  tau(  12) = (    0.52134028106    0.90216250175    0.54028565946  )
        13           Si  tau(  13) = (    0.35978739242    0.34334346758    0.70155190433  )
        14           Si  tau(  14) = (    0.51867724535    0.50635973012    0.87290781956  )
        15           Si  tau(  15) = (    0.69765773790    0.71628909563    0.70742339175  )
        16           Si  tau(  16) = (    0.89384523493    0.90301834276    0.88108098049  )

   Crystallographic axes

     site n.     atom                  positions (cryst. coord.)
         1           Si  tau(   1) = (   -0.02833621204    0.02718876054   -0.01746499622  )
         2           Si  tau(   2) = (    0.13466978683    0.13257503634    0.09531996964  )
         3           Si  tau(   3) = (    0.03019618038   -0.00485167844    0.47315346451  )
         4           Si  tau(   4) = (    0.12773245805    0.13904337088    0.61423234400  )
         5           Si  tau(   5) = (   -0.02329437421    0.50852391691   -0.00409779136  )
         6           Si  tau(   6) = (    0.10232836948    0.64760717431    0.12298018239  )
         7           Si  tau(   7) = (    0.00196368958    0.51358233860    0.49504494975  )
         8           Si  tau(   8) = (    0.14603712486    0.61951527633    0.65183452986  )
         9           Si  tau(   9) = (    0.50068245611   -0.01417581739    0.00169976741  )
        10           Si  tau(  10) = (    0.60759183609    0.10888275207    0.15186498046  )
        11           Si  tau(  11) = (    0.51323037878   -0.02787885324    0.53507213303  )
        12           Si  tau(  12) = (    0.65132162826    0.11275767890    0.62452881718  )
        13           Si  tau(  13) = (    0.48444449814    0.50769971968    0.00111649026  )
        14           Si  tau(  14) = (    0.60852924001    0.62594883711    0.10757155776  )
        15           Si  tau(  15) = (    0.51339823687    0.48704951809    0.49958751675  )
        16           Si  tau(  16) = (    0.62950470283    0.61653196933    0.64755608458  )

     number of k points=    36  gaussian smearing, width (Ry)=  0.0150
                       cart. coord. in units 2pi/alat
        k(    1) = (   0.0000000   0.0000000   0.0000000), wk =   0.0312500
        k(    2) = (   0.1767767   0.1767767  -0.1767767), wk =   0.0625000
        k(    3) = (  -0.3535534  -0.3535534   0.3535534), wk =   0.0312500
        k(    4) = (   0.3535534   0.0000000   0.0000000), wk =   0.0625000
        k(    5) = (  -0.1767767  -0.5303301   0.5303301), wk =   0.0625000
        k(    6) = (   0.0000000  -0.3535534   0.3535534), wk =   0.0625000
        k(    7) = (  -0.7071068   0.0000000   0.0000000), wk =   0.0312500
        k(    8) = (  -0.7071068   0.3535534   0.0000000), wk =   0.0625000
        k(    9) = (  -0.1767767  -0.1767767  -0.1767767), wk =   0.0625000
        k(   10) = (  -0.1767767   0.1767767   0.1767767), wk =   0.0625000
        k(   11) = (   0.1767767  -0.1767767   0.1767767), wk =   0.0625000
        k(   12) = (   0.3535534   0.3535534   0.3535534), wk =   0.0312500
        k(   13) = (   0.3535534  -0.3535534  -0.3535534), wk =   0.0312500
        k(   14) = (  -0.3535534   0.3535534  -0.3535534), wk =   0.0312500
        k(   15) = (   0.0000000   0.3535534   0.0000000), wk =   0.0625000
        k(   16) = (   0.0000000   0.0000000   0.3535534), wk =   0.0625000
        k(   17) = (   0.1767767   0.5303301   0.5303301), wk =   0.0625000
        k(   18) = (   0.1767767  -0.5303301  -0.5303301), wk =   0.0625000
        k(   19) = (  -0.1767767   0.5303301  -0.5303301), wk =   0.0625000
        k(   20) = (  -0.5303301  -0.1767767  -0.5303301), wk =   0.0625000
        k(   21) = (   0.5303301   0.1767767  -0.5303301), wk =   0.0625000
        k(   22) = (  -0.5303301   0.1767767   0.5303301), wk =   0.0625000
        k(   23) = (   0.5303301  -0.1767767   0.5303301), wk =   0.0625000
        k(   24) = (   0.5303301   0.5303301  -0.1767767), wk =   0.0625000
        k(   25) = (  -0.5303301   0.5303301   0.1767767), wk =   0.0625000
        k(   26) = (   0.5303301  -0.5303301   0.1767767), wk =   0.0625000
        k(   27) = (  -0.5303301  -0.5303301  -0.1767767), wk =   0.0625000
        k(   28) = (   0.0000000   0.3535534   0.3535534), wk =   0.0625000
        k(   29) = (  -0.3535534   0.0000000  -0.3535534), wk =   0.0625000
        k(   30) = (   0.3535534   0.0000000  -0.3535534), wk =   0.0625000
        k(   31) = (   0.3535534   0.3535534   0.0000000), wk =   0.0625000
        k(   32) = (  -0.3535534   0.3535534   0.0000000), wk =   0.0625000
        k(   33) = (   0.0000000  -0.7071068   0.0000000), wk =   0.0312500
        k(   34) = (   0.0000000   0.0000000  -0.7071068), wk =   0.0312500
        k(   35) = (   0.3535534  -0.7071068   0.0000000), wk =   0.0625000
        k(   36) = (   0.7071068   0.0000000   0.3535534), wk =   0.0625000

                       cryst. coord.
        k(    1) = (   0.0000000   0.0000000   0.0000000), wk =   0.0312500
        k(    2) = (   0.0000000   0.0000000   0.2500000), wk =   0.0625000
        k(    3) = (   0.0000000   0.0000000  -0.5000000), wk =   0.0312500
        k(    4) = (  -0.0000000   0.2500000   0.2500000), wk =   0.0625000
        k(    5) = (   0.0000000   0.2500000  -0.5000000), wk =   0.0625000
        k(    6) = (   0.0000000   0.2500000  -0.2500000), wk =   0.0625000
        k(    7) = (   0.0000000  -0.5000000  -0.5000000), wk =   0.0312500
        k(    8) = (   0.2500000  -0.5000000  -0.2500000), wk =   0.0625000
        k(    9) = (  -0.2500000  -0.2500000  -0.2500000), wk =   0.0625000
        k(   10) = (   0.2500000   0.0000000   0.0000000), wk =   0.0625000
        k(   11) = (   0.0000000   0.2500000   0.0000000), wk =   0.0625000
        k(   12) = (   0.5000000   0.5000000   0.5000000), wk =   0.0312500
        k(   13) = (  -0.5000000   0.0000000  -0.0000000), wk =   0.0312500
        k(   14) = (   0.0000000  -0.5000000  -0.0000000), wk =   0.0312500
        k(   15) = (   0.2500000  -0.0000000   0.2500000), wk =   0.0625000
        k(   16) = (   0.2500000   0.2500000   0.0000000), wk =   0.0625000
        k(   17) = (   0.7500000   0.5000000   0.5000000), wk =   0.0625000
        k(   18) = (  -0.7500000  -0.2500000  -0.2500000), wk =   0.0625000
        k(   19) = (   0.0000000  -0.5000000   0.2500000), wk =   0.0625000
        k(   20) = (  -0.5000000  -0.7500000  -0.5000000), wk =   0.0625000
        k(   21) = (  -0.2500000   0.0000000   0.5000000), wk =   0.0625000
        k(   22) = (   0.5000000   0.0000000  -0.2500000), wk =   0.0625000
        k(   23) = (   0.2500000   0.7500000   0.2500000), wk =   0.0625000
        k(   24) = (   0.2500000   0.2500000   0.7500000), wk =   0.0625000
        k(   25) = (   0.5000000  -0.2500000   0.0000000), wk =   0.0625000
        k(   26) = (  -0.2500000   0.5000000   0.0000000), wk =   0.0625000
        k(   27) = (  -0.5000000  -0.5000000  -0.7500000), wk =   0.0625000
        k(   28) = (   0.5000000   0.2500000   0.2500000), wk =   0.0625000
        k(   29) = (  -0.2500000  -0.5000000  -0.2500000), wk =   0.0625000
        k(   30) = (  -0.2500000   0.0000000   0.2500000), wk =   0.0625000
        k(   31) = (   0.2500000   0.2500000   0.5000000), wk =   0.0625000
        k(   32) = (   0.2500000  -0.2500000   0.0000000), wk =   0.0625000
        k(   33) = (  -0.5000000   0.0000000  -0.5000000), wk =   0.0312500
        k(   34) = (  -0.5000000  -0.5000000  -0.0000000), wk =   0.0312500
        k(   35) = (  -0.5000000   0.2500000  -0.2500000), wk =   0.0625000
        k(   36) = (   0.2500000   0.7500000   0.5000000), wk =   0.0625000

     Dense  grid:   103379 G-vectors     FFT dimensions: (  72,  72,  72)

     Smooth grid:    60495 G-vectors     FFT dimensions: (  60,  60,  60)

     Largest allocated arrays     est. size (Mb)     dimensions
        Kohn-Sham Wavefunctions         0.28 Mb     (     486,   38)
        NL pseudopotentials             2.14 Mb     (     486,  288)
        Each V/rho on FFT grid          0.40 Mb     (   25920)
        Each G-vector array             0.05 Mb     (    6463)
        G-vector shells                 0.01 Mb     (     700)
     Largest temporary arrays     est. size (Mb)     dimensions
        Auxiliary wavefunctions         1.13 Mb     (     486,  152)
        Each subspace H/S matrix        0.35 Mb     (     152,  152)
        Each <psi_i|beta_j> matrix      0.17 Mb     (     288,   38)
        Arrays for rho mixing           3.16 Mb     (   25920,    8)

     Initial potential from superposition of free atoms

     starting charge   63.98963, renormalised to   64.00000
     Starting wfc are   64 randomized atomic wfcs

     total cpu time spent up to now is        8.0 secs

     Self-consistent Calculation

     iteration #  1     ecut=    35.00 Ry     beta=0.30
     Davidson diagonalization with overlap
     ethr =  1.00E-02,  avg # of iterations =  3.3

     Threshold (ethr) on eigenvalues was too large:
     Diagonalizing with lowered threshold

     Davidson diagonalization with overlap
     ethr =  6.99E-04,  avg # of iterations =  1.9

     total cpu time spent up to now is       43.7 secs

     total energy              =    -152.92938840 Ry
     Harris-Foulkes estimate   =    -152.97728118 Ry
     estimated scf accuracy    <       0.44153698 Ry

     iteration #  2     ecut=    35.00 Ry     beta=0.30
     Davidson diagonalization with overlap
     ethr =  6.90E-04,  avg # of iterations =  1.0

     total cpu time spent up to now is       56.5 secs

     total energy              =    -152.83390326 Ry
     Harris-Foulkes estimate   =    -152.93162710 Ry
     estimated scf accuracy    <       0.27435965 Ry

     iteration #  3     ecut=    35.00 Ry     beta=0.30
     Davidson diagonalization with overlap
     ethr =  4.29E-04,  avg # of iterations =  2.6

     total cpu time spent up to now is       71.4 secs

     total energy              =    -152.85421705 Ry
     Harris-Foulkes estimate   =    -152.85404292 Ry
     estimated scf accuracy    <       0.00338819 Ry

     iteration #  4     ecut=    35.00 Ry     beta=0.30
     Davidson diagonalization with overlap
     c_bands:  1 eigenvalues not converged
     c_bands:  1 eigenvalues not converged
     c_bands:  1 eigenvalues not converged
     c_bands:  1 eigenvalues not converged
     c_bands:  1 eigenvalues not converged
     ethr =  5.29E-06,  avg # of iterations = 12.1

     total cpu time spent up to now is      108.8 secs

     total energy              =    -152.85654097 Ry
     Harris-Foulkes estimate   =    -152.85643223 Ry
     estimated scf accuracy    <       0.00179576 Ry

     iteration #  5     ecut=    35.00 Ry     beta=0.30
     Davidson diagonalization with overlap
     ethr =  2.81E-06,  avg # of iterations =  1.8

     total cpu time spent up to now is      122.3 secs

     total energy              =    -152.85666757 Ry
     Harris-Foulkes estimate   =    -152.85657638 Ry
     estimated scf accuracy    <       0.00075300 Ry

     iteration #  6     ecut=    35.00 Ry     beta=0.30
     Davidson diagonalization with overlap
     ethr =  1.18E-06,  avg # of iterations =  2.1

     total cpu time spent up to now is      139.2 secs

     total energy              =    -152.85676274 Ry
     Harris-Foulkes estimate   =    -152.85676970 Ry
     estimated scf accuracy    <       0.00007197 Ry

     iteration #  7     ecut=    35.00 Ry     beta=0.30
     Davidson diagonalization with overlap
     ethr =  1.12E-07,  avg # of iterations =  1.4

     total cpu time spent up to now is      152.8 secs

     total energy              =    -152.85674447 Ry
     Harris-Foulkes estimate   =    -152.85676596 Ry
     estimated scf accuracy    <       0.00004953 Ry

     iteration #  8     ecut=    35.00 Ry     beta=0.30
     Davidson diagonalization with overlap
     ethr =  7.74E-08,  avg # of iterations =  2.1

     total cpu time spent up to now is      170.4 secs

     total energy              =    -152.85675875 Ry
     Harris-Foulkes estimate   =    -152.85675893 Ry
     estimated scf accuracy    <       0.00000681 Ry

     iteration #  9     ecut=    35.00 Ry     beta=0.30
     Davidson diagonalization with overlap
     ethr =  1.06E-08,  avg # of iterations =  1.7

     total cpu time spent up to now is      184.3 secs

     total energy              =    -152.85675697 Ry
     Harris-Foulkes estimate   =    -152.85675895 Ry
     estimated scf accuracy    <       0.00000568 Ry

     iteration # 10     ecut=    35.00 Ry     beta=0.30
     Davidson diagonalization with overlap
     ethr =  8.87E-09,  avg # of iterations =  2.0

     total cpu time spent up to now is      201.0 secs

     total energy              =    -152.85675768 Ry
     Harris-Foulkes estimate   =    -152.85675772 Ry
     estimated scf accuracy    <       0.00000016 Ry

     iteration # 11     ecut=    35.00 Ry     beta=0.30
     Davidson diagonalization with overlap
     ethr =  2.44E-10,  avg # of iterations =  3.1

     total cpu time spent up to now is      223.5 secs

     total energy              =    -152.85675774 Ry
     Harris-Foulkes estimate   =    -152.85675784 Ry
     estimated scf accuracy    <       0.00000042 Ry

     iteration # 12     ecut=    35.00 Ry     beta=0.30
     Davidson diagonalization with overlap
     ethr =  2.44E-10,  avg # of iterations =  2.0

     total cpu time spent up to now is      240.2 secs

     total energy              =    -152.85675774 Ry
     Harris-Foulkes estimate   =    -152.85675776 Ry
     estimated scf accuracy    <       0.00000008 Ry

     iteration # 13     ecut=    35.00 Ry     beta=0.30
     Davidson diagonalization with overlap
     ethr =  1.32E-10,  avg # of iterations =  2.1

     total cpu time spent up to now is      256.8 secs

     total energy              =    -152.85675775 Ry
     Harris-Foulkes estimate   =    -152.85675775 Ry
     estimated scf accuracy    <          2.1E-09 Ry

     iteration # 14     ecut=    35.00 Ry     beta=0.30
     Davidson diagonalization with overlap
     ethr =  3.21E-12,  avg # of iterations =  2.9

     total cpu time spent up to now is      276.0 secs

     End of self-consistent calculation

          k = 0.0000 0.0000 0.0000 (  7631 PWs)   bands (ev):

    -5.8923  -3.6913  -3.6263  -3.4657  -3.3813  -1.9498  -1.8824  -1.7207
    -1.6938  -1.5691  -1.4131  -0.9352  -0.8950  -0.8025  -0.5813   3.1331
     3.1916   3.2366   3.2855   3.3538   3.3954   4.6829   4.7798   4.8270
     4.9004   4.9529   5.0575   5.1217   5.2088   5.9401   6.1080   6.3084
     6.5386   6.6073   6.6993   6.7840   6.8599   6.9467

     occupation numbers 
     1.0000   1.0000   1.0000   1.0000   1.0000   1.0000   1.0000   1.0000
     1.0000   1.0000   1.0000   1.0000   1.0000   1.0000   1.0000   1.0000
     1.0000   1.0000   1.0000   1.0000   1.0000   1.0000   1.0000   1.0000
     1.0000   1.0000   1.0000   1.0000   1.0000   0.9989   0.9713   0.6958
     0.1394   0.0595   0.0140   0.0027   0.0005   0.0000

          k = 0.1768 0.1768-0.1768 (  7564 PWs)   bands (ev):

    -5.6948  -4.1705  -3.6188  -3.4407  -3.3636  -2.6632  -2.5178  -2.3904
    -1.0570  -0.8168  -0.7007  -0.5651  -0.3921  -0.2533   0.1158   2.4978
     2.6039   2.7286   3.3574   3.3994   3.5003   3.7186   3.8126   3.9300
     4.4289   4.5709   4.6476   4.6983   5.0723   5.1696   5.8512   6.1309
     6.8289   6.9031   6.9550   7.5716   7.8165   7.9029

     occupation numbers 
     1.0000   1.0000   1.0000   1.0000   1.0000   1.0000   1.0000   1.0000
     1.0000   1.0000   1.0000   1.0000   1.0000   1.0000   1.0000   1.0000
     1.0000   1.0000   1.0000   1.0000   1.0000   1.0000   1.0000   1.0000
     1.0000   1.0000   1.0000   1.0000   1.0000   1.0000   0.9999   0.9593
     0.0010   0.0002   0.0000   0.0000   0.0000   0.0000

          k =-0.3536-0.3536 0.3536 (  7570 PWs)   bands (ev):

    -5.2563  -4.8987  -3.5411  -3.2607  -3.1821  -3.0271  -2.9526  -2.8462
    -0.6698  -0.4297  -0.2717  -0.1465   0.0941   0.1630   1.9098   2.2368
     2.2977   2.4551   2.4758   2.5801   2.6073   2.7005   3.6988   3.8041
     3.9189   4.0424   4.1452   4.2266   5.2207   5.3428   5.4727   5.8410
     7.2411   7.3568   7.4661   7.5766   7.6268   7.8429

     occupation numbers 
     1.0000   1.0000   1.0000   1.0000   1.0000   1.0000   1.0000   1.0000
     1.0000   1.0000   1.0000   1.0000   1.0000   1.0000   1.0000   1.0000
     1.0000   1.0000   1.0000   1.0000   1.0000   1.0000   1.0000   1.0000
     1.0000   1.0000   1.0000   1.0000   1.0000   1.0000   1.0000   0.9999
     0.0000   0.0000   0.0000   0.0000   0.0000   0.0000

          k = 0.3536 0.0000 0.0000 (  7563 PWs)   bands (ev):

    -5.6260  -3.9640  -3.7811  -3.5973  -3.5287  -3.3300  -1.8392  -1.6856
    -1.5558  -1.3633  -0.4577  -0.3298  -0.2302  -0.0488   0.4966   2.5196
     2.6011   2.6972   2.7971   3.4059   3.4717   3.5579   3.6717   3.7455
     3.8694   4.7109   4.7610   4.9043   4.9374   5.0904   5.3208   5.5773
     6.6569   7.4150   7.6656   7.7931   7.9536   8.0305

     occupation numbers 
     1.0000   1.0000   1.0000   1.0000   1.0000   1.0000   1.0000   1.0000
     1.0000   1.0000   1.0000   1.0000   1.0000   1.0000   1.0000   1.0000
     1.0000   1.0000   1.0000   1.0000   1.0000   1.0000   1.0000   1.0000
     1.0000   1.0000   1.0000   1.0000   1.0000   1.0000   1.0000   1.0000
     0.0285   0.0000   0.0000   0.0000   0.0000   0.0000

          k =-0.1768-0.5303 0.5303 (  7554 PWs)   bands (ev):

    -5.2015  -4.5871  -4.1048  -3.7713  -3.5165  -2.8823  -2.4474  -2.2772
    -0.9184  -0.7213  -0.4897   0.1945   0.5159   1.2403   1.4326   1.8969
     1.9981   2.1132   2.6412   2.7683   2.9338   3.0864   3.2337   3.4122
     3.7994   3.9086   4.1377   4.3066   4.4609   4.8502   4.9751   5.5922
     7.3341   7.8653   8.0646   8.3087   8.4457   8.6220

     occupation numbers 
     1.0000   1.0000   1.0000   1.0000   1.0000   1.0000   1.0000   1.0000
     1.0000   1.0000   1.0000   1.0000   1.0000   1.0000   1.0000   1.0000
     1.0000   1.0000   1.0000   1.0000   1.0000   1.0000   1.0000   1.0000
     1.0000   1.0000   1.0000   1.0000   1.0000   1.0000   1.0000   1.0000
     0.0000   0.0000   0.0000   0.0000   0.0000   0.0000

          k = 0.0000-0.3536 0.3536 (  7592 PWs)   bands (ev):

    -5.3760  -4.3749  -4.2379  -3.4874  -3.1920  -2.9583  -2.8589  -2.0447
    -1.1783  -0.7486  -0.5331   0.0698   0.4327   0.7696   0.8726   1.7519
     2.4394   2.5753   2.7378   2.8535   3.1953   3.3584   3.4291   3.7124
     3.9183   4.0657   4.2468   4.3486   4.5448   4.6333   4.8142   6.0312
     7.2005   7.7609   8.0768   8.2055   8.3002   8.5391

     occupation numbers 
     1.0000   1.0000   1.0000   1.0000   1.0000   1.0000   1.0000   1.0000
     1.0000   1.0000   1.0000   1.0000   1.0000   1.0000   1.0000   1.0000
     1.0000   1.0000   1.0000   1.0000   1.0000   1.0000   1.0000   1.0000
     1.0000   1.0000   1.0000   1.0000   1.0000   1.0000   1.0000   0.9925
     0.0000   0.0000   0.0000   0.0000   0.0000   0.0000

          k =-0.7071 0.0000 0.0000 (  7528 PWs)   bands (ev):

    -4.9517  -4.7285  -3.9837  -3.8594  -3.7076  -3.6090  -1.7238  -1.6121
    -1.4495  -1.2728   0.4211   0.5166   0.7133   0.9142   1.9909   2.0585
     2.1783   2.2223   2.3215   2.3810   2.4239   2.5708   2.6751   2.7734
     4.1351   4.1737   4.2580   4.3684   4.7191   4.8727   4.9641   5.1063
     7.1171   7.1928   8.2022   8.3654   8.4653   8.5149

     occupation numbers 
     1.0000   1.0000   1.0000   1.0000   1.0000   1.0000   1.0000   1.0000
     1.0000   1.0000   1.0000   1.0000   1.0000   1.0000   1.0000   1.0000
     1.0000   1.0000   1.0000   1.0000   1.0000   1.0000   1.0000   1.0000
     1.0000   1.0000   1.0000   1.0000   1.0000   1.0000   1.0000   1.0000
     0.0000   0.0000   0.0000   0.0000   0.0000   0.0000

          k =-0.7071 0.3536 0.0000 (  7564 PWs)   bands (ev):

    -4.8804  -4.5333  -4.4244  -4.3489  -2.9666  -2.8350  -2.5592  -2.4873
    -0.5962  -0.5186  -0.3579  -0.2944   1.5330   1.5571   1.7319   1.8583
     1.9389   1.9708   2.0943   2.1110   3.1921   3.2177   3.3343   3.4200
     3.5246   3.5964   3.6980   3.7983   4.6125   4.7760   4.8360   4.9620
     8.2013   8.3154   8.4210   8.5480   8.6412   8.8166

     occupation numbers 
     1.0000   1.0000   1.0000   1.0000   1.0000   1.0000   1.0000   1.0000
     1.0000   1.0000   1.0000   1.0000   1.0000   1.0000   1.0000   1.0000
     1.0000   1.0000   1.0000   1.0000   1.0000   1.0000   1.0000   1.0000
     1.0000   1.0000   1.0000   1.0000   1.0000   1.0000   1.0000   1.0000
     0.0000   0.0000   0.0000   0.0000   0.0000   0.0000

          k =-0.1768-0.1768-0.1768 (  7564 PWs)   bands (ev):

    -5.6941  -4.2412  -3.5646  -3.4133  -3.3468  -2.5709  -2.5272  -2.4063
    -0.9838  -0.8187  -0.7581  -0.6477  -0.5294  -0.4914   0.3392   2.5871
     2.7256   2.7839   3.3183   3.3909   3.4307   3.8163   3.9581   4.1018
     4.4130   4.5122   4.5969   4.8390   5.0152   5.0946   5.7455   5.8676
     6.7857   6.8416   6.8815   7.5178   7.8914   7.9758

     occupation numbers 
     1.0000   1.0000   1.0000   1.0000   1.0000   1.0000   1.0000   1.0000
     1.0000   1.0000   1.0000   1.0000   1.0000   1.0000   1.0000   1.0000
     1.0000   1.0000   1.0000   1.0000   1.0000   1.0000   1.0000   1.0000
     1.0000   1.0000   1.0000   1.0000   1.0000   1.0000   1.0000   0.9998
     0.0026   0.0007   0.0003   0.0000   0.0000   0.0000

          k =-0.1768 0.1768 0.1768 (  7564 PWs)   bands (ev):

    -5.6926  -4.1997  -3.5964  -3.4817  -3.3040  -2.6117  -2.5593  -2.3923
    -1.0313  -0.8367  -0.7115  -0.6071  -0.4914  -0.1843   0.1527   2.5292
     2.6019   2.7084   3.3370   3.3854   3.5274   3.7671   3.8451   3.9339
     4.4640   4.4962   4.6661   4.8468   4.9869   5.1626   5.7699   6.1239
     6.6708   6.8666   7.0315   7.5973   7.8481   7.9416

     occupation numbers 
     1.0000   1.0000   1.0000   1.0000   1.0000   1.0000   1.0000   1.0000
     1.0000   1.0000   1.0000   1.0000   1.0000   1.0000   1.0000   1.0000
     1.0000   1.0000   1.0000   1.0000   1.0000   1.0000   1.0000   1.0000
     1.0000   1.0000   1.0000   1.0000   1.0000   1.0000   1.0000   0.9633
     0.0228   0.0004   0.0000   0.0000   0.0000   0.0000

          k = 0.1768-0.1768 0.1768 (  7564 PWs)   bands (ev):

    -5.6930  -4.1999  -3.6145  -3.4618  -3.3011  -2.6544  -2.5459  -2.3553
    -0.9287  -0.8990  -0.7380  -0.5943  -0.5224  -0.2450   0.1774   2.5583
     2.6042   2.7407   3.3035   3.4557   3.4747   3.7578   3.8209   4.0127
     4.4200   4.5556   4.6476   4.8063   4.9155   5.2396   5.7503   6.0712
     6.7624   6.8867   7.0262   7.5529   7.8466   7.9191

     occupation numbers 
     1.0000   1.0000   1.0000   1.0000   1.0000   1.0000   1.0000   1.0000
     1.0000   1.0000   1.0000   1.0000   1.0000   1.0000   1.0000   1.0000
     1.0000   1.0000   1.0000   1.0000   1.0000   1.0000   1.0000   1.0000
     1.0000   1.0000   1.0000   1.0000   1.0000   1.0000   1.0000   0.9845
     0.0042   0.0002   0.0000   0.0000   0.0000   0.0000

          k = 0.3536 0.3536 0.3536 (  7570 PWs)   bands (ev):

    -5.2074  -5.0013  -3.4885  -3.2621  -3.1443  -3.0037  -2.8859  -2.8367
    -0.5859  -0.3977  -0.3822  -0.2607  -0.2004  -0.0825   1.9390   2.3357
     2.5037   2.5722   2.6353   2.7110   2.8381   3.0689   3.6932   3.7590
     3.8102   3.9493   4.0783   4.1568   5.2343   5.2633   5.3958   5.5462
     7.3139   7.3610   7.4075   7.4762   7.5182   7.6411

     occupation numbers 
     1.0000   1.0000   1.0000   1.0000   1.0000   1.0000   1.0000   1.0000
     1.0000   1.0000   1.0000   1.0000   1.0000   1.0000   1.0000   1.0000
     1.0000   1.0000   1.0000   1.0000   1.0000   1.0000   1.0000   1.0000
     1.0000   1.0000   1.0000   1.0000   1.0000   1.0000   1.0000   1.0000
     0.0000   0.0000   0.0000   0.0000   0.0000   0.0000

          k = 0.3536-0.3536-0.3536 (  7570 PWs)   bands (ev):

    -5.2171  -4.9625  -3.4825  -3.3410  -3.1316  -3.0187  -2.9363  -2.8379
    -0.6707  -0.4416  -0.3172  -0.1732  -0.0625   0.2942   1.9507   2.1352
     2.3785   2.3994   2.5369   2.6072   2.6873   2.7179   3.6905   3.8785
     3.9598   4.0004   4.1297   4.2631   5.1677   5.2997   5.4225   5.8698
     6.9600   7.2522   7.5730   7.6911   7.7531   7.8761

     occupation numbers 
     1.0000   1.0000   1.0000   1.0000   1.0000   1.0000   1.0000   1.0000
     1.0000   1.0000   1.0000   1.0000   1.0000   1.0000   1.0000   1.0000
     1.0000   1.0000   1.0000   1.0000   1.0000   1.0000   1.0000   1.0000
     1.0000   1.0000   1.0000   1.0000   1.0000   1.0000   1.0000   0.9998
     0.0000   0.0000   0.0000   0.0000   0.0000   0.0000

          k =-0.3536 0.3536-0.3536 (  7570 PWs)   bands (ev):

    -5.2188  -4.9628  -3.4536  -3.3822  -3.1515  -2.9853  -2.9186  -2.8468
    -0.5130  -0.4482  -0.3516  -0.2352  -0.1018   0.1677   1.9323   2.2046
     2.3475   2.4815   2.5099   2.6529   2.7185   2.8001   3.6228   3.9225
     3.9985   4.0091   4.1059   4.1462   5.1086   5.3917   5.4915   5.6973
     7.2057   7.4051   7.4993   7.5807   7.6533   7.7227

     occupation numbers 
     1.0000   1.0000   1.0000   1.0000   1.0000   1.0000   1.0000   1.0000
     1.0000   1.0000   1.0000   1.0000   1.0000   1.0000   1.0000   1.0000
     1.0000   1.0000   1.0000   1.0000   1.0000   1.0000   1.0000   1.0000
     1.0000   1.0000   1.0000   1.0000   1.0000   1.0000   1.0000   1.0000
     0.0000   0.0000   0.0000   0.0000   0.0000   0.0000

          k = 0.0000 0.3536 0.0000 (  7563 PWs)   bands (ev):

    -5.6261  -3.9780  -3.7282  -3.6391  -3.5503  -3.3025  -1.7587  -1.6353
    -1.6091  -1.4991  -0.3964  -0.3354  -0.2055  -0.0539   0.4720   2.5833
     2.6368   2.6984   2.7140   3.3228   3.5133   3.5624   3.7345   3.8022
     3.8441   4.7031   4.7430   4.8293   4.9335   5.0606   5.3145   5.6138
     6.6041   7.4112   7.7982   7.8804   7.9445   7.9819

     occupation numbers 
     1.0000   1.0000   1.0000   1.0000   1.0000   1.0000   1.0000   1.0000
     1.0000   1.0000   1.0000   1.0000   1.0000   1.0000   1.0000   1.0000
     1.0000   1.0000   1.0000   1.0000   1.0000   1.0000   1.0000   1.0000
     1.0000   1.0000   1.0000   1.0000   1.0000   1.0000   1.0000   1.0000
     0.0622   0.0000   0.0000   0.0000   0.0000   0.0000

          k = 0.0000 0.0000 0.3536 (  7563 PWs)   bands (ev):

    -5.6275  -3.9017  -3.8106  -3.6103  -3.5481  -3.3518  -1.7872  -1.6509
    -1.5866  -1.3799  -0.4132  -0.3516  -0.2293  -0.1131   0.5112   2.5322
     2.6316   2.6724   2.7502   3.4439   3.5192   3.5943   3.6345   3.7408
     3.8010   4.6472   4.7735   4.8888   5.0224   5.1529   5.3808   5.5361
     6.6077   7.3552   7.6833   7.8472   7.8987   8.0457

     occupation numbers 
     1.0000   1.0000   1.0000   1.0000   1.0000   1.0000   1.0000   1.0000
     1.0000   1.0000   1.0000   1.0000   1.0000   1.0000   1.0000   1.0000
     1.0000   1.0000   1.0000   1.0000   1.0000   1.0000   1.0000   1.0000
     1.0000   1.0000   1.0000   1.0000   1.0000   1.0000   1.0000   1.0000
     0.0592   0.0000   0.0000   0.0000   0.0000   0.0000

          k = 0.1768 0.5303 0.5303 (  7554 PWs)   bands (ev):

    -5.1872  -4.6572  -4.1190  -3.6463  -3.5039  -2.9589  -2.3702  -2.2697
    -0.9079  -0.7727  -0.5213   0.0892   0.3290   1.1373   1.5414   1.9921
     2.0902   2.2162   2.7613   2.8231   3.0256   3.1024   3.1944   3.5720
     3.7548   3.9006   4.2280   4.2608   4.3811   4.8004   4.9095   5.3637
     7.3318   7.7340   8.0735   8.2475   8.4012   8.6063

     occupation numbers 
     1.0000   1.0000   1.0000   1.0000   1.0000   1.0000   1.0000   1.0000
     1.0000   1.0000   1.0000   1.0000   1.0000   1.0000   1.0000   1.0000
     1.0000   1.0000   1.0000   1.0000   1.0000   1.0000   1.0000   1.0000
     1.0000   1.0000   1.0000   1.0000   1.0000   1.0000   1.0000   1.0000
     0.0000   0.0000   0.0000   0.0000   0.0000   0.0000

          k = 0.1768-0.5303-0.5303 (  7554 PWs)   bands (ev):

    -5.1861  -4.6321  -4.1327  -3.6547  -3.5191  -2.9797  -2.3948  -2.2726
    -0.8989  -0.8158  -0.3355   0.1101   0.3664   1.3246   1.4716   1.9014
     2.0277   2.1395   2.6221   2.7645   2.9144   3.0586   3.2390   3.4110
     3.8497   3.9143   4.2067   4.2953   4.4549   4.8346   5.1289   5.3758
     7.2820   7.6403   8.0940   8.3713   8.4890   8.6333

     occupation numbers 
     1.0000   1.0000   1.0000   1.0000   1.0000   1.0000   1.0000   1.0000
     1.0000   1.0000   1.0000   1.0000   1.0000   1.0000   1.0000   1.0000
     1.0000   1.0000   1.0000   1.0000   1.0000   1.0000   1.0000   1.0000
     1.0000   1.0000   1.0000   1.0000   1.0000   1.0000   1.0000   1.0000
     0.0000   0.0000   0.0000   0.0000   0.0000   0.0000

          k =-0.1768 0.5303-0.5303 (  7554 PWs)   bands (ev):

    -5.1869  -4.6428  -4.0557  -3.7752  -3.5167  -2.8883  -2.4276  -2.2630
    -0.8815  -0.7546  -0.5487   0.1621   0.5256   1.1517   1.4633   1.9053
     1.9789   2.1747   2.6349   2.8076   3.0466   3.1202   3.2447   3.4686
     3.8041   3.9293   4.1212   4.2341   4.3561   4.8089   5.0437   5.5148
     7.4258   7.7875   8.1729   8.1970   8.4294   8.6438

     occupation numbers 
     1.0000   1.0000   1.0000   1.0000   1.0000   1.0000   1.0000   1.0000
     1.0000   1.0000   1.0000   1.0000   1.0000   1.0000   1.0000   1.0000
     1.0000   1.0000   1.0000   1.0000   1.0000   1.0000   1.0000   1.0000
     1.0000   1.0000   1.0000   1.0000   1.0000   1.0000   1.0000   1.0000
     0.0000   0.0000   0.0000   0.0000   0.0000   0.0000

          k =-0.5303-0.1768-0.5303 (  7554 PWs)   bands (ev):

    -5.1855  -4.6635  -4.1243  -3.6034  -3.5271  -2.9698  -2.3481  -2.2850
    -0.9135  -0.8294  -0.4841   0.1858   0.2436   1.1445   1.5329   1.9753
     2.0931   2.3249   2.6789   2.8044   3.0624   3.1285   3.1840   3.5268
     3.8061   3.8585   4.1850   4.2901   4.4085   4.7965   4.9070   5.3309
     7.2809   7.7263   8.0699   8.2813   8.3616   8.6674

     occupation numbers 
     1.0000   1.0000   1.0000   1.0000   1.0000   1.0000   1.0000   1.0000
     1.0000   1.0000   1.0000   1.0000   1.0000   1.0000   1.0000   1.0000
     1.0000   1.0000   1.0000   1.0000   1.0000   1.0000   1.0000   1.0000
     1.0000   1.0000   1.0000   1.0000   1.0000   1.0000   1.0000   1.0000
     0.0000   0.0000   0.0000   0.0000   0.0000   0.0000

          k = 0.5303 0.1768-0.5303 (  7554 PWs)   bands (ev):

    -5.2005  -4.5927  -4.1138  -3.6985  -3.5862  -2.8711  -2.4095  -2.3079
    -0.8962  -0.7714  -0.5317   0.3234   0.4649   1.2395   1.3927   1.9267
     1.9842   2.0947   2.6897   2.8118   2.8854   3.1599   3.2722   3.3958
     3.7866   3.9153   4.1445   4.1927   4.3635   4.8805   4.9815   5.6030
     7.3868   7.8124   8.1458   8.3122   8.3988   8.7243

     occupation numbers 
     1.0000   1.0000   1.0000   1.0000   1.0000   1.0000   1.0000   1.0000
     1.0000   1.0000   1.0000   1.0000   1.0000   1.0000   1.0000   1.0000
     1.0000   1.0000   1.0000   1.0000   1.0000   1.0000   1.0000   1.0000
     1.0000   1.0000   1.0000   1.0000   1.0000   1.0000   1.0000   1.0000
     0.0000   0.0000   0.0000   0.0000   0.0000   0.0000

          k =-0.5303 0.1768 0.5303 (  7554 PWs)   bands (ev):

    -5.1853  -4.6452  -4.0725  -3.7027  -3.5863  -2.8487  -2.4277  -2.2905
    -0.9102  -0.7879  -0.5473   0.2869   0.5103   1.1946   1.4267   1.8870
     1.9858   2.1330   2.6764   2.7772   2.9703   3.1823   3.2575   3.4741
     3.7751   3.9329   4.1229   4.1851   4.4282   4.7926   4.9227   5.6288
     7.3205   7.8476   8.1478   8.2377   8.3548   8.6988

     occupation numbers 
     1.0000   1.0000   1.0000   1.0000   1.0000   1.0000   1.0000   1.0000
     1.0000   1.0000   1.0000   1.0000   1.0000   1.0000   1.0000   1.0000
     1.0000   1.0000   1.0000   1.0000   1.0000   1.0000   1.0000   1.0000
     1.0000   1.0000   1.0000   1.0000   1.0000   1.0000   1.0000   1.0000
     0.0000   0.0000   0.0000   0.0000   0.0000   0.0000

          k = 0.5303-0.1768 0.5303 (  7554 PWs)   bands (ev):

    -5.1866  -4.6301  -4.1543  -3.6178  -3.5282  -2.9724  -2.3790  -2.2996
    -0.9025  -0.8287  -0.3200   0.2025   0.2441   1.2632   1.4778   1.9616
     2.0136   2.1492   2.7205   2.7575   2.8900   3.1185   3.1849   3.4563
     3.8321   3.9608   4.2057   4.2969   4.3961   4.7410   5.1748   5.3107
     7.2854   7.7460   8.0413   8.3607   8.4428   8.6985

     occupation numbers 
     1.0000   1.0000   1.0000   1.0000   1.0000   1.0000   1.0000   1.0000
     1.0000   1.0000   1.0000   1.0000   1.0000   1.0000   1.0000   1.0000
     1.0000   1.0000   1.0000   1.0000   1.0000   1.0000   1.0000   1.0000
     1.0000   1.0000   1.0000   1.0000   1.0000   1.0000   1.0000   1.0000
     0.0000   0.0000   0.0000   0.0000   0.0000   0.0000

          k = 0.5303 0.5303-0.1768 (  7554 PWs)   bands (ev):

    -5.2055  -4.5788  -4.1226  -3.6866  -3.5682  -2.9660  -2.3960  -2.2607
    -0.9146  -0.7590  -0.3496   0.1403   0.3738   1.2943   1.4696   1.9175
     2.0027   2.0965   2.6400   2.7529   2.8890   3.1190   3.1903   3.4113
     3.8475   3.8736   4.2260   4.3092   4.4149   4.8722   5.1583   5.4086
     7.2980   7.7695   8.0265   8.3440   8.4573   8.7094

     occupation numbers 
     1.0000   1.0000   1.0000   1.0000   1.0000   1.0000   1.0000   1.0000
     1.0000   1.0000   1.0000   1.0000   1.0000   1.0000   1.0000   1.0000
     1.0000   1.0000   1.0000   1.0000   1.0000   1.0000   1.0000   1.0000
     1.0000   1.0000   1.0000   1.0000   1.0000   1.0000   1.0000   1.0000
     0.0000   0.0000   0.0000   0.0000   0.0000   0.0000

          k =-0.5303 0.5303 0.1768 (  7554 PWs)   bands (ev):

    -5.1930  -4.6197  -4.0976  -3.7244  -3.5244  -2.9436  -2.4252  -2.2299
    -0.9165  -0.7642  -0.4692   0.2069   0.4167   1.2453   1.4406   1.8896
     2.0149   2.1680   2.6614   2.7188   2.9787   3.1150   3.2487   3.3887
     3.8116   3.9119   4.1285   4.3594   4.4209   4.8725   4.9751   5.5757
     7.2618   7.6579   8.1236   8.3836   8.4465   8.6666

     occupation numbers 
     1.0000   1.0000   1.0000   1.0000   1.0000   1.0000   1.0000   1.0000
     1.0000   1.0000   1.0000   1.0000   1.0000   1.0000   1.0000   1.0000
     1.0000   1.0000   1.0000   1.0000   1.0000   1.0000   1.0000   1.0000
     1.0000   1.0000   1.0000   1.0000   1.0000   1.0000   1.0000   1.0000
     0.0000   0.0000   0.0000   0.0000   0.0000   0.0000

          k = 0.5303-0.5303 0.1768 (  7554 PWs)   bands (ev):

    -5.1941  -4.6177  -4.1037  -3.7245  -3.5163  -2.9434  -2.4445  -2.2051
    -0.9016  -0.7185  -0.5438   0.2013   0.4073   1.1943   1.4442   1.9355
     2.0372   2.1612   2.6102   2.7924   2.9686   3.1238   3.2353   3.4745
     3.7759   3.9338   4.1489   4.3216   4.3694   4.8351   5.0315   5.5456
     7.2910   7.7818   8.0770   8.2720   8.4315   8.6907

     occupation numbers 
     1.0000   1.0000   1.0000   1.0000   1.0000   1.0000   1.0000   1.0000
     1.0000   1.0000   1.0000   1.0000   1.0000   1.0000   1.0000   1.0000
     1.0000   1.0000   1.0000   1.0000   1.0000   1.0000   1.0000   1.0000
     1.0000   1.0000   1.0000   1.0000   1.0000   1.0000   1.0000   1.0000
     0.0000   0.0000   0.0000   0.0000   0.0000   0.0000

          k =-0.5303-0.5303-0.1768 (  7554 PWs)   bands (ev):

    -5.1916  -4.6595  -4.0577  -3.6836  -3.5630  -2.9289  -2.3466  -2.2720
    -0.8790  -0.8099  -0.5312   0.1247   0.3278   1.0657   1.5755   1.9550
     2.0965   2.2638   2.6626   2.8483   3.0316   3.1812   3.2268   3.5663
     3.7478   3.8610   4.2180   4.2767   4.3655   4.8200   4.8851   5.4161
     7.3008   7.7535   8.1100   8.1811   8.3871   8.6232

     occupation numbers 
     1.0000   1.0000   1.0000   1.0000   1.0000   1.0000   1.0000   1.0000
     1.0000   1.0000   1.0000   1.0000   1.0000   1.0000   1.0000   1.0000
     1.0000   1.0000   1.0000   1.0000   1.0000   1.0000   1.0000   1.0000
     1.0000   1.0000   1.0000   1.0000   1.0000   1.0000   1.0000   1.0000
     0.0000   0.0000   0.0000   0.0000   0.0000   0.0000

          k = 0.0000 0.3536 0.3536 (  7592 PWs)   bands (ev):

    -5.3716  -4.4301  -4.2469  -3.3602  -3.1885  -2.9698  -2.8273  -2.1253
    -1.0598  -0.7691  -0.6815  -0.0080   0.2647   0.7874   0.9935   1.7980
     2.4904   2.5947   2.8169   2.8971   3.2532   3.4508   3.5584   3.6948
     3.9489   4.0020   4.2395   4.3510   4.5555   4.6088   4.7214   5.7943
     7.0975   7.7000   7.9820   8.1202   8.2940   8.5668

     occupation numbers 
     1.0000   1.0000   1.0000   1.0000   1.0000   1.0000   1.0000   1.0000
     1.0000   1.0000   1.0000   1.0000   1.0000   1.0000   1.0000   1.0000
     1.0000   1.0000   1.0000   1.0000   1.0000   1.0000   1.0000   1.0000
     1.0000   1.0000   1.0000   1.0000   1.0000   1.0000   1.0000   1.0000
     0.0000   0.0000   0.0000   0.0000   0.0000   0.0000

          k =-0.3536 0.0000-0.3536 (  7592 PWs)   bands (ev):

    -5.3721  -4.3931  -4.3022  -3.2797  -3.2226  -2.9568  -2.8703  -2.1250
    -1.0079  -0.7827  -0.7228   0.0757   0.1641   0.7918   0.9682   1.7831
     2.5999   2.6626   2.7620   2.8146   3.3322   3.4154   3.5705   3.6673
     3.9488   4.0280   4.3084   4.4412   4.4897   4.5722   4.6398   5.7624
     7.1014   7.8246   7.9731   8.1735   8.2038   8.5051

     occupation numbers 
     1.0000   1.0000   1.0000   1.0000   1.0000   1.0000   1.0000   1.0000
     1.0000   1.0000   1.0000   1.0000   1.0000   1.0000   1.0000   1.0000
     1.0000   1.0000   1.0000   1.0000   1.0000   1.0000   1.0000   1.0000
     1.0000   1.0000   1.0000   1.0000   1.0000   1.0000   1.0000   1.0000
     0.0000   0.0000   0.0000   0.0000   0.0000   0.0000

          k = 0.3536 0.0000-0.3536 (  7592 PWs)   bands (ev):

    -5.3750  -4.3386  -4.2912  -3.3859  -3.2557  -2.9936  -2.8721  -2.0070
    -1.1917  -0.7512  -0.5987   0.2281   0.3872   0.8000   0.8475   1.7213
     2.4803   2.5507   2.7315   2.8027   3.2215   3.3066   3.4082   3.6957
     3.9430   4.1316   4.2661   4.3516   4.4951   4.6580   4.7712   6.0785
     7.1971   7.8294   8.0065   8.2185   8.3169   8.4355

     occupation numbers 
     1.0000   1.0000   1.0000   1.0000   1.0000   1.0000   1.0000   1.0000
     1.0000   1.0000   1.0000   1.0000   1.0000   1.0000   1.0000   1.0000
     1.0000   1.0000   1.0000   1.0000   1.0000   1.0000   1.0000   1.0000
     1.0000   1.0000   1.0000   1.0000   1.0000   1.0000   1.0000   0.9824
     0.0000   0.0000   0.0000   0.0000   0.0000   0.0000

          k = 0.3536 0.3536 0.0000 (  7592 PWs)   bands (ev):

    -5.3761  -4.4426  -4.1866  -3.4186  -3.2627  -2.8922  -2.8278  -2.1129
    -1.1240  -0.7456  -0.6352   0.0288   0.2918   0.7464   0.9894   1.7875
     2.4988   2.6338   2.8014   2.8714   3.2497   3.3975   3.5207   3.6417
     3.9992   4.0318   4.2540   4.3265   4.4321   4.6969   4.7464   5.8599
     7.1139   7.8052   7.9329   8.1594   8.3424   8.4829

     occupation numbers 
     1.0000   1.0000   1.0000   1.0000   1.0000   1.0000   1.0000   1.0000
     1.0000   1.0000   1.0000   1.0000   1.0000   1.0000   1.0000   1.0000
     1.0000   1.0000   1.0000   1.0000   1.0000   1.0000   1.0000   1.0000
     1.0000   1.0000   1.0000   1.0000   1.0000   1.0000   1.0000   0.9999
     0.0000   0.0000   0.0000   0.0000   0.0000   0.0000

          k =-0.3536 0.3536 0.0000 (  7592 PWs)   bands (ev):

    -5.3688  -4.4383  -4.2037  -3.4349  -3.1858  -3.0087  -2.8198  -2.0579
    -1.1835  -0.7902  -0.5146   0.1250   0.3153   0.7961   0.9042   1.7369
     2.4530   2.6595   2.7050   2.8480   3.1433   3.3680   3.4697   3.7696
     3.9371   4.0759   4.2272   4.3284   4.4691   4.6513   4.8635   6.0087
     7.1074   7.7516   7.9728   8.1985   8.2968   8.5560

     occupation numbers 
     1.0000   1.0000   1.0000   1.0000   1.0000   1.0000   1.0000   1.0000
     1.0000   1.0000   1.0000   1.0000   1.0000   1.0000   1.0000   1.0000
     1.0000   1.0000   1.0000   1.0000   1.0000   1.0000   1.0000   1.0000
     1.0000   1.0000   1.0000   1.0000   1.0000   1.0000   1.0000   0.9952
     0.0000   0.0000   0.0000   0.0000   0.0000   0.0000

          k = 0.0000-0.7071 0.0000 (  7528 PWs)   bands (ev):

    -4.9250  -4.7758  -3.9570  -3.7921  -3.7419  -3.6467  -1.6527  -1.5468
    -1.4985  -1.4065   0.5239   0.5950   0.6498   0.8149   1.9791   2.0642
     2.1772   2.2426   2.3593   2.3848   2.4902   2.5363   2.7114   2.7720
     4.1125   4.1644   4.1963   4.3156   4.7494   4.8222   4.9668   5.1143
     7.1115   7.1333   8.3330   8.3554   8.4537   8.5449

     occupation numbers 
     1.0000   1.0000   1.0000   1.0000   1.0000   1.0000   1.0000   1.0000
     1.0000   1.0000   1.0000   1.0000   1.0000   1.0000   1.0000   1.0000
     1.0000   1.0000   1.0000   1.0000   1.0000   1.0000   1.0000   1.0000
     1.0000   1.0000   1.0000   1.0000   1.0000   1.0000   1.0000   1.0000
     0.0000   0.0000   0.0000   0.0000   0.0000   0.0000

          k = 0.0000 0.0000-0.7071 (  7528 PWs)   bands (ev):

    -4.9894  -4.6720  -3.9505  -3.8529  -3.7362  -3.6624  -1.6955  -1.5421
    -1.4958  -1.2778   0.4436   0.5661   0.6988   0.7586   2.0460   2.1343
     2.1546   2.2270   2.3375   2.3510   2.4517   2.5273   2.6398   2.7693
     4.0198   4.1636   4.3840   4.4319   4.7538   4.8969   4.9808   5.0798
     7.0302   7.1872   8.2561   8.3516   8.4238   8.5304

     occupation numbers 
     1.0000   1.0000   1.0000   1.0000   1.0000   1.0000   1.0000   1.0000
     1.0000   1.0000   1.0000   1.0000   1.0000   1.0000   1.0000   1.0000
     1.0000   1.0000   1.0000   1.0000   1.0000   1.0000   1.0000   1.0000
     1.0000   1.0000   1.0000   1.0000   1.0000   1.0000   1.0000   1.0000
     0.0000   0.0000   0.0000   0.0000   0.0000   0.0000

          k = 0.3536-0.7071 0.0000 (  7564 PWs)   bands (ev):

    -4.8734  -4.5523  -4.4235  -4.3442  -2.9143  -2.7828  -2.6864  -2.4596
    -0.6226  -0.5752  -0.3772  -0.1863   1.5278   1.6193   1.7539   1.8197
     1.8683   1.9688   2.0690   2.1563   3.1747   3.3003   3.3765   3.4190
     3.4938   3.6305   3.7076   3.7437   4.5163   4.7396   4.7748   5.0616
     8.2201   8.3463   8.4502   8.5578   8.6715   8.8505

     occupation numbers 
     1.0000   1.0000   1.0000   1.0000   1.0000   1.0000   1.0000   1.0000
     1.0000   1.0000   1.0000   1.0000   1.0000   1.0000   1.0000   1.0000
     1.0000   1.0000   1.0000   1.0000   1.0000   1.0000   1.0000   1.0000
     1.0000   1.0000   1.0000   1.0000   1.0000   1.0000   1.0000   1.0000
     0.0000   0.0000   0.0000   0.0000   0.0000   0.0000

          k = 0.7071 0.0000 0.3536 (  7564 PWs)   bands (ev):

    -4.8569  -4.5497  -4.4874  -4.3075  -2.8769  -2.7423  -2.6526  -2.5756
    -0.6009  -0.5346  -0.4183  -0.2064   1.5510   1.6345   1.7234   1.8257
     1.9170   1.9634   2.0697   2.1385   3.1433   3.2451   3.3667   3.4180
     3.5339   3.6388   3.7029   3.7909   4.6038   4.6496   4.7506   5.0305
     8.2414   8.3415   8.4998   8.5747   8.7483   8.7857

     occupation numbers 
     1.0000   1.0000   1.0000   1.0000   1.0000   1.0000   1.0000   1.0000
     1.0000   1.0000   1.0000   1.0000   1.0000   1.0000   1.0000   1.0000
     1.0000   1.0000   1.0000   1.0000   1.0000   1.0000   1.0000   1.0000
     1.0000   1.0000   1.0000   1.0000   1.0000   1.0000   1.0000   1.0000
     0.0000   0.0000   0.0000   0.0000   0.0000   0.0000

     the Fermi energy is     6.3823 ev

!    total energy              =    -152.85675775 Ry
     Harris-Foulkes estimate   =    -152.85675775 Ry
     estimated scf accuracy    <          7.8E-11 Ry

     The total energy is the sum of the following terms:

     one-electron contribution =      40.78156019 Ry
     hartree contribution      =       8.78024133 Ry
     xc contribution           =     -68.16913097 Ry
     ewald contribution        =    -134.24871219 Ry
     smearing contrib. (-TS)   =      -0.00071611 Ry

     convergence has been achieved in  14 iterations

     Forces acting on atoms (Ry/au):

     atom    1 type  1   force =  -0.74741454E-02  0.40277319E-01  0.34970291E-02
     atom    2 type  1   force =   0.14455236E-01 -0.16093897E-01 -0.32899753E-01
     atom    3 type  1   force =   0.23090851E-01  0.13026151E-01 -0.35435146E-02
     atom    4 type  1   force =  -0.28513539E-01 -0.17914537E-02  0.24394930E-02
     atom    5 type  1   force =   0.37587873E-01  0.69658093E-01 -0.79731296E-02
     atom    6 type  1   force =  -0.16558460E-01 -0.14868534E-01 -0.19361844E-02
     atom    7 type  1   force =   0.22811366E-01  0.38707587E-01  0.19523466E-01
     atom    8 type  1   force =  -0.65230124E-01 -0.91403435E-01  0.22607277E-01
     atom    9 type  1   force =   0.17396581E-01 -0.94816213E-02  0.48375190E-01
     atom   10 type  1   force =   0.24090168E-01 -0.20702785E-01  0.81739668E-02
     atom   11 type  1   force =   0.27391292E-01 -0.74147623E-01  0.25578125E-01
     atom   12 type  1   force =   0.11649641E-02  0.93068524E-02  0.59170871E-02
     atom   13 type  1   force =  -0.21509421E-01 -0.69558885E-03 -0.10789618E+00
     atom   14 type  1   force =   0.50072483E-01  0.75799116E-01 -0.51843069E-03
     atom   15 type  1   force =   0.56122595E-02  0.67068657E-02  0.26463680E-01
     atom   16 type  1   force =  -0.84387387E-01 -0.24297046E-01 -0.78081197E-02
     The non-local contrib.  to forces
     atom    1 type  1   force =   0.18513344E-02  0.36351785E-01  0.67937129E-02
     atom    2 type  1   force =   0.18864502E-01 -0.13993481E-01 -0.15031966E-01
     atom    3 type  1   force =   0.11081491E-02  0.26734704E-03 -0.67484419E-02
     atom    4 type  1   force =  -0.33927670E-01  0.13043668E-01  0.16769599E-01
     atom    5 type  1   force =   0.52412789E-01  0.64337430E-01 -0.35121564E-01
     atom    6 type  1   force =  -0.33096963E-01 -0.43232974E-02 -0.37877805E-02
     atom    7 type  1   force =   0.26044383E-01  0.29285202E-01  0.28795576E-01
     atom    8 type  1   force =  -0.61360728E-01 -0.82392071E-01  0.29670162E-01
     atom    9 type  1   force =   0.24819715E-01 -0.35642413E-03  0.43283157E-01
     atom   10 type  1   force =   0.42880507E-01 -0.39951108E-01 -0.34513713E-02
     atom   11 type  1   force =   0.24791750E-01 -0.86145958E-01  0.24029969E-01
     atom   12 type  1   force =   0.10778574E-01  0.14014282E-01  0.14946350E-01
     atom   13 type  1   force =  -0.26265954E-01  0.41329845E-02 -0.13064988E+00
     atom   14 type  1   force =   0.57134183E-01  0.98526069E-01 -0.58201989E-03
     atom   15 type  1   force =  -0.10763766E-01 -0.56571525E-02  0.48998668E-01
     atom   16 type  1   force =  -0.92162593E-01 -0.25172504E-01 -0.21665496E-01
     The ionic contribution  to forces
     atom    1 type  1   force =   0.67330198E-01 -0.57431549E-01 -0.29611175E-01
     atom    2 type  1   force =   0.79659488E-01 -0.38432015E-01 -0.27135532E-01
     atom    3 type  1   force =  -0.12500315E+00 -0.65448164E-01  0.13979516E+00
     atom    4 type  1   force =  -0.17110135E+00 -0.13279063E+00  0.19119892E+00
     atom    5 type  1   force =   0.25619598E+00  0.32147293E+00 -0.19054828E+00
     atom    6 type  1   force =  -0.64379585E-02  0.31519304E-02 -0.12378051E+00
     atom    7 type  1   force =  -0.50542935E-01  0.96293090E-01  0.25989446E+00
     atom    8 type  1   force =  -0.20836901E+00 -0.10352984E+00  0.18429103E+00
     atom    9 type  1   force =   0.24101274E+00  0.67330436E-01  0.19255645E+00
     atom   10 type  1   force =   0.28690719E+00 -0.86707374E-01 -0.17093568E+00
     atom   11 type  1   force =   0.10211667E+00 -0.31261346E+00  0.10849924E+00
     atom   12 type  1   force =   0.37088725E-01  0.27908700E-01  0.30070723E+00
     atom   13 type  1   force =  -0.10445899E+00  0.36784154E-01 -0.70918338E+00
     atom   14 type  1   force =   0.25318521E+00  0.36167639E+00 -0.20273127E+00
     atom   15 type  1   force =  -0.17446985E+00 -0.12319515E-01  0.19962155E+00
     atom   16 type  1   force =  -0.48311297E+00 -0.10534509E+00 -0.12263823E+00
     The local contribution  to forces
     atom    1 type  1   force =  -0.76273808E-01  0.63724789E-01  0.27024084E-01
     atom    2 type  1   force =  -0.82869913E-01  0.34606819E-01  0.82405614E-02
     atom    3 type  1   force =   0.14624890E+00  0.78104120E-01 -0.13675147E+00
     atom    4 type  1   force =   0.17310957E+00  0.11884226E+00 -0.20354905E+00
     atom    5 type  1   force =  -0.26560706E+00 -0.31036838E+00  0.21375364E+00
     atom    6 type  1   force =   0.20136208E-01 -0.14601581E-01  0.12533029E+00
     atom    7 type  1   force =   0.50048469E-01 -0.83967851E-01 -0.26577705E+00
     atom    8 type  1   force =   0.19927552E+00  0.87846376E-01 -0.18854170E+00
     atom    9 type  1   force =  -0.24620841E+00 -0.76261886E-01 -0.18338528E+00
     atom   10 type  1   force =  -0.30104953E+00  0.10247027E+00  0.18142317E+00
     atom   11 type  1   force =  -0.96849170E-01  0.31742617E+00 -0.10512757E+00
     atom   12 type  1   force =  -0.45759739E-01 -0.30783593E-01 -0.30781193E+00
     atom   13 type  1   force =   0.10661200E+00 -0.41431565E-01  0.71916901E+00
     atom   14 type  1   force =  -0.25512660E+00 -0.37588313E+00  0.20221282E+00
     atom   15 type  1   force =   0.18931237E+00  0.24161802E-01 -0.21713578E+00
     atom   16 type  1   force =   0.48206078E+00  0.10424639E+00  0.13418722E+00
     The core correction contribution to forces
     atom    1 type  1   force =  -0.38218716E-03 -0.23680805E-02 -0.70928651E-03
     atom    2 type  1   force =  -0.11972031E-02  0.17248243E-02  0.10256560E-02
     atom    3 type  1   force =   0.73740647E-03  0.10237868E-03  0.16357767E-03
     atom    4 type  1   force =   0.34052024E-02 -0.88766366E-03 -0.19782170E-02
     atom    5 type  1   force =  -0.54137980E-02 -0.57808782E-02  0.39426056E-02
     atom    6 type  1   force =   0.28414354E-02  0.90574242E-03  0.30050931E-03
     atom    7 type  1   force =  -0.27414233E-02 -0.29027732E-02 -0.33897976E-02
     atom    8 type  1   force =   0.52231065E-02  0.66709247E-02 -0.28116664E-02
     atom    9 type  1   force =  -0.22241653E-02 -0.19413285E-03 -0.40781295E-02
     atom   10 type  1   force =  -0.46462977E-02  0.34859495E-02  0.11372940E-02
     atom   11 type  1   force =  -0.26674728E-02  0.71817101E-02 -0.18237490E-02
     atom   12 type  1   force =  -0.94339773E-03 -0.18337267E-02 -0.19226163E-02
     atom   13 type  1   force =   0.26026339E-02 -0.18186870E-03  0.12764235E-01
     atom   14 type  1   force =  -0.51199798E-02 -0.85184498E-02  0.58024198E-03
     atom   15 type  1   force =   0.15335268E-02  0.52272842E-03 -0.50211595E-02
     atom   16 type  1   force =   0.88255675E-02  0.19735663E-02  0.23085434E-02
     The Hubbard contrib.    to forces
     atom    1 type  1   force =   0.00000000E+00  0.00000000E+00  0.00000000E+00
     atom    2 type  1   force =   0.00000000E+00  0.00000000E+00  0.00000000E+00
     atom    3 type  1   force =   0.00000000E+00  0.00000000E+00  0.00000000E+00
     atom    4 type  1   force =   0.00000000E+00  0.00000000E+00  0.00000000E+00
     atom    5 type  1   force =   0.00000000E+00  0.00000000E+00  0.00000000E+00
     atom    6 type  1   force =   0.00000000E+00  0.00000000E+00  0.00000000E+00
     atom    7 type  1   force =   0.00000000E+00  0.00000000E+00  0.00000000E+00
     atom    8 type  1   force =   0.00000000E+00  0.00000000E+00  0.00000000E+00
     atom    9 type  1   force =   0.00000000E+00  0.00000000E+00  0.00000000E+00
     atom   10 type  1   force =   0.00000000E+00  0.00000000E+00  0.00000000E+00
     atom   11 type  1   force =   0.00000000E+00  0.00000000E+00  0.00000000E+00
     atom   12 type  1   force =   0.00000000E+00  0.00000000E+00  0.00000000E+00
     atom   13 type  1   force =   0.00000000E+00  0.00000000E+00  0.00000000E+00
     atom   14 type  1   force =   0.00000000E+00  0.00000000E+00  0.00000000E+00
     atom   15 type  1   force =   0.00000000E+00  0.00000000E+00  0.00000000E+00
     atom   16 type  1   force =   0.00000000E+00  0.00000000E+00  0.00000000E+00
     The SCF correction term to forces
     atom    1 type  1   force =   0.40927988E-06  0.29172224E-06 -0.46707446E-06
     atom    2 type  1   force =  -0.15448752E-05 -0.12725109E-06  0.13669069E-05
     atom    3 type  1   force =  -0.36896909E-06  0.38749603E-06 -0.25077925E-05
     atom    4 type  1   force =   0.79955481E-06  0.83937231E-06 -0.19191968E-05
     atom    5 type  1   force =   0.48630484E-07 -0.30902363E-05  0.30321962E-06
     atom    6 type  1   force =  -0.10904073E-05 -0.14111822E-05  0.11489207E-05
     atom    7 type  1   force =   0.29636401E-05 -0.16301135E-06  0.11488663E-06
     atom    8 type  1   force =   0.10742793E-05  0.10902498E-05 -0.70270602E-06
     atom    9 type  1   force =  -0.32063565E-05  0.30400590E-06 -0.11688635E-05
     atom   10 type  1   force =  -0.16107531E-05 -0.60465578E-06  0.39496957E-06
     atom   11 type  1   force =  -0.39028030E-06  0.38363508E-05  0.68503760E-07
     atom   12 type  1   force =   0.89286933E-06  0.11083745E-05 -0.21025872E-05
     atom   13 type  1   force =   0.98564751E-06  0.62373303E-06  0.36715491E-05
     atom   14 type  1   force =  -0.23765302E-06 -0.18519968E-05  0.16356742E-05
     atom   15 type  1   force =   0.71161538E-07 -0.10795860E-05  0.23585076E-06
     atom   16 type  1   force =   0.19164585E-05  0.50392675E-06 -0.31481216E-06

     Total force =     0.258587     Total SCF correction =     0.000010


     entering subroutine stress ...

          total   stress  (Ry/bohr**3)                   (kbar)     P=    2.98
   0.0000369859  -0.0000212770  -0.0000537275          5.44     -3.13     -7.90
  -0.0000212770  -0.0000381028  -0.0000555207         -3.13     -5.61     -8.17
  -0.0000537275  -0.0000555207   0.0000618733         -7.90     -8.17      9.10

     kinetic stress (kbar)   2188.28      4.04     10.13
                                4.04   2186.87      5.38
                               10.13      5.38   2186.98

     local   stress (kbar)   -297.76     48.09     96.22
                               48.09   -259.68     63.00
                               96.22     63.00   -306.91

     nonloc. stress (kbar)   1942.12     -5.51     -9.78
                               -5.51   1937.32     -7.79
                               -9.78     -7.79   1945.93

     hartree stress (kbar)    201.37     -6.44    -10.67
                               -6.44    196.76     -5.28
                              -10.67     -5.28    199.10

     exc-cor stress (kbar)    994.86     -0.06     -0.14
                               -0.06    994.82     -0.10
                               -0.14     -0.10    994.88

     corecor stress (kbar)  -1988.18      0.66      1.18
                                0.66  -1987.60      0.93
                                1.18      0.93  -1988.63

     ewald   stress (kbar)  -3035.25    -43.91    -94.84
                              -43.91  -3074.10    -64.31
                              -94.84    -64.31  -3022.26

     hubbard stress (kbar)      0.00      0.00      0.00
                                0.00      0.00      0.00
                                0.00      0.00      0.00

     london  stress (kbar)      0.00      0.00      0.00
                                0.00      0.00      0.00
                                0.00      0.00      0.00

     XDM     stress (kbar)      0.00      0.00      0.00
                                0.00      0.00      0.00
                                0.00      0.00      0.00

     dft-nl  stress (kbar)      0.00      0.00      0.00
                                0.00      0.00      0.00
                                0.00      0.00      0.00



     Writing output data file Si_diamond.scf.in.super.222.replace6098.save

     init_run     :      8.03s CPU      7.77s WALL (       1 calls)
     electrons    :    280.90s CPU    268.04s WALL (       1 calls)
     forces       :      3.55s CPU      2.89s WALL (       1 calls)
     stress       :      4.74s CPU      4.70s WALL (       1 calls)

     Called by init_run:
     wfcinit      :      7.59s CPU      7.30s WALL (       1 calls)
     potinit      :      0.07s CPU      0.08s WALL (       1 calls)

     Called by electrons:
     c_bands      :    242.18s CPU    230.97s WALL (      15 calls)
     sum_band     :     35.21s CPU     33.45s WALL (      15 calls)
     v_of_rho     :      0.58s CPU      0.62s WALL (      15 calls)
     v_h          :      0.03s CPU      0.03s WALL (      15 calls)
     v_xc         :      0.60s CPU      0.66s WALL (      17 calls)
     newd         :      2.66s CPU      2.68s WALL (      15 calls)
     mix_rho      :      0.41s CPU      0.45s WALL (      15 calls)

     Called by c_bands:
     init_us_2    :      3.10s CPU      3.21s WALL (    1188 calls)
     cegterg      :    232.20s CPU    220.63s WALL (     540 calls)

     Called by sum_band:
     sum_band:bec :      0.45s CPU      0.47s WALL (     540 calls)
     addusdens    :      3.23s CPU      3.25s WALL (      15 calls)

     Called by *egterg:
     h_psi        :    146.73s CPU    145.21s WALL (    2093 calls)
     s_psi        :     21.44s CPU     15.06s WALL (    2093 calls)
     g_psi        :      0.21s CPU      0.27s WALL (    1517 calls)
     cdiaghg      :     23.83s CPU     24.06s WALL (    2021 calls)
     cegterg:over :     20.35s CPU     18.84s WALL (    1517 calls)
     cegterg:upda :      8.03s CPU      5.77s WALL (    1517 calls)
     cegterg:last :      4.68s CPU      3.38s WALL (     573 calls)

     Called by h_psi:
     h_psi:vloc   :     90.59s CPU    102.05s WALL (    2093 calls)
     h_psi:vnl    :     55.99s CPU     42.98s WALL (    2093 calls)
     add_vuspsi   :     24.65s CPU     17.27s WALL (    2093 calls)

     General routines
     calbec       :     43.74s CPU     35.71s WALL (    2705 calls)
     fft          :      0.70s CPU      0.71s WALL (     265 calls)
     ffts         :      0.30s CPU      0.31s WALL (     263 calls)
     fftw         :    103.76s CPU    114.83s WALL (  129896 calls)
     interpolate  :      0.13s CPU      0.13s WALL (      30 calls)

     Parallel routines
     fft_scatter  :     55.76s CPU     62.12s WALL (  130424 calls)

     PWSCF        :  4m58.42s CPU     4m44.93s WALL


   This run was terminated on:  11: 0:45  14Mar2018            

=------------------------------------------------------------------------------=
   JOB DONE.
=------------------------------------------------------------------------------=
