
     Program PWSCF v.5.1 starts on 15Mar2018 at 14:43:12 

     This program is part of the open-source Quantum ESPRESSO suite
     for quantum simulation of materials; please cite
         "P. Giannozzi et al., J. Phys.:Condens. Matter 21 395502 (2009);
          URL http://www.quantum-espresso.org", 
     in publications or presentations arising from this work. More details at
     http://www.quantum-espresso.org/quote

     Parallel version (MPI), running on    16 processors
     R & G space division:  proc/nbgrp/npool/nimage =      16
     Waiting for input...
     Reading input from standard input
Warning: card &IONS ignored
Warning: card   ION_DYNAMICS='BFGS', ignored
Warning: card / ignored
Warning: card &CELL ignored
Warning: card  CELL_DYNAMICS = 'BFGS' ignored
Warning: card / ignored

     Current dimensions of program PWSCF are:
     Max number of different atomic species (ntypx) = 10
     Max number of k-points (npk) =  40000
     Max angular momentum in pseudopotentials (lmaxx) =  3
 kfg - two_fermi_energies  F

     Subspace diagonalization in iterative solution of the eigenvalue problem:
     a serial algorithm will be used


     Parallelization info
     --------------------
     sticks:   dense  smooth     PW     G-vecs:    dense   smooth      PW
     Min         181     128     35                 6459     3770     554
     Max         182     129     38                 6463     3791     555
     Sum        2905    2053    571               103379    60495    8873



     bravais-lattice index     =            0
     lattice parameter (alat)  =    14.515605984  a.u.
     unit-cell volume          =    2162.6713 (a.u.)^3
     number of atoms/cell      =           16
     number of atomic types    =            1
     number of electrons       =        64.00
     number of Kohn-Sham states=           38
     kinetic-energy cutoff     =      35.0000  Ry
     charge density cutoff     =     200.0000  Ry
     convergence threshold     =      1.0E-09
     mixing beta               =       0.3000
     number of iterations used =            8  local-TF  mixing
     Exchange-correlation      = SLA  PW   PSX  PSC ( 1  4 10  8 0)
     A smooth kinetic-energy cutoff is imposed at      34.5000 Ry
     height of the smooth step-function =             800.0000 Ry
     width of the smooth step-function  =               1.0000 Ry


     celldm(1)=  14.515606  celldm(2)=   0.000000  celldm(3)=   0.000000
     celldm(4)=   0.000000  celldm(5)=   0.000000  celldm(6)=   0.000000

     crystal axes: (cart. coord. in units of alat)
               a(1) = (  -0.000000000000   0.707106781187   0.707106781187 )  
               a(2) = (   0.707106781187  -0.000000000000   0.707106781187 )  
               a(3) = (   0.707106781187   0.707106781187   0.000000000000 )  

     reciprocal axes: (cart. coord. in units 2 pi/alat)
               b(1) = ( -0.707107  0.707107  0.707107 )  
               b(2) = (  0.707107 -0.707107  0.707107 )  
               b(3) = (  0.707107  0.707107 -0.707107 )  


     PseudoPot. # 1 for Si read from file:
     /users/kfg/psuedo/gbrv_1.5/si.pbesol.UPF
     MD5 check sum: ef58ba74faed4df802eb8a9742fc00a8
     Pseudo is Ultrasoft + core correction, Zval =  4.0
     Generated by new atomic code, or converted to UPF format
     Using radial grid of  899 points,  6 beta functions with: 
                l(1) =   0
                l(2) =   0
                l(3) =   1
                l(4) =   1
                l(5) =   2
                l(6) =   2
     Q(r) pseudized with  8 coefficients,  rinner =    0.900   0.900   0.900
                                                       0.900   0.900

     atomic species   valence    mass     pseudopotential
        Si             4.00    28.08550     Si( 1.00)

     No symmetry found


                                    s                        frac. trans.

      isym =  1     identity                                     

 cryst.   s( 1) = (     1          0          0      )
                  (     0          1          0      )
                  (     0          0          1      )

 cart.    s( 1) = (  1.0000000  0.0000000  0.0000000 )
                  (  0.0000000  1.0000000  0.0000000 )
                  (  0.0000000  0.0000000  1.0000000 )


     point group C_1 (1)    
     there are  1 classes
     the character table:

       E    
A      1.00

     the symmetry operations in each class:
     E        1

   Cartesian axes

     site n.     atom                  positions (alat units)
         1           Si  tau(   1) = (   -0.01130036523   -0.02263152597    0.00032230493  )
         2           Si  tau(   2) = (    0.16392280819    0.17703155923    0.16798355896  )
         3           Si  tau(   3) = (    0.35559185146    0.34409609827    0.00067881190  )
         4           Si  tau(   4) = (    0.53326865616    0.50481745694    0.18727470074  )
         5           Si  tau(   5) = (    0.34706274530    0.00413422269    0.34271560261  )
         6           Si  tau(   6) = (    0.51981903536    0.16579737967    0.52688840156  )
         7           Si  tau(   7) = (    0.72619015879    0.35456708922    0.36858412645  )
         8           Si  tau(   8) = (    0.86632388031    0.55753394409    0.55073300886  )
         9           Si  tau(   9) = (    0.03005231995    0.38056594061    0.36043349162  )
        10           Si  tau(  10) = (    0.20932837744    0.53119574532    0.54279895215  )
        11           Si  tau(  11) = (    0.35658248044    0.71324675709    0.33606950852  )
        12           Si  tau(  12) = (    0.53676726437    0.91511556289    0.51262120496  )
        13           Si  tau(  13) = (    0.36727674452    0.33610237385    0.69896517450  )
        14           Si  tau(  14) = (    0.53338314466    0.50744718003    0.89844154677  )
        15           Si  tau(  15) = (    0.66687610177    0.71639818264    0.70784135470  )
        16           Si  tau(  16) = (    0.86992260836    0.88564984529    0.86871606263  )

   Crystallographic axes

     site n.     atom                  positions (cryst. coord.)
         1           Si  tau(   1) = (   -0.00778443659    0.00824024460   -0.02422137437  )
         2           Si  tau(   2) = (    0.12805160042    0.10951302692    0.12230883161  )
         3           Si  tau(   3) = (   -0.00764873254    0.00860871754    0.49427410147  )
         4           Si  tau(   4) = (    0.11230517493    0.15254124675    0.60161451919  )
         5           Si  tau(   5) = (   -0.00015055718    0.48482361042    0.00599723098  )
         6           Si  tau(   6) = (    0.12223524825    0.62289747509    0.11223765469  )
         7           Si  tau(   7) = (   -0.00214885729    0.52340552779    0.50358244364  )
         8           Si  tau(   8) = (    0.17107958732    0.60777450305    0.61739247789  )
         9           Si  tau(   9) = (    0.50271552416    0.00701440803    0.03548599043  )
        10           Si  tau(  10) = (    0.61141141836    0.15622222142    0.13981280894  )
        11           Si  tau(  11) = (    0.48983675705   -0.01456270020    0.51884648015  )
        12           Si  tau(  12) = (    0.63001057774    0.09494528267    0.66415826244  )
        13           Si  tau(  13) = (    0.47219940580    0.51628662360    0.00312112965  )
        14           Si  tau(  14) = (    0.61695461376    0.65363360668    0.10068407043  )
        15           Si  tau(  15) = (    0.53553682111    0.46550202271    0.47760320484  )
        16           Si  tau(  16) = (    0.62539585469    0.60315418293    0.62710216803  )

     number of k points=    36  gaussian smearing, width (Ry)=  0.0150
                       cart. coord. in units 2pi/alat
        k(    1) = (   0.0000000   0.0000000   0.0000000), wk =   0.0312500
        k(    2) = (   0.1767767   0.1767767  -0.1767767), wk =   0.0625000
        k(    3) = (  -0.3535534  -0.3535534   0.3535534), wk =   0.0312500
        k(    4) = (   0.3535534   0.0000000   0.0000000), wk =   0.0625000
        k(    5) = (  -0.1767767  -0.5303301   0.5303301), wk =   0.0625000
        k(    6) = (   0.0000000  -0.3535534   0.3535534), wk =   0.0625000
        k(    7) = (  -0.7071068   0.0000000   0.0000000), wk =   0.0312500
        k(    8) = (  -0.7071068   0.3535534   0.0000000), wk =   0.0625000
        k(    9) = (  -0.1767767  -0.1767767  -0.1767767), wk =   0.0625000
        k(   10) = (  -0.1767767   0.1767767   0.1767767), wk =   0.0625000
        k(   11) = (   0.1767767  -0.1767767   0.1767767), wk =   0.0625000
        k(   12) = (   0.3535534   0.3535534   0.3535534), wk =   0.0312500
        k(   13) = (   0.3535534  -0.3535534  -0.3535534), wk =   0.0312500
        k(   14) = (  -0.3535534   0.3535534  -0.3535534), wk =   0.0312500
        k(   15) = (   0.0000000   0.3535534   0.0000000), wk =   0.0625000
        k(   16) = (   0.0000000   0.0000000   0.3535534), wk =   0.0625000
        k(   17) = (   0.1767767   0.5303301   0.5303301), wk =   0.0625000
        k(   18) = (   0.1767767  -0.5303301  -0.5303301), wk =   0.0625000
        k(   19) = (  -0.1767767   0.5303301  -0.5303301), wk =   0.0625000
        k(   20) = (  -0.5303301  -0.1767767  -0.5303301), wk =   0.0625000
        k(   21) = (   0.5303301   0.1767767  -0.5303301), wk =   0.0625000
        k(   22) = (  -0.5303301   0.1767767   0.5303301), wk =   0.0625000
        k(   23) = (   0.5303301  -0.1767767   0.5303301), wk =   0.0625000
        k(   24) = (   0.5303301   0.5303301  -0.1767767), wk =   0.0625000
        k(   25) = (  -0.5303301   0.5303301   0.1767767), wk =   0.0625000
        k(   26) = (   0.5303301  -0.5303301   0.1767767), wk =   0.0625000
        k(   27) = (  -0.5303301  -0.5303301  -0.1767767), wk =   0.0625000
        k(   28) = (   0.0000000   0.3535534   0.3535534), wk =   0.0625000
        k(   29) = (  -0.3535534   0.0000000  -0.3535534), wk =   0.0625000
        k(   30) = (   0.3535534   0.0000000  -0.3535534), wk =   0.0625000
        k(   31) = (   0.3535534   0.3535534   0.0000000), wk =   0.0625000
        k(   32) = (  -0.3535534   0.3535534   0.0000000), wk =   0.0625000
        k(   33) = (   0.0000000  -0.7071068   0.0000000), wk =   0.0312500
        k(   34) = (   0.0000000   0.0000000  -0.7071068), wk =   0.0312500
        k(   35) = (   0.3535534  -0.7071068   0.0000000), wk =   0.0625000
        k(   36) = (   0.7071068   0.0000000   0.3535534), wk =   0.0625000

                       cryst. coord.
        k(    1) = (   0.0000000   0.0000000   0.0000000), wk =   0.0312500
        k(    2) = (   0.0000000   0.0000000   0.2500000), wk =   0.0625000
        k(    3) = (   0.0000000   0.0000000  -0.5000000), wk =   0.0312500
        k(    4) = (  -0.0000000   0.2500000   0.2500000), wk =   0.0625000
        k(    5) = (   0.0000000   0.2500000  -0.5000000), wk =   0.0625000
        k(    6) = (   0.0000000   0.2500000  -0.2500000), wk =   0.0625000
        k(    7) = (   0.0000000  -0.5000000  -0.5000000), wk =   0.0312500
        k(    8) = (   0.2500000  -0.5000000  -0.2500000), wk =   0.0625000
        k(    9) = (  -0.2500000  -0.2500000  -0.2500000), wk =   0.0625000
        k(   10) = (   0.2500000   0.0000000   0.0000000), wk =   0.0625000
        k(   11) = (   0.0000000   0.2500000   0.0000000), wk =   0.0625000
        k(   12) = (   0.5000000   0.5000000   0.5000000), wk =   0.0312500
        k(   13) = (  -0.5000000   0.0000000  -0.0000000), wk =   0.0312500
        k(   14) = (   0.0000000  -0.5000000  -0.0000000), wk =   0.0312500
        k(   15) = (   0.2500000  -0.0000000   0.2500000), wk =   0.0625000
        k(   16) = (   0.2500000   0.2500000   0.0000000), wk =   0.0625000
        k(   17) = (   0.7500000   0.5000000   0.5000000), wk =   0.0625000
        k(   18) = (  -0.7500000  -0.2500000  -0.2500000), wk =   0.0625000
        k(   19) = (   0.0000000  -0.5000000   0.2500000), wk =   0.0625000
        k(   20) = (  -0.5000000  -0.7500000  -0.5000000), wk =   0.0625000
        k(   21) = (  -0.2500000   0.0000000   0.5000000), wk =   0.0625000
        k(   22) = (   0.5000000   0.0000000  -0.2500000), wk =   0.0625000
        k(   23) = (   0.2500000   0.7500000   0.2500000), wk =   0.0625000
        k(   24) = (   0.2500000   0.2500000   0.7500000), wk =   0.0625000
        k(   25) = (   0.5000000  -0.2500000   0.0000000), wk =   0.0625000
        k(   26) = (  -0.2500000   0.5000000   0.0000000), wk =   0.0625000
        k(   27) = (  -0.5000000  -0.5000000  -0.7500000), wk =   0.0625000
        k(   28) = (   0.5000000   0.2500000   0.2500000), wk =   0.0625000
        k(   29) = (  -0.2500000  -0.5000000  -0.2500000), wk =   0.0625000
        k(   30) = (  -0.2500000   0.0000000   0.2500000), wk =   0.0625000
        k(   31) = (   0.2500000   0.2500000   0.5000000), wk =   0.0625000
        k(   32) = (   0.2500000  -0.2500000   0.0000000), wk =   0.0625000
        k(   33) = (  -0.5000000   0.0000000  -0.5000000), wk =   0.0312500
        k(   34) = (  -0.5000000  -0.5000000  -0.0000000), wk =   0.0312500
        k(   35) = (  -0.5000000   0.2500000  -0.2500000), wk =   0.0625000
        k(   36) = (   0.2500000   0.7500000   0.5000000), wk =   0.0625000

     Dense  grid:   103379 G-vectors     FFT dimensions: (  72,  72,  72)

     Smooth grid:    60495 G-vectors     FFT dimensions: (  60,  60,  60)

     Largest allocated arrays     est. size (Mb)     dimensions
        Kohn-Sham Wavefunctions         0.28 Mb     (     486,   38)
        NL pseudopotentials             2.14 Mb     (     486,  288)
        Each V/rho on FFT grid          0.40 Mb     (   25920)
        Each G-vector array             0.05 Mb     (    6463)
        G-vector shells                 0.01 Mb     (     700)
     Largest temporary arrays     est. size (Mb)     dimensions
        Auxiliary wavefunctions         1.13 Mb     (     486,  152)
        Each subspace H/S matrix        0.35 Mb     (     152,  152)
        Each <psi_i|beta_j> matrix      0.17 Mb     (     288,   38)
        Arrays for rho mixing           3.16 Mb     (   25920,    8)

     Initial potential from superposition of free atoms

     starting charge   63.98963, renormalised to   64.00000
     Starting wfc are   64 randomized atomic wfcs

     total cpu time spent up to now is        8.1 secs

     Self-consistent Calculation

     iteration #  1     ecut=    35.00 Ry     beta=0.30
     Davidson diagonalization with overlap
     ethr =  1.00E-02,  avg # of iterations =  3.2

     Threshold (ethr) on eigenvalues was too large:
     Diagonalizing with lowered threshold

     Davidson diagonalization with overlap
     ethr =  6.81E-04,  avg # of iterations =  2.2

     total cpu time spent up to now is       43.6 secs

     total energy              =    -152.93341416 Ry
     Harris-Foulkes estimate   =    -152.98003200 Ry
     estimated scf accuracy    <       0.42976383 Ry

     iteration #  2     ecut=    35.00 Ry     beta=0.30
     Davidson diagonalization with overlap
     ethr =  6.72E-04,  avg # of iterations =  1.0

     total cpu time spent up to now is       56.9 secs

     total energy              =    -152.84123706 Ry
     Harris-Foulkes estimate   =    -152.93571871 Ry
     estimated scf accuracy    <       0.26644531 Ry

     iteration #  3     ecut=    35.00 Ry     beta=0.30
     Davidson diagonalization with overlap
     ethr =  4.16E-04,  avg # of iterations =  3.1

     total cpu time spent up to now is       72.7 secs

     total energy              =    -152.86073289 Ry
     Harris-Foulkes estimate   =    -152.86050205 Ry
     estimated scf accuracy    <       0.00315810 Ry

     iteration #  4     ecut=    35.00 Ry     beta=0.30
     Davidson diagonalization with overlap
     c_bands:  1 eigenvalues not converged
     ethr =  4.93E-06,  avg # of iterations = 12.6

     total cpu time spent up to now is      111.0 secs

     total energy              =    -152.86310135 Ry
     Harris-Foulkes estimate   =    -152.86297163 Ry
     estimated scf accuracy    <       0.00146061 Ry

     iteration #  5     ecut=    35.00 Ry     beta=0.30
     Davidson diagonalization with overlap
     ethr =  2.28E-06,  avg # of iterations =  1.1

     total cpu time spent up to now is      124.4 secs

     total energy              =    -152.86319666 Ry
     Harris-Foulkes estimate   =    -152.86313897 Ry
     estimated scf accuracy    <       0.00042302 Ry

     iteration #  6     ecut=    35.00 Ry     beta=0.30
     Davidson diagonalization with overlap
     ethr =  6.61E-07,  avg # of iterations =  2.1

     total cpu time spent up to now is      140.8 secs

     total energy              =    -152.86324325 Ry
     Harris-Foulkes estimate   =    -152.86324497 Ry
     estimated scf accuracy    <       0.00002076 Ry

     iteration #  7     ecut=    35.00 Ry     beta=0.30
     Davidson diagonalization with overlap
     ethr =  3.24E-08,  avg # of iterations =  3.0

     total cpu time spent up to now is      157.5 secs

     total energy              =    -152.86324100 Ry
     Harris-Foulkes estimate   =    -152.86324581 Ry
     estimated scf accuracy    <       0.00001358 Ry

     iteration #  8     ecut=    35.00 Ry     beta=0.30
     Davidson diagonalization with overlap
     ethr =  2.12E-08,  avg # of iterations =  2.3

     total cpu time spent up to now is      175.2 secs

     total energy              =    -152.86324439 Ry
     Harris-Foulkes estimate   =    -152.86324505 Ry
     estimated scf accuracy    <       0.00000375 Ry

     iteration #  9     ecut=    35.00 Ry     beta=0.30
     Davidson diagonalization with overlap
     ethr =  5.86E-09,  avg # of iterations =  1.3

     total cpu time spent up to now is      190.8 secs

     total energy              =    -152.86324395 Ry
     Harris-Foulkes estimate   =    -152.86324453 Ry
     estimated scf accuracy    <       0.00000149 Ry

     iteration # 10     ecut=    35.00 Ry     beta=0.30
     Davidson diagonalization with overlap
     ethr =  2.32E-09,  avg # of iterations =  2.0

     total cpu time spent up to now is      207.8 secs

     total energy              =    -152.86324433 Ry
     Harris-Foulkes estimate   =    -152.86324431 Ry
     estimated scf accuracy    <       0.00000017 Ry

     iteration # 11     ecut=    35.00 Ry     beta=0.30
     Davidson diagonalization with overlap
     ethr =  2.64E-10,  avg # of iterations =  1.7

     total cpu time spent up to now is      221.9 secs

     total energy              =    -152.86324427 Ry
     Harris-Foulkes estimate   =    -152.86324434 Ry
     estimated scf accuracy    <       0.00000026 Ry

     iteration # 12     ecut=    35.00 Ry     beta=0.30
     Davidson diagonalization with overlap
     ethr =  2.64E-10,  avg # of iterations =  2.1

     total cpu time spent up to now is      238.8 secs

     total energy              =    -152.86324428 Ry
     Harris-Foulkes estimate   =    -152.86324429 Ry
     estimated scf accuracy    <       0.00000002 Ry

     iteration # 13     ecut=    35.00 Ry     beta=0.30
     Davidson diagonalization with overlap
     ethr =  3.04E-11,  avg # of iterations =  2.1

     total cpu time spent up to now is      256.8 secs

     End of self-consistent calculation

          k = 0.0000 0.0000 0.0000 (  7631 PWs)   bands (ev):

    -5.8651  -3.6503  -3.6029  -3.4212  -3.3189  -1.9583  -1.7778  -1.6414
    -1.6301  -1.5587  -1.4749  -0.9779  -0.8471  -0.7390  -0.6647   3.1789
     3.2245   3.3141   3.3378   3.3617   3.4068   4.7348   4.7591   4.9362
     4.9968   5.0484   5.1057   5.1501   5.2146   5.8784   6.0545   6.2214
     6.4810   6.6157   6.7072   6.8029   6.8810   7.1043

     occupation numbers 
     1.0000   1.0000   1.0000   1.0000   1.0000   1.0000   1.0000   1.0000
     1.0000   1.0000   1.0000   1.0000   1.0000   1.0000   1.0000   1.0000
     1.0000   1.0000   1.0000   1.0000   1.0000   1.0000   1.0000   1.0000
     1.0000   1.0000   1.0000   1.0000   1.0000   0.9993   0.9758   0.7934
     0.1634   0.0278   0.0054   0.0007   0.0001   0.0000

          k = 0.1768 0.1768-0.1768 (  7564 PWs)   bands (ev):

    -5.6670  -4.1771  -3.5685  -3.3580  -3.2922  -2.6434  -2.4795  -2.3341
    -0.9103  -0.8036  -0.7571  -0.6946  -0.4989  -0.3185   0.2756   2.6250
     2.7231   2.7785   3.3549   3.3917   3.5275   3.8022   3.9433   4.0437
     4.5257   4.6004   4.6266   4.7766   5.0750   5.1384   5.7754   5.9077
     6.7283   6.8619   6.9667   7.5759   7.8280   7.9200

     occupation numbers 
     1.0000   1.0000   1.0000   1.0000   1.0000   1.0000   1.0000   1.0000
     1.0000   1.0000   1.0000   1.0000   1.0000   1.0000   1.0000   1.0000
     1.0000   1.0000   1.0000   1.0000   1.0000   1.0000   1.0000   1.0000
     1.0000   1.0000   1.0000   1.0000   1.0000   1.0000   1.0000   0.9986
     0.0035   0.0001   0.0000   0.0000   0.0000   0.0000

          k =-0.3536-0.3536 0.3536 (  7570 PWs)   bands (ev):

    -5.2067  -4.9201  -3.4218  -3.2048  -3.1446  -3.0225  -2.9606  -2.7318
    -0.4945  -0.4388  -0.3631  -0.3216  -0.0590   0.0890   2.0967   2.2764
     2.4364   2.5656   2.6180   2.6692   2.8232   2.9127   3.6370   3.7095
     3.9719   4.0436   4.1204   4.2530   5.2132   5.3226   5.4625   5.6820
     7.1400   7.3302   7.3645   7.4061   7.6320   7.8265

     occupation numbers 
     1.0000   1.0000   1.0000   1.0000   1.0000   1.0000   1.0000   1.0000
     1.0000   1.0000   1.0000   1.0000   1.0000   1.0000   1.0000   1.0000
     1.0000   1.0000   1.0000   1.0000   1.0000   1.0000   1.0000   1.0000
     1.0000   1.0000   1.0000   1.0000   1.0000   1.0000   1.0000   1.0000
     0.0000   0.0000   0.0000   0.0000   0.0000   0.0000

          k = 0.3536 0.0000 0.0000 (  7563 PWs)   bands (ev):

    -5.5962  -3.8971  -3.7749  -3.5855  -3.4612  -3.3200  -1.7327  -1.5834
    -1.5329  -1.4623  -0.3948  -0.3583  -0.1894  -0.0676   0.5057   2.5520
     2.6621   2.7087   2.7733   3.4520   3.5414   3.6087   3.6644   3.7822
     3.8733   4.7980   4.8309   4.8890   4.9936   5.0978   5.3842   5.5494
     6.5673   7.3264   7.7204   7.8812   7.9500   8.0508

     occupation numbers 
     1.0000   1.0000   1.0000   1.0000   1.0000   1.0000   1.0000   1.0000
     1.0000   1.0000   1.0000   1.0000   1.0000   1.0000   1.0000   1.0000
     1.0000   1.0000   1.0000   1.0000   1.0000   1.0000   1.0000   1.0000
     1.0000   1.0000   1.0000   1.0000   1.0000   1.0000   1.0000   1.0000
     0.0572   0.0000   0.0000   0.0000   0.0000   0.0000

          k =-0.1768-0.5303 0.5303 (  7554 PWs)   bands (ev):

    -5.1606  -4.5885  -4.1113  -3.5974  -3.5239  -2.8989  -2.3718  -2.2123
    -0.8608  -0.7817  -0.4696   0.1841   0.3329   1.2264   1.5302   1.9805
     2.1118   2.2208   2.7275   2.8235   3.0168   3.1215   3.2137   3.5616
     3.7643   3.9041   4.2344   4.3173   4.4074   4.8505   5.0221   5.4237
     7.2736   7.7346   7.9302   8.3026   8.4429   8.6743

     occupation numbers 
     1.0000   1.0000   1.0000   1.0000   1.0000   1.0000   1.0000   1.0000
     1.0000   1.0000   1.0000   1.0000   1.0000   1.0000   1.0000   1.0000
     1.0000   1.0000   1.0000   1.0000   1.0000   1.0000   1.0000   1.0000
     1.0000   1.0000   1.0000   1.0000   1.0000   1.0000   1.0000   1.0000
     0.0000   0.0000   0.0000   0.0000   0.0000   0.0000

          k = 0.0000-0.3536 0.3536 (  7592 PWs)   bands (ev):

    -5.3392  -4.3565  -4.2581  -3.2848  -3.1981  -2.9729  -2.7686  -2.0802
    -1.0311  -0.7394  -0.6605   0.0963   0.2450   0.8169   0.9776   1.7859
     2.5149   2.6465   2.8220   2.9060   3.2813   3.4268   3.5734   3.7109
     3.9925   4.0252   4.3213   4.4234   4.5439   4.6400   4.6977   5.8382
     7.0950   7.8231   7.9953   8.1120   8.2104   8.5020

     occupation numbers 
     1.0000   1.0000   1.0000   1.0000   1.0000   1.0000   1.0000   1.0000
     1.0000   1.0000   1.0000   1.0000   1.0000   1.0000   1.0000   1.0000
     1.0000   1.0000   1.0000   1.0000   1.0000   1.0000   1.0000   1.0000
     1.0000   1.0000   1.0000   1.0000   1.0000   1.0000   1.0000   0.9997
     0.0000   0.0000   0.0000   0.0000   0.0000   0.0000

          k =-0.7071 0.0000 0.0000 (  7528 PWs)   bands (ev):

    -4.8454  -4.7796  -3.9128  -3.8507  -3.6968  -3.5754  -1.6310  -1.4974
    -1.4270  -1.3657   0.5239   0.6403   0.6800   0.7884   1.9685   2.1047
     2.2052   2.2513   2.3632   2.3981   2.4723   2.5335   2.7124   2.8053
     4.1547   4.2439   4.3027   4.3586   4.7990   4.8829   5.0006   5.1142
     7.0054   7.1543   8.2321   8.3185   8.4299   8.5312

     occupation numbers 
     1.0000   1.0000   1.0000   1.0000   1.0000   1.0000   1.0000   1.0000
     1.0000   1.0000   1.0000   1.0000   1.0000   1.0000   1.0000   1.0000
     1.0000   1.0000   1.0000   1.0000   1.0000   1.0000   1.0000   1.0000
     1.0000   1.0000   1.0000   1.0000   1.0000   1.0000   1.0000   1.0000
     0.0000   0.0000   0.0000   0.0000   0.0000   0.0000

          k =-0.7071 0.3536 0.0000 (  7564 PWs)   bands (ev):

    -4.7165  -4.6514  -4.4488  -4.2710  -2.8299  -2.7725  -2.6294  -2.4607
    -0.4994  -0.4549  -0.4044  -0.2791   1.4821   1.5785   1.8072   1.8759
     1.9590   1.9937   2.0712   2.1842   3.1031   3.2372   3.4128   3.5213
     3.5594   3.6083   3.7450   3.7757   4.6874   4.7456   4.8224   4.9864
     8.2436   8.3747   8.4430   8.5547   8.6771   8.7461

     occupation numbers 
     1.0000   1.0000   1.0000   1.0000   1.0000   1.0000   1.0000   1.0000
     1.0000   1.0000   1.0000   1.0000   1.0000   1.0000   1.0000   1.0000
     1.0000   1.0000   1.0000   1.0000   1.0000   1.0000   1.0000   1.0000
     1.0000   1.0000   1.0000   1.0000   1.0000   1.0000   1.0000   1.0000
     0.0000   0.0000   0.0000   0.0000   0.0000   0.0000

          k =-0.1768-0.1768-0.1768 (  7564 PWs)   bands (ev):

    -5.6635  -4.1873  -3.5422  -3.3932  -3.2824  -2.6558  -2.4603  -2.3650
    -0.9606  -0.7880  -0.7267  -0.5969  -0.4463  -0.3229   0.1993   2.5488
     2.6530   2.7612   3.4361   3.4741   3.5114   3.7462   3.9129   3.9713
     4.4888   4.5737   4.6532   4.7426   5.0996   5.2570   5.8524   6.0459
     6.7718   6.7965   6.9556   7.5812   7.7998   7.8747

     occupation numbers 
     1.0000   1.0000   1.0000   1.0000   1.0000   1.0000   1.0000   1.0000
     1.0000   1.0000   1.0000   1.0000   1.0000   1.0000   1.0000   1.0000
     1.0000   1.0000   1.0000   1.0000   1.0000   1.0000   1.0000   1.0000
     1.0000   1.0000   1.0000   1.0000   1.0000   1.0000   0.9996   0.9791
     0.0014   0.0008   0.0000   0.0000   0.0000   0.0000

          k =-0.1768 0.1768 0.1768 (  7564 PWs)   bands (ev):

    -5.6655  -4.1426  -3.5702  -3.4168  -3.3014  -2.6120  -2.4686  -2.4289
    -0.9028  -0.7755  -0.6710  -0.5832  -0.4444  -0.3274   0.1626   2.5593
     2.6470   2.7075   3.3729   3.4842   3.5489   3.7103   3.8502   3.9363
     4.4859   4.5767   4.7306   4.7837   5.1255   5.1695   5.7780   6.0369
     6.7936   6.9380   7.0782   7.5672   7.8072   7.8931

     occupation numbers 
     1.0000   1.0000   1.0000   1.0000   1.0000   1.0000   1.0000   1.0000
     1.0000   1.0000   1.0000   1.0000   1.0000   1.0000   1.0000   1.0000
     1.0000   1.0000   1.0000   1.0000   1.0000   1.0000   1.0000   1.0000
     1.0000   1.0000   1.0000   1.0000   1.0000   1.0000   1.0000   0.9820
     0.0008   0.0000   0.0000   0.0000   0.0000   0.0000

          k = 0.1768-0.1768 0.1768 (  7564 PWs)   bands (ev):

    -5.6622  -4.1780  -3.5683  -3.4245  -3.2612  -2.5949  -2.4620  -2.3999
    -0.9354  -0.7957  -0.6506  -0.5856  -0.5224  -0.3733   0.2307   2.5630
     2.6351   2.7197   3.3810   3.4937   3.5223   3.7121   3.9616   4.0037
     4.5328   4.5864   4.6990   4.7646   5.0620   5.2112   5.8000   5.9440
     6.7478   6.8841   7.0379   7.5903   7.8157   7.8929

     occupation numbers 
     1.0000   1.0000   1.0000   1.0000   1.0000   1.0000   1.0000   1.0000
     1.0000   1.0000   1.0000   1.0000   1.0000   1.0000   1.0000   1.0000
     1.0000   1.0000   1.0000   1.0000   1.0000   1.0000   1.0000   1.0000
     1.0000   1.0000   1.0000   1.0000   1.0000   1.0000   0.9999   0.9969
     0.0023   0.0001   0.0000   0.0000   0.0000   0.0000

          k = 0.3536 0.3536 0.3536 (  7570 PWs)   bands (ev):

    -5.1481  -4.9876  -3.3627  -3.2982  -3.0818  -3.0552  -2.9130  -2.8089
    -0.5360  -0.3746  -0.3184  -0.1802  -0.0756   0.1028   2.0154   2.1211
     2.4044   2.5279   2.6334   2.6543   2.6979   2.8193   3.8465   3.8955
     3.9535   4.0299   4.0406   4.1346   5.3004   5.4331   5.6071   5.6286
     7.2639   7.3078   7.4429   7.4923   7.5210   7.6631

     occupation numbers 
     1.0000   1.0000   1.0000   1.0000   1.0000   1.0000   1.0000   1.0000
     1.0000   1.0000   1.0000   1.0000   1.0000   1.0000   1.0000   1.0000
     1.0000   1.0000   1.0000   1.0000   1.0000   1.0000   1.0000   1.0000
     1.0000   1.0000   1.0000   1.0000   1.0000   1.0000   1.0000   1.0000
     0.0000   0.0000   0.0000   0.0000   0.0000   0.0000

          k = 0.3536-0.3536-0.3536 (  7570 PWs)   bands (ev):

    -5.2068  -4.8964  -3.4245  -3.2960  -3.0803  -2.9970  -2.9696  -2.8488
    -0.5191  -0.3362  -0.2445  -0.1662  -0.0165   0.1330   1.9711   2.1983
     2.3790   2.4777   2.5268   2.5951   2.6196   2.7186   3.6748   3.8673
     3.9800   4.0400   4.1980   4.2960   5.2461   5.3577   5.5291   5.7575
     7.1440   7.3168   7.5663   7.6305   7.6682   7.7709

     occupation numbers 
     1.0000   1.0000   1.0000   1.0000   1.0000   1.0000   1.0000   1.0000
     1.0000   1.0000   1.0000   1.0000   1.0000   1.0000   1.0000   1.0000
     1.0000   1.0000   1.0000   1.0000   1.0000   1.0000   1.0000   1.0000
     1.0000   1.0000   1.0000   1.0000   1.0000   1.0000   1.0000   1.0000
     0.0000   0.0000   0.0000   0.0000   0.0000   0.0000

          k =-0.3536 0.3536-0.3536 (  7570 PWs)   bands (ev):

    -5.1215  -5.0116  -3.4653  -3.2403  -3.0872  -3.0090  -2.8688  -2.8515
    -0.5398  -0.3771  -0.2716  -0.1301  -0.0779   0.0547   1.9655   1.9880
     2.3947   2.5089   2.5897   2.6552   2.7649   2.9583   3.8122   3.9265
     3.9624   4.0541   4.0930   4.1299   5.2380   5.3956   5.5153   5.6523
     7.2456   7.3171   7.3945   7.4902   7.6891   7.8036

     occupation numbers 
     1.0000   1.0000   1.0000   1.0000   1.0000   1.0000   1.0000   1.0000
     1.0000   1.0000   1.0000   1.0000   1.0000   1.0000   1.0000   1.0000
     1.0000   1.0000   1.0000   1.0000   1.0000   1.0000   1.0000   1.0000
     1.0000   1.0000   1.0000   1.0000   1.0000   1.0000   1.0000   1.0000
     0.0000   0.0000   0.0000   0.0000   0.0000   0.0000

          k = 0.0000 0.3536 0.0000 (  7563 PWs)   bands (ev):

    -5.5992  -3.8358  -3.7787  -3.6150  -3.5165  -3.2857  -1.7672  -1.6122
    -1.5312  -1.4355  -0.3886  -0.2446  -0.2120  -0.1128   0.4853   2.6148
     2.6582   2.7227   2.7524   3.4301   3.4786   3.6517   3.7190   3.7440
     3.8631   4.6578   4.7951   4.9108   5.0695   5.1098   5.4292   5.4822
     6.6461   7.3362   7.7475   7.8823   7.9056   8.0582

     occupation numbers 
     1.0000   1.0000   1.0000   1.0000   1.0000   1.0000   1.0000   1.0000
     1.0000   1.0000   1.0000   1.0000   1.0000   1.0000   1.0000   1.0000
     1.0000   1.0000   1.0000   1.0000   1.0000   1.0000   1.0000   1.0000
     1.0000   1.0000   1.0000   1.0000   1.0000   1.0000   1.0000   1.0000
     0.0168   0.0000   0.0000   0.0000   0.0000   0.0000

          k = 0.0000 0.0000 0.3536 (  7563 PWs)   bands (ev):

    -5.5952  -3.8815  -3.8069  -3.5543  -3.4793  -3.3223  -1.7499  -1.6282
    -1.5026  -1.4009  -0.4555  -0.3157  -0.1839  -0.0734   0.5037   2.5809
     2.6224   2.6971   2.7680   3.4522   3.5426   3.6134   3.6367   3.7851
     3.8868   4.7515   4.8689   4.9106   4.9996   5.1038   5.4403   5.4714
     6.6695   7.3443   7.7418   7.8329   7.9603   8.0050

     occupation numbers 
     1.0000   1.0000   1.0000   1.0000   1.0000   1.0000   1.0000   1.0000
     1.0000   1.0000   1.0000   1.0000   1.0000   1.0000   1.0000   1.0000
     1.0000   1.0000   1.0000   1.0000   1.0000   1.0000   1.0000   1.0000
     1.0000   1.0000   1.0000   1.0000   1.0000   1.0000   1.0000   1.0000
     0.0111   0.0000   0.0000   0.0000   0.0000   0.0000

          k = 0.1768 0.5303 0.5303 (  7554 PWs)   bands (ev):

    -5.1396  -4.6437  -4.0238  -3.6835  -3.5294  -2.8421  -2.3696  -2.2586
    -0.8204  -0.7326  -0.5716   0.2823   0.4279   1.2076   1.4714   1.8494
     2.0538   2.2138   2.6986   2.8645   3.0329   3.1522   3.2199   3.4765
     3.8356   3.9990   4.1920   4.2443   4.3505   4.8830   5.0273   5.5715
     7.2724   7.7102   8.1001   8.3057   8.4793   8.6199

     occupation numbers 
     1.0000   1.0000   1.0000   1.0000   1.0000   1.0000   1.0000   1.0000
     1.0000   1.0000   1.0000   1.0000   1.0000   1.0000   1.0000   1.0000
     1.0000   1.0000   1.0000   1.0000   1.0000   1.0000   1.0000   1.0000
     1.0000   1.0000   1.0000   1.0000   1.0000   1.0000   1.0000   1.0000
     0.0000   0.0000   0.0000   0.0000   0.0000   0.0000

          k = 0.1768-0.5303-0.5303 (  7554 PWs)   bands (ev):

    -5.1584  -4.5719  -4.0937  -3.6752  -3.5229  -2.8513  -2.3661  -2.2946
    -0.8255  -0.6930  -0.5083   0.2891   0.4290   1.2350   1.4596   1.9481
     2.0245   2.1405   2.6073   2.8184   2.9382   3.1518   3.2542   3.4339
     3.8526   3.9599   4.2051   4.2806   4.4685   4.8814   4.9940   5.5961
     7.2280   7.8747   8.0467   8.3075   8.4207   8.7243

     occupation numbers 
     1.0000   1.0000   1.0000   1.0000   1.0000   1.0000   1.0000   1.0000
     1.0000   1.0000   1.0000   1.0000   1.0000   1.0000   1.0000   1.0000
     1.0000   1.0000   1.0000   1.0000   1.0000   1.0000   1.0000   1.0000
     1.0000   1.0000   1.0000   1.0000   1.0000   1.0000   1.0000   1.0000
     0.0000   0.0000   0.0000   0.0000   0.0000   0.0000

          k =-0.1768 0.5303-0.5303 (  7554 PWs)   bands (ev):

    -5.1329  -4.6449  -4.0779  -3.6072  -3.5231  -2.9116  -2.3688  -2.2306
    -0.8611  -0.7292  -0.4020   0.1928   0.3335   1.2404   1.5147   1.8123
     2.0851   2.2311   2.7064   2.7891   3.0022   3.1437   3.2107   3.4964
     3.8564   3.9489   4.2440   4.3133   4.4363   4.8401   5.0687   5.4202
     7.2848   7.7007   8.0742   8.3517   8.4934   8.6537

     occupation numbers 
     1.0000   1.0000   1.0000   1.0000   1.0000   1.0000   1.0000   1.0000
     1.0000   1.0000   1.0000   1.0000   1.0000   1.0000   1.0000   1.0000
     1.0000   1.0000   1.0000   1.0000   1.0000   1.0000   1.0000   1.0000
     1.0000   1.0000   1.0000   1.0000   1.0000   1.0000   1.0000   1.0000
     0.0000   0.0000   0.0000   0.0000   0.0000   0.0000

          k =-0.5303-0.1768-0.5303 (  7554 PWs)   bands (ev):

    -5.1548  -4.6035  -4.0840  -3.6335  -3.5080  -2.8689  -2.4313  -2.2290
    -0.8825  -0.7369  -0.4068   0.2228   0.3813   1.2264   1.4503   1.9534
     2.0971   2.1948   2.6924   2.8399   2.9686   3.1395   3.2104   3.4458
     3.8460   3.9888   4.1101   4.3323   4.3771   4.8900   5.0828   5.4944
     7.3361   7.7759   8.1120   8.2496   8.3462   8.6264

     occupation numbers 
     1.0000   1.0000   1.0000   1.0000   1.0000   1.0000   1.0000   1.0000
     1.0000   1.0000   1.0000   1.0000   1.0000   1.0000   1.0000   1.0000
     1.0000   1.0000   1.0000   1.0000   1.0000   1.0000   1.0000   1.0000
     1.0000   1.0000   1.0000   1.0000   1.0000   1.0000   1.0000   1.0000
     0.0000   0.0000   0.0000   0.0000   0.0000   0.0000

          k = 0.5303 0.1768-0.5303 (  7554 PWs)   bands (ev):

    -5.1702  -4.5878  -4.0258  -3.7151  -3.5087  -2.8468  -2.4038  -2.2181
    -0.8341  -0.7888  -0.5405   0.2864   0.3522   1.1575   1.5740   2.0145
     2.0641   2.1622   2.7680   2.8037   3.0479   3.1519   3.2552   3.5582
     3.7543   3.8742   4.1358   4.3731   4.4009   4.8565   4.8899   5.5202
     7.2303   7.8158   8.1403   8.2693   8.3473   8.6865

     occupation numbers 
     1.0000   1.0000   1.0000   1.0000   1.0000   1.0000   1.0000   1.0000
     1.0000   1.0000   1.0000   1.0000   1.0000   1.0000   1.0000   1.0000
     1.0000   1.0000   1.0000   1.0000   1.0000   1.0000   1.0000   1.0000
     1.0000   1.0000   1.0000   1.0000   1.0000   1.0000   1.0000   1.0000
     0.0000   0.0000   0.0000   0.0000   0.0000   0.0000

          k =-0.5303 0.1768 0.5303 (  7554 PWs)   bands (ev):

    -5.1674  -4.5705  -4.0394  -3.7230  -3.4992  -2.9108  -2.4052  -2.2147
    -0.8378  -0.7651  -0.4163   0.3017   0.3908   1.2724   1.4688   1.9399
     2.0441   2.1122   2.6760   2.7576   2.9312   3.2155   3.2386   3.4183
     3.7668   3.9170   4.1808   4.3515   4.4396   4.9141   5.0823   5.4851
     7.2690   7.8363   8.1528   8.2352   8.4963   8.7341

     occupation numbers 
     1.0000   1.0000   1.0000   1.0000   1.0000   1.0000   1.0000   1.0000
     1.0000   1.0000   1.0000   1.0000   1.0000   1.0000   1.0000   1.0000
     1.0000   1.0000   1.0000   1.0000   1.0000   1.0000   1.0000   1.0000
     1.0000   1.0000   1.0000   1.0000   1.0000   1.0000   1.0000   1.0000
     0.0000   0.0000   0.0000   0.0000   0.0000   0.0000

          k = 0.5303-0.1768 0.5303 (  7554 PWs)   bands (ev):

    -5.1482  -4.6125  -4.0880  -3.6168  -3.5145  -2.9148  -2.3820  -2.2266
    -0.8647  -0.7221  -0.4706   0.2473   0.4052   1.2429   1.4180   1.9189
     2.0618   2.2731   2.6075   2.7381   3.0527   3.1810   3.2593   3.4337
     3.8345   3.9668   4.2248   4.2996   4.3989   4.8960   4.9780   5.4951
     7.3436   7.7814   8.0303   8.2938   8.4915   8.6490

     occupation numbers 
     1.0000   1.0000   1.0000   1.0000   1.0000   1.0000   1.0000   1.0000
     1.0000   1.0000   1.0000   1.0000   1.0000   1.0000   1.0000   1.0000
     1.0000   1.0000   1.0000   1.0000   1.0000   1.0000   1.0000   1.0000
     1.0000   1.0000   1.0000   1.0000   1.0000   1.0000   1.0000   1.0000
     0.0000   0.0000   0.0000   0.0000   0.0000   0.0000

          k = 0.5303 0.5303-0.1768 (  7554 PWs)   bands (ev):

    -5.1580  -4.5941  -4.0895  -3.6820  -3.4590  -2.9076  -2.3707  -2.2038
    -0.8753  -0.7344  -0.4732   0.1100   0.3843   1.2087   1.5748   1.9535
     2.0588   2.2916   2.6814   2.7901   3.0233   3.1399   3.1843   3.5477
     3.8115   3.9090   4.2170   4.3777   4.4250   4.8426   4.9565   5.4693
     7.3033   7.7023   8.0655   8.2412   8.3838   8.6259

     occupation numbers 
     1.0000   1.0000   1.0000   1.0000   1.0000   1.0000   1.0000   1.0000
     1.0000   1.0000   1.0000   1.0000   1.0000   1.0000   1.0000   1.0000
     1.0000   1.0000   1.0000   1.0000   1.0000   1.0000   1.0000   1.0000
     1.0000   1.0000   1.0000   1.0000   1.0000   1.0000   1.0000   1.0000
     0.0000   0.0000   0.0000   0.0000   0.0000   0.0000

          k =-0.5303 0.5303 0.1768 (  7554 PWs)   bands (ev):

    -5.1571  -4.5654  -4.1114  -3.6513  -3.5407  -2.8684  -2.3460  -2.2872
    -0.8118  -0.7152  -0.4935   0.2696   0.4367   1.2322   1.4832   1.9402
     2.0066   2.1221   2.6903   2.7839   2.9426   3.1066   3.2043   3.4671
     3.7995   3.9700   4.2186   4.3359   4.4200   4.9301   5.0610   5.5179
     7.3892   7.8767   8.0518   8.2562   8.3960   8.6951

     occupation numbers 
     1.0000   1.0000   1.0000   1.0000   1.0000   1.0000   1.0000   1.0000
     1.0000   1.0000   1.0000   1.0000   1.0000   1.0000   1.0000   1.0000
     1.0000   1.0000   1.0000   1.0000   1.0000   1.0000   1.0000   1.0000
     1.0000   1.0000   1.0000   1.0000   1.0000   1.0000   1.0000   1.0000
     0.0000   0.0000   0.0000   0.0000   0.0000   0.0000

          k = 0.5303-0.5303 0.1768 (  7554 PWs)   bands (ev):

    -5.1324  -4.6412  -4.0604  -3.6475  -3.5500  -2.8465  -2.3344  -2.2786
    -0.7956  -0.7426  -0.5501   0.2672   0.4447   1.1653   1.4898   1.8161
     2.0209   2.2114   2.7182   2.8384   3.0828   3.1289   3.2208   3.4700
     3.8098   4.0043   4.2109   4.2777   4.4102   4.8877   4.9631   5.5359
     7.3733   7.8203   8.0845   8.3378   8.4732   8.6106

     occupation numbers 
     1.0000   1.0000   1.0000   1.0000   1.0000   1.0000   1.0000   1.0000
     1.0000   1.0000   1.0000   1.0000   1.0000   1.0000   1.0000   1.0000
     1.0000   1.0000   1.0000   1.0000   1.0000   1.0000   1.0000   1.0000
     1.0000   1.0000   1.0000   1.0000   1.0000   1.0000   1.0000   1.0000
     0.0000   0.0000   0.0000   0.0000   0.0000   0.0000

          k =-0.5303-0.5303-0.1768 (  7554 PWs)   bands (ev):

    -5.1367  -4.6432  -4.0456  -3.6959  -3.4610  -2.9207  -2.3548  -2.2348
    -0.8716  -0.7305  -0.3876   0.1196   0.3836   1.2772   1.5253   1.8728
     2.0325   2.1989   2.7152   2.7587   3.0278   3.0860   3.2154   3.5061
     3.8623   3.9611   4.2263   4.3199   4.3936   4.9207   5.0840   5.4368
     7.3143   7.6904   8.0588   8.2745   8.4669   8.6505

     occupation numbers 
     1.0000   1.0000   1.0000   1.0000   1.0000   1.0000   1.0000   1.0000
     1.0000   1.0000   1.0000   1.0000   1.0000   1.0000   1.0000   1.0000
     1.0000   1.0000   1.0000   1.0000   1.0000   1.0000   1.0000   1.0000
     1.0000   1.0000   1.0000   1.0000   1.0000   1.0000   1.0000   1.0000
     0.0000   0.0000   0.0000   0.0000   0.0000   0.0000

          k = 0.0000 0.3536 0.3536 (  7592 PWs)   bands (ev):

    -5.3395  -4.3625  -4.2186  -3.3507  -3.1882  -2.9504  -2.8367  -2.0312
    -1.1222  -0.7053  -0.5657   0.2309   0.2995   0.7916   0.9043   1.7565
     2.5522   2.6090   2.7122   2.8108   3.2665   3.3585   3.5002   3.7596
     3.9632   4.0460   4.2738   4.4188   4.5968   4.6266   4.8157   6.0585
     7.0930   7.8814   8.0191   8.0917   8.2656   8.4224

     occupation numbers 
     1.0000   1.0000   1.0000   1.0000   1.0000   1.0000   1.0000   1.0000
     1.0000   1.0000   1.0000   1.0000   1.0000   1.0000   1.0000   1.0000
     1.0000   1.0000   1.0000   1.0000   1.0000   1.0000   1.0000   1.0000
     1.0000   1.0000   1.0000   1.0000   1.0000   1.0000   1.0000   0.9742
     0.0000   0.0000   0.0000   0.0000   0.0000   0.0000

          k =-0.3536 0.0000-0.3536 (  7592 PWs)   bands (ev):

    -5.3281  -4.4591  -4.1471  -3.3253  -3.1738  -2.9882  -2.7893  -2.0600
    -1.0529  -0.7787  -0.5456   0.1331   0.2774   0.8010   0.9482   1.6869
     2.5355   2.6895   2.7847   2.8336   3.2081   3.4864   3.5430   3.7332
     3.9732   4.0763   4.3120   4.3931   4.4904   4.6133   4.8250   5.9479
     7.1564   7.8330   7.9900   8.1279   8.3569   8.3868

     occupation numbers 
     1.0000   1.0000   1.0000   1.0000   1.0000   1.0000   1.0000   1.0000
     1.0000   1.0000   1.0000   1.0000   1.0000   1.0000   1.0000   1.0000
     1.0000   1.0000   1.0000   1.0000   1.0000   1.0000   1.0000   1.0000
     1.0000   1.0000   1.0000   1.0000   1.0000   1.0000   1.0000   0.9967
     0.0000   0.0000   0.0000   0.0000   0.0000   0.0000

          k = 0.3536 0.0000-0.3536 (  7592 PWs)   bands (ev):

    -5.3462  -4.3920  -4.1524  -3.4142  -3.1688  -2.9469  -2.8146  -2.0216
    -1.0748  -0.7454  -0.6455   0.1985   0.2850   0.7660   0.9729   1.7995
     2.5283   2.6716   2.7554   2.8474   3.2627   3.4634   3.5143   3.6341
     4.0171   4.1084   4.2131   4.3325   4.5434   4.6704   4.8150   5.8684
     7.2200   7.8726   7.9385   8.0972   8.3199   8.4414

     occupation numbers 
     1.0000   1.0000   1.0000   1.0000   1.0000   1.0000   1.0000   1.0000
     1.0000   1.0000   1.0000   1.0000   1.0000   1.0000   1.0000   1.0000
     1.0000   1.0000   1.0000   1.0000   1.0000   1.0000   1.0000   1.0000
     1.0000   1.0000   1.0000   1.0000   1.0000   1.0000   1.0000   0.9995
     0.0000   0.0000   0.0000   0.0000   0.0000   0.0000

          k = 0.3536 0.3536 0.0000 (  7592 PWs)   bands (ev):

    -5.3431  -4.3510  -4.2499  -3.3622  -3.1389  -2.9279  -2.7798  -2.1183
    -1.0219  -0.7439  -0.6545   0.0285   0.3085   0.8408   0.9455   1.8066
     2.5645   2.6502   2.7936   2.9006   3.3173   3.4209   3.5661   3.6929
     3.9434   3.9786   4.3530   4.4241   4.5270   4.6536   4.7300   5.8986
     7.0738   7.7573   7.9952   8.1185   8.2297   8.4389

     occupation numbers 
     1.0000   1.0000   1.0000   1.0000   1.0000   1.0000   1.0000   1.0000
     1.0000   1.0000   1.0000   1.0000   1.0000   1.0000   1.0000   1.0000
     1.0000   1.0000   1.0000   1.0000   1.0000   1.0000   1.0000   1.0000
     1.0000   1.0000   1.0000   1.0000   1.0000   1.0000   1.0000   0.9989
     0.0000   0.0000   0.0000   0.0000   0.0000   0.0000

          k =-0.3536 0.3536 0.0000 (  7592 PWs)   bands (ev):

    -5.3375  -4.3242  -4.2621  -3.3691  -3.1958  -2.9216  -2.8504  -1.9932
    -1.1502  -0.6509  -0.5965   0.1593   0.3448   0.7802   0.9302   1.7701
     2.4679   2.5681   2.7818   2.8476   3.2577   3.3451   3.4554   3.8020
     3.9791   4.0495   4.2840   4.3885   4.6064   4.6437   4.8379   5.9295
     7.2937   7.8139   8.0327   8.1817   8.2538   8.4472

     occupation numbers 
     1.0000   1.0000   1.0000   1.0000   1.0000   1.0000   1.0000   1.0000
     1.0000   1.0000   1.0000   1.0000   1.0000   1.0000   1.0000   1.0000
     1.0000   1.0000   1.0000   1.0000   1.0000   1.0000   1.0000   1.0000
     1.0000   1.0000   1.0000   1.0000   1.0000   1.0000   1.0000   0.9978
     0.0000   0.0000   0.0000   0.0000   0.0000   0.0000

          k = 0.0000-0.7071 0.0000 (  7528 PWs)   bands (ev):

    -4.9603  -4.6273  -3.9350  -3.8245  -3.6869  -3.6294  -1.6754  -1.4986
    -1.4386  -1.3341   0.5886   0.6525   0.6955   0.7588   2.0797   2.1403
     2.1656   2.2193   2.2899   2.4058   2.4671   2.5768   2.7142   2.7573
     3.9533   4.1459   4.4251   4.4759   4.7533   4.9306   5.0204   5.0562
     7.0086   7.2038   8.2506   8.3372   8.4804   8.6050

     occupation numbers 
     1.0000   1.0000   1.0000   1.0000   1.0000   1.0000   1.0000   1.0000
     1.0000   1.0000   1.0000   1.0000   1.0000   1.0000   1.0000   1.0000
     1.0000   1.0000   1.0000   1.0000   1.0000   1.0000   1.0000   1.0000
     1.0000   1.0000   1.0000   1.0000   1.0000   1.0000   1.0000   1.0000
     0.0000   0.0000   0.0000   0.0000   0.0000   0.0000

          k = 0.0000 0.0000-0.7071 (  7528 PWs)   bands (ev):

    -4.8490  -4.7601  -4.0019  -3.8191  -3.6338  -3.6023  -1.6476  -1.5335
    -1.3891  -1.3192   0.4326   0.6458   0.7585   0.8025   2.0253   2.0463
     2.1319   2.2509   2.3592   2.4461   2.4588   2.4864   2.7277   2.7768
     4.1918   4.2591   4.2855   4.3816   4.7866   4.9164   5.0072   5.1024
     7.1415   7.1501   8.2296   8.3529   8.4286   8.5296

     occupation numbers 
     1.0000   1.0000   1.0000   1.0000   1.0000   1.0000   1.0000   1.0000
     1.0000   1.0000   1.0000   1.0000   1.0000   1.0000   1.0000   1.0000
     1.0000   1.0000   1.0000   1.0000   1.0000   1.0000   1.0000   1.0000
     1.0000   1.0000   1.0000   1.0000   1.0000   1.0000   1.0000   1.0000
     0.0000   0.0000   0.0000   0.0000   0.0000   0.0000

          k = 0.3536-0.7071 0.0000 (  7564 PWs)   bands (ev):

    -4.8079  -4.5458  -4.3871  -4.3333  -2.8920  -2.7244  -2.6462  -2.4515
    -0.5779  -0.4816  -0.2963  -0.2706   1.5289   1.6573   1.7780   1.9023
     1.9258   1.9512   2.0565   2.1386   3.1670   3.2778   3.3632   3.4439
     3.5728   3.6369   3.6726   3.8212   4.6167   4.7379   4.9070   4.9757
     8.2463   8.3393   8.4880   8.5922   8.7196   8.8858

     occupation numbers 
     1.0000   1.0000   1.0000   1.0000   1.0000   1.0000   1.0000   1.0000
     1.0000   1.0000   1.0000   1.0000   1.0000   1.0000   1.0000   1.0000
     1.0000   1.0000   1.0000   1.0000   1.0000   1.0000   1.0000   1.0000
     1.0000   1.0000   1.0000   1.0000   1.0000   1.0000   1.0000   1.0000
     0.0000   0.0000   0.0000   0.0000   0.0000   0.0000

          k = 0.7071 0.0000 0.3536 (  7564 PWs)   bands (ev):

    -4.7994  -4.5905  -4.3678  -4.3116  -2.8872  -2.6895  -2.6310  -2.5199
    -0.5570  -0.4981  -0.3517  -0.2171   1.5577   1.6342   1.7762   1.8619
     1.9141   1.9955   2.0527   2.1633   3.1819   3.3348   3.4115   3.4602
     3.5038   3.6099   3.6605   3.7882   4.5886   4.7792   4.8515   5.0032
     8.2155   8.3303   8.4894   8.5298   8.7463   8.8643

     occupation numbers 
     1.0000   1.0000   1.0000   1.0000   1.0000   1.0000   1.0000   1.0000
     1.0000   1.0000   1.0000   1.0000   1.0000   1.0000   1.0000   1.0000
     1.0000   1.0000   1.0000   1.0000   1.0000   1.0000   1.0000   1.0000
     1.0000   1.0000   1.0000   1.0000   1.0000   1.0000   1.0000   1.0000
     0.0000   0.0000   0.0000   0.0000   0.0000   0.0000

     the Fermi energy is     6.3395 ev

!    total energy              =    -152.86324429 Ry
     Harris-Foulkes estimate   =    -152.86324429 Ry
     estimated scf accuracy    <          4.3E-10 Ry

     The total energy is the sum of the following terms:

     one-electron contribution =      41.32002817 Ry
     hartree contribution      =       8.52395224 Ry
     xc contribution           =     -68.09007637 Ry
     ewald contribution        =    -134.61665399 Ry
     smearing contrib. (-TS)   =      -0.00049433 Ry

     convergence has been achieved in  13 iterations

     Forces acting on atoms (Ry/au):

     atom    1 type  1   force =   0.14236242E-01  0.19776101E-01 -0.28761668E-02
     atom    2 type  1   force =   0.22174683E-02 -0.15651401E-01 -0.26422783E-02
     atom    3 type  1   force =  -0.40504645E-01  0.46168915E-01 -0.11986546E-01
     atom    4 type  1   force =  -0.48410767E-02  0.23824900E-01  0.13734834E-02
     atom    5 type  1   force =  -0.24503071E-01 -0.33081634E-01  0.12587240E-01
     atom    6 type  1   force =   0.83777231E-01 -0.28047367E-01 -0.38090769E-01
     atom    7 type  1   force =  -0.27443367E-01 -0.14801016E-01  0.98664589E-02
     atom    8 type  1   force =   0.58900430E-01 -0.35255500E-01 -0.20484753E-01
     atom    9 type  1   force =   0.66048357E-02 -0.51730266E-01 -0.57572802E-02
     atom   10 type  1   force =  -0.18829673E-01  0.62612044E-01 -0.99289371E-02
     atom   11 type  1   force =   0.13016350E-01  0.89089042E-02  0.15823146E-01
     atom   12 type  1   force =  -0.22466792E-01 -0.48892065E-01 -0.14623049E-01
     atom   13 type  1   force =  -0.25182194E-01  0.18967060E-01  0.68538567E-01
     atom   14 type  1   force =  -0.40363312E-01  0.54953133E-01 -0.32563029E-01
     atom   15 type  1   force =   0.13487331E-01  0.56733535E-02  0.13787918E-01
     atom   16 type  1   force =   0.11894242E-01 -0.13425162E-01  0.16975994E-01
     The non-local contrib.  to forces
     atom    1 type  1   force =   0.29517097E-01  0.26499169E-01 -0.25518230E-01
     atom    2 type  1   force =  -0.26001657E-01 -0.70709338E-02  0.39811835E-02
     atom    3 type  1   force =  -0.45798459E-01  0.41080945E-01 -0.23113168E-01
     atom    4 type  1   force =  -0.12813382E-01  0.26529981E-01  0.48144067E-02
     atom    5 type  1   force =  -0.55765621E-02 -0.51399532E-01 -0.62344563E-02
     atom    6 type  1   force =   0.89997482E-01 -0.28708159E-01 -0.29373497E-01
     atom    7 type  1   force =  -0.11735901E-01 -0.36962753E-01  0.15816029E-01
     atom    8 type  1   force =   0.61715622E-01 -0.33684424E-01 -0.11064875E-01
     atom    9 type  1   force =   0.67830913E-02 -0.37955764E-01 -0.10443891E-01
     atom   10 type  1   force =  -0.15076985E-01  0.56666581E-01  0.45876447E-02
     atom   11 type  1   force =   0.11127527E-01  0.17450587E-01  0.27001943E-01
     atom   12 type  1   force =  -0.52049539E-02 -0.43681757E-01 -0.35375140E-01
     atom   13 type  1   force =  -0.14323524E-01  0.41486096E-01  0.85307411E-01
     atom   14 type  1   force =  -0.44822282E-01  0.30645402E-01 -0.32000385E-01
     atom   15 type  1   force =  -0.20015013E-01  0.65741983E-02  0.27568353E-01
     atom   16 type  1   force =   0.13081224E-01 -0.59126229E-02  0.85793124E-02
     The ionic contribution  to forces
     atom    1 type  1   force =   0.80562234E-02  0.46976236E-01 -0.77536536E-01
     atom    2 type  1   force =  -0.24074872E+00 -0.12496290E+00 -0.17331918E+00
     atom    3 type  1   force =  -0.26026312E+00  0.71020280E-01 -0.19481307E+00
     atom    4 type  1   force =  -0.25799562E-01  0.22344203E-01  0.12749627E+00
     atom    5 type  1   force =  -0.80957331E-01 -0.23689054E+00 -0.14223485E+00
     atom    6 type  1   force =   0.37885502E+00 -0.18221154E+00 -0.15866566E+00
     atom    7 type  1   force =   0.26545329E+00 -0.11853729E+00  0.24036866E+00
     atom    8 type  1   force =   0.23291951E+00 -0.22813685E-01  0.76611018E-01
     atom    9 type  1   force =   0.18965482E+00  0.36355900E-01 -0.30974804E-01
     atom   10 type  1   force =   0.14236659E+00  0.45750350E+00  0.16067013E+00
     atom   11 type  1   force =   0.71408161E-02  0.19086486E+00 -0.17952583E-01
     atom   12 type  1   force =  -0.12663018E+00 -0.69014506E-01 -0.30493927E+00
     atom   13 type  1   force =   0.53167860E-01  0.32062253E-01  0.29541702E+00
     atom   14 type  1   force =  -0.19469057E+00 -0.13458762E-01  0.27094327E-01
     atom   15 type  1   force =  -0.31347226E+00 -0.31675631E-01  0.88259975E-01
     atom   16 type  1   force =  -0.35052393E-01 -0.57562380E-01  0.84518566E-01
     The local contribution  to forces
     atom    1 type  1   force =  -0.21339465E-01 -0.51908968E-01  0.97722004E-01
     atom    2 type  1   force =   0.26557323E+00  0.11565266E+00  0.16661228E+00
     atom    3 type  1   force =   0.26112745E+00 -0.62451875E-01  0.20358090E+00
     atom    4 type  1   force =   0.32591982E-01 -0.23585134E-01 -0.12979585E+00
     atom    5 type  1   force =   0.61303361E-01  0.25043585E+00  0.15971045E+00
     atom    6 type  1   force =  -0.37674087E+00  0.18006545E+00  0.14672572E+00
     atom    7 type  1   force =  -0.28110812E+00  0.13729318E+00 -0.24394140E+00
     atom    8 type  1   force =  -0.22984746E+00  0.19131626E-01 -0.86066647E-01
     atom    9 type  1   force =  -0.18766495E+00 -0.52704955E-01  0.35158947E-01
     atom   10 type  1   force =  -0.14628205E+00 -0.44569259E+00 -0.17387352E+00
     atom   11 type  1   force =  -0.42662459E-02 -0.19737674E+00  0.86160241E-02
     atom   12 type  1   force =   0.10915247E+00  0.60539743E-01  0.32131343E+00
     atom   13 type  1   force =  -0.64910112E-01 -0.51345377E-01 -0.30439812E+00
     atom   14 type  1   force =   0.19490958E+00  0.39580799E-01 -0.30054372E-01
     atom   15 type  1   force =   0.34324086E+00  0.31435519E-01 -0.99283608E-01
     atom   16 type  1   force =   0.34420770E-01  0.49480170E-01 -0.76028547E-01
     The core correction contribution to forces
     atom    1 type  1   force =  -0.19980191E-02 -0.17930371E-02  0.24572852E-02
     atom    2 type  1   force =   0.33975772E-02  0.73149847E-03  0.87014507E-04
     atom    3 type  1   force =   0.44310963E-02 -0.34786232E-02  0.23628341E-02
     atom    4 type  1   force =   0.11767975E-02 -0.14673722E-02 -0.11388599E-02
     atom    5 type  1   force =   0.72592146E-03  0.47763156E-02  0.13465800E-02
     atom    6 type  1   force =  -0.83356940E-02  0.28079110E-02  0.32177728E-02
     atom    7 type  1   force =  -0.56095412E-04  0.34056775E-02 -0.23784391E-02
     atom    8 type  1   force =  -0.58874833E-02  0.21139451E-02  0.37832146E-04
     atom    9 type  1   force =  -0.21629186E-02  0.25716768E-02  0.50411982E-03
     atom   10 type  1   force =   0.16623043E-03 -0.58667644E-02 -0.13144393E-02
     atom   11 type  1   force =  -0.98372904E-03 -0.20343748E-02 -0.18424924E-02
     atom   12 type  1   force =   0.21903714E-03  0.32613153E-02  0.43806276E-02
     atom   13 type  1   force =   0.88044626E-03 -0.32353941E-02 -0.77910029E-02
     atom   14 type  1   force =   0.42401129E-02 -0.18111259E-02  0.23956136E-02
     atom   15 type  1   force =   0.37336488E-02 -0.65742008E-03 -0.27583975E-02
     atom   16 type  1   force =  -0.55916168E-03  0.56835229E-03 -0.96256904E-04
     The Hubbard contrib.    to forces
     atom    1 type  1   force =   0.00000000E+00  0.00000000E+00  0.00000000E+00
     atom    2 type  1   force =   0.00000000E+00  0.00000000E+00  0.00000000E+00
     atom    3 type  1   force =   0.00000000E+00  0.00000000E+00  0.00000000E+00
     atom    4 type  1   force =   0.00000000E+00  0.00000000E+00  0.00000000E+00
     atom    5 type  1   force =   0.00000000E+00  0.00000000E+00  0.00000000E+00
     atom    6 type  1   force =   0.00000000E+00  0.00000000E+00  0.00000000E+00
     atom    7 type  1   force =   0.00000000E+00  0.00000000E+00  0.00000000E+00
     atom    8 type  1   force =   0.00000000E+00  0.00000000E+00  0.00000000E+00
     atom    9 type  1   force =   0.00000000E+00  0.00000000E+00  0.00000000E+00
     atom   10 type  1   force =   0.00000000E+00  0.00000000E+00  0.00000000E+00
     atom   11 type  1   force =   0.00000000E+00  0.00000000E+00  0.00000000E+00
     atom   12 type  1   force =   0.00000000E+00  0.00000000E+00  0.00000000E+00
     atom   13 type  1   force =   0.00000000E+00  0.00000000E+00  0.00000000E+00
     atom   14 type  1   force =   0.00000000E+00  0.00000000E+00  0.00000000E+00
     atom   15 type  1   force =   0.00000000E+00  0.00000000E+00  0.00000000E+00
     atom   16 type  1   force =   0.00000000E+00  0.00000000E+00  0.00000000E+00
     The SCF correction term to forces
     atom    1 type  1   force =   0.51775342E-06  0.26685671E-05 -0.68036940E-06
     atom    2 type  1   force =  -0.28584515E-05 -0.17556911E-05 -0.35662302E-05
     atom    3 type  1   force =  -0.14977511E-05 -0.18463050E-05 -0.40330080E-05
     atom    4 type  1   force =   0.32005575E-05  0.31887186E-05 -0.24680112E-05
     atom    5 type  1   force =   0.16512298E-05 -0.37629334E-05 -0.47217097E-06
     atom    6 type  1   force =   0.14105544E-05 -0.10616650E-05  0.49071894E-05
     atom    7 type  1   force =   0.35689023E-05  0.13633263E-06  0.16264086E-05
     atom    8 type  1   force =   0.34711600E-06 -0.29965249E-05 -0.20721400E-05
     atom    9 type  1   force =  -0.50942663E-05  0.28427572E-05 -0.16423186E-05
     atom   10 type  1   force =  -0.33390444E-05  0.12791399E-05  0.12556554E-05
     atom   11 type  1   force =  -0.19052114E-05  0.45365628E-05  0.26358777E-06
     atom   12 type  1   force =  -0.30519500E-05  0.31059365E-05 -0.26857766E-05
     atom   13 type  1   force =   0.32470149E-05 -0.55170304E-06  0.32692607E-05
     atom   14 type  1   force =  -0.39899169E-07 -0.32143959E-05  0.17965362E-05
     atom   15 type  1   force =   0.20666598E-06 -0.33458220E-05  0.16053045E-05
     atom   16 type  1   force =   0.39143619E-05  0.12849483E-05  0.29288806E-05

     Total force =     0.214074     Total SCF correction =     0.000018


     entering subroutine stress ...

          total   stress  (Ry/bohr**3)                   (kbar)     P=   -6.99
  -0.0000418160  -0.0000590906   0.0000129992         -6.15     -8.69      1.91
  -0.0000590906  -0.0000774826   0.0000539343         -8.69    -11.40      7.93
   0.0000129992   0.0000539343  -0.0000232077          1.91      7.93     -3.41

     kinetic stress (kbar)   2179.14      3.55     -1.84
                                3.55   2179.15     -4.52
                               -1.84     -4.52   2180.12

     local   stress (kbar)   -277.97     56.08    -13.33
                               56.08   -250.36    -54.16
                              -13.33    -54.16   -287.36

     nonloc. stress (kbar)   1937.13     -6.49      2.15
                               -6.49   1932.94      7.33
                                2.15      7.33   1936.86

     hartree stress (kbar)    193.32     -6.96      0.29
                               -6.96    190.13      5.33
                                0.29      5.33    196.35

     exc-cor stress (kbar)    996.06     -0.07      0.03
                               -0.07    996.02      0.08
                                0.03      0.08    996.06

     corecor stress (kbar)  -1987.49      0.76     -0.25
                                0.76  -1986.98     -0.86
                               -0.25     -0.86  -1987.45

     ewald   stress (kbar)  -3046.33    -55.56     14.86
                              -55.56  -3072.31     54.73
                               14.86     54.73  -3037.99

     hubbard stress (kbar)      0.00      0.00      0.00
                                0.00      0.00      0.00
                                0.00      0.00      0.00

     london  stress (kbar)      0.00      0.00      0.00
                                0.00      0.00      0.00
                                0.00      0.00      0.00

     XDM     stress (kbar)      0.00      0.00      0.00
                                0.00      0.00      0.00
                                0.00      0.00      0.00

     dft-nl  stress (kbar)      0.00      0.00      0.00
                                0.00      0.00      0.00
                                0.00      0.00      0.00



     Writing output data file Si_diamond.scf.in.super.222.replace3143.save

     init_run     :      8.05s CPU      7.85s WALL (       1 calls)
     electrons    :    259.08s CPU    248.70s WALL (       1 calls)
     forces       :      3.70s CPU      2.96s WALL (       1 calls)
     stress       :      4.76s CPU      4.72s WALL (       1 calls)

     Called by init_run:
     wfcinit      :      7.62s CPU      7.39s WALL (       1 calls)
     potinit      :      0.06s CPU      0.07s WALL (       1 calls)

     Called by electrons:
     c_bands      :    222.75s CPU    213.99s WALL (      14 calls)
     sum_band     :     33.07s CPU     31.34s WALL (      14 calls)
     v_of_rho     :      0.54s CPU      0.59s WALL (      14 calls)
     v_h          :      0.02s CPU      0.03s WALL (      14 calls)
     v_xc         :      0.59s CPU      0.64s WALL (      16 calls)
     newd         :      2.46s CPU      2.46s WALL (      14 calls)
     mix_rho      :      0.42s CPU      0.45s WALL (      14 calls)

     Called by c_bands:
     init_us_2    :      3.18s CPU      3.35s WALL (    1116 calls)
     cegterg      :    212.96s CPU    203.85s WALL (     504 calls)

     Called by sum_band:
     sum_band:bec :      0.44s CPU      0.44s WALL (     504 calls)
     addusdens    :      2.94s CPU      2.95s WALL (      14 calls)

     Called by *egterg:
     h_psi        :    135.38s CPU    135.22s WALL (    1971 calls)
     s_psi        :     19.83s CPU     13.85s WALL (    1971 calls)
     g_psi        :      0.21s CPU      0.23s WALL (    1431 calls)
     cdiaghg      :     21.11s CPU     21.42s WALL (    1899 calls)
     cegterg:over :     18.97s CPU     17.69s WALL (    1431 calls)
     cegterg:upda :      6.78s CPU      5.04s WALL (    1431 calls)
     cegterg:last :      4.21s CPU      3.04s WALL (     537 calls)

     Called by h_psi:
     h_psi:vloc   :     83.79s CPU     95.75s WALL (    1971 calls)
     h_psi:vnl    :     51.50s CPU     39.31s WALL (    1971 calls)
     add_vuspsi   :     22.10s CPU     15.50s WALL (    1971 calls)

     General routines
     calbec       :     41.67s CPU     33.63s WALL (    2547 calls)
     fft          :      0.63s CPU      0.67s WALL (     249 calls)
     ffts         :      0.32s CPU      0.32s WALL (     242 calls)
     fftw         :     94.49s CPU    106.43s WALL (  118954 calls)
     interpolate  :      0.11s CPU      0.13s WALL (      28 calls)

     Parallel routines
     fft_scatter  :     51.59s CPU     58.79s WALL (  119445 calls)

     PWSCF        :  4m36.74s CPU     4m25.73s WALL


   This run was terminated on:  14:47:37  15Mar2018            

=------------------------------------------------------------------------------=
   JOB DONE.
=------------------------------------------------------------------------------=
