
     Program PWSCF v.5.1 starts on 14Mar2018 at 10:21:36 

     This program is part of the open-source Quantum ESPRESSO suite
     for quantum simulation of materials; please cite
         "P. Giannozzi et al., J. Phys.:Condens. Matter 21 395502 (2009);
          URL http://www.quantum-espresso.org", 
     in publications or presentations arising from this work. More details at
     http://www.quantum-espresso.org/quote

     Parallel version (MPI), running on    16 processors
     R & G space division:  proc/nbgrp/npool/nimage =      16
     Waiting for input...
     Reading input from standard input
Warning: card &IONS ignored
Warning: card   ION_DYNAMICS='BFGS', ignored
Warning: card / ignored
Warning: card &CELL ignored
Warning: card  CELL_DYNAMICS = 'BFGS' ignored
Warning: card / ignored

     Current dimensions of program PWSCF are:
     Max number of different atomic species (ntypx) = 10
     Max number of k-points (npk) =  40000
     Max angular momentum in pseudopotentials (lmaxx) =  3
 kfg - two_fermi_energies  F

     Subspace diagonalization in iterative solution of the eigenvalue problem:
     a serial algorithm will be used


     Parallelization info
     --------------------
     sticks:   dense  smooth     PW     G-vecs:    dense   smooth      PW
     Min         181     128     35                 6459     3770     554
     Max         182     129     38                 6463     3791     555
     Sum        2905    2053    571               103379    60495    8873



     bravais-lattice index     =            0
     lattice parameter (alat)  =    14.515605984  a.u.
     unit-cell volume          =    2162.6713 (a.u.)^3
     number of atoms/cell      =           16
     number of atomic types    =            1
     number of electrons       =        64.00
     number of Kohn-Sham states=           38
     kinetic-energy cutoff     =      35.0000  Ry
     charge density cutoff     =     200.0000  Ry
     convergence threshold     =      1.0E-09
     mixing beta               =       0.3000
     number of iterations used =            8  local-TF  mixing
     Exchange-correlation      = SLA  PW   PSX  PSC ( 1  4 10  8 0)
     A smooth kinetic-energy cutoff is imposed at      34.5000 Ry
     height of the smooth step-function =             800.0000 Ry
     width of the smooth step-function  =               1.0000 Ry


     celldm(1)=  14.515606  celldm(2)=   0.000000  celldm(3)=   0.000000
     celldm(4)=   0.000000  celldm(5)=   0.000000  celldm(6)=   0.000000

     crystal axes: (cart. coord. in units of alat)
               a(1) = (  -0.000000000000   0.707106781187   0.707106781187 )  
               a(2) = (   0.707106781187  -0.000000000000   0.707106781187 )  
               a(3) = (   0.707106781187   0.707106781187   0.000000000000 )  

     reciprocal axes: (cart. coord. in units 2 pi/alat)
               b(1) = ( -0.707107  0.707107  0.707107 )  
               b(2) = (  0.707107 -0.707107  0.707107 )  
               b(3) = (  0.707107  0.707107 -0.707107 )  


     PseudoPot. # 1 for Si read from file:
     /users/kfg/psuedo/gbrv_1.5/si.pbesol.UPF
     MD5 check sum: ef58ba74faed4df802eb8a9742fc00a8
     Pseudo is Ultrasoft + core correction, Zval =  4.0
     Generated by new atomic code, or converted to UPF format
     Using radial grid of  899 points,  6 beta functions with: 
                l(1) =   0
                l(2) =   0
                l(3) =   1
                l(4) =   1
                l(5) =   2
                l(6) =   2
     Q(r) pseudized with  8 coefficients,  rinner =    0.900   0.900   0.900
                                                       0.900   0.900

     atomic species   valence    mass     pseudopotential
        Si             4.00    28.08550     Si( 1.00)

     No symmetry found


                                    s                        frac. trans.

      isym =  1     identity                                     

 cryst.   s( 1) = (     1          0          0      )
                  (     0          1          0      )
                  (     0          0          1      )

 cart.    s( 1) = (  1.0000000  0.0000000  0.0000000 )
                  (  0.0000000  1.0000000  0.0000000 )
                  (  0.0000000  0.0000000  1.0000000 )


     point group C_1 (1)    
     there are  1 classes
     the character table:

       E    
A      1.00

     the symmetry operations in each class:
     E        1

   Cartesian axes

     site n.     atom                  positions (alat units)
         1           Si  tau(   1) = (    0.00799383788   -0.02123008868   -0.01352552374  )
         2           Si  tau(   2) = (    0.15598780398    0.18543007035    0.16809751942  )
         3           Si  tau(   3) = (    0.35083757185    0.36336244936    0.01123099902  )
         4           Si  tau(   4) = (    0.54341152325    0.51713400026    0.18191281669  )
         5           Si  tau(   5) = (    0.31511738507    0.00762188616    0.35309233294  )
         6           Si  tau(   6) = (    0.52454915704    0.15564849013    0.53327121454  )
         7           Si  tau(   7) = (    0.70851798814    0.34039182529    0.36222846180  )
         8           Si  tau(   8) = (    0.88338317070    0.52677430586    0.53947594335  )
         9           Si  tau(   9) = (   -0.02301267502    0.35456903063    0.36342244199  )
        10           Si  tau(  10) = (    0.18382494784    0.51421495120    0.52281632661  )
        11           Si  tau(  11) = (    0.35998628095    0.69473073945    0.34271265969  )
        12           Si  tau(  12) = (    0.52564570354    0.89620548496    0.53441530716  )
        13           Si  tau(  13) = (    0.37667622466    0.35432222611    0.69712732012  )
        14           Si  tau(  14) = (    0.53534609852    0.55833688142    0.88612769113  )
        15           Si  tau(  15) = (    0.72794042428    0.73208674404    0.70255815344  )
        16           Si  tau(  16) = (    0.89486236918    0.89146881534    0.88610414771  )

   Crystallographic axes

     site n.     atom                  positions (cryst. coord.)
         1           Si  tau(   1) = (   -0.03022842620    0.01110044709    0.00020454685  )
         2           Si  tau(   2) = (    0.13968172209    0.09804406968    0.12255599827  )
         3           Si  tau(   3) = (    0.01679794139   -0.00091491026    0.49707416255  )
         4           Si  tau(   4) = (    0.11005077157    0.14721280096    0.62128714517  )
         5           Si  tau(   5) = (    0.03224183054    0.46710613547   -0.02146285577  )
         6           Si  tau(   6) = (    0.11622752885    0.63793185517    0.10389267685  )
         7           Si  tau(   7) = (   -0.00417030441    0.51643870776    0.48555704025  )
         8           Si  tau(   8) = (    0.12930655127    0.63362764439    0.61566481639  )
         9           Si  tau(   9) = (    0.52396905769   -0.01001211135   -0.02253272577  )
        10           Si  tau(  10) = (    0.60330798167    0.13606595805    0.12390177629  )
        11           Si  tau(  11) = (    0.47903452224    0.00563436909    0.50346311169  )
        12           Si  tau(  12) = (    0.63991402193    0.11586335339    0.62751192957  )
        13           Si  tau(  13) = (    0.47713679144    0.50875011937    0.02395050617  )
        14           Si  tau(  14) = (    0.64284383788    0.61032996090    0.14676375220  )
        15           Si  tau(  15) = (    0.49971552530    0.49385174365    0.53561147696  )
        16           Si  tau(  16) = (    0.62417064675    0.62896985662    0.63655664233  )

     number of k points=    36  gaussian smearing, width (Ry)=  0.0150
                       cart. coord. in units 2pi/alat
        k(    1) = (   0.0000000   0.0000000   0.0000000), wk =   0.0312500
        k(    2) = (   0.1767767   0.1767767  -0.1767767), wk =   0.0625000
        k(    3) = (  -0.3535534  -0.3535534   0.3535534), wk =   0.0312500
        k(    4) = (   0.3535534   0.0000000   0.0000000), wk =   0.0625000
        k(    5) = (  -0.1767767  -0.5303301   0.5303301), wk =   0.0625000
        k(    6) = (   0.0000000  -0.3535534   0.3535534), wk =   0.0625000
        k(    7) = (  -0.7071068   0.0000000   0.0000000), wk =   0.0312500
        k(    8) = (  -0.7071068   0.3535534   0.0000000), wk =   0.0625000
        k(    9) = (  -0.1767767  -0.1767767  -0.1767767), wk =   0.0625000
        k(   10) = (  -0.1767767   0.1767767   0.1767767), wk =   0.0625000
        k(   11) = (   0.1767767  -0.1767767   0.1767767), wk =   0.0625000
        k(   12) = (   0.3535534   0.3535534   0.3535534), wk =   0.0312500
        k(   13) = (   0.3535534  -0.3535534  -0.3535534), wk =   0.0312500
        k(   14) = (  -0.3535534   0.3535534  -0.3535534), wk =   0.0312500
        k(   15) = (   0.0000000   0.3535534   0.0000000), wk =   0.0625000
        k(   16) = (   0.0000000   0.0000000   0.3535534), wk =   0.0625000
        k(   17) = (   0.1767767   0.5303301   0.5303301), wk =   0.0625000
        k(   18) = (   0.1767767  -0.5303301  -0.5303301), wk =   0.0625000
        k(   19) = (  -0.1767767   0.5303301  -0.5303301), wk =   0.0625000
        k(   20) = (  -0.5303301  -0.1767767  -0.5303301), wk =   0.0625000
        k(   21) = (   0.5303301   0.1767767  -0.5303301), wk =   0.0625000
        k(   22) = (  -0.5303301   0.1767767   0.5303301), wk =   0.0625000
        k(   23) = (   0.5303301  -0.1767767   0.5303301), wk =   0.0625000
        k(   24) = (   0.5303301   0.5303301  -0.1767767), wk =   0.0625000
        k(   25) = (  -0.5303301   0.5303301   0.1767767), wk =   0.0625000
        k(   26) = (   0.5303301  -0.5303301   0.1767767), wk =   0.0625000
        k(   27) = (  -0.5303301  -0.5303301  -0.1767767), wk =   0.0625000
        k(   28) = (   0.0000000   0.3535534   0.3535534), wk =   0.0625000
        k(   29) = (  -0.3535534   0.0000000  -0.3535534), wk =   0.0625000
        k(   30) = (   0.3535534   0.0000000  -0.3535534), wk =   0.0625000
        k(   31) = (   0.3535534   0.3535534   0.0000000), wk =   0.0625000
        k(   32) = (  -0.3535534   0.3535534   0.0000000), wk =   0.0625000
        k(   33) = (   0.0000000  -0.7071068   0.0000000), wk =   0.0312500
        k(   34) = (   0.0000000   0.0000000  -0.7071068), wk =   0.0312500
        k(   35) = (   0.3535534  -0.7071068   0.0000000), wk =   0.0625000
        k(   36) = (   0.7071068   0.0000000   0.3535534), wk =   0.0625000

                       cryst. coord.
        k(    1) = (   0.0000000   0.0000000   0.0000000), wk =   0.0312500
        k(    2) = (   0.0000000   0.0000000   0.2500000), wk =   0.0625000
        k(    3) = (   0.0000000   0.0000000  -0.5000000), wk =   0.0312500
        k(    4) = (  -0.0000000   0.2500000   0.2500000), wk =   0.0625000
        k(    5) = (   0.0000000   0.2500000  -0.5000000), wk =   0.0625000
        k(    6) = (   0.0000000   0.2500000  -0.2500000), wk =   0.0625000
        k(    7) = (   0.0000000  -0.5000000  -0.5000000), wk =   0.0312500
        k(    8) = (   0.2500000  -0.5000000  -0.2500000), wk =   0.0625000
        k(    9) = (  -0.2500000  -0.2500000  -0.2500000), wk =   0.0625000
        k(   10) = (   0.2500000   0.0000000   0.0000000), wk =   0.0625000
        k(   11) = (   0.0000000   0.2500000   0.0000000), wk =   0.0625000
        k(   12) = (   0.5000000   0.5000000   0.5000000), wk =   0.0312500
        k(   13) = (  -0.5000000   0.0000000  -0.0000000), wk =   0.0312500
        k(   14) = (   0.0000000  -0.5000000  -0.0000000), wk =   0.0312500
        k(   15) = (   0.2500000  -0.0000000   0.2500000), wk =   0.0625000
        k(   16) = (   0.2500000   0.2500000   0.0000000), wk =   0.0625000
        k(   17) = (   0.7500000   0.5000000   0.5000000), wk =   0.0625000
        k(   18) = (  -0.7500000  -0.2500000  -0.2500000), wk =   0.0625000
        k(   19) = (   0.0000000  -0.5000000   0.2500000), wk =   0.0625000
        k(   20) = (  -0.5000000  -0.7500000  -0.5000000), wk =   0.0625000
        k(   21) = (  -0.2500000   0.0000000   0.5000000), wk =   0.0625000
        k(   22) = (   0.5000000   0.0000000  -0.2500000), wk =   0.0625000
        k(   23) = (   0.2500000   0.7500000   0.2500000), wk =   0.0625000
        k(   24) = (   0.2500000   0.2500000   0.7500000), wk =   0.0625000
        k(   25) = (   0.5000000  -0.2500000   0.0000000), wk =   0.0625000
        k(   26) = (  -0.2500000   0.5000000   0.0000000), wk =   0.0625000
        k(   27) = (  -0.5000000  -0.5000000  -0.7500000), wk =   0.0625000
        k(   28) = (   0.5000000   0.2500000   0.2500000), wk =   0.0625000
        k(   29) = (  -0.2500000  -0.5000000  -0.2500000), wk =   0.0625000
        k(   30) = (  -0.2500000   0.0000000   0.2500000), wk =   0.0625000
        k(   31) = (   0.2500000   0.2500000   0.5000000), wk =   0.0625000
        k(   32) = (   0.2500000  -0.2500000   0.0000000), wk =   0.0625000
        k(   33) = (  -0.5000000   0.0000000  -0.5000000), wk =   0.0312500
        k(   34) = (  -0.5000000  -0.5000000  -0.0000000), wk =   0.0312500
        k(   35) = (  -0.5000000   0.2500000  -0.2500000), wk =   0.0625000
        k(   36) = (   0.2500000   0.7500000   0.5000000), wk =   0.0625000

     Dense  grid:   103379 G-vectors     FFT dimensions: (  72,  72,  72)

     Smooth grid:    60495 G-vectors     FFT dimensions: (  60,  60,  60)

     Largest allocated arrays     est. size (Mb)     dimensions
        Kohn-Sham Wavefunctions         0.28 Mb     (     486,   38)
        NL pseudopotentials             2.14 Mb     (     486,  288)
        Each V/rho on FFT grid          0.40 Mb     (   25920)
        Each G-vector array             0.05 Mb     (    6463)
        G-vector shells                 0.01 Mb     (     700)
     Largest temporary arrays     est. size (Mb)     dimensions
        Auxiliary wavefunctions         1.13 Mb     (     486,  152)
        Each subspace H/S matrix        0.35 Mb     (     152,  152)
        Each <psi_i|beta_j> matrix      0.17 Mb     (     288,   38)
        Arrays for rho mixing           3.16 Mb     (   25920,    8)

     Initial potential from superposition of free atoms

     starting charge   63.98963, renormalised to   64.00000
     Starting wfc are   64 randomized atomic wfcs

     total cpu time spent up to now is        8.8 secs

     Self-consistent Calculation

     iteration #  1     ecut=    35.00 Ry     beta=0.30
     Davidson diagonalization with overlap
     ethr =  1.00E-02,  avg # of iterations =  3.3

     Threshold (ethr) on eigenvalues was too large:
     Diagonalizing with lowered threshold

     Davidson diagonalization with overlap
     ethr =  6.89E-04,  avg # of iterations =  1.9

     total cpu time spent up to now is       44.6 secs

     total energy              =    -152.96158022 Ry
     Harris-Foulkes estimate   =    -153.00829791 Ry
     estimated scf accuracy    <       0.43459513 Ry

     iteration #  2     ecut=    35.00 Ry     beta=0.30
     Davidson diagonalization with overlap
     ethr =  6.79E-04,  avg # of iterations =  1.0

     total cpu time spent up to now is       57.7 secs

     total energy              =    -152.86885623 Ry
     Harris-Foulkes estimate   =    -152.96376569 Ry
     estimated scf accuracy    <       0.26997464 Ry

     iteration #  3     ecut=    35.00 Ry     beta=0.30
     Davidson diagonalization with overlap
     ethr =  4.22E-04,  avg # of iterations =  2.6

     total cpu time spent up to now is       72.8 secs

     total energy              =    -152.88774661 Ry
     Harris-Foulkes estimate   =    -152.88743777 Ry
     estimated scf accuracy    <       0.00320757 Ry

     iteration #  4     ecut=    35.00 Ry     beta=0.30
     Davidson diagonalization with overlap
     c_bands:  1 eigenvalues not converged
     c_bands:  1 eigenvalues not converged
     c_bands:  1 eigenvalues not converged
     c_bands:  1 eigenvalues not converged
     ethr =  5.01E-06,  avg # of iterations = 12.1

     total cpu time spent up to now is      111.0 secs

     total energy              =    -152.89009804 Ry
     Harris-Foulkes estimate   =    -152.88992899 Ry
     estimated scf accuracy    <       0.00147734 Ry

     iteration #  5     ecut=    35.00 Ry     beta=0.30
     Davidson diagonalization with overlap
     ethr =  2.31E-06,  avg # of iterations =  2.0

     total cpu time spent up to now is      125.2 secs

     total energy              =    -152.89020572 Ry
     Harris-Foulkes estimate   =    -152.89014046 Ry
     estimated scf accuracy    <       0.00035523 Ry

     iteration #  6     ecut=    35.00 Ry     beta=0.30
     Davidson diagonalization with overlap
     ethr =  5.55E-07,  avg # of iterations =  2.0

     total cpu time spent up to now is      141.6 secs

     total energy              =    -152.89024527 Ry
     Harris-Foulkes estimate   =    -152.89024650 Ry
     estimated scf accuracy    <       0.00001692 Ry

     iteration #  7     ecut=    35.00 Ry     beta=0.30
     Davidson diagonalization with overlap
     ethr =  2.64E-08,  avg # of iterations =  3.1

     total cpu time spent up to now is      159.1 secs

     total energy              =    -152.89024472 Ry
     Harris-Foulkes estimate   =    -152.89024777 Ry
     estimated scf accuracy    <       0.00001099 Ry

     iteration #  8     ecut=    35.00 Ry     beta=0.30
     Davidson diagonalization with overlap
     ethr =  1.72E-08,  avg # of iterations =  2.1

     total cpu time spent up to now is      176.5 secs

     total energy              =    -152.89024696 Ry
     Harris-Foulkes estimate   =    -152.89024726 Ry
     estimated scf accuracy    <       0.00000202 Ry

     iteration #  9     ecut=    35.00 Ry     beta=0.30
     Davidson diagonalization with overlap
     ethr =  3.15E-09,  avg # of iterations =  1.1

     total cpu time spent up to now is      189.7 secs

     total energy              =    -152.89024659 Ry
     Harris-Foulkes estimate   =    -152.89024702 Ry
     estimated scf accuracy    <       0.00000101 Ry

     iteration # 10     ecut=    35.00 Ry     beta=0.30
     Davidson diagonalization with overlap
     ethr =  1.58E-09,  avg # of iterations =  2.1

     total cpu time spent up to now is      207.3 secs

     total energy              =    -152.89024689 Ry
     Harris-Foulkes estimate   =    -152.89024690 Ry
     estimated scf accuracy    <       0.00000026 Ry

     iteration # 11     ecut=    35.00 Ry     beta=0.30
     Davidson diagonalization with overlap
     ethr =  4.13E-10,  avg # of iterations =  1.0

     total cpu time spent up to now is      220.5 secs

     total energy              =    -152.89024683 Ry
     Harris-Foulkes estimate   =    -152.89024689 Ry
     estimated scf accuracy    <       0.00000020 Ry

     iteration # 12     ecut=    35.00 Ry     beta=0.30
     Davidson diagonalization with overlap
     ethr =  3.14E-10,  avg # of iterations =  2.1

     total cpu time spent up to now is      237.3 secs

     total energy              =    -152.89024685 Ry
     Harris-Foulkes estimate   =    -152.89024685 Ry
     estimated scf accuracy    <          5.1E-09 Ry

     iteration # 13     ecut=    35.00 Ry     beta=0.30
     Davidson diagonalization with overlap
     ethr =  7.99E-12,  avg # of iterations =  2.9

     total cpu time spent up to now is      255.9 secs

     End of self-consistent calculation

          k = 0.0000 0.0000 0.0000 (  7631 PWs)   bands (ev):

    -5.8648  -3.6104  -3.5678  -3.4607  -3.4094  -1.8955  -1.8033  -1.7258
    -1.6981  -1.5432  -1.5007  -0.9499  -0.8172  -0.7694  -0.7109   3.2043
     3.2466   3.2705   3.2888   3.3062   3.3563   4.7600   4.8013   4.8555
     4.9124   4.9856   5.0364   5.0719   5.2005   6.0355   6.1084   6.2242
     6.5284   6.6378   6.7169   6.8001   6.8643   6.9129

     occupation numbers 
     1.0000   1.0000   1.0000   1.0000   1.0000   1.0000   1.0000   1.0000
     1.0000   1.0000   1.0000   1.0000   1.0000   1.0000   1.0000   1.0000
     1.0000   1.0000   1.0000   1.0000   1.0000   1.0000   1.0000   1.0000
     1.0000   1.0000   1.0000   1.0000   1.0000   0.9858   0.9540   0.8114
     0.1103   0.0237   0.0057   0.0009   0.0002   0.0001

          k = 0.1768 0.1768-0.1768 (  7564 PWs)   bands (ev):

    -5.6636  -4.1668  -3.4836  -3.4316  -3.3829  -2.6161  -2.5321  -2.3973
    -0.8908  -0.8025  -0.7192  -0.6388  -0.4893  -0.3956   0.2118   2.6083
     2.6643   2.7081   3.3605   3.4377   3.4755   3.7803   3.8813   3.9499
     4.4523   4.5923   4.6514   4.6949   4.9907   5.1802   5.7836   5.9990
     6.8306   6.8761   6.9665   7.6054   7.8798   7.9690

     occupation numbers 
     1.0000   1.0000   1.0000   1.0000   1.0000   1.0000   1.0000   1.0000
     1.0000   1.0000   1.0000   1.0000   1.0000   1.0000   1.0000   1.0000
     1.0000   1.0000   1.0000   1.0000   1.0000   1.0000   1.0000   1.0000
     1.0000   1.0000   1.0000   1.0000   1.0000   1.0000   1.0000   0.9927
     0.0005   0.0001   0.0000   0.0000   0.0000   0.0000

          k =-0.3536-0.3536 0.3536 (  7570 PWs)   bands (ev):

    -5.1702  -4.9532  -3.2995  -3.2632  -3.2030  -3.1070  -3.0031  -2.7773
    -0.4734  -0.3953  -0.3040  -0.2470  -0.0874   0.0338   2.0667   2.1833
     2.4043   2.4760   2.5307   2.6301   2.7052   2.8484   3.7589   3.7976
     3.9190   3.9873   4.1004   4.1617   5.2462   5.3399   5.3756   5.6869
     7.3271   7.3539   7.4689   7.5983   7.6096   7.7211

     occupation numbers 
     1.0000   1.0000   1.0000   1.0000   1.0000   1.0000   1.0000   1.0000
     1.0000   1.0000   1.0000   1.0000   1.0000   1.0000   1.0000   1.0000
     1.0000   1.0000   1.0000   1.0000   1.0000   1.0000   1.0000   1.0000
     1.0000   1.0000   1.0000   1.0000   1.0000   1.0000   1.0000   1.0000
     0.0000   0.0000   0.0000   0.0000   0.0000   0.0000

          k = 0.3536 0.0000 0.0000 (  7563 PWs)   bands (ev):

    -5.5946  -3.8259  -3.7206  -3.6693  -3.5719  -3.3294  -1.6913  -1.6323
    -1.6052  -1.4362  -0.4206  -0.3054  -0.2127  -0.1459   0.4982   2.6220
     2.6352   2.6820   2.7303   3.4547   3.5185   3.5864   3.7030   3.7385
     3.7646   4.7632   4.7976   4.8515   4.9663   5.0663   5.3861   5.4788
     6.6106   7.4150   7.8411   7.9242   7.9670   7.9931

     occupation numbers 
     1.0000   1.0000   1.0000   1.0000   1.0000   1.0000   1.0000   1.0000
     1.0000   1.0000   1.0000   1.0000   1.0000   1.0000   1.0000   1.0000
     1.0000   1.0000   1.0000   1.0000   1.0000   1.0000   1.0000   1.0000
     1.0000   1.0000   1.0000   1.0000   1.0000   1.0000   1.0000   1.0000
     0.0364   0.0000   0.0000   0.0000   0.0000   0.0000

          k =-0.1768-0.5303 0.5303 (  7554 PWs)   bands (ev):

    -5.1452  -4.5954  -4.0887  -3.6637  -3.5539  -2.9002  -2.3939  -2.2655
    -0.8389  -0.7481  -0.5356   0.2386   0.3643   1.2051   1.4693   1.9597
     2.0218   2.1660   2.7226   2.7906   3.0045   3.1663   3.2017   3.4426
     3.8088   3.8983   4.1870   4.2351   4.3620   4.8443   4.9336   5.5278
     7.3429   7.7842   8.1312   8.3318   8.4324   8.6985

     occupation numbers 
     1.0000   1.0000   1.0000   1.0000   1.0000   1.0000   1.0000   1.0000
     1.0000   1.0000   1.0000   1.0000   1.0000   1.0000   1.0000   1.0000
     1.0000   1.0000   1.0000   1.0000   1.0000   1.0000   1.0000   1.0000
     1.0000   1.0000   1.0000   1.0000   1.0000   1.0000   1.0000   1.0000
     0.0000   0.0000   0.0000   0.0000   0.0000   0.0000

          k = 0.0000-0.3536 0.3536 (  7592 PWs)   bands (ev):

    -5.3315  -4.3600  -4.2413  -3.3201  -3.2331  -2.9812  -2.8570  -2.0536
    -1.1741  -0.6481  -0.5892   0.1630   0.2534   0.7502   0.9418   1.7584
     2.5607   2.5988   2.7418   2.8277   3.2670   3.3065   3.4440   3.7428
     3.9663   4.0546   4.2755   4.3013   4.5100   4.6473   4.7669   5.9798
     7.1302   7.8905   7.9416   8.2491   8.3162   8.5842

     occupation numbers 
     1.0000   1.0000   1.0000   1.0000   1.0000   1.0000   1.0000   1.0000
     1.0000   1.0000   1.0000   1.0000   1.0000   1.0000   1.0000   1.0000
     1.0000   1.0000   1.0000   1.0000   1.0000   1.0000   1.0000   1.0000
     1.0000   1.0000   1.0000   1.0000   1.0000   1.0000   1.0000   0.9950
     0.0000   0.0000   0.0000   0.0000   0.0000   0.0000

          k =-0.7071 0.0000 0.0000 (  7528 PWs)   bands (ev):

    -4.8448  -4.7556  -3.9398  -3.8052  -3.7398  -3.6491  -1.5981  -1.5390
    -1.5143  -1.3313   0.5331   0.6092   0.6615   0.7366   2.0443   2.1287
     2.1978   2.2355   2.3310   2.3779   2.4419   2.4593   2.6920   2.8307
     4.1253   4.1701   4.2842   4.3576   4.7764   4.8434   4.9171   5.0714
     7.0965   7.1697   8.3484   8.3935   8.4446   8.5089

     occupation numbers 
     1.0000   1.0000   1.0000   1.0000   1.0000   1.0000   1.0000   1.0000
     1.0000   1.0000   1.0000   1.0000   1.0000   1.0000   1.0000   1.0000
     1.0000   1.0000   1.0000   1.0000   1.0000   1.0000   1.0000   1.0000
     1.0000   1.0000   1.0000   1.0000   1.0000   1.0000   1.0000   1.0000
     0.0000   0.0000   0.0000   0.0000   0.0000   0.0000

          k =-0.7071 0.3536 0.0000 (  7564 PWs)   bands (ev):

    -4.7007  -4.5979  -4.5079  -4.2930  -2.8308  -2.8206  -2.6918  -2.4505
    -0.5165  -0.4746  -0.3815  -0.3444   1.5904   1.6872   1.7639   1.7966
     1.8933   1.9359   1.9787   2.2335   3.1884   3.2775   3.3811   3.4531
     3.5389   3.5949   3.6416   3.7084   4.6181   4.7223   4.8587   4.8977
     8.3331   8.4461   8.4796   8.5339   8.7026   8.7925

     occupation numbers 
     1.0000   1.0000   1.0000   1.0000   1.0000   1.0000   1.0000   1.0000
     1.0000   1.0000   1.0000   1.0000   1.0000   1.0000   1.0000   1.0000
     1.0000   1.0000   1.0000   1.0000   1.0000   1.0000   1.0000   1.0000
     1.0000   1.0000   1.0000   1.0000   1.0000   1.0000   1.0000   1.0000
     0.0000   0.0000   0.0000   0.0000   0.0000   0.0000

          k =-0.1768-0.1768-0.1768 (  7564 PWs)   bands (ev):

    -5.6642  -4.1828  -3.5100  -3.4009  -3.3659  -2.6051  -2.4967  -2.3913
    -0.9506  -0.8747  -0.7365  -0.6625  -0.4684  -0.3853   0.2617   2.6295
     2.6756   2.7283   3.3824   3.4151   3.4709   3.8247   3.9107   4.0448
     4.4874   4.5141   4.6037   4.7021   5.0297   5.1082   5.8308   5.9448
     6.7772   6.8627   6.9571   7.6254   7.8830   7.9182

     occupation numbers 
     1.0000   1.0000   1.0000   1.0000   1.0000   1.0000   1.0000   1.0000
     1.0000   1.0000   1.0000   1.0000   1.0000   1.0000   1.0000   1.0000
     1.0000   1.0000   1.0000   1.0000   1.0000   1.0000   1.0000   1.0000
     1.0000   1.0000   1.0000   1.0000   1.0000   1.0000   0.9998   0.9976
     0.0016   0.0002   0.0000   0.0000   0.0000   0.0000

          k =-0.1768 0.1768 0.1768 (  7564 PWs)   bands (ev):

    -5.6620  -4.1560  -3.5334  -3.4496  -3.3380  -2.6654  -2.5168  -2.3507
    -0.9279  -0.7905  -0.7351  -0.5658  -0.4707  -0.4106   0.1970   2.5907
     2.6269   2.7191   3.4016   3.4300   3.4377   3.7246   3.8527   3.9304
     4.4867   4.6010   4.6718   4.7301   5.0104   5.1662   5.8644   5.9244
     6.8331   6.9197   7.0173   7.5860   7.8805   7.9299

     occupation numbers 
     1.0000   1.0000   1.0000   1.0000   1.0000   1.0000   1.0000   1.0000
     1.0000   1.0000   1.0000   1.0000   1.0000   1.0000   1.0000   1.0000
     1.0000   1.0000   1.0000   1.0000   1.0000   1.0000   1.0000   1.0000
     1.0000   1.0000   1.0000   1.0000   1.0000   1.0000   0.9996   0.9985
     0.0004   0.0000   0.0000   0.0000   0.0000   0.0000

          k = 0.1768-0.1768 0.1768 (  7564 PWs)   bands (ev):

    -5.6613  -4.1647  -3.5305  -3.4308  -3.3423  -2.6494  -2.5346  -2.3681
    -0.9518  -0.8331  -0.7061  -0.5544  -0.4397  -0.3456   0.1441   2.5772
     2.6171   2.6905   3.4077   3.4367   3.4663   3.7686   3.8230   3.9427
     4.4236   4.6021   4.6390   4.7519   5.0381   5.1865   5.8951   5.9466
     6.7579   6.9051   7.0231   7.6379   7.8640   7.9279

     occupation numbers 
     1.0000   1.0000   1.0000   1.0000   1.0000   1.0000   1.0000   1.0000
     1.0000   1.0000   1.0000   1.0000   1.0000   1.0000   1.0000   1.0000
     1.0000   1.0000   1.0000   1.0000   1.0000   1.0000   1.0000   1.0000
     1.0000   1.0000   1.0000   1.0000   1.0000   1.0000   0.9992   0.9975
     0.0024   0.0001   0.0000   0.0000   0.0000   0.0000

          k = 0.3536 0.3536 0.3536 (  7570 PWs)   bands (ev):

    -5.1668  -4.9678  -3.3271  -3.3090  -3.1804  -3.0455  -2.9571  -2.7510
    -0.5794  -0.5013  -0.3024  -0.2698  -0.0780   0.0329   2.0777   2.2439
     2.4331   2.5143   2.6138   2.6515   2.7955   2.9369   3.7582   3.8077
     3.8775   3.9920   4.0315   4.1004   5.1424   5.3204   5.5010   5.6818
     7.2636   7.2985   7.4281   7.5281   7.6530   7.6891

     occupation numbers 
     1.0000   1.0000   1.0000   1.0000   1.0000   1.0000   1.0000   1.0000
     1.0000   1.0000   1.0000   1.0000   1.0000   1.0000   1.0000   1.0000
     1.0000   1.0000   1.0000   1.0000   1.0000   1.0000   1.0000   1.0000
     1.0000   1.0000   1.0000   1.0000   1.0000   1.0000   1.0000   1.0000
     0.0000   0.0000   0.0000   0.0000   0.0000   0.0000

          k = 0.3536-0.3536-0.3536 (  7570 PWs)   bands (ev):

    -5.1481  -4.9714  -3.3192  -3.3027  -3.2014  -3.1182  -2.9834  -2.7397
    -0.5397  -0.3468  -0.2933  -0.1768  -0.0569   0.0308   2.0966   2.1303
     2.3684   2.4597   2.4911   2.5317   2.6710   2.8809   3.7388   3.8086
     3.8801   3.9936   4.0914   4.2817   5.1735   5.3866   5.5501   5.5951
     7.2888   7.3702   7.5586   7.6162   7.6450   7.7439

     occupation numbers 
     1.0000   1.0000   1.0000   1.0000   1.0000   1.0000   1.0000   1.0000
     1.0000   1.0000   1.0000   1.0000   1.0000   1.0000   1.0000   1.0000
     1.0000   1.0000   1.0000   1.0000   1.0000   1.0000   1.0000   1.0000
     1.0000   1.0000   1.0000   1.0000   1.0000   1.0000   1.0000   1.0000
     0.0000   0.0000   0.0000   0.0000   0.0000   0.0000

          k =-0.3536 0.3536-0.3536 (  7570 PWs)   bands (ev):

    -5.1257  -4.9989  -3.3586  -3.2639  -3.1464  -3.0924  -3.0246  -2.7826
    -0.5682  -0.4484  -0.2284  -0.1194  -0.0464   0.0973   2.0222   2.1053
     2.3799   2.4331   2.4835   2.5601   2.6443   2.8224   3.8338   3.9097
     3.9447   3.9902   4.0945   4.1228   5.1945   5.4718   5.5031   5.5924
     7.1727   7.2961   7.4983   7.6592   7.7706   7.8525

     occupation numbers 
     1.0000   1.0000   1.0000   1.0000   1.0000   1.0000   1.0000   1.0000
     1.0000   1.0000   1.0000   1.0000   1.0000   1.0000   1.0000   1.0000
     1.0000   1.0000   1.0000   1.0000   1.0000   1.0000   1.0000   1.0000
     1.0000   1.0000   1.0000   1.0000   1.0000   1.0000   1.0000   1.0000
     0.0000   0.0000   0.0000   0.0000   0.0000   0.0000

          k = 0.0000 0.3536 0.0000 (  7563 PWs)   bands (ev):

    -5.5947  -3.8090  -3.7501  -3.6633  -3.5834  -3.3002  -1.7042  -1.6491
    -1.5604  -1.5028  -0.3870  -0.2523  -0.2190  -0.1445   0.4606   2.6227
     2.6435   2.6858   2.7150   3.4053   3.5146   3.5974   3.6950   3.7524
     3.8240   4.6469   4.8312   4.8816   4.9704   5.0565   5.4221   5.4763
     6.6185   7.4280   7.8153   7.8959   7.9567   7.9985

     occupation numbers 
     1.0000   1.0000   1.0000   1.0000   1.0000   1.0000   1.0000   1.0000
     1.0000   1.0000   1.0000   1.0000   1.0000   1.0000   1.0000   1.0000
     1.0000   1.0000   1.0000   1.0000   1.0000   1.0000   1.0000   1.0000
     1.0000   1.0000   1.0000   1.0000   1.0000   1.0000   1.0000   1.0000
     0.0322   0.0000   0.0000   0.0000   0.0000   0.0000

          k = 0.0000 0.0000 0.3536 (  7563 PWs)   bands (ev):

    -5.5946  -3.8078  -3.7469  -3.6764  -3.5744  -3.2984  -1.7911  -1.6567
    -1.5014  -1.4425  -0.3918  -0.3450  -0.2345  -0.0694   0.4776   2.5839
     2.6452   2.7084   2.7458   3.4703   3.4988   3.5815   3.6352   3.6941
     3.8702   4.6916   4.8010   4.9147   4.9575   5.0258   5.3917   5.4505
     6.7188   7.4336   7.7351   7.8791   8.0027   8.0640

     occupation numbers 
     1.0000   1.0000   1.0000   1.0000   1.0000   1.0000   1.0000   1.0000
     1.0000   1.0000   1.0000   1.0000   1.0000   1.0000   1.0000   1.0000
     1.0000   1.0000   1.0000   1.0000   1.0000   1.0000   1.0000   1.0000
     1.0000   1.0000   1.0000   1.0000   1.0000   1.0000   1.0000   1.0000
     0.0055   0.0000   0.0000   0.0000   0.0000   0.0000

          k = 0.1768 0.5303 0.5303 (  7554 PWs)   bands (ev):

    -5.1444  -4.6119  -4.0783  -3.6615  -3.5417  -2.9029  -2.4014  -2.2217
    -0.8374  -0.8125  -0.5443   0.1985   0.3288   1.1974   1.5342   1.9657
     2.0335   2.1975   2.7511   2.8313   3.0414   3.1269   3.1783   3.5362
     3.7935   3.9024   4.1518   4.2499   4.3632   4.8590   4.9234   5.4143
     7.3190   7.8081   8.1242   8.3117   8.3599   8.7328

     occupation numbers 
     1.0000   1.0000   1.0000   1.0000   1.0000   1.0000   1.0000   1.0000
     1.0000   1.0000   1.0000   1.0000   1.0000   1.0000   1.0000   1.0000
     1.0000   1.0000   1.0000   1.0000   1.0000   1.0000   1.0000   1.0000
     1.0000   1.0000   1.0000   1.0000   1.0000   1.0000   1.0000   1.0000
     0.0000   0.0000   0.0000   0.0000   0.0000   0.0000

          k = 0.1768-0.5303-0.5303 (  7554 PWs)   bands (ev):

    -5.1356  -4.6127  -4.0777  -3.6653  -3.5516  -2.9291  -2.4044  -2.2385
    -0.8516  -0.7585  -0.4273   0.2162   0.3145   1.1802   1.5525   1.9789
     1.9885   2.1710   2.6218   2.7800   2.9284   3.1456   3.2308   3.4462
     3.8444   3.9018   4.1695   4.3113   4.4183   4.7922   5.0517   5.4026
     7.3333   7.7941   8.1421   8.3393   8.4500   8.7305

     occupation numbers 
     1.0000   1.0000   1.0000   1.0000   1.0000   1.0000   1.0000   1.0000
     1.0000   1.0000   1.0000   1.0000   1.0000   1.0000   1.0000   1.0000
     1.0000   1.0000   1.0000   1.0000   1.0000   1.0000   1.0000   1.0000
     1.0000   1.0000   1.0000   1.0000   1.0000   1.0000   1.0000   1.0000
     0.0000   0.0000   0.0000   0.0000   0.0000   0.0000

          k =-0.1768 0.5303-0.5303 (  7554 PWs)   bands (ev):

    -5.1318  -4.6221  -4.0706  -3.6674  -3.5554  -2.9148  -2.3920  -2.2621
    -0.8796  -0.7391  -0.4638   0.2497   0.3784   1.2678   1.4277   1.9002
     1.9958   2.1680   2.6633   2.7409   3.0302   3.1341   3.2174   3.4318
     3.8079   3.9456   4.1858   4.2826   4.3076   4.9087   4.9991   5.4902
     7.3363   7.7313   8.1383   8.3363   8.5060   8.7188

     occupation numbers 
     1.0000   1.0000   1.0000   1.0000   1.0000   1.0000   1.0000   1.0000
     1.0000   1.0000   1.0000   1.0000   1.0000   1.0000   1.0000   1.0000
     1.0000   1.0000   1.0000   1.0000   1.0000   1.0000   1.0000   1.0000
     1.0000   1.0000   1.0000   1.0000   1.0000   1.0000   1.0000   1.0000
     0.0000   0.0000   0.0000   0.0000   0.0000   0.0000

          k =-0.5303-0.1768-0.5303 (  7554 PWs)   bands (ev):

    -5.1463  -4.6034  -4.0965  -3.6422  -3.5500  -2.8938  -2.3325  -2.3052
    -0.8754  -0.8103  -0.5192   0.2691   0.3071   1.1740   1.5137   1.9702
     2.0492   2.2075   2.7352   2.8097   3.0458   3.1373   3.2084   3.4983
     3.7750   3.9113   4.1985   4.2466   4.3176   4.8484   4.9091   5.4875
     7.3149   7.7544   8.0847   8.3128   8.4071   8.6969

     occupation numbers 
     1.0000   1.0000   1.0000   1.0000   1.0000   1.0000   1.0000   1.0000
     1.0000   1.0000   1.0000   1.0000   1.0000   1.0000   1.0000   1.0000
     1.0000   1.0000   1.0000   1.0000   1.0000   1.0000   1.0000   1.0000
     1.0000   1.0000   1.0000   1.0000   1.0000   1.0000   1.0000   1.0000
     0.0000   0.0000   0.0000   0.0000   0.0000   0.0000

          k = 0.5303 0.1768-0.5303 (  7554 PWs)   bands (ev):

    -5.1453  -4.5982  -4.0815  -3.6582  -3.5646  -2.8970  -2.3972  -2.2610
    -0.9120  -0.7287  -0.4870   0.2589   0.3639   1.1693   1.5017   1.9591
     2.0527   2.1463   2.6731   2.7811   3.0097   3.1461   3.2273   3.4682
     3.8015   3.8997   4.1595   4.2764   4.3369   4.8626   4.9646   5.4736
     7.3410   7.8282   8.1521   8.3011   8.4559   8.6772

     occupation numbers 
     1.0000   1.0000   1.0000   1.0000   1.0000   1.0000   1.0000   1.0000
     1.0000   1.0000   1.0000   1.0000   1.0000   1.0000   1.0000   1.0000
     1.0000   1.0000   1.0000   1.0000   1.0000   1.0000   1.0000   1.0000
     1.0000   1.0000   1.0000   1.0000   1.0000   1.0000   1.0000   1.0000
     0.0000   0.0000   0.0000   0.0000   0.0000   0.0000

          k =-0.5303 0.1768 0.5303 (  7554 PWs)   bands (ev):

    -5.1367  -4.6116  -4.0713  -3.6639  -3.5702  -2.9096  -2.4041  -2.2407
    -0.8969  -0.7317  -0.4794   0.2879   0.3557   1.2055   1.4865   1.9579
     2.0050   2.0953   2.6798   2.7952   2.9866   3.1231   3.2223   3.4834
     3.7992   3.8787   4.1549   4.2984   4.3723   4.8534   5.0042   5.4653
     7.3548   7.8619   8.0982   8.3394   8.4619   8.6635

     occupation numbers 
     1.0000   1.0000   1.0000   1.0000   1.0000   1.0000   1.0000   1.0000
     1.0000   1.0000   1.0000   1.0000   1.0000   1.0000   1.0000   1.0000
     1.0000   1.0000   1.0000   1.0000   1.0000   1.0000   1.0000   1.0000
     1.0000   1.0000   1.0000   1.0000   1.0000   1.0000   1.0000   1.0000
     0.0000   0.0000   0.0000   0.0000   0.0000   0.0000

          k = 0.5303-0.1768 0.5303 (  7554 PWs)   bands (ev):

    -5.1324  -4.6194  -4.0879  -3.6372  -3.5557  -2.9305  -2.3646  -2.2980
    -0.8417  -0.8036  -0.4108   0.2699   0.3346   1.2707   1.4350   1.9237
     2.0278   2.1728   2.6436   2.6983   2.9388   3.1588   3.2440   3.3926
     3.8058   3.9739   4.2328   4.3062   4.3658   4.8214   5.0459   5.4469
     7.3401   7.7702   8.0823   8.3003   8.4684   8.6834

     occupation numbers 
     1.0000   1.0000   1.0000   1.0000   1.0000   1.0000   1.0000   1.0000
     1.0000   1.0000   1.0000   1.0000   1.0000   1.0000   1.0000   1.0000
     1.0000   1.0000   1.0000   1.0000   1.0000   1.0000   1.0000   1.0000
     1.0000   1.0000   1.0000   1.0000   1.0000   1.0000   1.0000   1.0000
     0.0000   0.0000   0.0000   0.0000   0.0000   0.0000

          k = 0.5303 0.5303-0.1768 (  7554 PWs)   bands (ev):

    -5.1433  -4.6077  -4.0665  -3.6672  -3.5491  -2.9294  -2.3841  -2.2653
    -0.8401  -0.7902  -0.4349   0.1962   0.3151   1.2364   1.5298   1.9494
     2.0043   2.2304   2.6767   2.7616   2.9566   3.1082   3.2009   3.4680
     3.8366   3.8723   4.2100   4.3025   4.3762   4.8116   5.0579   5.3426
     7.3938   7.8060   8.1635   8.2822   8.4237   8.6829

     occupation numbers 
     1.0000   1.0000   1.0000   1.0000   1.0000   1.0000   1.0000   1.0000
     1.0000   1.0000   1.0000   1.0000   1.0000   1.0000   1.0000   1.0000
     1.0000   1.0000   1.0000   1.0000   1.0000   1.0000   1.0000   1.0000
     1.0000   1.0000   1.0000   1.0000   1.0000   1.0000   1.0000   1.0000
     0.0000   0.0000   0.0000   0.0000   0.0000   0.0000

          k =-0.5303 0.5303 0.1768 (  7554 PWs)   bands (ev):

    -5.1386  -4.5997  -4.0874  -3.7140  -3.5009  -2.9152  -2.4386  -2.2192
    -0.8577  -0.6984  -0.5555   0.1806   0.4837   1.2226   1.4491   1.9524
     1.9940   2.1697   2.6437   2.8454   2.9716   3.1246   3.1841   3.4498
     3.7902   3.8522   4.1360   4.3494   4.3758   4.9057   4.9320   5.4984
     7.4041   7.8621   8.2019   8.2760   8.4441   8.7030

     occupation numbers 
     1.0000   1.0000   1.0000   1.0000   1.0000   1.0000   1.0000   1.0000
     1.0000   1.0000   1.0000   1.0000   1.0000   1.0000   1.0000   1.0000
     1.0000   1.0000   1.0000   1.0000   1.0000   1.0000   1.0000   1.0000
     1.0000   1.0000   1.0000   1.0000   1.0000   1.0000   1.0000   1.0000
     0.0000   0.0000   0.0000   0.0000   0.0000   0.0000

          k = 0.5303-0.5303 0.1768 (  7554 PWs)   bands (ev):

    -5.1344  -4.6104  -4.0830  -3.7138  -3.5000  -2.8940  -2.4388  -2.2511
    -0.8902  -0.7350  -0.4445   0.1707   0.4910   1.2238   1.4502   1.9021
     2.0016   2.1328   2.6789   2.8131   2.9750   3.1213   3.2361   3.4110
     3.8150   3.9407   4.0901   4.2841   4.3629   4.9025   4.9965   5.4928
     7.3880   7.7975   8.2097   8.3687   8.5015   8.6364

     occupation numbers 
     1.0000   1.0000   1.0000   1.0000   1.0000   1.0000   1.0000   1.0000
     1.0000   1.0000   1.0000   1.0000   1.0000   1.0000   1.0000   1.0000
     1.0000   1.0000   1.0000   1.0000   1.0000   1.0000   1.0000   1.0000
     1.0000   1.0000   1.0000   1.0000   1.0000   1.0000   1.0000   1.0000
     0.0000   0.0000   0.0000   0.0000   0.0000   0.0000

          k =-0.5303-0.5303-0.1768 (  7554 PWs)   bands (ev):

    -5.1443  -4.6157  -4.0621  -3.6731  -3.5502  -2.8861  -2.3648  -2.2788
    -0.8539  -0.8337  -0.4704   0.1818   0.3221   1.1819   1.5693   1.9752
     2.0573   2.1821   2.7184   2.8358   3.0494   3.0944   3.1859   3.4975
     3.8247   3.8563   4.1945   4.2875   4.3376   4.8098   4.9540   5.4337
     7.3236   7.7702   8.1500   8.3361   8.4022   8.6621

     occupation numbers 
     1.0000   1.0000   1.0000   1.0000   1.0000   1.0000   1.0000   1.0000
     1.0000   1.0000   1.0000   1.0000   1.0000   1.0000   1.0000   1.0000
     1.0000   1.0000   1.0000   1.0000   1.0000   1.0000   1.0000   1.0000
     1.0000   1.0000   1.0000   1.0000   1.0000   1.0000   1.0000   1.0000
     0.0000   0.0000   0.0000   0.0000   0.0000   0.0000

          k = 0.0000 0.3536 0.3536 (  7592 PWs)   bands (ev):

    -5.3341  -4.3632  -4.2416  -3.3158  -3.2577  -2.9961  -2.7544  -2.1032
    -1.0609  -0.7675  -0.6594   0.1163   0.2497   0.7934   0.9485   1.7825
     2.5553   2.5942   2.7617   2.8866   3.3046   3.3880   3.5336   3.6867
     3.9645   4.0172   4.2586   4.3733   4.4876   4.6285   4.6873   5.8646
     7.1510   7.9155   8.0003   8.2273   8.2374   8.4272

     occupation numbers 
     1.0000   1.0000   1.0000   1.0000   1.0000   1.0000   1.0000   1.0000
     1.0000   1.0000   1.0000   1.0000   1.0000   1.0000   1.0000   1.0000
     1.0000   1.0000   1.0000   1.0000   1.0000   1.0000   1.0000   1.0000
     1.0000   1.0000   1.0000   1.0000   1.0000   1.0000   1.0000   0.9996
     0.0000   0.0000   0.0000   0.0000   0.0000   0.0000

          k =-0.3536 0.0000-0.3536 (  7592 PWs)   bands (ev):

    -5.3328  -4.3516  -4.2647  -3.3271  -3.2078  -2.9264  -2.8710  -2.0880
    -1.0677  -0.7767  -0.6536   0.1595   0.2568   0.7821   0.9404   1.7549
     2.5572   2.6591   2.7659   2.7909   3.2932   3.4082   3.5229   3.7135
     3.9440   4.0176   4.2771   4.3538   4.4644   4.6184   4.7488   5.9130
     7.1377   7.8858   7.9511   8.1671   8.2737   8.4686

     occupation numbers 
     1.0000   1.0000   1.0000   1.0000   1.0000   1.0000   1.0000   1.0000
     1.0000   1.0000   1.0000   1.0000   1.0000   1.0000   1.0000   1.0000
     1.0000   1.0000   1.0000   1.0000   1.0000   1.0000   1.0000   1.0000
     1.0000   1.0000   1.0000   1.0000   1.0000   1.0000   1.0000   0.9988
     0.0000   0.0000   0.0000   0.0000   0.0000   0.0000

          k = 0.3536 0.0000-0.3536 (  7592 PWs)   bands (ev):

    -5.3333  -4.3568  -4.2349  -3.3094  -3.2561  -3.0211  -2.8296  -2.0183
    -1.1223  -0.7380  -0.6026   0.1706   0.2480   0.8085   0.8968   1.7763
     2.5790   2.6037   2.7408   2.8112   3.2825   3.3404   3.4607   3.6728
     3.9590   4.0747   4.2684   4.3339   4.5583   4.6108   4.7134   5.9232
     7.1941   7.9208   8.0037   8.2180   8.3018   8.5056

     occupation numbers 
     1.0000   1.0000   1.0000   1.0000   1.0000   1.0000   1.0000   1.0000
     1.0000   1.0000   1.0000   1.0000   1.0000   1.0000   1.0000   1.0000
     1.0000   1.0000   1.0000   1.0000   1.0000   1.0000   1.0000   1.0000
     1.0000   1.0000   1.0000   1.0000   1.0000   1.0000   1.0000   0.9985
     0.0000   0.0000   0.0000   0.0000   0.0000   0.0000

          k = 0.3536 0.3536 0.0000 (  7592 PWs)   bands (ev):

    -5.3383  -4.3664  -4.2280  -3.3521  -3.2453  -2.9167  -2.7999  -2.1215
    -1.0337  -0.7557  -0.7085   0.1018   0.2230   0.8141   0.9500   1.7924
     2.5389   2.6246   2.8252   2.8638   3.3612   3.3963   3.5575   3.6813
     3.9263   3.9848   4.3050   4.3841   4.4361   4.5540   4.7395   5.8197
     7.1686   7.8467   7.9681   8.1659   8.3290   8.5393

     occupation numbers 
     1.0000   1.0000   1.0000   1.0000   1.0000   1.0000   1.0000   1.0000
     1.0000   1.0000   1.0000   1.0000   1.0000   1.0000   1.0000   1.0000
     1.0000   1.0000   1.0000   1.0000   1.0000   1.0000   1.0000   1.0000
     1.0000   1.0000   1.0000   1.0000   1.0000   1.0000   1.0000   0.9999
     0.0000   0.0000   0.0000   0.0000   0.0000   0.0000

          k =-0.3536 0.3536 0.0000 (  7592 PWs)   bands (ev):

    -5.3277  -4.3797  -4.2171  -3.3641  -3.2009  -2.9934  -2.8729  -2.0166
    -1.1534  -0.6849  -0.5533   0.0525   0.3768   0.7781   0.9110   1.7568
     2.4744   2.5831   2.7598   2.8318   3.2041   3.3645   3.4360   3.7522
     3.9778   4.0265   4.2426   4.3140   4.5775   4.6504   4.7761   5.9417
     7.2483   7.7882   8.0388   8.2724   8.3401   8.5399

     occupation numbers 
     1.0000   1.0000   1.0000   1.0000   1.0000   1.0000   1.0000   1.0000
     1.0000   1.0000   1.0000   1.0000   1.0000   1.0000   1.0000   1.0000
     1.0000   1.0000   1.0000   1.0000   1.0000   1.0000   1.0000   1.0000
     1.0000   1.0000   1.0000   1.0000   1.0000   1.0000   1.0000   0.9977
     0.0000   0.0000   0.0000   0.0000   0.0000   0.0000

          k = 0.0000-0.7071 0.0000 (  7528 PWs)   bands (ev):

    -4.8592  -4.7386  -3.9356  -3.8331  -3.7408  -3.6209  -1.6076  -1.5520
    -1.4550  -1.4015   0.6056   0.6397   0.6719   0.6926   2.0588   2.1444
     2.1754   2.1953   2.2530   2.4283   2.4642   2.5145   2.6689   2.7667
     4.1129   4.1679   4.2942   4.3448   4.7787   4.8969   4.9708   5.0082
     7.1097   7.1568   8.3402   8.3888   8.4656   8.4905

     occupation numbers 
     1.0000   1.0000   1.0000   1.0000   1.0000   1.0000   1.0000   1.0000
     1.0000   1.0000   1.0000   1.0000   1.0000   1.0000   1.0000   1.0000
     1.0000   1.0000   1.0000   1.0000   1.0000   1.0000   1.0000   1.0000
     1.0000   1.0000   1.0000   1.0000   1.0000   1.0000   1.0000   1.0000
     0.0000   0.0000   0.0000   0.0000   0.0000   0.0000

          k = 0.0000 0.0000-0.7071 (  7528 PWs)   bands (ev):

    -4.8708  -4.7199  -3.9075  -3.8747  -3.7845  -3.5674  -1.6922  -1.5615
    -1.3940  -1.3570   0.5114   0.5566   0.6676   0.8773   2.0848   2.1441
     2.1527   2.2622   2.2921   2.3655   2.4368   2.4752   2.6683   2.7754
     4.0928   4.1963   4.2689   4.3280   4.7158   4.8799   5.0024   5.0386
     7.1352   7.2479   8.3064   8.4325   8.4889   8.5093

     occupation numbers 
     1.0000   1.0000   1.0000   1.0000   1.0000   1.0000   1.0000   1.0000
     1.0000   1.0000   1.0000   1.0000   1.0000   1.0000   1.0000   1.0000
     1.0000   1.0000   1.0000   1.0000   1.0000   1.0000   1.0000   1.0000
     1.0000   1.0000   1.0000   1.0000   1.0000   1.0000   1.0000   1.0000
     0.0000   0.0000   0.0000   0.0000   0.0000   0.0000

          k = 0.3536-0.7071 0.0000 (  7564 PWs)   bands (ev):

    -4.7241  -4.5784  -4.4750  -4.3247  -2.8587  -2.7703  -2.6826  -2.4803
    -0.6371  -0.4116  -0.3831  -0.2723   1.6054   1.7053   1.7417   1.8022
     1.9091   1.9420   1.9717   2.1730   3.2234   3.3066   3.3177   3.4116
     3.5296   3.5953   3.6808   3.7578   4.5549   4.6989   4.8520   4.9704
     8.3167   8.3943   8.4571   8.6102   8.6929   8.9011

     occupation numbers 
     1.0000   1.0000   1.0000   1.0000   1.0000   1.0000   1.0000   1.0000
     1.0000   1.0000   1.0000   1.0000   1.0000   1.0000   1.0000   1.0000
     1.0000   1.0000   1.0000   1.0000   1.0000   1.0000   1.0000   1.0000
     1.0000   1.0000   1.0000   1.0000   1.0000   1.0000   1.0000   1.0000
     0.0000   0.0000   0.0000   0.0000   0.0000   0.0000

          k = 0.7071 0.0000 0.3536 (  7564 PWs)   bands (ev):

    -4.6931  -4.6205  -4.4815  -4.3082  -2.8730  -2.7555  -2.6649  -2.4941
    -0.6164  -0.4741  -0.3475  -0.2687   1.6117   1.7159   1.7508   1.7788
     1.8371   1.9258   1.9694   2.2404   3.2306   3.3343   3.3727   3.4146
     3.5082   3.5693   3.6651   3.7636   4.5724   4.7346   4.8314   4.9309
     8.3333   8.3872   8.5101   8.5630   8.7337   8.7969

     occupation numbers 
     1.0000   1.0000   1.0000   1.0000   1.0000   1.0000   1.0000   1.0000
     1.0000   1.0000   1.0000   1.0000   1.0000   1.0000   1.0000   1.0000
     1.0000   1.0000   1.0000   1.0000   1.0000   1.0000   1.0000   1.0000
     1.0000   1.0000   1.0000   1.0000   1.0000   1.0000   1.0000   1.0000
     0.0000   0.0000   0.0000   0.0000   0.0000   0.0000

     the Fermi energy is     6.3516 ev

!    total energy              =    -152.89024685 Ry
     Harris-Foulkes estimate   =    -152.89024685 Ry
     estimated scf accuracy    <          9.6E-10 Ry

     The total energy is the sum of the following terms:

     one-electron contribution =      40.97704088 Ry
     hartree contribution      =       8.69287569 Ry
     xc contribution           =     -68.15617652 Ry
     ewald contribution        =    -134.40359159 Ry
     smearing contrib. (-TS)   =      -0.00039531 Ry

     convergence has been achieved in  13 iterations

     Forces acting on atoms (Ry/au):

     atom    1 type  1   force =  -0.11082507E-01  0.21726639E-01  0.29822254E-01
     atom    2 type  1   force =  -0.18481220E-01 -0.16155728E-02  0.72189957E-02
     atom    3 type  1   force =   0.57356264E-02 -0.30849509E-01 -0.29268442E-02
     atom    4 type  1   force =   0.89987508E-02  0.20782919E-01 -0.86451433E-02
     atom    5 type  1   force =   0.69804618E-01 -0.70048019E-02 -0.17656137E-01
     atom    6 type  1   force =   0.54030340E-02 -0.51231280E-02 -0.34077066E-01
     atom    7 type  1   force =   0.16785623E-02 -0.77931323E-02  0.19339533E-01
     atom    8 type  1   force =  -0.28274428E-01  0.35694352E-02 -0.14337677E-01
     atom    9 type  1   force =   0.45513735E-01  0.46454911E-01 -0.69468563E-01
     atom   10 type  1   force =   0.16411357E-01 -0.20704797E-02 -0.15912800E-01
     atom   11 type  1   force =  -0.28358136E-02  0.32205970E-01  0.32865627E-01
     atom   12 type  1   force =  -0.43794221E-01 -0.67691167E-01  0.22519133E-01
     atom   13 type  1   force =  -0.16312590E-01  0.23956609E-01  0.55932690E-01
     atom   14 type  1   force =  -0.20198407E-01 -0.11000931E-01 -0.81137659E-02
     atom   15 type  1   force =  -0.53282361E-01 -0.31738430E-01  0.46386752E-02
     atom   16 type  1   force =   0.40715862E-01  0.16190670E-01 -0.11989114E-02
     The non-local contrib.  to forces
     atom    1 type  1   force =  -0.13622055E-01  0.20966947E-01  0.34396601E-01
     atom    2 type  1   force =  -0.16874408E-01  0.89333801E-02 -0.10987588E-01
     atom    3 type  1   force =  -0.58353608E-02 -0.32269134E-01 -0.10280903E-03
     atom    4 type  1   force =   0.20168822E-01  0.16468465E-01 -0.84434744E-02
     atom    5 type  1   force =   0.56750060E-01 -0.57629551E-03 -0.15796335E-01
     atom    6 type  1   force =   0.20024105E-01 -0.21052626E-01 -0.38682660E-01
     atom    7 type  1   force =   0.58177673E-02  0.20165048E-02  0.24066146E-01
     atom    8 type  1   force =  -0.32020132E-01 -0.19206947E-01 -0.90730788E-02
     atom    9 type  1   force =   0.50168900E-01  0.39556029E-01 -0.77593181E-01
     atom   10 type  1   force =   0.18208929E-01  0.73424141E-02 -0.15952551E-01
     atom   11 type  1   force =   0.83951382E-02  0.34567174E-01  0.37696222E-01
     atom   12 type  1   force =  -0.65758363E-01 -0.79908286E-01  0.34359328E-01
     atom   13 type  1   force =  -0.16440430E-01  0.25900924E-01  0.52804343E-01
     atom   14 type  1   force =  -0.15321206E-01 -0.32017223E-02 -0.76439090E-02
     atom   15 type  1   force =  -0.58627832E-01 -0.34665749E-01 -0.18622110E-01
     atom   16 type  1   force =   0.41350736E-01  0.28305192E-01  0.21447348E-01
     The ionic contribution  to forces
     atom    1 type  1   force =   0.13001469E+00  0.70993484E-01  0.46178667E-01
     atom    2 type  1   force =  -0.14558331E+00  0.69706970E-01 -0.17592434E+00
     atom    3 type  1   force =  -0.62732570E-01 -0.16862796E+00  0.67597349E-01
     atom    4 type  1   force =   0.17487864E+00  0.75958208E-01  0.98390935E-01
     atom    5 type  1   force =   0.57403478E-01 -0.32376836E-01 -0.24737596E+00
     atom    6 type  1   force =   0.72404617E-01 -0.14292135E+00 -0.10523930E+00
     atom    7 type  1   force =   0.23285827E-01 -0.87415218E-01  0.18103927E+00
     atom    8 type  1   force =  -0.15558142E+00 -0.20941652E+00 -0.43733882E-01
     atom    9 type  1   force =  -0.55157881E-01  0.12813570E+00 -0.31655411E+00
     atom   10 type  1   force =   0.19811416E+00  0.43894544E-01 -0.64386957E-01
     atom   11 type  1   force =   0.37330794E-01  0.12452928E+00  0.16185910E+00
     atom   12 type  1   force =  -0.39463416E+00 -0.37131122E+00  0.80816442E-01
     atom   13 type  1   force =   0.20042170E+00  0.24447795E+00  0.24697428E+00
     atom   14 type  1   force =  -0.67187904E-01  0.16238633E+00 -0.84322102E-01
     atom   15 type  1   force =  -0.22532549E+00 -0.11151415E+00 -0.30750862E-01
     atom   16 type  1   force =   0.21234883E+00  0.20350079E+00  0.18543147E+00
     The local contribution  to forces
     atom    1 type  1   force =  -0.12824920E+00 -0.68780579E-01 -0.47943620E-01
     atom    2 type  1   force =   0.14170342E+00 -0.78833386E-01  0.19260427E+00
     atom    3 type  1   force =   0.73927598E-01  0.16735002E+00 -0.69952356E-01
     atom    4 type  1   force =  -0.18347925E+00 -0.70199918E-01 -0.99204694E-01
     atom    5 type  1   force =  -0.40206514E-01  0.26063301E-01  0.24379348E+00
     atom    6 type  1   force =  -0.85468941E-01  0.15602412E+00  0.10627788E+00
     atom    7 type  1   force =  -0.27053867E-01  0.77345848E-01 -0.18303174E+00
     atom    8 type  1   force =   0.15635669E+00  0.22979543E+00  0.37820367E-01
     atom    9 type  1   force =   0.54395238E-01 -0.11768723E+00  0.31774573E+00
     atom   10 type  1   force =  -0.19792347E+00 -0.53250823E-01  0.62646470E-01
     atom   11 type  1   force =  -0.47740968E-01 -0.12386559E+00 -0.16344153E+00
     atom   12 type  1   force =   0.40986638E+00  0.37593250E+00 -0.89311493E-01
     atom   13 type  1   force =  -0.20092778E+00 -0.24374630E+00 -0.23888877E+00
     atom   14 type  1   force =   0.61125455E-01 -0.16945106E+00  0.83211567E-01
     atom   15 type  1   force =   0.22586341E+00  0.11176994E+00  0.51941173E-01
     atom   16 type  1   force =  -0.20880573E+00 -0.21233776E+00 -0.20593216E+00
     The core correction contribution to forces
     atom    1 type  1   force =   0.76634226E-03 -0.14627320E-02 -0.28066815E-02
     atom    2 type  1   force =   0.22733165E-02 -0.14244303E-02  0.15399768E-02
     atom    3 type  1   force =   0.38541244E-03  0.27048584E-02 -0.46890910E-03
     atom    4 type  1   force =  -0.25674966E-02 -0.14446628E-02  0.60517289E-03
     atom    5 type  1   force =  -0.41448686E-02 -0.11350722E-03  0.17321276E-02
     atom    6 type  1   force =  -0.15715817E-02  0.28218468E-02  0.35676435E-02
     atom    7 type  1   force =  -0.37324031E-03  0.26254121E-03 -0.27427600E-02
     atom    8 type  1   force =   0.29777657E-02  0.24112899E-02  0.64672222E-03
     atom    9 type  1   force =  -0.38911133E-02 -0.35531256E-02  0.69427095E-02
     atom   10 type  1   force =  -0.19938415E-02 -0.71162609E-04  0.17830786E-02
     atom   11 type  1   force =  -0.81799699E-03 -0.30256757E-02 -0.32557910E-02
     atom   12 type  1   force =   0.67445477E-02  0.76032144E-02 -0.33447324E-02
     atom   13 type  1   force =   0.62427388E-03 -0.26846500E-02 -0.49581015E-02
     atom   14 type  1   force =   0.11821745E-02 -0.73522955E-03  0.64640671E-03
     atom   15 type  1   force =   0.48161906E-02  0.26810924E-02  0.20656113E-02
     atom   16 type  1   force =  -0.41767738E-02 -0.32746199E-02 -0.21599886E-02
     The Hubbard contrib.    to forces
     atom    1 type  1   force =   0.00000000E+00  0.00000000E+00  0.00000000E+00
     atom    2 type  1   force =   0.00000000E+00  0.00000000E+00  0.00000000E+00
     atom    3 type  1   force =   0.00000000E+00  0.00000000E+00  0.00000000E+00
     atom    4 type  1   force =   0.00000000E+00  0.00000000E+00  0.00000000E+00
     atom    5 type  1   force =   0.00000000E+00  0.00000000E+00  0.00000000E+00
     atom    6 type  1   force =   0.00000000E+00  0.00000000E+00  0.00000000E+00
     atom    7 type  1   force =   0.00000000E+00  0.00000000E+00  0.00000000E+00
     atom    8 type  1   force =   0.00000000E+00  0.00000000E+00  0.00000000E+00
     atom    9 type  1   force =   0.00000000E+00  0.00000000E+00  0.00000000E+00
     atom   10 type  1   force =   0.00000000E+00  0.00000000E+00  0.00000000E+00
     atom   11 type  1   force =   0.00000000E+00  0.00000000E+00  0.00000000E+00
     atom   12 type  1   force =   0.00000000E+00  0.00000000E+00  0.00000000E+00
     atom   13 type  1   force =   0.00000000E+00  0.00000000E+00  0.00000000E+00
     atom   14 type  1   force =   0.00000000E+00  0.00000000E+00  0.00000000E+00
     atom   15 type  1   force =   0.00000000E+00  0.00000000E+00  0.00000000E+00
     atom   16 type  1   force =   0.00000000E+00  0.00000000E+00  0.00000000E+00
     The SCF correction term to forces
     atom    1 type  1   force =   0.77192009E-05  0.95222873E-05 -0.26938172E-05
     atom    2 type  1   force =  -0.22955005E-06  0.18962754E-05 -0.13302272E-04
     atom    3 type  1   force =  -0.94532260E-05 -0.72893429E-05 -0.10078119E-06
     atom    4 type  1   force =  -0.19631686E-05  0.82885060E-06  0.69356924E-05
     atom    5 type  1   force =   0.24626580E-05 -0.14602759E-05 -0.94296461E-05
     atom    6 type  1   force =   0.14833507E-04  0.48844776E-05 -0.60485271E-06
     atom    7 type  1   force =   0.20746620E-05 -0.28046613E-05  0.86308615E-05
     atom    8 type  1   force =  -0.73339183E-05 -0.13812113E-04  0.22128500E-05
     atom    9 type  1   force =  -0.14086592E-05  0.35472609E-05 -0.96948126E-05
     atom   10 type  1   force =   0.55783065E-05  0.14551187E-04 -0.28225053E-05
     atom   11 type  1   force =  -0.27813271E-05  0.78802145E-06  0.76434305E-05
     atom   12 type  1   force =  -0.12627144E-04 -0.73728697E-05 -0.39494785E-06
     atom   13 type  1   force =   0.96492484E-05  0.86888612E-05  0.95500175E-06
     atom   14 type  1   force =   0.30729332E-05  0.75399415E-06 -0.57098075E-05
     atom   15 type  1   force =  -0.86413449E-05 -0.95629121E-05  0.48806362E-05
     atom   16 type  1   force =  -0.12004464E-05 -0.29261510E-05  0.14433702E-04

     Total force =     0.201083     Total SCF correction =     0.000050


     entering subroutine stress ...

          total   stress  (Ry/bohr**3)                   (kbar)     P=   -1.35
  -0.0000208168  -0.0000305569  -0.0000112890         -3.06     -4.50     -1.66
  -0.0000305569  -0.0000067485  -0.0000380207         -4.50     -0.99     -5.59
  -0.0000112890  -0.0000380207   0.0000000066         -1.66     -5.59      0.00

     kinetic stress (kbar)   2184.89      5.51      0.85
                                5.51   2185.51      2.22
                                0.85      2.22   2185.98

     local   stress (kbar)   -278.13     67.32     18.76
                               67.32   -282.85     36.34
                               18.76     36.34   -286.79

     nonloc. stress (kbar)   1938.93     -6.35     -1.41
                               -6.35   1939.55     -5.22
                               -1.41     -5.22   1938.42

     hartree stress (kbar)    195.97    -10.42     -3.57
                              -10.42    196.54     -3.89
                               -3.57     -3.89    198.77

     exc-cor stress (kbar)    994.92     -0.08     -0.03
                               -0.08    994.94     -0.05
                               -0.03     -0.05    994.93

     corecor stress (kbar)  -1987.83      0.76      0.16
                                0.76  -1987.90      0.61
                                0.16      0.61  -1987.76

     ewald   stress (kbar)  -3051.82    -61.24    -16.43
                              -61.24  -3046.78    -35.62
                              -16.43    -35.62  -3043.55

     hubbard stress (kbar)      0.00      0.00      0.00
                                0.00      0.00      0.00
                                0.00      0.00      0.00

     london  stress (kbar)      0.00      0.00      0.00
                                0.00      0.00      0.00
                                0.00      0.00      0.00

     XDM     stress (kbar)      0.00      0.00      0.00
                                0.00      0.00      0.00
                                0.00      0.00      0.00

     dft-nl  stress (kbar)      0.00      0.00      0.00
                                0.00      0.00      0.00
                                0.00      0.00      0.00



     Writing output data file Si_diamond.scf.in.super.222.replace9826.save

     init_run     :      8.32s CPU      8.36s WALL (       1 calls)
     electrons    :    260.29s CPU    247.19s WALL (       1 calls)
     forces       :      3.68s CPU      2.95s WALL (       1 calls)
     stress       :      4.78s CPU      4.70s WALL (       1 calls)

     Called by init_run:
     wfcinit      :      7.74s CPU      7.76s WALL (       1 calls)
     potinit      :      0.10s CPU      0.10s WALL (       1 calls)

     Called by electrons:
     c_bands      :    223.83s CPU    212.45s WALL (      14 calls)
     sum_band     :     33.17s CPU     31.36s WALL (      14 calls)
     v_of_rho     :      0.58s CPU      0.61s WALL (      14 calls)
     v_h          :      0.04s CPU      0.04s WALL (      14 calls)
     v_xc         :      0.62s CPU      0.66s WALL (      16 calls)
     newd         :      2.52s CPU      2.52s WALL (      14 calls)
     mix_rho      :      0.39s CPU      0.44s WALL (      14 calls)

     Called by c_bands:
     init_us_2    :      3.44s CPU      3.64s WALL (    1116 calls)
     cegterg      :    213.74s CPU    201.98s WALL (     504 calls)

     Called by sum_band:
     sum_band:bec :      0.49s CPU      0.44s WALL (     504 calls)
     addusdens    :      2.97s CPU      3.00s WALL (      14 calls)

     Called by *egterg:
     h_psi        :    136.15s CPU    134.00s WALL (    1957 calls)
     s_psi        :     19.84s CPU     13.97s WALL (    1957 calls)
     g_psi        :      0.28s CPU      0.24s WALL (    1417 calls)
     cdiaghg      :     21.31s CPU     21.47s WALL (    1885 calls)
     cegterg:over :     18.82s CPU     17.35s WALL (    1417 calls)
     cegterg:upda :      6.84s CPU      5.21s WALL (    1417 calls)
     cegterg:last :      4.42s CPU      3.02s WALL (     537 calls)

     Called by h_psi:
     h_psi:vloc   :     83.12s CPU     93.60s WALL (    1957 calls)
     h_psi:vnl    :     52.90s CPU     40.24s WALL (    1957 calls)
     add_vuspsi   :     22.57s CPU     15.78s WALL (    1957 calls)

     General routines
     calbec       :     42.70s CPU     34.34s WALL (    2533 calls)
     fft          :      0.73s CPU      0.75s WALL (     249 calls)
     ffts         :      0.27s CPU      0.31s WALL (     238 calls)
     fftw         :     94.36s CPU    104.73s WALL (  118970 calls)
     interpolate  :      0.14s CPU      0.13s WALL (      28 calls)

     Parallel routines
     fft_scatter  :     51.06s CPU     56.45s WALL (  119457 calls)

     PWSCF        :  4m38.25s CPU     4m24.88s WALL


   This run was terminated on:  10:26: 1  14Mar2018            

=------------------------------------------------------------------------------=
   JOB DONE.
=------------------------------------------------------------------------------=
