
     Program PWSCF v.5.1 starts on 14Mar2018 at 11: 4:56 

     This program is part of the open-source Quantum ESPRESSO suite
     for quantum simulation of materials; please cite
         "P. Giannozzi et al., J. Phys.:Condens. Matter 21 395502 (2009);
          URL http://www.quantum-espresso.org", 
     in publications or presentations arising from this work. More details at
     http://www.quantum-espresso.org/quote

     Parallel version (MPI), running on    16 processors
     R & G space division:  proc/nbgrp/npool/nimage =      16
     Waiting for input...
     Reading input from standard input
Warning: card &IONS ignored
Warning: card   ION_DYNAMICS='BFGS', ignored
Warning: card / ignored
Warning: card &CELL ignored
Warning: card  CELL_DYNAMICS = 'BFGS' ignored
Warning: card / ignored

     Current dimensions of program PWSCF are:
     Max number of different atomic species (ntypx) = 10
     Max number of k-points (npk) =  40000
     Max angular momentum in pseudopotentials (lmaxx) =  3
 kfg - two_fermi_energies  F

     Subspace diagonalization in iterative solution of the eigenvalue problem:
     a serial algorithm will be used


     Parallelization info
     --------------------
     sticks:   dense  smooth     PW     G-vecs:    dense   smooth      PW
     Min         181     128     35                 6459     3770     554
     Max         182     129     38                 6463     3791     555
     Sum        2905    2053    571               103379    60495    8873



     bravais-lattice index     =            0
     lattice parameter (alat)  =    14.515605984  a.u.
     unit-cell volume          =    2162.6713 (a.u.)^3
     number of atoms/cell      =           16
     number of atomic types    =            1
     number of electrons       =        64.00
     number of Kohn-Sham states=           38
     kinetic-energy cutoff     =      35.0000  Ry
     charge density cutoff     =     200.0000  Ry
     convergence threshold     =      1.0E-09
     mixing beta               =       0.3000
     number of iterations used =            8  local-TF  mixing
     Exchange-correlation      = SLA  PW   PSX  PSC ( 1  4 10  8 0)
     A smooth kinetic-energy cutoff is imposed at      34.5000 Ry
     height of the smooth step-function =             800.0000 Ry
     width of the smooth step-function  =               1.0000 Ry


     celldm(1)=  14.515606  celldm(2)=   0.000000  celldm(3)=   0.000000
     celldm(4)=   0.000000  celldm(5)=   0.000000  celldm(6)=   0.000000

     crystal axes: (cart. coord. in units of alat)
               a(1) = (  -0.000000000000   0.707106781187   0.707106781187 )  
               a(2) = (   0.707106781187  -0.000000000000   0.707106781187 )  
               a(3) = (   0.707106781187   0.707106781187   0.000000000000 )  

     reciprocal axes: (cart. coord. in units 2 pi/alat)
               b(1) = ( -0.707107  0.707107  0.707107 )  
               b(2) = (  0.707107 -0.707107  0.707107 )  
               b(3) = (  0.707107  0.707107 -0.707107 )  


     PseudoPot. # 1 for Si read from file:
     /users/kfg/psuedo/gbrv_1.5/si.pbesol.UPF
     MD5 check sum: ef58ba74faed4df802eb8a9742fc00a8
     Pseudo is Ultrasoft + core correction, Zval =  4.0
     Generated by new atomic code, or converted to UPF format
     Using radial grid of  899 points,  6 beta functions with: 
                l(1) =   0
                l(2) =   0
                l(3) =   1
                l(4) =   1
                l(5) =   2
                l(6) =   2
     Q(r) pseudized with  8 coefficients,  rinner =    0.900   0.900   0.900
                                                       0.900   0.900

     atomic species   valence    mass     pseudopotential
        Si             4.00    28.08550     Si( 1.00)

     No symmetry found


                                    s                        frac. trans.

      isym =  1     identity                                     

 cryst.   s( 1) = (     1          0          0      )
                  (     0          1          0      )
                  (     0          0          1      )

 cart.    s( 1) = (  1.0000000  0.0000000  0.0000000 )
                  (  0.0000000  1.0000000  0.0000000 )
                  (  0.0000000  0.0000000  1.0000000 )


     point group C_1 (1)    
     there are  1 classes
     the character table:

       E    
A      1.00

     the symmetry operations in each class:
     E        1

   Cartesian axes

     site n.     atom                  positions (alat units)
         1           Si  tau(   1) = (   -0.02319665992    0.00046285563   -0.02790989400  )
         2           Si  tau(   2) = (    0.17504024731    0.15730817819    0.14801642468  )
         3           Si  tau(   3) = (    0.36708944431    0.35076535562    0.01219782500  )
         4           Si  tau(   4) = (    0.52616447973    0.54319802228    0.18147517331  )
         5           Si  tau(   5) = (    0.34356123448    0.00069509683    0.33794551578  )
         6           Si  tau(   6) = (    0.50197893077    0.17711947295    0.51801661857  )
         7           Si  tau(   7) = (    0.71724888071    0.35608400274    0.37250410326  )
         8           Si  tau(   8) = (    0.89183248638    0.53773950289    0.52979256337  )
         9           Si  tau(   9) = (    0.00896946691    0.33760019178    0.33676799973  )
        10           Si  tau(  10) = (    0.15487435394    0.51998478042    0.52994905185  )
        11           Si  tau(  11) = (    0.37097317704    0.70607279492    0.38640878396  )
        12           Si  tau(  12) = (    0.55387523876    0.88896970682    0.53696579517  )
        13           Si  tau(  13) = (    0.34517891247    0.35535443182    0.70756276177  )
        14           Si  tau(  14) = (    0.52742400645    0.54044081279    0.87086233781  )
        15           Si  tau(  15) = (    0.71435156217    0.70726441320    0.72327989472  )
        16           Si  tau(  16) = (    0.89570205036    0.89200819299    0.90723285689  )

   Crystallographic axes

     site n.     atom                  positions (cryst. coord.)
         1           Si  tau(   1) = (   -0.00300547142   -0.03646507919    0.00366004813  )
         2           Si  tau(   2) = (    0.09212495129    0.11720188394    0.13034240777  )
         3           Si  tau(   3) = (   -0.00291770904    0.02016803859    0.49897483216  )
         4           Si  tau(   4) = (    0.14036685911    0.11627779222    0.62783115106  )
         5           Si  tau(   5) = (   -0.00347940509    0.48140653685    0.00446242045  )
         6           Si  tau(   6) = (    0.13658273820    0.59600338931    0.11390202260  )
         7           Si  tau(   7) = (    0.00801804309    0.51878231177    0.49556078292  )
         8           Si  tau(   8) = (    0.12423836438    0.62500146398    0.63624013362  )
         9           Si  tau(   9) = (    0.47050795036    0.00575392224    0.00693081951  )
        10           Si  tau(  10) = (    0.63290262670    0.11655850980    0.10246690201  )
        11           Si  tau(  11) = (    0.51018348363    0.03628105927    0.48835423897  )
        12           Si  tau(  12) = (    0.61663972573    0.14274458433    0.64055329019  )
        13           Si  tau(  13) = (    0.50751760570    0.49312724823   -0.00497054877  )
        14           Si  tau(  14) = (    0.62499693658    0.60658839251    0.13930179053  )
        15           Si  tau(  15) = (    0.50642474716    0.51644748935    0.49379817818  )
        16           Si  tau(  16) = (    0.63889855363    0.64412245681    0.62259153065  )

     number of k points=    36  gaussian smearing, width (Ry)=  0.0150
                       cart. coord. in units 2pi/alat
        k(    1) = (   0.0000000   0.0000000   0.0000000), wk =   0.0312500
        k(    2) = (   0.1767767   0.1767767  -0.1767767), wk =   0.0625000
        k(    3) = (  -0.3535534  -0.3535534   0.3535534), wk =   0.0312500
        k(    4) = (   0.3535534   0.0000000   0.0000000), wk =   0.0625000
        k(    5) = (  -0.1767767  -0.5303301   0.5303301), wk =   0.0625000
        k(    6) = (   0.0000000  -0.3535534   0.3535534), wk =   0.0625000
        k(    7) = (  -0.7071068   0.0000000   0.0000000), wk =   0.0312500
        k(    8) = (  -0.7071068   0.3535534   0.0000000), wk =   0.0625000
        k(    9) = (  -0.1767767  -0.1767767  -0.1767767), wk =   0.0625000
        k(   10) = (  -0.1767767   0.1767767   0.1767767), wk =   0.0625000
        k(   11) = (   0.1767767  -0.1767767   0.1767767), wk =   0.0625000
        k(   12) = (   0.3535534   0.3535534   0.3535534), wk =   0.0312500
        k(   13) = (   0.3535534  -0.3535534  -0.3535534), wk =   0.0312500
        k(   14) = (  -0.3535534   0.3535534  -0.3535534), wk =   0.0312500
        k(   15) = (   0.0000000   0.3535534   0.0000000), wk =   0.0625000
        k(   16) = (   0.0000000   0.0000000   0.3535534), wk =   0.0625000
        k(   17) = (   0.1767767   0.5303301   0.5303301), wk =   0.0625000
        k(   18) = (   0.1767767  -0.5303301  -0.5303301), wk =   0.0625000
        k(   19) = (  -0.1767767   0.5303301  -0.5303301), wk =   0.0625000
        k(   20) = (  -0.5303301  -0.1767767  -0.5303301), wk =   0.0625000
        k(   21) = (   0.5303301   0.1767767  -0.5303301), wk =   0.0625000
        k(   22) = (  -0.5303301   0.1767767   0.5303301), wk =   0.0625000
        k(   23) = (   0.5303301  -0.1767767   0.5303301), wk =   0.0625000
        k(   24) = (   0.5303301   0.5303301  -0.1767767), wk =   0.0625000
        k(   25) = (  -0.5303301   0.5303301   0.1767767), wk =   0.0625000
        k(   26) = (   0.5303301  -0.5303301   0.1767767), wk =   0.0625000
        k(   27) = (  -0.5303301  -0.5303301  -0.1767767), wk =   0.0625000
        k(   28) = (   0.0000000   0.3535534   0.3535534), wk =   0.0625000
        k(   29) = (  -0.3535534   0.0000000  -0.3535534), wk =   0.0625000
        k(   30) = (   0.3535534   0.0000000  -0.3535534), wk =   0.0625000
        k(   31) = (   0.3535534   0.3535534   0.0000000), wk =   0.0625000
        k(   32) = (  -0.3535534   0.3535534   0.0000000), wk =   0.0625000
        k(   33) = (   0.0000000  -0.7071068   0.0000000), wk =   0.0312500
        k(   34) = (   0.0000000   0.0000000  -0.7071068), wk =   0.0312500
        k(   35) = (   0.3535534  -0.7071068   0.0000000), wk =   0.0625000
        k(   36) = (   0.7071068   0.0000000   0.3535534), wk =   0.0625000

                       cryst. coord.
        k(    1) = (   0.0000000   0.0000000   0.0000000), wk =   0.0312500
        k(    2) = (   0.0000000   0.0000000   0.2500000), wk =   0.0625000
        k(    3) = (   0.0000000   0.0000000  -0.5000000), wk =   0.0312500
        k(    4) = (  -0.0000000   0.2500000   0.2500000), wk =   0.0625000
        k(    5) = (   0.0000000   0.2500000  -0.5000000), wk =   0.0625000
        k(    6) = (   0.0000000   0.2500000  -0.2500000), wk =   0.0625000
        k(    7) = (   0.0000000  -0.5000000  -0.5000000), wk =   0.0312500
        k(    8) = (   0.2500000  -0.5000000  -0.2500000), wk =   0.0625000
        k(    9) = (  -0.2500000  -0.2500000  -0.2500000), wk =   0.0625000
        k(   10) = (   0.2500000   0.0000000   0.0000000), wk =   0.0625000
        k(   11) = (   0.0000000   0.2500000   0.0000000), wk =   0.0625000
        k(   12) = (   0.5000000   0.5000000   0.5000000), wk =   0.0312500
        k(   13) = (  -0.5000000   0.0000000  -0.0000000), wk =   0.0312500
        k(   14) = (   0.0000000  -0.5000000  -0.0000000), wk =   0.0312500
        k(   15) = (   0.2500000  -0.0000000   0.2500000), wk =   0.0625000
        k(   16) = (   0.2500000   0.2500000   0.0000000), wk =   0.0625000
        k(   17) = (   0.7500000   0.5000000   0.5000000), wk =   0.0625000
        k(   18) = (  -0.7500000  -0.2500000  -0.2500000), wk =   0.0625000
        k(   19) = (   0.0000000  -0.5000000   0.2500000), wk =   0.0625000
        k(   20) = (  -0.5000000  -0.7500000  -0.5000000), wk =   0.0625000
        k(   21) = (  -0.2500000   0.0000000   0.5000000), wk =   0.0625000
        k(   22) = (   0.5000000   0.0000000  -0.2500000), wk =   0.0625000
        k(   23) = (   0.2500000   0.7500000   0.2500000), wk =   0.0625000
        k(   24) = (   0.2500000   0.2500000   0.7500000), wk =   0.0625000
        k(   25) = (   0.5000000  -0.2500000   0.0000000), wk =   0.0625000
        k(   26) = (  -0.2500000   0.5000000   0.0000000), wk =   0.0625000
        k(   27) = (  -0.5000000  -0.5000000  -0.7500000), wk =   0.0625000
        k(   28) = (   0.5000000   0.2500000   0.2500000), wk =   0.0625000
        k(   29) = (  -0.2500000  -0.5000000  -0.2500000), wk =   0.0625000
        k(   30) = (  -0.2500000   0.0000000   0.2500000), wk =   0.0625000
        k(   31) = (   0.2500000   0.2500000   0.5000000), wk =   0.0625000
        k(   32) = (   0.2500000  -0.2500000   0.0000000), wk =   0.0625000
        k(   33) = (  -0.5000000   0.0000000  -0.5000000), wk =   0.0312500
        k(   34) = (  -0.5000000  -0.5000000  -0.0000000), wk =   0.0312500
        k(   35) = (  -0.5000000   0.2500000  -0.2500000), wk =   0.0625000
        k(   36) = (   0.2500000   0.7500000   0.5000000), wk =   0.0625000

     Dense  grid:   103379 G-vectors     FFT dimensions: (  72,  72,  72)

     Smooth grid:    60495 G-vectors     FFT dimensions: (  60,  60,  60)

     Largest allocated arrays     est. size (Mb)     dimensions
        Kohn-Sham Wavefunctions         0.28 Mb     (     486,   38)
        NL pseudopotentials             2.14 Mb     (     486,  288)
        Each V/rho on FFT grid          0.40 Mb     (   25920)
        Each G-vector array             0.05 Mb     (    6463)
        G-vector shells                 0.01 Mb     (     700)
     Largest temporary arrays     est. size (Mb)     dimensions
        Auxiliary wavefunctions         1.13 Mb     (     486,  152)
        Each subspace H/S matrix        0.35 Mb     (     152,  152)
        Each <psi_i|beta_j> matrix      0.17 Mb     (     288,   38)
        Arrays for rho mixing           3.16 Mb     (   25920,    8)

     Initial potential from superposition of free atoms

     starting charge   63.98963, renormalised to   64.00000
     Starting wfc are   64 randomized atomic wfcs

     total cpu time spent up to now is        8.2 secs

     Self-consistent Calculation

     iteration #  1     ecut=    35.00 Ry     beta=0.30
     Davidson diagonalization with overlap
     ethr =  1.00E-02,  avg # of iterations =  3.2

     Threshold (ethr) on eigenvalues was too large:
     Diagonalizing with lowered threshold

     Davidson diagonalization with overlap
     ethr =  6.87E-04,  avg # of iterations =  1.7

     total cpu time spent up to now is       43.6 secs

     total energy              =    -152.95515844 Ry
     Harris-Foulkes estimate   =    -153.00165027 Ry
     estimated scf accuracy    <       0.43283845 Ry

     iteration #  2     ecut=    35.00 Ry     beta=0.30
     Davidson diagonalization with overlap
     ethr =  6.76E-04,  avg # of iterations =  1.0

     total cpu time spent up to now is       56.5 secs

     total energy              =    -152.86323732 Ry
     Harris-Foulkes estimate   =    -152.95735111 Ry
     estimated scf accuracy    <       0.26857603 Ry

     iteration #  3     ecut=    35.00 Ry     beta=0.30
     Davidson diagonalization with overlap
     ethr =  4.20E-04,  avg # of iterations =  2.4

     total cpu time spent up to now is       71.4 secs

     total energy              =    -152.88165099 Ry
     Harris-Foulkes estimate   =    -152.88126592 Ry
     estimated scf accuracy    <       0.00317537 Ry

     iteration #  4     ecut=    35.00 Ry     beta=0.30
     Davidson diagonalization with overlap
     c_bands:  1 eigenvalues not converged
     ethr =  4.96E-06,  avg # of iterations = 11.6

     total cpu time spent up to now is      108.9 secs

     total energy              =    -152.88396199 Ry
     Harris-Foulkes estimate   =    -152.88377415 Ry
     estimated scf accuracy    <       0.00129382 Ry

     iteration #  5     ecut=    35.00 Ry     beta=0.30
     Davidson diagonalization with overlap
     ethr =  2.02E-06,  avg # of iterations =  2.9

     total cpu time spent up to now is      124.0 secs

     total energy              =    -152.88403617 Ry
     Harris-Foulkes estimate   =    -152.88401228 Ry
     estimated scf accuracy    <       0.00014027 Ry

     iteration #  6     ecut=    35.00 Ry     beta=0.30
     Davidson diagonalization with overlap
     ethr =  2.19E-07,  avg # of iterations =  2.2

     total cpu time spent up to now is      141.5 secs

     total energy              =    -152.88405601 Ry
     Harris-Foulkes estimate   =    -152.88405704 Ry
     estimated scf accuracy    <       0.00001047 Ry

     iteration #  7     ecut=    35.00 Ry     beta=0.30
     Davidson diagonalization with overlap
     ethr =  1.64E-08,  avg # of iterations =  2.9

     total cpu time spent up to now is      158.4 secs

     total energy              =    -152.88405774 Ry
     Harris-Foulkes estimate   =    -152.88405731 Ry
     estimated scf accuracy    <       0.00000347 Ry

     iteration #  8     ecut=    35.00 Ry     beta=0.30
     Davidson diagonalization with overlap
     ethr =  5.42E-09,  avg # of iterations =  1.9

     total cpu time spent up to now is      172.5 secs

     total energy              =    -152.88405785 Ry
     Harris-Foulkes estimate   =    -152.88405799 Ry
     estimated scf accuracy    <       0.00000067 Ry

     iteration #  9     ecut=    35.00 Ry     beta=0.30
     Davidson diagonalization with overlap
     ethr =  1.05E-09,  avg # of iterations =  2.4

     total cpu time spent up to now is      189.4 secs

     total energy              =    -152.88405794 Ry
     Harris-Foulkes estimate   =    -152.88405794 Ry
     estimated scf accuracy    <       0.00000009 Ry

     iteration # 10     ecut=    35.00 Ry     beta=0.30
     Davidson diagonalization with overlap
     ethr =  1.45E-10,  avg # of iterations =  2.7

     total cpu time spent up to now is      205.7 secs

     total energy              =    -152.88405794 Ry
     Harris-Foulkes estimate   =    -152.88405795 Ry
     estimated scf accuracy    <       0.00000003 Ry

     iteration # 11     ecut=    35.00 Ry     beta=0.30
     Davidson diagonalization with overlap
     ethr =  4.58E-11,  avg # of iterations =  2.7

     total cpu time spent up to now is      223.8 secs

     total energy              =    -152.88405795 Ry
     Harris-Foulkes estimate   =    -152.88405794 Ry
     estimated scf accuracy    <          4.1E-09 Ry

     iteration # 12     ecut=    35.00 Ry     beta=0.30
     Davidson diagonalization with overlap
     ethr =  6.46E-12,  avg # of iterations =  2.8

     total cpu time spent up to now is      243.1 secs

     End of self-consistent calculation

          k = 0.0000 0.0000 0.0000 (  7631 PWs)   bands (ev):

    -5.8688  -3.6407  -3.5796  -3.4570  -3.3609  -1.9203  -1.8528  -1.8358
    -1.6679  -1.5851  -1.3683  -0.9384  -0.9127  -0.8122  -0.5762   3.1755
     3.2100   3.2542   3.2731   3.3434   3.4035   4.7042   4.7801   4.8151
     4.8572   4.9377   4.9685   5.1232   5.3603   5.9814   6.0566   6.4473
     6.5209   6.6466   6.6655   6.7325   6.8877   6.9481

     occupation numbers 
     1.0000   1.0000   1.0000   1.0000   1.0000   1.0000   1.0000   1.0000
     1.0000   1.0000   1.0000   1.0000   1.0000   1.0000   1.0000   1.0000
     1.0000   1.0000   1.0000   1.0000   1.0000   1.0000   1.0000   1.0000
     1.0000   1.0000   1.0000   1.0000   1.0000   0.9987   0.9936   0.4137
     0.2333   0.0549   0.0418   0.0141   0.0005   0.0001

          k = 0.1768 0.1768-0.1768 (  7564 PWs)   bands (ev):

    -5.6689  -4.1481  -3.5449  -3.4187  -3.3581  -2.6583  -2.5052  -2.4282
    -0.9920  -0.7837  -0.7304  -0.6355  -0.4466  -0.2635   0.1609   2.5458
     2.6229   2.7026   3.3450   3.4699   3.4912   3.7326   3.8487   3.9317
     4.4723   4.5262   4.6589   4.7405   4.9386   5.2624   5.7442   6.1736
     6.8423   6.9221   6.9903   7.6548   7.7791   7.8735

     occupation numbers 
     1.0000   1.0000   1.0000   1.0000   1.0000   1.0000   1.0000   1.0000
     1.0000   1.0000   1.0000   1.0000   1.0000   1.0000   1.0000   1.0000
     1.0000   1.0000   1.0000   1.0000   1.0000   1.0000   1.0000   1.0000
     1.0000   1.0000   1.0000   1.0000   1.0000   1.0000   1.0000   0.9534
     0.0016   0.0002   0.0000   0.0000   0.0000   0.0000

          k =-0.3536-0.3536 0.3536 (  7570 PWs)   bands (ev):

    -5.2062  -4.9060  -3.4183  -3.2241  -3.1925  -3.0619  -2.9690  -2.8551
    -0.5889  -0.3937  -0.3140  -0.2335  -0.0069   0.1909   2.0469   2.1053
     2.3346   2.4459   2.4817   2.5798   2.7194   2.7822   3.7067   3.7743
     3.8798   4.0382   4.2191   4.2632   5.1223   5.2890   5.4630   5.9052
     7.2579   7.3613   7.4472   7.5062   7.7811   7.8240

     occupation numbers 
     1.0000   1.0000   1.0000   1.0000   1.0000   1.0000   1.0000   1.0000
     1.0000   1.0000   1.0000   1.0000   1.0000   1.0000   1.0000   1.0000
     1.0000   1.0000   1.0000   1.0000   1.0000   1.0000   1.0000   1.0000
     1.0000   1.0000   1.0000   1.0000   1.0000   1.0000   1.0000   0.9998
     0.0000   0.0000   0.0000   0.0000   0.0000   0.0000

          k = 0.3536 0.0000 0.0000 (  7563 PWs)   bands (ev):

    -5.5986  -3.8400  -3.7721  -3.6281  -3.5130  -3.3772  -1.7756  -1.6370
    -1.5246  -1.4689  -0.4267  -0.3175  -0.2759  -0.0720   0.5136   2.5818
     2.6248   2.6974   2.7278   3.4092   3.5100   3.5769   3.6746   3.7166
     3.8798   4.6707   4.8117   4.8501   5.0410   5.0680   5.2932   5.5535
     6.6597   7.4063   7.7770   7.8537   7.9871   8.0418

     occupation numbers 
     1.0000   1.0000   1.0000   1.0000   1.0000   1.0000   1.0000   1.0000
     1.0000   1.0000   1.0000   1.0000   1.0000   1.0000   1.0000   1.0000
     1.0000   1.0000   1.0000   1.0000   1.0000   1.0000   1.0000   1.0000
     1.0000   1.0000   1.0000   1.0000   1.0000   1.0000   1.0000   1.0000
     0.0455   0.0000   0.0000   0.0000   0.0000   0.0000

          k =-0.1768-0.5303 0.5303 (  7554 PWs)   bands (ev):

    -5.1555  -4.5824  -4.0981  -3.6318  -3.5767  -2.9690  -2.3668  -2.2755
    -0.8696  -0.7876  -0.3716   0.1875   0.2713   1.3163   1.5009   1.9359
     2.0155   2.1520   2.6286   2.7147   2.8955   3.1522   3.2114   3.4025
     3.8466   3.8572   4.2530   4.3972   4.4634   4.7394   5.1733   5.3231
     7.3040   7.7655   8.0647   8.3387   8.4237   8.6883

     occupation numbers 
     1.0000   1.0000   1.0000   1.0000   1.0000   1.0000   1.0000   1.0000
     1.0000   1.0000   1.0000   1.0000   1.0000   1.0000   1.0000   1.0000
     1.0000   1.0000   1.0000   1.0000   1.0000   1.0000   1.0000   1.0000
     1.0000   1.0000   1.0000   1.0000   1.0000   1.0000   1.0000   1.0000
     0.0000   0.0000   0.0000   0.0000   0.0000   0.0000

          k = 0.0000-0.3536 0.3536 (  7592 PWs)   bands (ev):

    -5.3464  -4.3536  -4.2528  -3.3036  -3.2704  -2.9230  -2.7918  -2.1608
    -1.0483  -0.7709  -0.7165   0.1019   0.1769   0.7870   0.9848   1.8269
     2.5445   2.5994   2.8279   2.8947   3.3411   3.3757   3.6057   3.6642
     3.9543   4.0170   4.2955   4.3513   4.4717   4.5578   4.7551   5.7430
     7.1212   7.8397   7.9481   8.1453   8.2807   8.4708

     occupation numbers 
     1.0000   1.0000   1.0000   1.0000   1.0000   1.0000   1.0000   1.0000
     1.0000   1.0000   1.0000   1.0000   1.0000   1.0000   1.0000   1.0000
     1.0000   1.0000   1.0000   1.0000   1.0000   1.0000   1.0000   1.0000
     1.0000   1.0000   1.0000   1.0000   1.0000   1.0000   1.0000   1.0000
     0.0000   0.0000   0.0000   0.0000   0.0000   0.0000

          k =-0.7071 0.0000 0.0000 (  7528 PWs)   bands (ev):

    -4.8494  -4.7583  -3.9482  -3.8149  -3.7514  -3.6306  -1.6733  -1.5445
    -1.4194  -1.3749   0.4849   0.5849   0.6861   0.7858   2.0075   2.0481
     2.1539   2.1984   2.3202   2.3971   2.4982   2.5428   2.7394   2.7808
     4.0981   4.2104   4.2817   4.3529   4.7778   4.8179   5.0009   5.0127
     7.1238   7.1925   8.3129   8.3613   8.4667   8.5425

     occupation numbers 
     1.0000   1.0000   1.0000   1.0000   1.0000   1.0000   1.0000   1.0000
     1.0000   1.0000   1.0000   1.0000   1.0000   1.0000   1.0000   1.0000
     1.0000   1.0000   1.0000   1.0000   1.0000   1.0000   1.0000   1.0000
     1.0000   1.0000   1.0000   1.0000   1.0000   1.0000   1.0000   1.0000
     0.0000   0.0000   0.0000   0.0000   0.0000   0.0000

          k =-0.7071 0.3536 0.0000 (  7564 PWs)   bands (ev):

    -4.7080  -4.5932  -4.5140  -4.3071  -2.8367  -2.7434  -2.6905  -2.5327
    -0.5745  -0.5310  -0.3286  -0.3044   1.5319   1.6111   1.7238   1.8209
     1.9134   1.9704   2.0617   2.1827   3.1592   3.2217   3.4323   3.4649
     3.5223   3.5899   3.6998   3.7782   4.5861   4.6815   4.8444   4.9707
     8.3290   8.4143   8.4771   8.5123   8.7011   8.7737

     occupation numbers 
     1.0000   1.0000   1.0000   1.0000   1.0000   1.0000   1.0000   1.0000
     1.0000   1.0000   1.0000   1.0000   1.0000   1.0000   1.0000   1.0000
     1.0000   1.0000   1.0000   1.0000   1.0000   1.0000   1.0000   1.0000
     1.0000   1.0000   1.0000   1.0000   1.0000   1.0000   1.0000   1.0000
     0.0000   0.0000   0.0000   0.0000   0.0000   0.0000

          k =-0.1768-0.1768-0.1768 (  7564 PWs)   bands (ev):

    -5.6646  -4.1554  -3.5569  -3.4639  -3.3023  -2.6066  -2.5682  -2.4355
    -0.9497  -0.8407  -0.7189  -0.5534  -0.4489  -0.2492   0.1280   2.5508
     2.5991   2.6627   3.3361   3.4258   3.5456   3.6967   3.8183   3.8804
     4.4254   4.5804   4.6261   4.8326   4.9635   5.2649   5.8137   6.1505
     6.8053   6.8665   7.0152   7.6659   7.8006   7.9386

     occupation numbers 
     1.0000   1.0000   1.0000   1.0000   1.0000   1.0000   1.0000   1.0000
     1.0000   1.0000   1.0000   1.0000   1.0000   1.0000   1.0000   1.0000
     1.0000   1.0000   1.0000   1.0000   1.0000   1.0000   1.0000   1.0000
     1.0000   1.0000   1.0000   1.0000   1.0000   1.0000   1.0000   0.9670
     0.0035   0.0009   0.0000   0.0000   0.0000   0.0000

          k =-0.1768 0.1768 0.1768 (  7564 PWs)   bands (ev):

    -5.6657  -4.1738  -3.5354  -3.4461  -3.2995  -2.6735  -2.5568  -2.3652
    -0.9802  -0.8864  -0.6717  -0.5808  -0.4479  -0.3046   0.1549   2.5319
     2.6449   2.7152   3.3808   3.4442   3.4814   3.7353   3.8324   3.9609
     4.3789   4.5521   4.6725   4.7518   4.9800   5.2786   5.7803   6.0840
     6.7276   6.9126   7.0705   7.6272   7.7883   7.9463

     occupation numbers 
     1.0000   1.0000   1.0000   1.0000   1.0000   1.0000   1.0000   1.0000
     1.0000   1.0000   1.0000   1.0000   1.0000   1.0000   1.0000   1.0000
     1.0000   1.0000   1.0000   1.0000   1.0000   1.0000   1.0000   1.0000
     1.0000   1.0000   1.0000   1.0000   1.0000   1.0000   1.0000   0.9893
     0.0154   0.0003   0.0000   0.0000   0.0000   0.0000

          k = 0.1768-0.1768 0.1768 (  7564 PWs)   bands (ev):

    -5.6689  -4.2145  -3.5236  -3.3984  -3.2762  -2.6567  -2.4929  -2.3936
    -0.9878  -0.8662  -0.7462  -0.6612  -0.5649  -0.4394   0.3479   2.6556
     2.7133   2.8082   3.3434   3.3841   3.4226   3.7974   4.0276   4.1652
     4.4408   4.4928   4.5476   4.8572   4.9849   5.0566   5.7501   5.8122
     6.7177   6.8294   6.8979   7.5805   7.8759   7.9915

     occupation numbers 
     1.0000   1.0000   1.0000   1.0000   1.0000   1.0000   1.0000   1.0000
     1.0000   1.0000   1.0000   1.0000   1.0000   1.0000   1.0000   1.0000
     1.0000   1.0000   1.0000   1.0000   1.0000   1.0000   1.0000   1.0000
     1.0000   1.0000   1.0000   1.0000   1.0000   1.0000   1.0000   1.0000
     0.0182   0.0021   0.0004   0.0000   0.0000   0.0000

          k = 0.3536 0.3536 0.3536 (  7570 PWs)   bands (ev):

    -5.1279  -4.9970  -3.3969  -3.2628  -3.1471  -3.0799  -2.9440  -2.9069
    -0.5254  -0.4708  -0.3317  -0.0571   0.0009   0.2044   1.9798   2.0907
     2.3583   2.3849   2.4862   2.5023   2.5992   2.7494   3.7468   3.8750
     3.8864   3.9667   4.1442   4.3284   5.1452   5.3348   5.6269   5.7503
     7.1872   7.3504   7.4931   7.5822   7.8102   7.9235

     occupation numbers 
     1.0000   1.0000   1.0000   1.0000   1.0000   1.0000   1.0000   1.0000
     1.0000   1.0000   1.0000   1.0000   1.0000   1.0000   1.0000   1.0000
     1.0000   1.0000   1.0000   1.0000   1.0000   1.0000   1.0000   1.0000
     1.0000   1.0000   1.0000   1.0000   1.0000   1.0000   1.0000   1.0000
     0.0000   0.0000   0.0000   0.0000   0.0000   0.0000

          k = 0.3536-0.3536-0.3536 (  7570 PWs)   bands (ev):

    -5.1352  -4.9994  -3.3747  -3.2284  -3.1718  -3.1104  -2.9585  -2.8429
    -0.5361  -0.5145  -0.2485  -0.1711   0.0010   0.0820   2.0395   2.1252
     2.3228   2.4526   2.5561   2.5892   2.6461   2.7687   3.8066   3.8910
     3.9135   4.0109   4.0209   4.2272   5.1965   5.3893   5.5526   5.6167
     7.2405   7.3965   7.5226   7.5708   7.6190   7.7846

     occupation numbers 
     1.0000   1.0000   1.0000   1.0000   1.0000   1.0000   1.0000   1.0000
     1.0000   1.0000   1.0000   1.0000   1.0000   1.0000   1.0000   1.0000
     1.0000   1.0000   1.0000   1.0000   1.0000   1.0000   1.0000   1.0000
     1.0000   1.0000   1.0000   1.0000   1.0000   1.0000   1.0000   1.0000
     0.0000   0.0000   0.0000   0.0000   0.0000   0.0000

          k =-0.3536 0.3536-0.3536 (  7570 PWs)   bands (ev):

    -5.1516  -5.0115  -3.3307  -3.2210  -3.1971  -3.0345  -2.9253  -2.8205
    -0.5854  -0.4532  -0.4100  -0.3159  -0.1904  -0.0183   2.0797   2.1847
     2.5108   2.6330   2.6985   2.7844   2.9498   2.9880   3.7600   3.8220
     3.8494   3.9470   3.9893   4.0442   5.2177   5.2995   5.3787   5.4365
     7.1866   7.2305   7.3906   7.5061   7.6282   7.7432

     occupation numbers 
     1.0000   1.0000   1.0000   1.0000   1.0000   1.0000   1.0000   1.0000
     1.0000   1.0000   1.0000   1.0000   1.0000   1.0000   1.0000   1.0000
     1.0000   1.0000   1.0000   1.0000   1.0000   1.0000   1.0000   1.0000
     1.0000   1.0000   1.0000   1.0000   1.0000   1.0000   1.0000   1.0000
     0.0000   0.0000   0.0000   0.0000   0.0000   0.0000

          k = 0.0000 0.3536 0.0000 (  7563 PWs)   bands (ev):

    -5.5997  -3.8228  -3.7856  -3.6317  -3.5191  -3.3529  -1.7638  -1.6965
    -1.6697  -1.3297  -0.3777  -0.3498  -0.2443  -0.0050   0.4442   2.5657
     2.6003   2.7447   2.7556   3.3972   3.5206   3.5920   3.6251   3.7166
     3.8683   4.6303   4.7454   4.8569   4.9786   5.1040   5.3571   5.5897
     6.7034   7.4383   7.7238   7.8329   7.9743   8.0629

     occupation numbers 
     1.0000   1.0000   1.0000   1.0000   1.0000   1.0000   1.0000   1.0000
     1.0000   1.0000   1.0000   1.0000   1.0000   1.0000   1.0000   1.0000
     1.0000   1.0000   1.0000   1.0000   1.0000   1.0000   1.0000   1.0000
     1.0000   1.0000   1.0000   1.0000   1.0000   1.0000   1.0000   1.0000
     0.0232   0.0000   0.0000   0.0000   0.0000   0.0000

          k = 0.0000 0.0000 0.3536 (  7563 PWs)   bands (ev):

    -5.5988  -3.8746  -3.7159  -3.6574  -3.5338  -3.3347  -1.7820  -1.6867
    -1.5607  -1.3857  -0.4868  -0.3363  -0.2234  -0.0244   0.4815   2.5526
     2.6170   2.6889   2.7790   3.4171   3.5215   3.5493   3.6460   3.7551
     3.8934   4.7199   4.7825   4.8411   4.9473   5.1235   5.3151   5.6181
     6.5796   7.4017   7.7714   7.8656   7.9145   8.0670

     occupation numbers 
     1.0000   1.0000   1.0000   1.0000   1.0000   1.0000   1.0000   1.0000
     1.0000   1.0000   1.0000   1.0000   1.0000   1.0000   1.0000   1.0000
     1.0000   1.0000   1.0000   1.0000   1.0000   1.0000   1.0000   1.0000
     1.0000   1.0000   1.0000   1.0000   1.0000   1.0000   1.0000   1.0000
     0.1282   0.0000   0.0000   0.0000   0.0000   0.0000

          k = 0.1768 0.5303 0.5303 (  7554 PWs)   bands (ev):

    -5.1367  -4.6057  -4.1091  -3.6288  -3.6024  -2.8695  -2.4400  -2.2854
    -0.8889  -0.7012  -0.4986   0.2851   0.4315   1.2555   1.4118   1.8577
     1.9481   2.1697   2.6779   2.7540   2.9470   3.1403   3.1844   3.4017
     3.8634   3.9216   4.1071   4.2591   4.4533   4.8130   5.0347   5.5826
     7.3747   7.8490   8.1637   8.3920   8.4455   8.6184

     occupation numbers 
     1.0000   1.0000   1.0000   1.0000   1.0000   1.0000   1.0000   1.0000
     1.0000   1.0000   1.0000   1.0000   1.0000   1.0000   1.0000   1.0000
     1.0000   1.0000   1.0000   1.0000   1.0000   1.0000   1.0000   1.0000
     1.0000   1.0000   1.0000   1.0000   1.0000   1.0000   1.0000   1.0000
     0.0000   0.0000   0.0000   0.0000   0.0000   0.0000

          k = 0.1768-0.5303-0.5303 (  7554 PWs)   bands (ev):

    -5.1402  -4.6109  -4.1020  -3.6283  -3.5956  -2.8724  -2.4287  -2.2686
    -0.8852  -0.7019  -0.5867   0.2932   0.4298   1.1997   1.4111   1.8963
     1.9955   2.2053   2.6298   2.7526   3.0818   3.1372   3.2091   3.4135
     3.8270   3.9369   4.1624   4.2151   4.3609   4.8276   5.0220   5.5650
     7.3955   7.8417   8.1348   8.3129   8.4013   8.7537

     occupation numbers 
     1.0000   1.0000   1.0000   1.0000   1.0000   1.0000   1.0000   1.0000
     1.0000   1.0000   1.0000   1.0000   1.0000   1.0000   1.0000   1.0000
     1.0000   1.0000   1.0000   1.0000   1.0000   1.0000   1.0000   1.0000
     1.0000   1.0000   1.0000   1.0000   1.0000   1.0000   1.0000   1.0000
     0.0000   0.0000   0.0000   0.0000   0.0000   0.0000

          k =-0.1768 0.5303-0.5303 (  7554 PWs)   bands (ev):

    -5.1443  -4.6516  -4.0405  -3.6358  -3.5773  -2.8942  -2.3570  -2.2705
    -0.9016  -0.8492  -0.4717   0.1563   0.2367   1.1250   1.6084   1.9793
     2.0857   2.2061   2.7567   2.8216   3.1167   3.1471   3.2342   3.5909
     3.8248   3.8715   4.1469   4.2626   4.3284   4.7929   4.9182   5.2895
     7.3393   7.7224   8.0604   8.2717   8.3443   8.6847

     occupation numbers 
     1.0000   1.0000   1.0000   1.0000   1.0000   1.0000   1.0000   1.0000
     1.0000   1.0000   1.0000   1.0000   1.0000   1.0000   1.0000   1.0000
     1.0000   1.0000   1.0000   1.0000   1.0000   1.0000   1.0000   1.0000
     1.0000   1.0000   1.0000   1.0000   1.0000   1.0000   1.0000   1.0000
     0.0000   0.0000   0.0000   0.0000   0.0000   0.0000

          k =-0.5303-0.1768-0.5303 (  7554 PWs)   bands (ev):

    -5.1388  -4.6124  -4.0991  -3.6455  -3.5314  -2.9712  -2.4150  -2.2774
    -0.8786  -0.8038  -0.2877   0.2489   0.2988   1.3377   1.4360   1.8964
     2.0097   2.1345   2.6359   2.6837   2.9209   3.1273   3.1940   3.3479
     3.8146   3.9248   4.1669   4.2703   4.5249   4.8321   5.1668   5.4051
     7.3454   7.7602   8.1674   8.3636   8.5336   8.6926

     occupation numbers 
     1.0000   1.0000   1.0000   1.0000   1.0000   1.0000   1.0000   1.0000
     1.0000   1.0000   1.0000   1.0000   1.0000   1.0000   1.0000   1.0000
     1.0000   1.0000   1.0000   1.0000   1.0000   1.0000   1.0000   1.0000
     1.0000   1.0000   1.0000   1.0000   1.0000   1.0000   1.0000   1.0000
     0.0000   0.0000   0.0000   0.0000   0.0000   0.0000

          k = 0.5303 0.1768-0.5303 (  7554 PWs)   bands (ev):

    -5.1631  -4.5646  -4.0760  -3.7266  -3.5437  -2.8944  -2.4082  -2.2803
    -0.9425  -0.7091  -0.5084   0.2102   0.5429   1.1986   1.4434   1.9325
     1.9813   2.1822   2.6447   2.7350   2.9812   3.0806   3.3000   3.3691
     3.7646   3.8906   4.1639   4.2695   4.4732   4.8246   5.0005   5.5863
     7.3532   7.8356   8.1659   8.2592   8.4532   8.6876

     occupation numbers 
     1.0000   1.0000   1.0000   1.0000   1.0000   1.0000   1.0000   1.0000
     1.0000   1.0000   1.0000   1.0000   1.0000   1.0000   1.0000   1.0000
     1.0000   1.0000   1.0000   1.0000   1.0000   1.0000   1.0000   1.0000
     1.0000   1.0000   1.0000   1.0000   1.0000   1.0000   1.0000   1.0000
     0.0000   0.0000   0.0000   0.0000   0.0000   0.0000

          k =-0.5303 0.1768 0.5303 (  7554 PWs)   bands (ev):

    -5.1422  -4.6248  -4.0336  -3.7247  -3.5484  -2.8698  -2.4523  -2.2606
    -0.9317  -0.7504  -0.4525   0.2113   0.5065   1.1868   1.4536   1.9369
     2.0100   2.0585   2.6867   2.8465   2.9547   3.1035   3.2664   3.4071
     3.8208   3.8930   4.1290   4.2325   4.3567   4.8732   5.1050   5.4666
     7.4577   7.8101   8.1374   8.3009   8.4386   8.6309

     occupation numbers 
     1.0000   1.0000   1.0000   1.0000   1.0000   1.0000   1.0000   1.0000
     1.0000   1.0000   1.0000   1.0000   1.0000   1.0000   1.0000   1.0000
     1.0000   1.0000   1.0000   1.0000   1.0000   1.0000   1.0000   1.0000
     1.0000   1.0000   1.0000   1.0000   1.0000   1.0000   1.0000   1.0000
     0.0000   0.0000   0.0000   0.0000   0.0000   0.0000

          k = 0.5303-0.1768 0.5303 (  7554 PWs)   bands (ev):

    -5.1526  -4.6273  -4.0802  -3.6441  -3.5203  -2.8968  -2.4079  -2.2654
    -0.9093  -0.8064  -0.5133   0.2006   0.2470   1.1334   1.5348   1.9992
     2.1471   2.3142   2.7061   2.8198   3.0644   3.1153   3.1866   3.6108
     3.7056   3.8838   4.1778   4.2434   4.3844   4.8132   4.8733   5.3708
     7.3394   7.7356   8.0704   8.2796   8.4345   8.5985

     occupation numbers 
     1.0000   1.0000   1.0000   1.0000   1.0000   1.0000   1.0000   1.0000
     1.0000   1.0000   1.0000   1.0000   1.0000   1.0000   1.0000   1.0000
     1.0000   1.0000   1.0000   1.0000   1.0000   1.0000   1.0000   1.0000
     1.0000   1.0000   1.0000   1.0000   1.0000   1.0000   1.0000   1.0000
     0.0000   0.0000   0.0000   0.0000   0.0000   0.0000

          k = 0.5303 0.5303-0.1768 (  7554 PWs)   bands (ev):

    -5.1594  -4.5709  -4.0815  -3.7001  -3.5920  -2.8240  -2.4273  -2.2945
    -0.8673  -0.7439  -0.5811   0.2671   0.5019   1.1729   1.4447   1.9196
     1.9841   2.0755   2.7341   2.7707   2.9726   3.1676   3.3178   3.4332
     3.7851   3.9087   4.1250   4.1950   4.4549   4.7892   4.9434   5.6556
     7.3571   7.9306   8.0612   8.2703   8.3836   8.7598

     occupation numbers 
     1.0000   1.0000   1.0000   1.0000   1.0000   1.0000   1.0000   1.0000
     1.0000   1.0000   1.0000   1.0000   1.0000   1.0000   1.0000   1.0000
     1.0000   1.0000   1.0000   1.0000   1.0000   1.0000   1.0000   1.0000
     1.0000   1.0000   1.0000   1.0000   1.0000   1.0000   1.0000   1.0000
     0.0000   0.0000   0.0000   0.0000   0.0000   0.0000

          k =-0.5303 0.5303 0.1768 (  7554 PWs)   bands (ev):

    -5.1368  -4.6250  -4.1089  -3.6723  -3.4555  -2.9893  -2.4139  -2.2581
    -0.9053  -0.7493  -0.3278   0.0952   0.3187   1.2933   1.4815   1.9101
     2.0602   2.1795   2.5876   2.7405   2.9182   3.1265   3.2146   3.4170
     3.8611   3.9339   4.2131   4.3018   4.4853   4.7855   5.1866   5.3229
     7.2635   7.6650   8.0758   8.3200   8.4870   8.6583

     occupation numbers 
     1.0000   1.0000   1.0000   1.0000   1.0000   1.0000   1.0000   1.0000
     1.0000   1.0000   1.0000   1.0000   1.0000   1.0000   1.0000   1.0000
     1.0000   1.0000   1.0000   1.0000   1.0000   1.0000   1.0000   1.0000
     1.0000   1.0000   1.0000   1.0000   1.0000   1.0000   1.0000   1.0000
     0.0000   0.0000   0.0000   0.0000   0.0000   0.0000

          k = 0.5303-0.5303 0.1768 (  7554 PWs)   bands (ev):

    -5.1470  -4.6375  -4.0888  -3.6764  -3.4509  -2.9338  -2.4042  -2.2426
    -0.9154  -0.7845  -0.4987   0.0621   0.2988   1.1634   1.5566   1.9142
     2.1408   2.3586   2.6850   2.8342   3.0359   3.1335   3.2194   3.6045
     3.7827   3.9056   4.1491   4.2501   4.4317   4.8116   4.8650   5.3483
     7.2336   7.6444   8.0959   8.2240   8.4052   8.6503

     occupation numbers 
     1.0000   1.0000   1.0000   1.0000   1.0000   1.0000   1.0000   1.0000
     1.0000   1.0000   1.0000   1.0000   1.0000   1.0000   1.0000   1.0000
     1.0000   1.0000   1.0000   1.0000   1.0000   1.0000   1.0000   1.0000
     1.0000   1.0000   1.0000   1.0000   1.0000   1.0000   1.0000   1.0000
     0.0000   0.0000   0.0000   0.0000   0.0000   0.0000

          k =-0.5303-0.5303-0.1768 (  7554 PWs)   bands (ev):

    -5.1336  -4.6320  -4.0342  -3.7019  -3.5996  -2.8455  -2.4292  -2.2931
    -0.8810  -0.6780  -0.5759   0.2751   0.5062   1.1696   1.4718   1.8935
     1.9580   2.1064   2.6514   2.7502   2.9103   3.2040   3.2511   3.4310
     3.7985   3.9648   4.1472   4.2450   4.2997   4.8670   5.0768   5.5851
     7.3849   7.8100   8.2263   8.2804   8.3777   8.6547

     occupation numbers 
     1.0000   1.0000   1.0000   1.0000   1.0000   1.0000   1.0000   1.0000
     1.0000   1.0000   1.0000   1.0000   1.0000   1.0000   1.0000   1.0000
     1.0000   1.0000   1.0000   1.0000   1.0000   1.0000   1.0000   1.0000
     1.0000   1.0000   1.0000   1.0000   1.0000   1.0000   1.0000   1.0000
     0.0000   0.0000   0.0000   0.0000   0.0000   0.0000

          k = 0.0000 0.3536 0.3536 (  7592 PWs)   bands (ev):

    -5.3298  -4.3458  -4.2740  -3.2803  -3.2490  -3.0320  -2.8767  -2.0294
    -1.1995  -0.7672  -0.4435   0.1915   0.3116   0.8098   0.8546   1.7176
     2.4939   2.5654   2.7388   2.7915   3.2190   3.3023   3.3743   3.7644
     3.9433   4.0114   4.2681   4.3100   4.5783   4.7241   4.7909   6.0717
     7.2084   7.8560   7.9964   8.2492   8.3640   8.5354

     occupation numbers 
     1.0000   1.0000   1.0000   1.0000   1.0000   1.0000   1.0000   1.0000
     1.0000   1.0000   1.0000   1.0000   1.0000   1.0000   1.0000   1.0000
     1.0000   1.0000   1.0000   1.0000   1.0000   1.0000   1.0000   1.0000
     1.0000   1.0000   1.0000   1.0000   1.0000   1.0000   1.0000   0.9915
     0.0000   0.0000   0.0000   0.0000   0.0000   0.0000

          k =-0.3536 0.0000-0.3536 (  7592 PWs)   bands (ev):

    -5.3356  -4.4129  -4.2109  -3.3317  -3.1829  -2.9767  -2.8296  -2.1385
    -1.0191  -0.7709  -0.6937   0.0985   0.1851   0.7745   1.0170   1.7684
     2.5262   2.7122   2.7360   2.8604   3.2327   3.4617   3.6048   3.7001
     3.8957   3.9948   4.2388   4.3547   4.5207   4.6099   4.7221   5.8147
     7.1284   7.8135   7.8895   8.2098   8.3391   8.4962

     occupation numbers 
     1.0000   1.0000   1.0000   1.0000   1.0000   1.0000   1.0000   1.0000
     1.0000   1.0000   1.0000   1.0000   1.0000   1.0000   1.0000   1.0000
     1.0000   1.0000   1.0000   1.0000   1.0000   1.0000   1.0000   1.0000
     1.0000   1.0000   1.0000   1.0000   1.0000   1.0000   1.0000   1.0000
     0.0000   0.0000   0.0000   0.0000   0.0000   0.0000

          k = 0.3536 0.0000-0.3536 (  7592 PWs)   bands (ev):

    -5.3395  -4.3872  -4.1803  -3.4119  -3.2081  -3.0056  -2.8460  -2.0164
    -1.1532  -0.8308  -0.5029   0.1215   0.4032   0.7664   0.8792   1.7525
     2.4699   2.5311   2.7808   2.8427   3.2488   3.3576   3.4360   3.6868
     3.9147   4.1452   4.2175   4.3135   4.5079   4.5977   4.9109   5.9971
     7.2020   7.8112   8.0312   8.2497   8.3310   8.5403

     occupation numbers 
     1.0000   1.0000   1.0000   1.0000   1.0000   1.0000   1.0000   1.0000
     1.0000   1.0000   1.0000   1.0000   1.0000   1.0000   1.0000   1.0000
     1.0000   1.0000   1.0000   1.0000   1.0000   1.0000   1.0000   1.0000
     1.0000   1.0000   1.0000   1.0000   1.0000   1.0000   1.0000   0.9981
     0.0000   0.0000   0.0000   0.0000   0.0000   0.0000

          k = 0.3536 0.3536 0.0000 (  7592 PWs)   bands (ev):

    -5.3377  -4.3546  -4.2174  -3.3725  -3.2673  -2.9960  -2.8588  -1.9889
    -1.2217  -0.7446  -0.5285   0.2102   0.4100   0.7511   0.8733   1.7343
     2.4437   2.5342   2.7391   2.8252   3.2429   3.2970   3.3499   3.7302
     4.0082   4.1047   4.2327   4.2948   4.5480   4.6008   4.8668   6.0991
     7.2269   7.9219   8.0052   8.2513   8.3566   8.4461

     occupation numbers 
     1.0000   1.0000   1.0000   1.0000   1.0000   1.0000   1.0000   1.0000
     1.0000   1.0000   1.0000   1.0000   1.0000   1.0000   1.0000   1.0000
     1.0000   1.0000   1.0000   1.0000   1.0000   1.0000   1.0000   1.0000
     1.0000   1.0000   1.0000   1.0000   1.0000   1.0000   1.0000   0.9859
     0.0000   0.0000   0.0000   0.0000   0.0000   0.0000

          k =-0.3536 0.3536 0.0000 (  7592 PWs)   bands (ev):

    -5.3383  -4.3786  -4.2658  -3.3219  -3.1212  -2.9802  -2.8219  -2.1932
    -1.0464  -0.7360  -0.6809  -0.0153   0.2415   0.7593   1.0039   1.7855
     2.6028   2.7108   2.7438   2.8684   3.2828   3.4373   3.5881   3.6837
     3.9426   3.9961   4.2630   4.4288   4.4970   4.5951   4.6560   5.7915
     7.0161   7.8165   7.9693   8.1411   8.2770   8.4612

     occupation numbers 
     1.0000   1.0000   1.0000   1.0000   1.0000   1.0000   1.0000   1.0000
     1.0000   1.0000   1.0000   1.0000   1.0000   1.0000   1.0000   1.0000
     1.0000   1.0000   1.0000   1.0000   1.0000   1.0000   1.0000   1.0000
     1.0000   1.0000   1.0000   1.0000   1.0000   1.0000   1.0000   1.0000
     0.0000   0.0000   0.0000   0.0000   0.0000   0.0000

          k = 0.0000-0.7071 0.0000 (  7528 PWs)   bands (ev):

    -4.9152  -4.6748  -3.9614  -3.8164  -3.7365  -3.6409  -1.6477  -1.5905
    -1.5746  -1.2387   0.5625   0.5879   0.6157   0.8779   2.0571   2.1297
     2.1710   2.2868   2.3075   2.3429   2.4044   2.4753   2.6751   2.7269
     4.0123   4.1348   4.2402   4.4860   4.7555   4.8660   4.9116   5.1679
     7.1640   7.2167   8.2481   8.3364   8.4707   8.5853

     occupation numbers 
     1.0000   1.0000   1.0000   1.0000   1.0000   1.0000   1.0000   1.0000
     1.0000   1.0000   1.0000   1.0000   1.0000   1.0000   1.0000   1.0000
     1.0000   1.0000   1.0000   1.0000   1.0000   1.0000   1.0000   1.0000
     1.0000   1.0000   1.0000   1.0000   1.0000   1.0000   1.0000   1.0000
     0.0000   0.0000   0.0000   0.0000   0.0000   0.0000

          k = 0.0000 0.0000-0.7071 (  7528 PWs)   bands (ev):

    -4.8507  -4.7605  -3.9716  -3.7916  -3.7535  -3.6127  -1.6886  -1.5635
    -1.4891  -1.2767   0.3947   0.6291   0.6730   0.8200   1.9693   2.0947
     2.1519   2.2154   2.3098   2.4284   2.4566   2.6396   2.7063   2.7455
     4.1387   4.1706   4.2537   4.3879   4.7319   4.8323   4.9204   5.1686
     7.0845   7.1304   8.2153   8.3663   8.4481   8.5587

     occupation numbers 
     1.0000   1.0000   1.0000   1.0000   1.0000   1.0000   1.0000   1.0000
     1.0000   1.0000   1.0000   1.0000   1.0000   1.0000   1.0000   1.0000
     1.0000   1.0000   1.0000   1.0000   1.0000   1.0000   1.0000   1.0000
     1.0000   1.0000   1.0000   1.0000   1.0000   1.0000   1.0000   1.0000
     0.0000   0.0000   0.0000   0.0000   0.0000   0.0000

          k = 0.3536-0.7071 0.0000 (  7564 PWs)   bands (ev):

    -4.7444  -4.5990  -4.4415  -4.3243  -2.9053  -2.7293  -2.6186  -2.5708
    -0.6038  -0.5340  -0.3993  -0.1833   1.5537   1.6862   1.7353   1.8061
     1.8930   1.9432   2.0666   2.1319   3.1698   3.2813   3.3694   3.4491
     3.4785   3.5933   3.6822   3.7805   4.5875   4.6796   4.7961   5.0746
     8.2930   8.3582   8.4311   8.5533   8.6495   8.8410

     occupation numbers 
     1.0000   1.0000   1.0000   1.0000   1.0000   1.0000   1.0000   1.0000
     1.0000   1.0000   1.0000   1.0000   1.0000   1.0000   1.0000   1.0000
     1.0000   1.0000   1.0000   1.0000   1.0000   1.0000   1.0000   1.0000
     1.0000   1.0000   1.0000   1.0000   1.0000   1.0000   1.0000   1.0000
     0.0000   0.0000   0.0000   0.0000   0.0000   0.0000

          k = 0.7071 0.0000 0.3536 (  7564 PWs)   bands (ev):

    -4.7619  -4.5444  -4.4456  -4.3625  -2.8454  -2.7765  -2.6878  -2.5126
    -0.5841  -0.5416  -0.3589  -0.2290   1.5936   1.6307   1.7457   1.7996
     1.8797   1.9380   2.1151   2.1248   3.1535   3.2753   3.3302   3.4500
     3.4793   3.5932   3.7401   3.7629   4.6149   4.6505   4.8621   4.9859
     8.3344   8.3434   8.4995   8.5906   8.6922   8.8197

     occupation numbers 
     1.0000   1.0000   1.0000   1.0000   1.0000   1.0000   1.0000   1.0000
     1.0000   1.0000   1.0000   1.0000   1.0000   1.0000   1.0000   1.0000
     1.0000   1.0000   1.0000   1.0000   1.0000   1.0000   1.0000   1.0000
     1.0000   1.0000   1.0000   1.0000   1.0000   1.0000   1.0000   1.0000
     0.0000   0.0000   0.0000   0.0000   0.0000   0.0000

     the Fermi energy is     6.4159 ev

!    total energy              =    -152.88405795 Ry
     Harris-Foulkes estimate   =    -152.88405795 Ry
     estimated scf accuracy    <          2.3E-10 Ry

     The total energy is the sum of the following terms:

     one-electron contribution =      41.03069782 Ry
     hartree contribution      =       8.66162570 Ry
     xc contribution           =     -68.15656477 Ry
     ewald contribution        =    -134.41901066 Ry
     smearing contrib. (-TS)   =      -0.00080604 Ry

     convergence has been achieved in  12 iterations

     Forces acting on atoms (Ry/au):

     atom    1 type  1   force =  -0.33972759E-02 -0.81159256E-02  0.38679976E-01
     atom    2 type  1   force =  -0.19728856E-01  0.27053665E-01  0.11324944E-02
     atom    3 type  1   force =  -0.14380086E-01  0.16360087E-01 -0.42336164E-01
     atom    4 type  1   force =   0.35895840E-01 -0.23837382E-01  0.27818435E-01
     atom    5 type  1   force =   0.20427756E-02 -0.19645707E-01 -0.34289472E-02
     atom    6 type  1   force =   0.37134457E-01  0.37651529E-01 -0.34075228E-02
     atom    7 type  1   force =  -0.55971812E-01  0.82694729E-02 -0.37901687E-01
     atom    8 type  1   force =   0.77401673E-02 -0.15793524E-01  0.54603937E-01
     atom    9 type  1   force =  -0.19361011E-01  0.28716752E-01 -0.28352736E-01
     atom   10 type  1   force =   0.49533371E-01  0.52740095E-02 -0.19735039E-01
     atom   11 type  1   force =  -0.53525786E-01 -0.25807663E-02 -0.32530062E-01
     atom   12 type  1   force =  -0.12336596E-01  0.20376020E-02  0.26334072E-01
     atom   13 type  1   force =  -0.12973995E-01  0.70549880E-02  0.72415186E-02
     atom   14 type  1   force =  -0.45712442E-03 -0.62174274E-01  0.39040862E-01
     atom   15 type  1   force =   0.55167285E-01  0.39764903E-01 -0.26276931E-01
     atom   16 type  1   force =   0.46186463E-02 -0.40035430E-01 -0.88220616E-03
     The non-local contrib.  to forces
     atom    1 type  1   force =   0.87741670E-02  0.11008422E-01  0.32877265E-01
     atom    2 type  1   force =  -0.33504870E-01  0.14365445E-01 -0.13528728E-01
     atom    3 type  1   force =  -0.24182614E-01  0.39265773E-02 -0.37391791E-01
     atom    4 type  1   force =   0.37983220E-01 -0.16601684E-01  0.19389781E-01
     atom    5 type  1   force =   0.66478722E-02 -0.16295209E-01  0.20887751E-02
     atom    6 type  1   force =   0.21818346E-01  0.36554891E-01 -0.10613668E-01
     atom    7 type  1   force =  -0.76320144E-01 -0.38154251E-02 -0.15079427E-01
     atom    8 type  1   force =   0.26008590E-01  0.60364595E-02  0.53513760E-01
     atom    9 type  1   force =  -0.18241575E-01  0.27216816E-01 -0.47170963E-01
     atom   10 type  1   force =   0.40175580E-01  0.14048902E-01 -0.19901574E-01
     atom   11 type  1   force =  -0.59354896E-01 -0.17170813E-01 -0.12471855E-01
     atom   12 type  1   force =  -0.81487858E-02  0.23227035E-01  0.19748729E-01
     atom   13 type  1   force =   0.81466507E-02  0.58702692E-02 -0.28274689E-02
     atom   14 type  1   force =  -0.42355992E-02 -0.68386143E-01  0.51755485E-01
     atom   15 type  1   force =   0.67279227E-01  0.27321398E-01 -0.13817476E-01
     atom   16 type  1   force =   0.46047576E-02 -0.47017960E-01 -0.15779314E-01
     The ionic contribution  to forces
     atom    1 type  1   force =  -0.10798233E+00  0.48701047E-01  0.16939222E-02
     atom    2 type  1   force =  -0.16699724E+00  0.47213161E-01 -0.20723909E+00
     atom    3 type  1   force =  -0.58690336E-01  0.11064587E+00 -0.26816337E-01
     atom    4 type  1   force =   0.65808015E-01 -0.13830069E-01  0.12246306E+00
     atom    5 type  1   force =  -0.28978855E-02 -0.10371532E+00  0.85416343E-02
     atom    6 type  1   force =  -0.13601270E-01  0.20350334E+00 -0.73018423E-01
     atom    7 type  1   force =  -0.20656898E+00 -0.60968633E-02 -0.21263790E-01
     atom    8 type  1   force =   0.10977407E+00 -0.39050063E-01  0.24859177E+00
     atom    9 type  1   force =  -0.43115106E-01  0.95820523E-01 -0.33462709E+00
     atom   10 type  1   force =   0.29017443E-01  0.22011599E-02 -0.15403915E+00
     atom   11 type  1   force =  -0.18080437E+00 -0.93940582E-01  0.26526199E-01
     atom   12 type  1   force =   0.38102179E-01  0.18401011E+00  0.24349900E-01
     atom   13 type  1   force =   0.16188830E-01 -0.19016472E-01  0.60383375E-01
     atom   14 type  1   force =   0.98754984E-01 -0.26731341E+00  0.15338646E+00
     atom   15 type  1   force =   0.33469267E+00  0.42188115E-01  0.11435783E+00
     atom   16 type  1   force =   0.88319333E-01 -0.19132054E+00  0.56709727E-01
     The local contribution  to forces
     atom    1 type  1   force =   0.95933084E-01 -0.66623181E-01  0.64316807E-02
     atom    2 type  1   force =   0.17757105E+00 -0.33903842E-01  0.21972883E+00
     atom    3 type  1   force =   0.66464012E-01 -0.97814877E-01  0.18756327E-01
     atom    4 type  1   force =  -0.64203664E-01  0.54364557E-02 -0.11199567E+00
     atom    5 type  1   force =  -0.13111582E-02  0.98776797E-01 -0.14102671E-01
     atom    6 type  1   force =   0.30120805E-01 -0.19877068E+00  0.78823150E-01
     atom    7 type  1   force =   0.21977440E+00  0.17883061E-01 -0.26345200E-02
     atom    8 type  1   force =  -0.12526556E+00  0.17949296E-01 -0.24232222E+00
     atom    9 type  1   force =   0.40527925E-01 -0.92103905E-01  0.34812347E+00
     atom   10 type  1   force =  -0.16480917E-01 -0.99692785E-02  0.15232506E+00
     atom   11 type  1   force =   0.18130697E+00  0.10677378E+00 -0.46630631E-01
     atom   12 type  1   force =  -0.42428499E-01 -0.20254784E+00 -0.15804525E-01
     atom   13 type  1   force =  -0.36654875E-01  0.20856809E-01 -0.50462187E-01
     atom   14 type  1   force =  -0.95354021E-01  0.26727176E+00 -0.16136060E+00
     atom   15 type  1   force =  -0.34025772E+00 -0.27161388E-01 -0.12766782E+00
     atom   16 type  1   force =  -0.87426811E-01  0.19380933E+00 -0.42848925E-01
     The core correction contribution to forces
     atom    1 type  1   force =  -0.12503250E-03 -0.12015439E-02 -0.23231267E-02
     atom    2 type  1   force =   0.32019142E-02 -0.61924497E-03  0.21701597E-02
     atom    3 type  1   force =   0.20294075E-02 -0.39509564E-03  0.31151500E-02
     atom    4 type  1   force =  -0.36944784E-02  0.11582651E-02 -0.20364990E-02
     atom    5 type  1   force =  -0.39427189E-03  0.15868391E-02  0.45781455E-04
     atom    6 type  1   force =  -0.12026192E-02 -0.36344182E-02  0.14010175E-02
     atom    7 type  1   force =   0.71409511E-02  0.29816837E-03  0.10760629E-02
     atom    8 type  1   force =  -0.27775764E-02 -0.72897671E-03 -0.51767250E-02
     atom    9 type  1   force =   0.14654991E-02 -0.22155376E-02  0.53208487E-02
     atom   10 type  1   force =  -0.31770641E-02 -0.10052208E-02  0.18775773E-02
     atom   11 type  1   force =   0.53268385E-02  0.17564416E-02  0.43406174E-04
     atom   12 type  1   force =   0.13717189E-03 -0.26531445E-02 -0.19603753E-02
     atom   13 type  1   force =  -0.65286494E-03 -0.65782238E-03  0.14798199E-03
     atom   14 type  1   force =   0.37964759E-03  0.62532307E-02 -0.47405218E-02
     atom   15 type  1   force =  -0.65444206E-02 -0.25833287E-02  0.85124449E-03
     atom   16 type  1   force =  -0.87879738E-03  0.44901386E-02  0.10368470E-02
     The Hubbard contrib.    to forces
     atom    1 type  1   force =   0.00000000E+00  0.00000000E+00  0.00000000E+00
     atom    2 type  1   force =   0.00000000E+00  0.00000000E+00  0.00000000E+00
     atom    3 type  1   force =   0.00000000E+00  0.00000000E+00  0.00000000E+00
     atom    4 type  1   force =   0.00000000E+00  0.00000000E+00  0.00000000E+00
     atom    5 type  1   force =   0.00000000E+00  0.00000000E+00  0.00000000E+00
     atom    6 type  1   force =   0.00000000E+00  0.00000000E+00  0.00000000E+00
     atom    7 type  1   force =   0.00000000E+00  0.00000000E+00  0.00000000E+00
     atom    8 type  1   force =   0.00000000E+00  0.00000000E+00  0.00000000E+00
     atom    9 type  1   force =   0.00000000E+00  0.00000000E+00  0.00000000E+00
     atom   10 type  1   force =   0.00000000E+00  0.00000000E+00  0.00000000E+00
     atom   11 type  1   force =   0.00000000E+00  0.00000000E+00  0.00000000E+00
     atom   12 type  1   force =   0.00000000E+00  0.00000000E+00  0.00000000E+00
     atom   13 type  1   force =   0.00000000E+00  0.00000000E+00  0.00000000E+00
     atom   14 type  1   force =   0.00000000E+00  0.00000000E+00  0.00000000E+00
     atom   15 type  1   force =   0.00000000E+00  0.00000000E+00  0.00000000E+00
     atom   16 type  1   force =   0.00000000E+00  0.00000000E+00  0.00000000E+00
     The SCF correction term to forces
     atom    1 type  1   force =   0.28073691E-05 -0.63721070E-06  0.22229095E-06
     atom    2 type  1   force =   0.26050162E-06 -0.18218160E-05  0.13170983E-05
     atom    3 type  1   force =  -0.58772426E-06 -0.23556234E-05  0.47452283E-06
     atom    4 type  1   force =   0.27158392E-05 -0.31804757E-06 -0.22469408E-05
     atom    5 type  1   force =  -0.18129534E-05  0.12214347E-05 -0.24797602E-05
     atom    6 type  1   force =  -0.83576180E-06 -0.15659221E-05  0.38794282E-06
     atom    7 type  1   force =   0.19255286E-05  0.56460535E-06 -0.25691945E-07
     atom    8 type  1   force =   0.61671876E-06 -0.20641791E-06 -0.26592433E-05
     atom    9 type  1   force =   0.22138319E-05 -0.11110952E-05  0.98151228E-06
     atom   10 type  1   force =  -0.17030280E-05 -0.15197656E-05  0.30362730E-05
     atom   11 type  1   force =  -0.36445543E-06  0.43615221E-06  0.28064397E-05
     atom   12 type  1   force =   0.13056271E-05  0.14816833E-05  0.33049404E-06
     atom   13 type  1   force =  -0.17682442E-05  0.22367178E-05 -0.19438100E-06
     atom   14 type  1   force =  -0.21676408E-05  0.32419292E-06  0.22651860E-07
     atom   15 type  1   force =  -0.25065866E-05  0.13970436E-06 -0.72107120E-06
     atom   16 type  1   force =   0.13253616E-06  0.36424551E-05 -0.55411269E-06

     Total force =     0.202452     Total SCF correction =     0.000011


     entering subroutine stress ...

          total   stress  (Ry/bohr**3)                   (kbar)     P=   -0.97
  -0.0000123468   0.0000687573  -0.0000413764         -1.82     10.11     -6.09
   0.0000687573   0.0000083358   0.0000656068         10.11      1.23      9.65
  -0.0000413764   0.0000656068  -0.0000158598         -6.09      9.65     -2.33

     kinetic stress (kbar)   2186.00    -10.05      4.57
                              -10.05   2187.07     -9.10
                                4.57     -9.10   2184.10

     local   stress (kbar)   -274.09   -108.59     52.52
                             -108.59   -285.31   -107.69
                               52.52   -107.69   -285.07

     nonloc. stress (kbar)   1938.20     10.35     -6.04
                               10.35   1938.37     11.64
                               -6.04     11.64   1940.59

     hartree stress (kbar)    195.69     14.37     -6.12
                               14.37    197.95     13.41
                               -6.12     13.41    195.52

     exc-cor stress (kbar)    994.93      0.14     -0.07
                                0.14    994.94      0.15
                               -0.07      0.15    994.95

     corecor stress (kbar)  -1987.75     -1.24      0.72
                               -1.24  -1987.78     -1.39
                                0.72     -1.39  -1988.04

     ewald   stress (kbar)  -3054.78    105.12    -51.68
                              105.12  -3044.02    102.64
                              -51.68    102.64  -3044.38

     hubbard stress (kbar)      0.00      0.00      0.00
                                0.00      0.00      0.00
                                0.00      0.00      0.00

     london  stress (kbar)      0.00      0.00      0.00
                                0.00      0.00      0.00
                                0.00      0.00      0.00

     XDM     stress (kbar)      0.00      0.00      0.00
                                0.00      0.00      0.00
                                0.00      0.00      0.00

     dft-nl  stress (kbar)      0.00      0.00      0.00
                                0.00      0.00      0.00
                                0.00      0.00      0.00



     Writing output data file Si_diamond.scf.in.super.222.replace1849.save

     init_run     :      8.14s CPU      8.01s WALL (       1 calls)
     electrons    :    246.09s CPU    234.92s WALL (       1 calls)
     forces       :      3.73s CPU      2.99s WALL (       1 calls)
     stress       :      4.82s CPU      4.75s WALL (       1 calls)

     Called by init_run:
     wfcinit      :      7.72s CPU      7.55s WALL (       1 calls)
     potinit      :      0.07s CPU      0.08s WALL (       1 calls)

     Called by electrons:
     c_bands      :    212.45s CPU    202.47s WALL (      13 calls)
     sum_band     :     30.58s CPU     29.31s WALL (      13 calls)
     v_of_rho     :      0.52s CPU      0.55s WALL (      13 calls)
     v_h          :      0.02s CPU      0.03s WALL (      13 calls)
     v_xc         :      0.58s CPU      0.60s WALL (      15 calls)
     newd         :      2.28s CPU      2.32s WALL (      13 calls)
     mix_rho      :      0.38s CPU      0.40s WALL (      13 calls)

     Called by c_bands:
     init_us_2    :      2.85s CPU      3.03s WALL (    1044 calls)
     cegterg      :    203.48s CPU    193.25s WALL (     468 calls)

     Called by sum_band:
     sum_band:bec :      0.45s CPU      0.41s WALL (     468 calls)
     addusdens    :      2.77s CPU      3.24s WALL (      13 calls)

     Called by *egterg:
     h_psi        :    127.80s CPU    126.26s WALL (    1966 calls)
     s_psi        :     18.74s CPU     13.34s WALL (    1966 calls)
     g_psi        :      0.24s CPU      0.23s WALL (    1462 calls)
     cdiaghg      :     21.65s CPU     22.00s WALL (    1894 calls)
     cegterg:over :     18.43s CPU     17.04s WALL (    1462 calls)
     cegterg:upda :      6.95s CPU      5.22s WALL (    1462 calls)
     cegterg:last :      4.10s CPU      2.95s WALL (     503 calls)

     Called by h_psi:
     h_psi:vloc   :     78.50s CPU     88.50s WALL (    1966 calls)
     h_psi:vnl    :     49.16s CPU     37.61s WALL (    1966 calls)
     add_vuspsi   :     21.22s CPU     14.78s WALL (    1966 calls)

     General routines
     calbec       :     39.36s CPU     32.00s WALL (    2506 calls)
     fft          :      0.63s CPU      1.14s WALL (     233 calls)
     ffts         :      0.28s CPU      0.29s WALL (     223 calls)
     fftw         :     89.33s CPU     99.11s WALL (  111772 calls)
     interpolate  :      0.11s CPU      0.12s WALL (      26 calls)

     Parallel routines
     fft_scatter  :     47.99s CPU     54.26s WALL (  112228 calls)

     PWSCF        :  4m23.88s CPU     4m12.32s WALL


   This run was terminated on:  11: 9: 8  14Mar2018            

=------------------------------------------------------------------------------=
   JOB DONE.
=------------------------------------------------------------------------------=
