       N       E                     dE             d eps       ncg     rms          rms(c)
DAV:   1     0.415762777750E+03    0.41576E+03   -0.65306E+04  4032   0.903E+02
DAV:   2    -0.256186424494E+03   -0.67195E+03   -0.63933E+03  4928   0.155E+02
DAV:   3    -0.296316059607E+03   -0.40130E+02   -0.39603E+02  5024   0.354E+01
DAV:   4    -0.297195372411E+03   -0.87931E+00   -0.87505E+00  5120   0.645E+00
DAV:   5    -0.297213897511E+03   -0.18525E-01   -0.18507E-01  4992   0.926E-01    0.254E+01
DAV:   6    -0.293847800608E+03    0.33661E+01   -0.18817E+00  4720   0.230E+00    0.156E+01
DAV:   7    -0.292335419537E+03    0.15124E+01   -0.40526E+00  4800   0.348E+00    0.938E-01
DAV:   8    -0.292354833844E+03   -0.19414E-01   -0.23040E-01  4704   0.956E-01    0.413E-01
DAV:   9    -0.292361239549E+03   -0.64057E-02   -0.10931E-02  5024   0.230E-01    0.302E-01
DAV:  10    -0.292362557896E+03   -0.13183E-02   -0.16510E-03  4560   0.775E-02    0.110E-01
DAV:  11    -0.292363000758E+03   -0.44286E-03   -0.58082E-04  4512   0.531E-02    0.379E-02
DAV:  12    -0.292363010307E+03   -0.95492E-05   -0.21194E-05  5216   0.923E-03    0.225E-02
DAV:  13    -0.292363013832E+03   -0.35248E-05   -0.12766E-05  4528   0.776E-03    0.483E-03
DAV:  14    -0.292363012800E+03    0.10322E-05   -0.76545E-07  5056   0.179E-03    0.203E-03
DAV:  15    -0.292363013061E+03   -0.26115E-06   -0.17332E-07  3456   0.101E-03    0.903E-04
DAV:  16    -0.292363013076E+03   -0.15094E-07   -0.17911E-08  2688   0.320E-04
   1 F= -.29236301E+03 E0= -.29236301E+03  d E =-.200011E-13
